<event>
 5    1  0.1068111E-008  0.3853982E+03  0.7957747E-01  0.3427985E+00
         13   -1    0    0    0    0  0.00000000000E+00  0.00000000000E+00  0.14999999963E+04  0.15000000000E+04  0.10566000000E+00 0.  1.
        994   -1    0    0    0    0 -0.00000000000E+00 -0.00000000000E+00  0.11368683772E-12  0.17120000000E+03  0.17120000000E+03 0.  0.
         13    1    1    2    0    0  0.46293841449E+02  0.23901100932E+02  0.60599953826E+02  0.79917131766E+02  0.10566000000E+00 0.  1.
        994    1    1    2    0    0 -0.49967136048E+02 -0.21098473881E+02  0.30281872543E+02  0.18212164092E+03  0.17120000000E+03 0.  0.
        998    1    1    2    0    0  0.36732945991E+01 -0.28026270515E+01  0.14091181699E+04  0.14091612273E+04  0.10000000000E+02 0.  1.
</event>
<event>
 5    1  0.1068111E-008  0.3779582E+03  0.7957747E-01  0.3460097E+00
         13   -1    0    0    0    0  0.00000000000E+00  0.00000000000E+00  0.14999999963E+04  0.15000000000E+04  0.10566000000E+00 0.  1.
        994   -1    0    0    0    0 -0.00000000000E+00 -0.00000000000E+00  0.11368683772E-12  0.17120000000E+03  0.17120000000E+03 0.  0.
         13    1    1    2    0    0 -0.94393215897E+01  0.17135695095E+02  0.35176160197E+02  0.40250543458E+02  0.10566000000E+00 0.  1.
        994    1    1    2    0    0  0.10375833569E+02 -0.70591566831E+01  0.56976106783E+01  0.17175387152E+03  0.17120000000E+03 0.  0.
        998    1    1    2    0    0 -0.93651197931E+00 -0.10076538411E+02  0.14591262254E+04  0.14591955850E+04  0.10000000000E+02 0.  1.
</event>
<event>
 5    1  0.1068111E-008  0.3817451E+03  0.7957747E-01  0.3443595E+00
         13   -1    0    0    0    0  0.00000000000E+00  0.00000000000E+00  0.14999999963E+04  0.15000000000E+04  0.10566000000E+00 0. -1.
        994   -1    0    0    0    0 -0.00000000000E+00 -0.00000000000E+00  0.11368683772E-12  0.17120000000E+03  0.17120000000E+03 0.  0.
         13    1    1    2    0    0  0.99734870431E+01 -0.10602411902E+02  0.30702660972E+02  0.33978612931E+02  0.10566000000E+00 0. -1.
        994    1    1    2    0    0 -0.13725397221E+02  0.90151104359E+01  0.41515899225E+01  0.17203585221E+03  0.17120000000E+03 0.  0.
        998    1    1    2    0    0  0.37519101783E+01  0.15873014664E+01  0.14651457454E+04  0.14651855349E+04  0.10000000000E+02 0. -1.
</event>
<event>
 5    1  0.1068111E-008  0.3830837E+03  0.7957747E-01  0.3437840E+00
         13   -1    0    0    0    0  0.00000000000E+00  0.00000000000E+00  0.14999999963E+04  0.15000000000E+04  0.10566000000E+00 0.  1.
        994   -1    0    0    0    0 -0.00000000000E+00 -0.00000000000E+00  0.11368683772E-12  0.17120000000E+03  0.17120000000E+03 0.  0.
         13    1    1    2    0    0 -0.81379740496E+01 -0.17721662498E+02  0.74919657894E+02  0.77416085191E+02  0.10566000000E+00 0.  1.
        994    1    1    2    0    0  0.72181974086E+01  0.48058345963E+01  0.28334158882E+01  0.17144289622E+03  0.17120000000E+03 0.  0.
        998    1    1    2    0    0  0.91977664102E+00  0.12915827901E+02  0.14222469225E+04  0.14223410186E+04  0.10000000000E+02 0.  1.
</event>
<event>
 5    1  0.1068111E-008  0.3820145E+03  0.7957747E-01  0.3442433E+00
         13   -1    0    0    0    0  0.00000000000E+00  0.00000000000E+00  0.14999999963E+04  0.15000000000E+04  0.10566000000E+00 0.  1.
        994   -1    0    0    0    0 -0.00000000000E+00 -0.00000000000E+00  0.11368683772E-12  0.17120000000E+03  0.17120000000E+03 0.  0.
         13    1    1    2    0    0  0.99810923279E+01  0.43181634058E+02  0.26649796857E+03  0.27015820206E+03  0.10566000000E+00 0.  1.
        994    1    1    2    0    0 -0.76317314090E+01 -0.41674657700E+02  0.91036130380E+01  0.17659936633E+03  0.17120000000E+03 0.  0.
        998    1    1    2    0    0 -0.23493609189E+01 -0.15069763574E+01  0.12243984147E+04  0.12244424316E+04  0.10000000000E+02 0.  1.
</event>
<event>
 5    1  0.1068111E-008  0.3858143E+03  0.7957747E-01  0.3426226E+00
         13   -1    0    0    0    0  0.00000000000E+00  0.00000000000E+00  0.14999999963E+04  0.15000000000E+04  0.10566000000E+00 0. -1.
        994   -1    0    0    0    0 -0.00000000000E+00 -0.00000000000E+00  0.11368683772E-12  0.17120000000E+03  0.17120000000E+03 0.  0.
         13    1    1    2    0    0 -0.59663101348E+01  0.11541993483E+02  0.70076572024E+02  0.71270972919E+02  0.10566000000E+00 0. -1.
        994    1    1    2    0    0  0.39592790087E+01 -0.62757283394E+01  0.14070237077E+01  0.17136650890E+03  0.17120000000E+03 0.  0.
        998    1    1    2    0    0  0.20070311261E+01 -0.52662651436E+01  0.14285164005E+04  0.14285625182E+04  0.10000000000E+02 0. -1.
</event>
<event>
 5    1  0.1068111E-008  0.3772378E+03  0.7957747E-01  0.3463274E+00
         13   -1    0    0    0    0  0.00000000000E+00  0.00000000000E+00  0.14999999963E+04  0.15000000000E+04  0.10566000000E+00 0.  1.
        994   -1    0    0    0    0 -0.00000000000E+00 -0.00000000000E+00  0.11368683772E-12  0.17120000000E+03  0.17120000000E+03 0.  0.
         13    1    1    2    0    0 -0.25296292654E+02  0.38100560482E+02  0.62784162999E+02  0.77675075916E+02  0.10566000000E+00 0.  1.
        994    1    1    2    0    0  0.22576457176E+02 -0.39034524236E+02  0.22148267567E+02  0.17841910284E+03  0.17120000000E+03 0.  0.
        998    1    1    2    0    0  0.27198354781E+01  0.93396375337E+00  0.14150675657E+04  0.14151058212E+04  0.10000000000E+02 0.  1.
</event>
<event>
 5    1  0.1068111E-008  0.3771756E+03  0.7957747E-01  0.3463549E+00
         13   -1    0    0    0    0  0.00000000000E+00  0.00000000000E+00  0.14999999963E+04  0.15000000000E+04  0.10566000000E+00 0. -1.
        994   -1    0    0    0    0 -0.00000000000E+00 -0.00000000000E+00  0.11368683772E-12  0.17120000000E+03  0.17120000000E+03 0.  0.
         13    1    1    2    0    0  0.61392940372E+01  0.17120667612E+02  0.26915480304E+02  0.32484803136E+02  0.10566000000E+00 0. -1.
        994    1    1    2    0    0 -0.23893824554E+01 -0.19613470344E+02  0.68841860341E+01  0.17247385131E+03  0.17120000000E+03 0.  0.
        998    1    1    2    0    0 -0.37499115818E+01  0.24928027321E+01  0.14662003299E+04  0.14662413456E+04  0.10000000000E+02 0. -1.
</event>
<event>
 5    1  0.1068111E-008  0.3058547E+03  0.7957747E-01  0.3855088E+00
         13   -1    0    0    0    0  0.00000000000E+00  0.00000000000E+00  0.14999999963E+04  0.15000000000E+04  0.10566000000E+00 0. -1.
        994   -1    0    0    0    0 -0.00000000000E+00 -0.00000000000E+00  0.11368683772E-12  0.17120000000E+03  0.17120000000E+03 0.  0.
         13    1    1    2    0    0 -0.14140911353E+03 -0.13649873083E+03  0.76098250275E+03  0.78595344745E+03  0.10566000000E+00 0. -1.
        994    1    1    2    0    0  0.71823928317E+02  0.12573394355E+03  0.10559785957E+03  0.24784682605E+03  0.17120000000E+03 0.  0.
        998    1    1    2    0    0  0.69585185214E+02  0.10764787283E+02  0.63341963396E+03  0.63739972649E+03  0.10000000000E+02 0. -1.
</event>
<event>
 5    1  0.1068111E-008  0.3813356E+03  0.7957747E-01  0.3445363E+00
         13   -1    0    0    0    0  0.00000000000E+00  0.00000000000E+00  0.14999999963E+04  0.15000000000E+04  0.10566000000E+00 0. -1.
        994   -1    0    0    0    0 -0.00000000000E+00 -0.00000000000E+00  0.11368683772E-12  0.17120000000E+03  0.17120000000E+03 0.  0.
         13    1    1    2    0    0  0.10915028206E+02  0.17088367364E+02  0.55536255844E+02  0.59122221009E+02  0.10566000000E+00 0. -1.
        994    1    1    2    0    0 -0.18250466721E+02 -0.17132651769E+02  0.55487241871E+01  0.17310931700E+03  0.17120000000E+03 0.  0.
        998    1    1    2    0    0  0.73354385143E+01  0.44284405070E-01  0.14389150162E+04  0.14389684620E+04  0.10000000000E+02 0. -1.
</event>
<event>
 5    1  0.1068111E-008  0.3821579E+03  0.7957747E-01  0.3441816E+00
         13   -1    0    0    0    0  0.00000000000E+00  0.00000000000E+00  0.14999999963E+04  0.15000000000E+04  0.10566000000E+00 0. -1.
        994   -1    0    0    0    0 -0.00000000000E+00 -0.00000000000E+00  0.11368683772E-12  0.17120000000E+03  0.17120000000E+03 0.  0.
         13    1    1    2    0    0  0.13255116834E+02 -0.34638623938E+02  0.31459530394E+02  0.48633790797E+02  0.10566000000E+00 0. -1.
        994    1    1    2    0    0 -0.14884321999E+02  0.36629280939E+02  0.23248819513E+02  0.17723767904E+03  0.17120000000E+03 0.  0.
        998    1    1    2    0    0  0.16292051650E+01 -0.19906570005E+01  0.14452916464E+04  0.14453285302E+04  0.10000000000E+02 0. -1.
</event>
<event>
 5    1  0.1068111E-008  0.3758570E+03  0.7957747E-01  0.3469399E+00
         13   -1    0    0    0    0  0.00000000000E+00  0.00000000000E+00  0.14999999963E+04  0.15000000000E+04  0.10566000000E+00 0. -1.
        994   -1    0    0    0    0 -0.00000000000E+00 -0.00000000000E+00  0.11368683772E-12  0.17120000000E+03  0.17120000000E+03 0.  0.
         13    1    1    2    0    0 -0.11915362694E+02  0.14534981372E+01  0.87181877361E+01  0.14835986196E+02  0.10566000000E+00 0. -1.
        994    1    1    2    0    0  0.88928198290E+01 -0.21539183430E+01  0.65231015530E+01  0.17156839004E+03  0.17120000000E+03 0.  0.
        998    1    1    2    0    0  0.30225428648E+01  0.70042020582E+00  0.14847587070E+04  0.14847956238E+04  0.10000000000E+02 0. -1.
</event>
<event>
 5    1  0.1068111E-008  0.3829860E+03  0.7957747E-01  0.3438259E+00
         13   -1    0    0    0    0  0.00000000000E+00  0.00000000000E+00  0.14999999963E+04  0.15000000000E+04  0.10566000000E+00 0. -1.
        994   -1    0    0    0    0 -0.00000000000E+00 -0.00000000000E+00  0.11368683772E-12  0.17120000000E+03  0.17120000000E+03 0.  0.
         13    1    1    2    0    0 -0.28126833635E+00 -0.10528352055E+02  0.19788632111E+02  0.22417101367E+02  0.10566000000E+00 0. -1.
        994    1    1    2    0    0  0.17250476222E+01  0.12106703559E+02  0.31285845383E+01  0.17166472003E+03  0.17120000000E+03 0.  0.
        998    1    1    2    0    0 -0.14437792859E+01 -0.15783515039E+01  0.14770827796E+04  0.14771181786E+04  0.10000000000E+02 0. -1.
</event>
<event>
 5    1  0.1068111E-008  0.3761610E+03  0.7957747E-01  0.3468047E+00
         13   -1    0    0    0    0  0.00000000000E+00  0.00000000000E+00  0.14999999963E+04  0.15000000000E+04  0.10566000000E+00 0.  1.
        994   -1    0    0    0    0 -0.00000000000E+00 -0.00000000000E+00  0.11368683772E-12  0.17120000000E+03  0.17120000000E+03 0.  0.
         13    1    1    2    0    0 -0.59303347049E+01 -0.10082284518E+02  0.85016811765E+01  0.14460673486E+02  0.10566000000E+00 0.  1.
        994    1    1    2    0    0  0.42379547299E+01  0.66979716263E+01  0.62964787109E+01  0.17149900504E+03  0.17120000000E+03 0.  0.
        998    1    1    2    0    0  0.16923799750E+01  0.33843128913E+01  0.14852018364E+04  0.14852403215E+04  0.10000000000E+02 0.  1.
</event>
<event>
 5    1  0.1068111E-008  0.3737424E+03  0.7957747E-01  0.3478866E+00
         13   -1    0    0    0    0  0.00000000000E+00  0.00000000000E+00  0.14999999963E+04  0.15000000000E+04  0.10566000000E+00 0.  1.
        994   -1    0    0    0    0 -0.00000000000E+00 -0.00000000000E+00  0.11368683772E-12  0.17120000000E+03  0.17120000000E+03 0.  0.
         13    1    1    2    0    0 -0.28515813268E+02 -0.43011104798E+02  0.17773566958E+03  0.18507589294E+03  0.10566000000E+00 0.  1.
        994    1    1    2    0    0 -0.13892075298E+02  0.48959280818E+02  0.16219435537E+02  0.17933909508E+03  0.17120000000E+03 0.  0.
        998    1    1    2    0    0  0.42407888567E+02 -0.59481760205E+01  0.13060448912E+04  0.13067850120E+04  0.10000000000E+02 0. -1.
</event>
<event>
 5    1  0.1068111E-008  0.4281816E+03  0.7957747E-01  0.3264923E+00
         13   -1    0    0    0    0  0.00000000000E+00  0.00000000000E+00  0.14999999963E+04  0.15000000000E+04  0.10566000000E+00 0. -1.
        994   -1    0    0    0    0 -0.00000000000E+00 -0.00000000000E+00  0.11368683772E-12  0.17120000000E+03  0.17120000000E+03 0.  0.
         13    1    1    2    0    0 -0.63640153693E+02 -0.14572523703E+02  0.29403808776E+02  0.71603231377E+02  0.10566000000E+00 0. -1.
        994    1    1    2    0    0  0.76734313145E+02 -0.21713253487E+02  0.74647812074E+02  0.20307967904E+03  0.17120000000E+03 0.  0.
        998    1    1    2    0    0 -0.13094159453E+02  0.36285777189E+02  0.13959483754E+04  0.13965170896E+04  0.10000000000E+02 0. -1.
</event>
<event>
 5    1  0.1068111E-008  0.3816798E+03  0.7957747E-01  0.3443877E+00
         13   -1    0    0    0    0  0.00000000000E+00  0.00000000000E+00  0.14999999963E+04  0.15000000000E+04  0.10566000000E+00 0.  1.
        994   -1    0    0    0    0 -0.00000000000E+00 -0.00000000000E+00  0.11368683772E-12  0.17120000000E+03  0.17120000000E+03 0.  0.
         13    1    1    2    0    0  0.17496502798E+02 -0.19855593423E+02  0.11945768369E+03  0.12235408271E+03  0.10566000000E+00 0.  1.
        994    1    1    2    0    0 -0.41760601773E+01 -0.83336296969E+01  0.35765011399E+01  0.17149087504E+03  0.17120000000E+03 0.  0.
        998    1    1    2    0    0 -0.13320442621E+02  0.28189223120E+02  0.13769658115E+04  0.13773550422E+04  0.10000000000E+02 0.  1.
</event>
<event>
 5    1  0.1068111E-008  0.3847743E+03  0.7957747E-01  0.3430630E+00
         13   -1    0    0    0    0  0.00000000000E+00  0.00000000000E+00  0.14999999963E+04  0.15000000000E+04  0.10566000000E+00 0. -1.
        994   -1    0    0    0    0 -0.00000000000E+00 -0.00000000000E+00  0.11368683772E-12  0.17120000000E+03  0.17120000000E+03 0.  0.
         13    1    1    2    0    0 -0.32460017307E+01  0.11440881414E+02  0.39397284416E+02  0.41153219536E+02  0.10566000000E+00 0. -1.
        994    1    1    2    0    0 -0.30627832751E+00 -0.13648241701E+02  0.23558099544E+01  0.17175959405E+03  0.17120000000E+03 0.  0.
        998    1    1    2    0    0  0.35522800582E+01  0.22073602879E+01  0.14582469019E+04  0.14582871864E+04  0.10000000000E+02 0. -1.
</event>
<event>
 5    1  0.1068111E-008  0.3790523E+03  0.7957747E-01  0.3455295E+00
         13   -1    0    0    0    0  0.00000000000E+00  0.00000000000E+00  0.14999999963E+04  0.15000000000E+04  0.10566000000E+00 0.  1.
        994   -1    0    0    0    0 -0.00000000000E+00 -0.00000000000E+00  0.11368683772E-12  0.17120000000E+03  0.17120000000E+03 0.  0.
         13    1    1    2    0    0 -0.16609201716E+02 -0.37608466499E+02  0.16286979096E+03  0.16797869599E+03  0.10566000000E+00 0.  1.
        994    1    1    2    0    0  0.19903479368E+02  0.36690421004E+02  0.10477341321E+02  0.17652634411E+03  0.17120000000E+03 0.  0.
        998    1    1    2    0    0 -0.32942776520E+01  0.91804549519E+00  0.13266528640E+04  0.13266949599E+04  0.10000000000E+02 0.  1.
</event>
<event>
 5    1  0.1068111E-008  0.3821867E+03  0.7957747E-01  0.3441692E+00
         13   -1    0    0    0    0  0.00000000000E+00  0.00000000000E+00  0.14999999963E+04  0.15000000000E+04  0.10566000000E+00 0. -1.
        994   -1    0    0    0    0 -0.00000000000E+00 -0.00000000000E+00  0.11368683772E-12  0.17120000000E+03  0.17120000000E+03 0.  0.
         13    1    1    2    0    0 -0.38721408158E+01 -0.27230630113E+02  0.10948530754E+03  0.11288730851E+03  0.10566000000E+00 0. -1.
        994    1    1    2    0    0  0.73676588220E+01  0.36188287960E+02  0.75732280779E+01  0.17530164964E+03  0.17120000000E+03 0.  0.
        998    1    1    2    0    0 -0.34955180062E+01 -0.89576578477E+01  0.13829414607E+04  0.13830110419E+04  0.10000000000E+02 0. -1.
</event>
<event>
 5    1  0.1068111E-008  0.3721119E+03  0.7957747E-01  0.3486241E+00
         13   -1    0    0    0    0  0.00000000000E+00  0.00000000000E+00  0.14999999963E+04  0.15000000000E+04  0.10566000000E+00 0. -1.
        994   -1    0    0    0    0 -0.00000000000E+00 -0.00000000000E+00  0.11368683772E-12  0.17120000000E+03  0.17120000000E+03 0.  0.
         13    1    1    2    0    0 -0.33817595905E+01 -0.14560269304E+02  0.37014345378E+01  0.15399659795E+02  0.10566000000E+00 0. -1.
        994    1    1    2    0    0  0.39252347986E+01  0.15909725116E+02  0.13006200986E+02  0.17247355764E+03  0.17120000000E+03 0.  0.
        998    1    1    2    0    0 -0.54347520809E+00 -0.13494558117E+01  0.14832923608E+04  0.14833267826E+04  0.10000000000E+02 0. -1.
</event>
<event>
 5    1  0.1068111E-008  0.3686282E+03  0.7957747E-01  0.3502219E+00
         13   -1    0    0    0    0  0.00000000000E+00  0.00000000000E+00  0.14999999963E+04  0.15000000000E+04  0.10566000000E+00 0.  1.
        994   -1    0    0    0    0 -0.00000000000E+00 -0.00000000000E+00  0.11368683772E-12  0.17120000000E+03  0.17120000000E+03 0.  0.
         13    1    1    2    0    0 -0.63602858893E+02 -0.11417170864E+01  0.21708953250E+03  0.22621782304E+03  0.10566000000E+00 0.  1.
        994    1    1    2    0    0  0.21494531829E+02  0.57439604129E+01  0.11709442099E+02  0.17303629392E+03  0.17120000000E+03 0.  0.
        998    1    1    2    0    0  0.42108327064E+02 -0.46022433265E+01  0.12712010217E+04  0.12719458830E+04  0.10000000000E+02 0.  1.
</event>
<event>
 5    1  0.1068111E-008  0.3789972E+03  0.7957747E-01  0.3455536E+00
         13   -1    0    0    0    0  0.00000000000E+00  0.00000000000E+00  0.14999999963E+04  0.15000000000E+04  0.10566000000E+00 0. -1.
        994   -1    0    0    0    0 -0.00000000000E+00 -0.00000000000E+00  0.11368683772E-12  0.17120000000E+03  0.17120000000E+03 0.  0.
         13    1    1    2    0    0  0.11956588780E+02  0.36682139569E+02  0.16254852593E+03  0.16706457980E+03  0.10566000000E+00 0. -1.
        994    1    1    2    0    0 -0.14427445698E+02 -0.15231034374E+02  0.61178146013E+01  0.17258911684E+03  0.17120000000E+03 0.  0.
        998    1    1    2    0    0  0.24708569179E+01 -0.21451105196E+02  0.13313336557E+04  0.13315463034E+04  0.10000000000E+02 0. -1.
</event>
<event>
 5    1  0.1068111E-008  0.4146080E+03  0.7957747E-01  0.3313053E+00
         13   -1    0    0    0    0  0.00000000000E+00  0.00000000000E+00  0.14999999963E+04  0.15000000000E+04  0.10566000000E+00 0. -1.
        994   -1    0    0    0    0 -0.00000000000E+00 -0.00000000000E+00  0.11368683772E-12  0.17120000000E+03  0.17120000000E+03 0.  0.
         13    1    1    2    0    0 -0.27723149074E+02 -0.69038248015E+02  0.61737456076E+02  0.96676663835E+02  0.10566000000E+00 0. -1.
        994    1    1    2    0    0  0.19413985118E+02  0.66786585226E+02  0.57258508837E+02  0.19345626797E+03  0.17120000000E+03 0.  0.
        998    1    1    2    0    0  0.83091639561E+01  0.22516627888E+01  0.13810040314E+04  0.13810670682E+04  0.10000000000E+02 0. -1.
</event>
<event>
 5    1  0.1068111E-008  0.3819931E+03  0.7957747E-01  0.3442526E+00
         13   -1    0    0    0    0  0.00000000000E+00  0.00000000000E+00  0.14999999963E+04  0.15000000000E+04  0.10566000000E+00 0.  1.
        994   -1    0    0    0    0 -0.00000000000E+00 -0.00000000000E+00  0.11368683772E-12  0.17120000000E+03  0.17120000000E+03 0.  0.
         13    1    1    2    0    0 -0.84436898978E+01 -0.70473426557E+01  0.17925753151E+02  0.21031042002E+02  0.10566000000E+00 0.  1.
        994    1    1    2    0    0  0.78647490885E+01  0.69329513673E+01  0.34955624254E+01  0.17155634366E+03  0.17120000000E+03 0.  0.
        998    1    1    2    0    0  0.57894080928E+00  0.11439128836E+00  0.14785786807E+04  0.14786126143E+04  0.10000000000E+02 0.  1.
</event>
<event>
 5    1  0.1068111E-008  0.3763487E+03  0.7957747E-01  0.3467213E+00
         13   -1    0    0    0    0  0.00000000000E+00  0.00000000000E+00  0.14999999963E+04  0.15000000000E+04  0.10566000000E+00 0.  1.
        994   -1    0    0    0    0 -0.00000000000E+00 -0.00000000000E+00  0.11368683772E-12  0.17120000000E+03  0.17120000000E+03 0.  0.
         13    1    1    2    0    0  0.83146601875E+02 -0.19711216932E+03  0.89946829882E+03  0.92455924442E+03  0.10566000000E+00 0.  1.
        994    1    1    2    0    0 -0.89729348222E+02  0.20245559612E+03  0.19555988497E+03  0.34145678049E+03  0.17120000000E+03 0.  0.
        998    1    1    2    0    0  0.65827463470E+01 -0.53434268005E+01  0.40497181249E+03  0.40518397509E+03  0.10000000000E+02 0.  0.
</event>
<event>
 5    1  0.1068111E-008  0.3966739E+03  0.7957747E-01  0.3381622E+00
         13   -1    0    0    0    0  0.00000000000E+00  0.00000000000E+00  0.14999999963E+04  0.15000000000E+04  0.10566000000E+00 0.  1.
        994   -1    0    0    0    0 -0.00000000000E+00 -0.00000000000E+00  0.11368683772E-12  0.17120000000E+03  0.17120000000E+03 0.  0.
         13    1    1    2    0    0  0.24085735339E+02  0.19374831860E+02  0.77702488185E+01  0.31873102879E+02  0.10566000000E+00 0.  1.
        994    1    1    2    0    0 -0.13586731275E+02 -0.24466217934E+02  0.28836205051E+02  0.17585267075E+03  0.17120000000E+03 0.  0.
        998    1    1    2    0    0 -0.10499004064E+02  0.50913860744E+01  0.14633935424E+04  0.14634742264E+04  0.10000000000E+02 0.  1.
</event>
<event>
 5    1  0.1068111E-008  0.3845725E+03  0.7957747E-01  0.3431487E+00
         13   -1    0    0    0    0  0.00000000000E+00  0.00000000000E+00  0.14999999963E+04  0.15000000000E+04  0.10566000000E+00 0. -1.
        994   -1    0    0    0    0 -0.00000000000E+00 -0.00000000000E+00  0.11368683772E-12  0.17120000000E+03  0.17120000000E+03 0.  0.
         13    1    1    2    0    0  0.12969120357E+03  0.39099838834E+02  0.40605555877E+03  0.42805342383E+03  0.10566000000E+00 0. -1.
        994    1    1    2    0    0 -0.10501549632E+03 -0.27081723278E+02  0.63624743122E+02  0.21241285776E+03  0.17120000000E+03 0.  0.
        998    1    1    2    0    0 -0.24675707245E+02 -0.12018115556E+02  0.10303196944E+04  0.10307337184E+04  0.10000000000E+02 0. -1.
</event>
<event>
 5    1  0.1068111E-008  0.3841322E+03  0.7957747E-01  0.3433361E+00
         13   -1    0    0    0    0  0.00000000000E+00  0.00000000000E+00  0.14999999963E+04  0.15000000000E+04  0.10566000000E+00 0.  1.
        994   -1    0    0    0    0 -0.00000000000E+00 -0.00000000000E+00  0.11368683772E-12  0.17120000000E+03  0.17120000000E+03 0.  0.
         13    1    1    2    0    0 -0.91216025275E+01 -0.11747960213E+02  0.54572919515E+02  0.56563529861E+02  0.10566000000E+00 0.  1.
        994    1    1    2    0    0  0.30615920969E+01  0.41224193957E+01  0.21485824663E+01  0.17129046703E+03  0.17120000000E+03 0.  0.
        998    1    1    2    0    0  0.60600104306E+01  0.76255408168E+01  0.14432784943E+04  0.14433460031E+04  0.10000000000E+02 0.  1.
</event>
<event>
 5    1  0.1068111E-008  0.3767222E+03  0.7957747E-01  0.3465556E+00
         13   -1    0    0    0    0  0.00000000000E+00  0.00000000000E+00  0.14999999963E+04  0.15000000000E+04  0.10566000000E+00 0. -1.
        994   -1    0    0    0    0 -0.00000000000E+00 -0.00000000000E+00  0.11368683772E-12  0.17120000000E+03  0.17120000000E+03 0.  0.
         13    1    1    2    0    0 -0.69699674186E+02  0.27406919259E+02  0.35332114397E+03  0.36117173996E+03  0.10566000000E+00 0. -1.
        994    1    1    2    0    0 -0.51604091548E+02  0.57588131687E+01  0.24255585517E+02  0.18053786202E+03  0.17120000000E+03 0.  0.
        998    1    1    2    0    0  0.12130376573E+03 -0.33165732428E+02  0.11224232668E+04  0.11294903980E+04  0.10000000000E+02 0. -1.
</event>
<event>
 5    1  0.1068111E-008  0.3842680E+03  0.7957747E-01  0.3432783E+00
         13   -1    0    0    0    0  0.00000000000E+00  0.00000000000E+00  0.14999999963E+04  0.15000000000E+04  0.10566000000E+00 0. -1.
        994   -1    0    0    0    0 -0.00000000000E+00 -0.00000000000E+00  0.11368683772E-12  0.17120000000E+03  0.17120000000E+03 0.  0.
         13    1    1    2    0    0  0.13385490473E+02  0.14984819580E+02  0.92825829500E+02  0.94975586123E+02  0.10566000000E+00 0. -1.
        994    1    1    2    0    0 -0.10843839266E+02 -0.23971803601E+02  0.42792518712E+01  0.17326277215E+03  0.17120000000E+03 0.  0.
        998    1    1    2    0    0 -0.25416512068E+01  0.89869840205E+01  0.14028949149E+04  0.14029616417E+04  0.10000000000E+02 0. -1.
</event>
<event>
 5    1  0.1068111E-008  0.3774432E+03  0.7957747E-01  0.3462368E+00
         13   -1    0    0    0    0  0.00000000000E+00  0.00000000000E+00  0.14999999963E+04  0.15000000000E+04  0.10566000000E+00 0.  1.
        994   -1    0    0    0    0 -0.00000000000E+00 -0.00000000000E+00  0.11368683772E-12  0.17120000000E+03  0.17120000000E+03 0.  0.
         13    1    1    2    0    0  0.14138571683E+03 -0.11298890658E+03  0.87584070993E+03  0.89434522097E+03  0.10566000000E+00 0.  1.
        994    1    1    2    0    0 -0.18147299779E+03  0.88381653877E+02  0.15805587504E+03  0.30827725395E+03  0.17120000000E+03 0.  0.
        998    1    1    2    0    0  0.40087280961E+02  0.24607252698E+02  0.46610341131E+03  0.46857752508E+03  0.10000000000E+02 0.  1.
</event>
<event>
 5    1  0.1068111E-008  0.3843548E+03  0.7957747E-01  0.3432413E+00
         13   -1    0    0    0    0  0.00000000000E+00  0.00000000000E+00  0.14999999963E+04  0.15000000000E+04  0.10566000000E+00 0.  1.
        994   -1    0    0    0    0 -0.00000000000E+00 -0.00000000000E+00  0.11368683772E-12  0.17120000000E+03  0.17120000000E+03 0.  0.
         13    1    1    2    0    0 -0.77111855543E+01  0.12554231113E+02  0.61115444158E+02  0.62866364458E+02  0.10566000000E+00 0.  1.
        994    1    1    2    0    0 -0.44081194058E+01  0.62001234055E+01  0.21415399717E+01  0.17138231893E+03  0.17120000000E+03 0.  0.
        998    1    1    2    0    0  0.12119304960E+02 -0.18754354519E+02  0.14367430121E+04  0.14369513166E+04  0.10000000000E+02 0.  1.
</event>
<event>
 5    1  0.1068111E-008  0.3747897E+03  0.7957747E-01  0.3474164E+00
         13   -1    0    0    0    0  0.00000000000E+00  0.00000000000E+00  0.14999999963E+04  0.15000000000E+04  0.10566000000E+00 0. -1.
        994   -1    0    0    0    0 -0.00000000000E+00 -0.00000000000E+00  0.11368683772E-12  0.17120000000E+03  0.17120000000E+03 0.  0.
         13    1    1    2    0    0 -0.28891248825E+02  0.25012271313E+02  0.11129729598E+03  0.11767504931E+03  0.10566000000E+00 0. -1.
        994    1    1    2    0    0 -0.73619905010E+01 -0.25051781594E+02  0.91094128585E+01  0.17341918022E+03  0.17120000000E+03 0.  0.
        998    1    1    2    0    0  0.36253239326E+02  0.39510281244E-01  0.13795932874E+04  0.13801057705E+04  0.10000000000E+02 0. -1.
</event>
<event>
 5    1  0.1068111E-008  0.3827111E+03  0.7957747E-01  0.3439438E+00
         13   -1    0    0    0    0  0.00000000000E+00  0.00000000000E+00  0.14999999963E+04  0.15000000000E+04  0.10566000000E+00 0.  1.
        994   -1    0    0    0    0 -0.00000000000E+00 -0.00000000000E+00  0.11368683772E-12  0.17120000000E+03  0.17120000000E+03 0.  0.
         13    1    1    2    0    0 -0.41794096169E+00 -0.27750425033E+02  0.12594418108E+03  0.12896592060E+03  0.10566000000E+00 0.  1.
        994    1    1    2    0    0  0.16969444215E+02  0.30408431264E+02  0.67989929946E+01  0.17483792791E+03  0.17120000000E+03 0.  0.
        998    1    1    2    0    0 -0.16551503253E+02 -0.26580062307E+01  0.13672568222E+04  0.13673961515E+04  0.10000000000E+02 0.  1.
</event>
<event>
 5    1  0.1068111E-008  0.3833694E+03  0.7957747E-01  0.3436617E+00
         13   -1    0    0    0    0  0.00000000000E+00  0.00000000000E+00  0.14999999963E+04  0.15000000000E+04  0.10566000000E+00 0.  1.
        994   -1    0    0    0    0 -0.00000000000E+00 -0.00000000000E+00  0.11368683772E-12  0.17120000000E+03  0.17120000000E+03 0.  0.
         13    1    1    2    0    0  0.19896644759E+02  0.16252931437E+02  0.10985910596E+03  0.11282317394E+03  0.10566000000E+00 0.  1.
        994    1    1    2    0    0 -0.50563103229E+02 -0.12309435606E+02  0.11447371940E+02  0.17930039581E+03  0.17120000000E+03 0.  0.
        998    1    1    2    0    0  0.30666458470E+02 -0.39434958309E+01  0.13786935184E+04  0.13790764302E+04  0.10000000000E+02 0.  1.
</event>
<event>
 5    1  0.1068111E-008  0.3811568E+03  0.7957747E-01  0.3446137E+00
         13   -1    0    0    0    0  0.00000000000E+00  0.00000000000E+00  0.14999999963E+04  0.15000000000E+04  0.10566000000E+00 0.  1.
        994   -1    0    0    0    0 -0.00000000000E+00 -0.00000000000E+00  0.11368683772E-12  0.17120000000E+03  0.17120000000E+03 0.  0.
         13    1    1    2    0    0  0.27446349249E+02 -0.16440277735E+02  0.14421831513E+03  0.14772446786E+03  0.10566000000E+00 0.  1.
        994    1    1    2    0    0 -0.32402255856E+02 -0.17339008779E+02  0.80609883091E+01  0.17528538713E+03  0.17120000000E+03 0.  0.
        998    1    1    2    0    0  0.49559066063E+01  0.33779286513E+02  0.13477206928E+04  0.13481901450E+04  0.10000000000E+02 0.  1.
</event>
<event>
 5    1  0.1068111E-008  0.3846021E+03  0.7957747E-01  0.3431362E+00
         13   -1    0    0    0    0  0.00000000000E+00  0.00000000000E+00  0.14999999963E+04  0.15000000000E+04  0.10566000000E+00 0. -1.
        994   -1    0    0    0    0 -0.00000000000E+00 -0.00000000000E+00  0.11368683772E-12  0.17120000000E+03  0.17120000000E+03 0.  0.
         13    1    1    2    0    0 -0.10825255705E+02 -0.10433464036E+02  0.60407032528E+02  0.62250012656E+02  0.10566000000E+00 0. -1.
        994    1    1    2    0    0  0.81939103910E+01  0.10818282644E+02  0.24345353867E+01  0.17175430815E+03  0.17120000000E+03 0.  0.
        998    1    1    2    0    0  0.26313453136E+01 -0.38481860765E+00  0.14371584284E+04  0.14371956792E+04  0.10000000000E+02 0. -1.
</event>
<event>
 5    1  0.1068111E-008  0.3825494E+03  0.7957747E-01  0.3440132E+00
         13   -1    0    0    0    0  0.00000000000E+00  0.00000000000E+00  0.14999999963E+04  0.15000000000E+04  0.10566000000E+00 0. -1.
        994   -1    0    0    0    0 -0.00000000000E+00 -0.00000000000E+00  0.11368683772E-12  0.17120000000E+03  0.17120000000E+03 0.  0.
         13    1    1    2    0    0 -0.23565176274E+02 -0.23593596357E+00  0.99794613655E+02  0.10253950106E+03  0.10566000000E+00 0. -1.
        994    1    1    2    0    0  0.90524943499E+01  0.20420008192E+01  0.31372414798E+01  0.17148002713E+03  0.17120000000E+03 0.  0.
        998    1    1    2    0    0  0.14512681924E+02 -0.18060648557E+01  0.13970681411E+04  0.13971804718E+04  0.10000000000E+02 0. -1.
</event>
<event>
 5    1  0.1068111E-008  0.3742421E+03  0.7957747E-01  0.3476619E+00
         13   -1    0    0    0    0  0.00000000000E+00  0.00000000000E+00  0.14999999963E+04  0.15000000000E+04  0.10566000000E+00 0. -1.
        994   -1    0    0    0    0 -0.00000000000E+00 -0.00000000000E+00  0.11368683772E-12  0.17120000000E+03  0.17120000000E+03 0.  0.
         13    1    1    2    0    0  0.85143768312E+01  0.11134225897E+03  0.51509708013E+03  0.52706224146E+03  0.10566000000E+00 0. -1.
        994    1    1    2    0    0  0.10022655402E+02 -0.12103283653E+03  0.59125839734E+02  0.21807041538E+03  0.17120000000E+03 0.  0.
        998    1    1    2    0    0 -0.18537032233E+02  0.96905775592E+01  0.92577707641E+03  0.92606734316E+03  0.10000000000E+02 0. -1.
</event>
<event>
 5    1  0.1068111E-008  0.3812805E+03  0.7957747E-01  0.3445602E+00
         13   -1    0    0    0    0  0.00000000000E+00  0.00000000000E+00  0.14999999963E+04  0.15000000000E+04  0.10566000000E+00 0. -1.
        994   -1    0    0    0    0 -0.00000000000E+00 -0.00000000000E+00  0.11368683772E-12  0.17120000000E+03  0.17120000000E+03 0.  0.
         13    1    1    2    0    0  0.23553044240E+02 -0.76246035301E+01  0.82755593095E+02  0.86379278907E+02  0.10566000000E+00 0. -1.
        994    1    1    2    0    0 -0.22916632538E+02  0.90586381273E+01  0.55121442614E+01  0.17305217336E+03  0.17120000000E+03 0.  0.
        998    1    1    2    0    0 -0.63641170191E+00 -0.14340345972E+01  0.14117322589E+04  0.14117685477E+04  0.10000000000E+02 0. -1.
</event>
<event>
 5    1  0.1068111E-008  0.3764540E+03  0.7957747E-01  0.3466746E+00
         13   -1    0    0    0    0  0.00000000000E+00  0.00000000000E+00  0.14999999963E+04  0.15000000000E+04  0.10566000000E+00 0. -1.
        994   -1    0    0    0    0 -0.00000000000E+00 -0.00000000000E+00  0.11368683772E-12  0.17120000000E+03  0.17120000000E+03 0.  0.
         13    1    1    2    0    0 -0.66406133369E+01 -0.30802258459E+02  0.78307167924E+02  0.84409126189E+02  0.10566000000E+00 0. -1.
        994    1    1    2    0    0  0.50451974769E+01  0.29345323244E+02  0.89388395928E+01  0.17399984157E+03  0.17120000000E+03 0.  0.
        998    1    1    2    0    0  0.15954158600E+01  0.14569352147E+01  0.14127539888E+04  0.14127910322E+04  0.10000000000E+02 0.  0.
</event>
<event>
 5    1  0.1068111E-008  0.3830627E+03  0.7957747E-01  0.3437930E+00
         13   -1    0    0    0    0  0.00000000000E+00  0.00000000000E+00  0.14999999963E+04  0.15000000000E+04  0.10566000000E+00 0. -1.
        994   -1    0    0    0    0 -0.00000000000E+00 -0.00000000000E+00  0.11368683772E-12  0.17120000000E+03  0.17120000000E+03 0.  0.
         13    1    1    2    0    0  0.17241494141E+02  0.44515231039E+01  0.61136186125E+02  0.63676758681E+02  0.10566000000E+00 0. -1.
        994    1    1    2    0    0 -0.98535658646E+01  0.22396260837E+01  0.29330173365E+01  0.17152303424E+03  0.17120000000E+03 0.  0.
        998    1    1    2    0    0 -0.73879282766E+01 -0.66911491876E+01  0.14359307928E+04  0.14360002071E+04  0.10000000000E+02 0. -1.
</event>
<event>
 5    1  0.1068111E-008  0.3807802E+03  0.7957747E-01  0.3447768E+00
         13   -1    0    0    0    0  0.00000000000E+00  0.00000000000E+00  0.14999999963E+04  0.15000000000E+04  0.10566000000E+00 0. -1.
        994   -1    0    0    0    0 -0.00000000000E+00 -0.00000000000E+00  0.11368683772E-12  0.17120000000E+03  0.17120000000E+03 0.  0.
         13    1    1    2    0    0 -0.12004692927E+02  0.28945628933E+02  0.13263329174E+03  0.13628486097E+03  0.10566000000E+00 0. -1.
        994    1    1    2    0    0  0.29769694608E+02 -0.51952378992E+01  0.67907924124E+01  0.17397925185E+03  0.17120000000E+03 0.  0.
        998    1    1    2    0    0 -0.17765001680E+02 -0.23750391034E+02  0.13605759121E+04  0.13609358872E+04  0.10000000000E+02 0. -1.
</event>
<event>
 5    1  0.1068111E-008  0.4327927E+03  0.7957747E-01  0.3249245E+00
         13   -1    0    0    0    0  0.00000000000E+00  0.00000000000E+00  0.14999999963E+04  0.15000000000E+04  0.10566000000E+00 0. -1.
        994   -1    0    0    0    0 -0.00000000000E+00 -0.00000000000E+00  0.11368683772E-12  0.17120000000E+03  0.17120000000E+03 0.  0.
         13    1    1    2    0    0  0.45798665749E+02  0.23065616428E+02  0.83590762759E+01  0.51955998362E+02  0.10566000000E+00 0. -1.
        994    1    1    2    0    0 -0.51452574127E+02 -0.21793056097E+02  0.63348999972E+02  0.19090531809E+03  0.17120000000E+03 0.  0.
        998    1    1    2    0    0  0.56539083789E+01 -0.12725603309E+01  0.14282919200E+04  0.14283386835E+04  0.10000000000E+02 0. -1.
</event>
<event>
 5    1  0.1068111E-008  0.3765635E+03  0.7957747E-01  0.3466259E+00
         13   -1    0    0    0    0  0.00000000000E+00  0.00000000000E+00  0.14999999963E+04  0.15000000000E+04  0.10566000000E+00 0.  1.
        994   -1    0    0    0    0 -0.00000000000E+00 -0.00000000000E+00  0.11368683772E-12  0.17120000000E+03  0.17120000000E+03 0.  0.
         13    1    1    2    0    0  0.29922693479E+02 -0.23801142985E+02  0.12667005979E+03  0.13231469005E+03  0.10566000000E+00 0.  1.
        994    1    1    2    0    0 -0.13186460933E+02  0.89042774971E+01  0.67345154372E+01  0.17206964464E+03  0.17120000000E+03 0.  0.
        998    1    1    2    0    0 -0.16736232546E+02  0.14896865488E+02  0.13665954210E+04  0.13668156653E+04  0.10000000000E+02 0.  1.
</event>
<event>
 5    1  0.1068111E-008  0.3845199E+03  0.7957747E-01  0.3431711E+00
         13   -1    0    0    0    0  0.00000000000E+00  0.00000000000E+00  0.14999999963E+04  0.15000000000E+04  0.10566000000E+00 0.  1.
        994   -1    0    0    0    0 -0.00000000000E+00 -0.00000000000E+00  0.11368683772E-12  0.17120000000E+03  0.17120000000E+03 0.  0.
         13    1    1    2    0    0 -0.35071747485E+01  0.12638387863E+02  0.45211459865E+02  0.47075645398E+02  0.10566000000E+00 0.  1.
        994    1    1    2    0    0 -0.21706059554E+01 -0.12136719746E+02  0.23695303365E+01  0.17165973952E+03  0.17120000000E+03 0.  0.
        998    1    1    2    0    0  0.56777807038E+01 -0.50166811704E+00  0.14524190061E+04  0.14524646151E+04  0.10000000000E+02 0.  1.
</event>
<event>
 5    1  0.1068111E-008  0.3818480E+03  0.7957747E-01  0.3443151E+00
         13   -1    0    0    0    0  0.00000000000E+00  0.00000000000E+00  0.14999999963E+04  0.15000000000E+04  0.10566000000E+00 0.  1.
        994   -1    0    0    0    0 -0.00000000000E+00 -0.00000000000E+00  0.11368683772E-12  0.17120000000E+03  0.17120000000E+03 0.  0.
         13    1    1    2    0    0 -0.27143151637E+02 -0.56141537082E+01  0.13490214505E+03  0.13772025743E+03  0.10566000000E+00 0.  1.
        994    1    1    2    0    0 -0.42075872311E+01  0.12709110968E+02  0.37989240121E+01  0.17176465619E+03  0.17120000000E+03 0.  0.
        998    1    1    2    0    0  0.31350738868E+02 -0.70949572594E+01  0.13612989272E+04  0.13617150864E+04  0.10000000000E+02 0.  1.
</event>
<event>
 5    1  0.1068111E-008  0.4078226E+03  0.7957747E-01  0.3338294E+00
         13   -1    0    0    0    0  0.00000000000E+00  0.00000000000E+00  0.14999999963E+04  0.15000000000E+04  0.10566000000E+00 0. -1.
        994   -1    0    0    0    0 -0.00000000000E+00 -0.00000000000E+00  0.11368683772E-12  0.17120000000E+03  0.17120000000E+03 0.  0.
         13    1    1    2    0    0 -0.27695528852E+02 -0.13231276940E+00 -0.16507189982E+01  0.27745195301E+02  0.10566000000E+00 0. -1.
        994    1    1    2    0    0  0.10776052218E+02  0.21487157069E+01  0.33032296215E+02  0.17470349989E+03  0.17120000000E+03 0.  0.
        998    1    1    2    0    0  0.16919476634E+02 -0.20164029375E+01  0.14686184191E+04  0.14687513048E+04  0.10000000000E+02 0. -1.
</event>
<event>
 5    1  0.1068111E-008  0.3832324E+03  0.7957747E-01  0.3437203E+00
         13   -1    0    0    0    0  0.00000000000E+00  0.00000000000E+00  0.14999999963E+04  0.15000000000E+04  0.10566000000E+00 0. -1.
        994   -1    0    0    0    0 -0.00000000000E+00 -0.00000000000E+00  0.11368683772E-12  0.17120000000E+03  0.17120000000E+03 0.  0.
         13    1    1    2    0    0  0.10048536964E+02 -0.23969917801E+01  0.20336245622E+02  0.22809925794E+02  0.10566000000E+00 0. -1.
        994    1    1    2    0    0 -0.73274481220E+01  0.11875330239E+01  0.26925353764E+01  0.17138200453E+03  0.17120000000E+03 0.  0.
        998    1    1    2    0    0 -0.27210888416E+01  0.12094587562E+01  0.14769712153E+04  0.14770080697E+04  0.10000000000E+02 0. -1.
</event>
<event>
 5    1  0.1068111E-008  0.3833999E+03  0.7957747E-01  0.3436487E+00
         13   -1    0    0    0    0  0.00000000000E+00  0.00000000000E+00  0.14999999963E+04  0.15000000000E+04  0.10566000000E+00 0. -1.
        994   -1    0    0    0    0 -0.00000000000E+00 -0.00000000000E+00  0.11368683772E-12  0.17120000000E+03  0.17120000000E+03 0.  0.
         13    1    1    2    0    0  0.71892511439E+01  0.24591329579E+02  0.12530547314E+03  0.12789797335E+03  0.10566000000E+00 0. -1.
        994    1    1    2    0    0 -0.53101327934E+01 -0.24962356538E+02  0.45827416068E+01  0.17315241342E+03  0.17120000000E+03 0.  0.
        998    1    1    2    0    0 -0.18791183504E+01  0.37102695944E+00  0.13701117815E+04  0.13701496132E+04  0.10000000000E+02 0. -1.
</event>
<event>
 5    1  0.1068111E-008  0.3829742E+03  0.7957747E-01  0.3438309E+00
         13   -1    0    0    0    0  0.00000000000E+00  0.00000000000E+00  0.14999999963E+04  0.15000000000E+04  0.10566000000E+00 0.  1.
        994   -1    0    0    0    0 -0.00000000000E+00 -0.00000000000E+00  0.11368683772E-12  0.17120000000E+03  0.17120000000E+03 0.  0.
         13    1    1    2    0    0 -0.59847185342E+02  0.28755839029E+02  0.38022664583E+03  0.38598043633E+03  0.10566000000E+00 0.  1.
        994    1    1    2    0    0  0.85415847316E+02 -0.72358515789E+02  0.45294209834E+02  0.20950567349E+03  0.17120000000E+03 0.  0.
        998    1    1    2    0    0 -0.25568661974E+02  0.43602676760E+02  0.10744791406E+04  0.10757138902E+04  0.10000000000E+02 0.  1.
</event>
<event>
 5    1  0.1068111E-008  0.3838218E+03  0.7957747E-01  0.3434684E+00
         13   -1    0    0    0    0  0.00000000000E+00  0.00000000000E+00  0.14999999963E+04  0.15000000000E+04  0.10566000000E+00 0.  1.
        994   -1    0    0    0    0 -0.00000000000E+00 -0.00000000000E+00  0.11368683772E-12  0.17120000000E+03  0.17120000000E+03 0.  0.
         13    1    1    2    0    0 -0.19489835937E+02  0.29982784589E+01  0.87355095334E+02  0.89553153063E+02  0.10566000000E+00 0.  1.
        994    1    1    2    0    0  0.10553055000E+02 -0.13349832877E+02  0.31727941782E+01  0.17207292533E+03  0.17120000000E+03 0.  0.
        998    1    1    2    0    0  0.89367809371E+01  0.10351554418E+02  0.14094721068E+04  0.14095739216E+04  0.10000000000E+02 0.  1.
</event>
<event>
 5    1  0.1068111E-008  0.3855232E+03  0.7957747E-01  0.3427456E+00
         13   -1    0    0    0    0  0.00000000000E+00  0.00000000000E+00  0.14999999963E+04  0.15000000000E+04  0.10566000000E+00 0. -1.
        994   -1    0    0    0    0 -0.00000000000E+00 -0.00000000000E+00  0.11368683772E-12  0.17120000000E+03  0.17120000000E+03 0.  0.
         13    1    1    2    0    0  0.35446460356E+01  0.15973642902E+02  0.95308622680E+02  0.96702980844E+02  0.10566000000E+00 0. -1.
        994    1    1    2    0    0  0.26489048326E+01 -0.15076313224E+02  0.21402494292E+01  0.17189628438E+03  0.17120000000E+03 0.  0.
        998    1    1    2    0    0 -0.61935508682E+01 -0.89732967806E+00  0.14025511242E+04  0.14026007348E+04  0.10000000000E+02 0. -1.
</event>
<event>
 5    1  0.1068111E-008  0.3823850E+03  0.7957747E-01  0.3440839E+00
         13   -1    0    0    0    0  0.00000000000E+00  0.00000000000E+00  0.14999999963E+04  0.15000000000E+04  0.10566000000E+00 0. -1.
        994   -1    0    0    0    0 -0.00000000000E+00 -0.00000000000E+00  0.11368683772E-12  0.17120000000E+03  0.17120000000E+03 0.  0.
         13    1    1    2    0    0  0.56843110670E+01 -0.91013592692E+01  0.18157278191E+02  0.21091326373E+02  0.10566000000E+00 0. -1.
        994    1    1    2    0    0 -0.10396272327E+02  0.93543573111E+01  0.35830372562E+01  0.17180763847E+03  0.17120000000E+03 0.  0.
        998    1    1    2    0    0  0.47119612598E+01 -0.25299804189E+00  0.14782596808E+04  0.14783010352E+04  0.10000000000E+02 0. -1.
</event>
<event>
 5    1  0.1068111E-008  0.3830003E+03  0.7957747E-01  0.3438198E+00
         13   -1    0    0    0    0  0.00000000000E+00  0.00000000000E+00  0.14999999963E+04  0.15000000000E+04  0.10566000000E+00 0.  1.
        994   -1    0    0    0    0 -0.00000000000E+00 -0.00000000000E+00  0.11368683772E-12  0.17120000000E+03  0.17120000000E+03 0.  0.
         13    1    1    2    0    0 -0.96272898576E+01  0.53190750208E+01  0.22370834702E+02  0.24928752042E+02  0.10566000000E+00 0.  1.
        994    1    1    2    0    0  0.42223619108E+01  0.22866981918E+00  0.26854161267E+01  0.17127326729E+03  0.17120000000E+03 0.  0.
        998    1    1    2    0    0  0.54049279467E+01 -0.55477448400E+01  0.14749437454E+04  0.14749979807E+04  0.10000000000E+02 0.  1.
</event>
<event>
 5    1  0.1109981E-008  0.3848207E+03  0.7957747E-01  0.3430433E+00
         13   -1    0    0    0    0  0.00000000000E+00  0.00000000000E+00  0.14999999963E+04  0.15000000000E+04  0.10566000000E+00 0.  1.
        994   -1    0    0    0    0 -0.00000000000E+00 -0.00000000000E+00  0.11368683772E-12  0.17120000000E+03  0.17120000000E+03 0.  0.
         13    1    1    2    0    0 -0.10082534345E+02  0.24721571874E+01  0.30538557601E+02  0.32254979838E+02  0.10566000000E+00 0.  1.
        994    1    1    2    0    0  0.10314103485E+02 -0.36980468313E+01  0.21143257416E+01  0.17156330218E+03  0.17120000000E+03 0.  0.
        998    1    1    2    0    0 -0.23156914019E+00  0.12258896439E+01  0.14673471129E+04  0.14673817180E+04  0.10000000000E+02 0.  1.
</event>
<event>
 5    1  0.1068111E-008  0.3770669E+03  0.7957747E-01  0.3464030E+00
         13   -1    0    0    0    0  0.00000000000E+00  0.00000000000E+00  0.14999999963E+04  0.15000000000E+04  0.10566000000E+00 0. -1.
        994   -1    0    0    0    0 -0.00000000000E+00 -0.00000000000E+00  0.11368683772E-12  0.17120000000E+03  0.17120000000E+03 0.  0.
         13    1    1    2    0    0  0.37874321810E+02  0.11005727995E+02  0.14594589040E+03  0.15118136257E+03  0.10566000000E+00 0. -1.
        994    1    1    2    0    0 -0.12311047875E+02  0.26050405548E+01  0.61558263544E+01  0.17177218149E+03  0.17120000000E+03 0.  0.
        998    1    1    2    0    0 -0.25563273935E+02 -0.13610768550E+02  0.13478982795E+04  0.13482464559E+04  0.10000000000E+02 0. -1.
</event>
<event>
 5    1  0.1068111E-008  0.3861874E+03  0.7957747E-01  0.3424652E+00
         13   -1    0    0    0    0  0.00000000000E+00  0.00000000000E+00  0.14999999963E+04  0.15000000000E+04  0.10566000000E+00 0.  1.
        994   -1    0    0    0    0 -0.00000000000E+00 -0.00000000000E+00  0.11368683772E-12  0.17120000000E+03  0.17120000000E+03 0.  0.
         13    1    1    2    0    0  0.58217873467E+01 -0.94611672230E+01  0.57563871440E+02  0.58626080820E+02  0.10566000000E+00 0.  1.
        994    1    1    2    0    0 -0.74902171536E+01  0.11102651873E+02  0.16296095979E+01  0.17173080055E+03  0.17120000000E+03 0.  0.
        998    1    1    2    0    0  0.16684298068E+01 -0.16414846505E+01  0.14408065152E+04  0.14408431186E+04  0.10000000000E+02 0.  1.
</event>
<event>
 5    1  0.1068111E-008  0.3754049E+03  0.7957747E-01  0.3471414E+00
         13   -1    0    0    0    0  0.00000000000E+00  0.00000000000E+00  0.14999999963E+04  0.15000000000E+04  0.10566000000E+00 0. -1.
        994   -1    0    0    0    0 -0.00000000000E+00 -0.00000000000E+00  0.11368683772E-12  0.17120000000E+03  0.17120000000E+03 0.  0.
         13    1    1    2    0    0 -0.42629206950E+01 -0.43069655785E+02  0.15559062174E+03  0.16149805101E+03  0.10566000000E+00 0. -1.
        994    1    1    2    0    0  0.26277187783E+02  0.72180428352E+01  0.89958548455E+01  0.17358846778E+03  0.17120000000E+03 0.  0.
        998    1    1    2    0    0 -0.22014267088E+02  0.35851612949E+02  0.13354135197E+04  0.13361134812E+04  0.10000000000E+02 0. -1.
</event>
<event>
 5    1  0.1068111E-008  0.3774092E+03  0.7957747E-01  0.3462518E+00
         13   -1    0    0    0    0  0.00000000000E+00  0.00000000000E+00  0.14999999963E+04  0.15000000000E+04  0.10566000000E+00 0. -1.
        994   -1    0    0    0    0 -0.00000000000E+00 -0.00000000000E+00  0.11368683772E-12  0.17120000000E+03  0.17120000000E+03 0.  0.
         13    1    1    2    0    0 -0.10052304129E+03 -0.12872873489E+02  0.56884894548E+03  0.57780595933E+03  0.10566000000E+00 0. -1.
        994    1    1    2    0    0  0.99610789320E+02  0.25956360345E+02  0.42051638355E+02  0.20414167208E+03  0.17120000000E+03 0.  0.
        998    1    1    2    0    0  0.91225197068E+00 -0.13083486856E+02  0.88909941244E+03  0.88925236859E+03  0.10000000000E+02 0. -1.
</event>
<event>
 5    1  0.1068111E-008  0.3836687E+03  0.7957747E-01  0.3435338E+00
         13   -1    0    0    0    0  0.00000000000E+00  0.00000000000E+00  0.14999999963E+04  0.15000000000E+04  0.10566000000E+00 0. -1.
        994   -1    0    0    0    0 -0.00000000000E+00 -0.00000000000E+00  0.11368683772E-12  0.17120000000E+03  0.17120000000E+03 0.  0.
         13    1    1    2    0    0 -0.20373862382E+02 -0.10425750487E+02  0.13558100953E+03  0.13749913400E+03  0.10566000000E+00 0. -1.
        994    1    1    2    0    0 -0.11051970258E+02  0.51659299455E+01  0.27842921349E+01  0.17165670730E+03  0.17120000000E+03 0.  0.
        998    1    1    2    0    0  0.31425832641E+02  0.52598205414E+01  0.13616346946E+04  0.13620441587E+04  0.10000000000E+02 0. -1.
</event>
<event>
 5    1  0.1068111E-008  0.3760260E+03  0.7957747E-01  0.3468647E+00
         13   -1    0    0    0    0  0.00000000000E+00  0.00000000000E+00  0.14999999963E+04  0.15000000000E+04  0.10566000000E+00 0.  1.
        994   -1    0    0    0    0 -0.00000000000E+00 -0.00000000000E+00  0.11368683772E-12  0.17120000000E+03  0.17120000000E+03 0.  0.
         13    1    1    2    0    0 -0.50510680544E+02  0.16480737535E+02  0.25209976230E+03  0.25763781725E+03  0.10566000000E+00 0.  1.
        994    1    1    2    0    0  0.15806884416E+02 -0.33547922618E+01  0.70377747415E+01  0.17210485902E+03  0.17120000000E+03 0.  0.
        998    1    1    2    0    0  0.34703796127E+02 -0.13125945273E+02  0.12408624592E+04  0.12414573237E+04  0.10000000000E+02 0.  1.
</event>
<event>
 5    1  0.1068111E-008  0.3859390E+03  0.7957747E-01  0.3425699E+00
         13   -1    0    0    0    0  0.00000000000E+00  0.00000000000E+00  0.14999999963E+04  0.15000000000E+04  0.10566000000E+00 0.  1.
        994   -1    0    0    0    0 -0.00000000000E+00 -0.00000000000E+00  0.11368683772E-12  0.17120000000E+03  0.17120000000E+03 0.  0.
         13    1    1    2    0    0  0.12373962939E+02  0.31658687390E+01  0.74651767446E+02  0.75736617501E+02  0.10566000000E+00 0.  1.
        994    1    1    2    0    0 -0.40794004956E+01  0.79529287378E+01  0.14266289184E+01  0.17143910246E+03  0.17120000000E+03 0.  0.
        998    1    1    2    0    0 -0.82945624432E+01 -0.11118797477E+02  0.14239215999E+04  0.14240242800E+04  0.10000000000E+02 0.  1.
</event>
<event>
 5    1  0.1068111E-008  0.3810088E+03  0.7957747E-01  0.3446778E+00
         13   -1    0    0    0    0  0.00000000000E+00  0.00000000000E+00  0.14999999963E+04  0.15000000000E+04  0.10566000000E+00 0. -1.
        994   -1    0    0    0    0 -0.00000000000E+00 -0.00000000000E+00  0.11368683772E-12  0.17120000000E+03  0.17120000000E+03 0.  0.
         13    1    1    2    0    0 -0.33670020414E+01 -0.28335518415E+02  0.10708601473E+03  0.11082266926E+03  0.10566000000E+00 0. -1.
        994    1    1    2    0    0  0.41310539262E+01  0.23518645435E+02  0.55268551068E+01  0.17294559381E+03  0.17120000000E+03 0.  0.
        998    1    1    2    0    0 -0.76405188483E+00  0.48168729797E+01  0.13873871264E+04  0.13874317369E+04  0.10000000000E+02 0. -1.
</event>
<event>
 5    1  0.1068111E-008  0.3859666E+03  0.7957747E-01  0.3425583E+00
         13   -1    0    0    0    0  0.00000000000E+00  0.00000000000E+00  0.14999999963E+04  0.15000000000E+04  0.10566000000E+00 0.  1.
        994   -1    0    0    0    0 -0.00000000000E+00 -0.00000000000E+00  0.11368683772E-12  0.17120000000E+03  0.17120000000E+03 0.  0.
         13    1    1    2    0    0 -0.93293034960E+01 -0.73786125632E+01  0.62503799623E+02  0.63625592009E+02  0.10566000000E+00 0.  1.
        994    1    1    2    0    0  0.57631141843E+01  0.42634549194E+01  0.13195127437E+01  0.17135510394E+03  0.17120000000E+03 0.  0.
        998    1    1    2    0    0  0.35661893117E+01  0.31151576438E+01  0.14361766839E+04  0.14362193040E+04  0.10000000000E+02 0.  1.
</event>
<event>
 5    1  0.1068111E-008  0.3807731E+03  0.7957747E-01  0.3447799E+00
         13   -1    0    0    0    0  0.00000000000E+00  0.00000000000E+00  0.14999999963E+04  0.15000000000E+04  0.10566000000E+00 0. -1.
        994   -1    0    0    0    0 -0.00000000000E+00 -0.00000000000E+00  0.11368683772E-12  0.17120000000E+03  0.17120000000E+03 0.  0.
         13    1    1    2    0    0 -0.16291270868E+03 -0.34738520813E+02  0.87442408392E+03  0.89014875453E+03  0.10566000000E+00 0. -1.
        994    1    1    2    0    0  0.17731332953E+03  0.47061156064E+02  0.12558081978E+03  0.28059713387E+03  0.17120000000E+03 0.  0.
        998    1    1    2    0    0 -0.14400620849E+02 -0.12322635251E+02  0.49999509257E+03  0.50045411160E+03  0.10000000000E+02 0. -1.
</event>
<event>
 5    1  0.1068111E-008  0.3820634E+03  0.7957747E-01  0.3442223E+00
         13   -1    0    0    0    0  0.00000000000E+00  0.00000000000E+00  0.14999999963E+04  0.15000000000E+04  0.10566000000E+00 0.  1.
        994   -1    0    0    0    0 -0.00000000000E+00 -0.00000000000E+00  0.11368683772E-12  0.17120000000E+03  0.17120000000E+03 0.  0.
         13    1    1    2    0    0  0.32947216210E+01  0.13775539709E+02  0.30357911282E+02  0.33499770541E+02  0.10566000000E+00 0.  1.
        994    1    1    2    0    0 -0.91663646698E+01 -0.16691161585E+02  0.43000949480E+01  0.17230945399E+03  0.17120000000E+03 0.  0.
        998    1    1    2    0    0  0.58716430488E+01  0.29156218760E+01  0.14653419900E+04  0.14653907755E+04  0.10000000000E+02 0.  1.
</event>
<event>
 5    1  0.1068111E-008  0.3773346E+03  0.7957747E-01  0.3462847E+00
         13   -1    0    0    0    0  0.00000000000E+00  0.00000000000E+00  0.14999999963E+04  0.15000000000E+04  0.10566000000E+00 0. -1.
        994   -1    0    0    0    0 -0.00000000000E+00 -0.00000000000E+00  0.11368683772E-12  0.17120000000E+03  0.17120000000E+03 0.  0.
         13    1    1    2    0    0 -0.14862510349E+02  0.11772214018E+02  0.32718943430E+02  0.37815600749E+02  0.10566000000E+00 0. -1.
        994    1    1    2    0    0 -0.29702462767E+01  0.14094020681E+02  0.61847380503E+01  0.17191612713E+03  0.17120000000E+03 0.  0.
        998    1    1    2    0    0  0.17832756626E+02 -0.25866234700E+02  0.14610963148E+04  0.14614682721E+04  0.10000000000E+02 0. -1.
</event>
<event>
 5    1  0.1068111E-008  0.3776965E+03  0.7957747E-01  0.3461250E+00
         13   -1    0    0    0    0  0.00000000000E+00  0.00000000000E+00  0.14999999963E+04  0.15000000000E+04  0.10566000000E+00 0.  1.
        994   -1    0    0    0    0 -0.00000000000E+00 -0.00000000000E+00  0.11368683772E-12  0.17120000000E+03  0.17120000000E+03 0.  0.
         13    1    1    2    0    0  0.16264387631E+02  0.38902673276E+00  0.22830730635E+02  0.28034533564E+02  0.10566000000E+00 0.  1.
        994    1    1    2    0    0 -0.98582038188E+01  0.87973099497E+00  0.56305326832E+01  0.17157826496E+03  0.17120000000E+03 0.  0.
        998    1    1    2    0    0 -0.64061838121E+01 -0.12687577277E+01  0.14715387330E+04  0.14715872015E+04  0.10000000000E+02 0.  1.
</event>
<event>
 5    1  0.1068111E-008  0.3848645E+03  0.7957747E-01  0.3430247E+00
         13   -1    0    0    0    0  0.00000000000E+00  0.00000000000E+00  0.14999999963E+04  0.15000000000E+04  0.10566000000E+00 0. -1.
        994   -1    0    0    0    0 -0.00000000000E+00 -0.00000000000E+00  0.11368683772E-12  0.17120000000E+03  0.17120000000E+03 0.  0.
         13    1    1    2    0    0 -0.11980192467E+02  0.25263442712E+01  0.43361878814E+02  0.45057420313E+02  0.10566000000E+00 0. -1.
        994    1    1    2    0    0  0.11096420629E+02 -0.10831069413E+01  0.21064809117E+01  0.17157558373E+03  0.17120000000E+03 0.  0.
        998    1    1    2    0    0  0.88377183752E+00 -0.14432373299E+01  0.14545316366E+04  0.14545669960E+04  0.10000000000E+02 0. -1.
</event>
<event>
 5    1  0.1068111E-008  0.3820233E+03  0.7957747E-01  0.3442395E+00
         13   -1    0    0    0    0  0.00000000000E+00  0.00000000000E+00  0.14999999963E+04  0.15000000000E+04  0.10566000000E+00 0.  1.
        994   -1    0    0    0    0 -0.00000000000E+00 -0.00000000000E+00  0.11368683772E-12  0.17120000000E+03  0.17120000000E+03 0.  0.
         13    1    1    2    0    0  0.16865913315E+02  0.12530522381E+02  0.68660355101E+02  0.71803402076E+02  0.10566000000E+00 0.  1.
        994    1    1    2    0    0 -0.14784249380E+02 -0.84285621975E+01  0.40775591230E+01  0.17209207181E+03  0.17120000000E+03 0.  0.
        998    1    1    2    0    0 -0.20816639356E+01 -0.41019601831E+01  0.14272620821E+04  0.14273045261E+04  0.10000000000E+02 0.  1.
</event>
<event>
 5    1  0.1068111E-008  0.3852895E+03  0.7957747E-01  0.3428445E+00
         13   -1    0    0    0    0  0.00000000000E+00  0.00000000000E+00  0.14999999963E+04  0.15000000000E+04  0.10566000000E+00 0. -1.
        994   -1    0    0    0    0 -0.00000000000E+00 -0.00000000000E+00  0.11368683772E-12  0.17120000000E+03  0.17120000000E+03 0.  0.
         13    1    1    2    0    0  0.14415786236E+02  0.76235886755E+01  0.88318535333E+02  0.89811518440E+02  0.10566000000E+00 0. -1.
        994    1    1    2    0    0 -0.12665118009E+02 -0.30083374819E+01  0.20434421932E+01  0.17170635097E+03  0.17120000000E+03 0.  0.
        998    1    1    2    0    0 -0.17506682274E+01 -0.46152511936E+01  0.14096380188E+04  0.14096821306E+04  0.10000000000E+02 0. -1.
</event>
<event>
 5    1  0.1068111E-008  0.3819036E+03  0.7957747E-01  0.3442911E+00
         13   -1    0    0    0    0  0.00000000000E+00  0.00000000000E+00  0.14999999963E+04  0.15000000000E+04  0.10566000000E+00 0.  1.
        994   -1    0    0    0    0 -0.00000000000E+00 -0.00000000000E+00  0.11368683772E-12  0.17120000000E+03  0.17120000000E+03 0.  0.
         13    1    1    2    0    0  0.65792900135E+01  0.23889863663E+02  0.10435878195E+03  0.10726033366E+03  0.10566000000E+00 0.  1.
        994    1    1    2    0    0  0.90501387831E+01 -0.33003809920E+01  0.34836151106E+01  0.17150618969E+03  0.17120000000E+03 0.  0.
        998    1    1    2    0    0 -0.15629428797E+02 -0.20589482671E+02  0.13921575992E+04  0.13924334767E+04  0.10000000000E+02 0.  1.
</event>
<event>
 5    1  0.1068111E-008  0.3764745E+03  0.7957747E-01  0.3466654E+00
         13   -1    0    0    0    0  0.00000000000E+00  0.00000000000E+00  0.14999999963E+04  0.15000000000E+04  0.10566000000E+00 0. -1.
        994   -1    0    0    0    0 -0.00000000000E+00 -0.00000000000E+00  0.11368683772E-12  0.17120000000E+03  0.17120000000E+03 0.  0.
         13    1    1    2    0    0  0.42492796572E+02 -0.41259212317E+02  0.32299874955E+03  0.32838417096E+03  0.10566000000E+00 0. -1.
        994    1    1    2    0    0 -0.45709975402E+02 -0.10595272674E+02  0.13406866023E+02  0.17801922849E+03  0.17120000000E+03 0.  0.
        998    1    1    2    0    0  0.32171788296E+01  0.51854484991E+02  0.11635943807E+04  0.11647966006E+04  0.10000000000E+02 0. -1.
</event>
<event>
 5    1  0.1068111E-008  0.3836961E+03  0.7957747E-01  0.3435221E+00
         13   -1    0    0    0    0  0.00000000000E+00  0.00000000000E+00  0.14999999963E+04  0.15000000000E+04  0.10566000000E+00 0.  1.
        994   -1    0    0    0    0 -0.00000000000E+00 -0.00000000000E+00  0.11368683772E-12  0.17120000000E+03  0.17120000000E+03 0.  0.
         13    1    1    2    0    0  0.70313587996E+01 -0.14130945762E+02  0.59012775505E+02  0.61087171088E+02  0.10566000000E+00 0.  1.
        994    1    1    2    0    0  0.59496400195E+01 -0.39124783785E+01  0.24463486483E+01  0.17136548756E+03  0.17120000000E+03 0.  0.
        998    1    1    2    0    0 -0.12980998819E+02  0.18043424141E+02  0.14385408721E+04  0.14387473414E+04  0.10000000000E+02 0.  1.
</event>
<event>
 5    1  0.1068111E-008  0.3820609E+03  0.7957747E-01  0.3442234E+00
         13   -1    0    0    0    0  0.00000000000E+00  0.00000000000E+00  0.14999999963E+04  0.15000000000E+04  0.10566000000E+00 0. -1.
        994   -1    0    0    0    0 -0.00000000000E+00 -0.00000000000E+00  0.11368683772E-12  0.17120000000E+03  0.17120000000E+03 0.  0.
         13    1    1    2    0    0  0.24278454627E+02 -0.60980128570E+01  0.10714900392E+03  0.11003430976E+03  0.10566000000E+00 0. -1.
        994    1    1    2    0    0 -0.82031249075E+01 -0.13659858681E+02  0.39398510604E+01  0.17198501511E+03  0.17120000000E+03 0.  0.
        998    1    1    2    0    0 -0.16075329719E+02  0.19757871538E+02  0.13889111413E+04  0.13891806751E+04  0.10000000000E+02 0. -1.
</event>
<event>
 5    1  0.1068111E-008  0.3801021E+03  0.7957747E-01  0.3450714E+00
         13   -1    0    0    0    0  0.00000000000E+00  0.00000000000E+00  0.14999999963E+04  0.15000000000E+04  0.10566000000E+00 0.  1.
        994   -1    0    0    0    0 -0.00000000000E+00 -0.00000000000E+00  0.11368683772E-12  0.17120000000E+03  0.17120000000E+03 0.  0.
         13    1    1    2    0    0  0.14617700632E+02  0.31568415542E+02  0.16476066404E+03  0.16839337757E+03  0.10566000000E+00 0.  1.
        994    1    1    2    0    0 -0.11381369312E+02  0.12090484647E+01  0.45194923458E+01  0.17164167086E+03  0.17120000000E+03 0.  0.
        998    1    1    2    0    0 -0.32363313205E+01 -0.32777464007E+02  0.13307198399E+04  0.13311649516E+04  0.10000000000E+02 0.  1.
</event>
<event>
 5    1  0.1068111E-008  0.3845412E+03  0.7957747E-01  0.3431620E+00
         13   -1    0    0    0    0  0.00000000000E+00  0.00000000000E+00  0.14999999963E+04  0.15000000000E+04  0.10566000000E+00 0. -1.
        994   -1    0    0    0    0 -0.00000000000E+00 -0.00000000000E+00  0.11368683772E-12  0.17120000000E+03  0.17120000000E+03 0.  0.
         13    1    1    2    0    0  0.97716795265E+01  0.41323007226E+01  0.27981150807E+02  0.29925199992E+02  0.10566000000E+00 0. -1.
        994    1    1    2    0    0 -0.27027800205E+02  0.33649650254E+01  0.43051506399E+01  0.17340645690E+03  0.17120000000E+03 0.  0.
        998    1    1    2    0    0  0.17256120678E+02 -0.74972657479E+01  0.14677136948E+04  0.14678683431E+04  0.10000000000E+02 0. -1.
</event>
<event>
 5    1  0.1068111E-008  0.3815779E+03  0.7957747E-01  0.3444316E+00
         13   -1    0    0    0    0  0.00000000000E+00  0.00000000000E+00  0.14999999963E+04  0.15000000000E+04  0.10566000000E+00 0. -1.
        994   -1    0    0    0    0 -0.00000000000E+00 -0.00000000000E+00  0.11368683772E-12  0.17120000000E+03  0.17120000000E+03 0.  0.
         13    1    1    2    0    0 -0.23379743716E+02  0.88351838766E+01  0.88670018237E+02  0.92125220155E+02  0.10566000000E+00 0. -1.
        994    1    1    2    0    0  0.18390849806E+02 -0.17548214644E+02  0.54905527366E+01  0.17316393783E+03  0.17120000000E+03 0.  0.
        998    1    1    2    0    0  0.49888939107E+01  0.87130307670E+01  0.14058394253E+04  0.14059108420E+04  0.10000000000E+02 0. -1.
</event>
<event>
 5    1  0.1068111E-008  0.3854257E+03  0.7957747E-01  0.3427869E+00
         13   -1    0    0    0    0  0.00000000000E+00  0.00000000000E+00  0.14999999963E+04  0.15000000000E+04  0.10566000000E+00 0. -1.
        994   -1    0    0    0    0 -0.00000000000E+00 -0.00000000000E+00  0.11368683772E-12  0.17120000000E+03  0.17120000000E+03 0.  0.
         13    1    1    2    0    0 -0.11363020039E+02  0.77581655401E+01  0.69464663009E+02  0.70814249470E+02  0.10566000000E+00 0. -1.
        994    1    1    2    0    0  0.65937876179E+01  0.25782751825E+01  0.15835642973E+01  0.17135364955E+03  0.17120000000E+03 0.  0.
        998    1    1    2    0    0  0.47692324207E+01 -0.10336440723E+02  0.14289517690E+04  0.14290321010E+04  0.10000000000E+02 0. -1.
</event>
<event>
 5    1  0.1068111E-008  0.3776671E+03  0.7957747E-01  0.3461380E+00
         13   -1    0    0    0    0  0.00000000000E+00  0.00000000000E+00  0.14999999963E+04  0.15000000000E+04  0.10566000000E+00 0.  1.
        994   -1    0    0    0    0 -0.00000000000E+00 -0.00000000000E+00  0.11368683772E-12  0.17120000000E+03  0.17120000000E+03 0.  0.
         13    1    1    2    0    0  0.13651669100E+02  0.37235702493E+01  0.16965294481E+02  0.22092202821E+02  0.10566000000E+00 0.  1.
        994    1    1    2    0    0 -0.25136043037E+01  0.11332397756E+02  0.57694912571E+01  0.17169003604E+03  0.17120000000E+03 0.  0.
        998    1    1    2    0    0 -0.11138064797E+02 -0.15055968005E+02  0.14772652105E+04  0.14774177611E+04  0.10000000000E+02 0.  1.
</event>
<event>
 5    1  0.1068111E-008  0.3855644E+03  0.7957747E-01  0.3427282E+00
         13   -1    0    0    0    0  0.00000000000E+00  0.00000000000E+00  0.14999999963E+04  0.15000000000E+04  0.10566000000E+00 0. -1.
        994   -1    0    0    0    0 -0.00000000000E+00 -0.00000000000E+00  0.11368683772E-12  0.17120000000E+03  0.17120000000E+03 0.  0.
         13    1    1    2    0    0 -0.10688609514E+02 -0.10369730650E+02  0.86583692929E+02  0.87855134923E+02  0.10566000000E+00 0. -1.
        994    1    1    2    0    0 -0.37758093977E+01  0.96761985209E+01  0.17043888456E+01  0.17152326517E+03  0.17120000000E+03 0.  0.
        998    1    1    2    0    0  0.14464418912E+02  0.69353212866E+00  0.14117119145E+04  0.14118215999E+04  0.10000000000E+02 0. -1.
</event>
<event>
 5    1  0.1068111E-008  0.3721211E+03  0.7957747E-01  0.3486199E+00
         13   -1    0    0    0    0  0.00000000000E+00  0.00000000000E+00  0.14999999963E+04  0.15000000000E+04  0.10566000000E+00 0.  1.
        994   -1    0    0    0    0 -0.00000000000E+00 -0.00000000000E+00  0.11368683772E-12  0.17120000000E+03  0.17120000000E+03 0.  0.
         13    1    1    2    0    0  0.12882685542E+01 -0.16432551722E+02  0.57137189782E+01  0.17445519211E+02  0.10566000000E+00 0.  1.
        994    1    1    2    0    0  0.10281449627E+01  0.18884225032E+02  0.13325529761E+02  0.17275613095E+03  0.17120000000E+03 0.  0.
        998    1    1    2    0    0 -0.23164135170E+01 -0.24516733106E+01  0.14809607475E+04  0.14809983498E+04  0.10000000000E+02 0.  1.
</event>
<event>
 5    1  0.1068111E-008  0.3845389E+03  0.7957747E-01  0.3431630E+00
         13   -1    0    0    0    0  0.00000000000E+00  0.00000000000E+00  0.14999999963E+04  0.15000000000E+04  0.10566000000E+00 0. -1.
        994   -1    0    0    0    0 -0.00000000000E+00 -0.00000000000E+00  0.11368683772E-12  0.17120000000E+03  0.17120000000E+03 0.  0.
         13    1    1    2    0    0 -0.92124201584E+01 -0.60055742694E+01  0.30813908991E+02  0.32717636816E+02  0.10566000000E+00 0. -1.
        994    1    1    2    0    0  0.13184279009E+02  0.11754309523E+02  0.28874618512E+01  0.17213299057E+03  0.17120000000E+03 0.  0.
        998    1    1    2    0    0 -0.39718588503E+01 -0.57487352534E+01  0.14662986254E+04  0.14663493726E+04  0.10000000000E+02 0. -1.
</event>
<event>
 5    1  0.1068111E-008  0.3702610E+03  0.7957747E-01  0.3494692E+00
         13   -1    0    0    0    0  0.00000000000E+00  0.00000000000E+00  0.14999999963E+04  0.15000000000E+04  0.10566000000E+00 0.  1.
        994   -1    0    0    0    0 -0.00000000000E+00 -0.00000000000E+00  0.11368683772E-12  0.17120000000E+03  0.17120000000E+03 0.  0.
         13    1    1    2    0    0 -0.11967188797E+03 -0.44254913311E+02  0.55021455834E+03  0.56481495155E+03  0.10566000000E+00 0.  1.
        994    1    1    2    0    0  0.10668520754E+03  0.80837280126E+02  0.73831801372E+02  0.22951464933E+03  0.17120000000E+03 0.  0.
        998    1    1    2    0    0  0.12986680429E+02 -0.36582366815E+02  0.87595363657E+03  0.87687039912E+03  0.10000000000E+02 0.  1.
</event>
<event>
 5    1  0.1068111E-008  0.3770550E+03  0.7957747E-01  0.3464083E+00
         13   -1    0    0    0    0  0.00000000000E+00  0.00000000000E+00  0.14999999963E+04  0.15000000000E+04  0.10566000000E+00 0. -1.
        994   -1    0    0    0    0 -0.00000000000E+00 -0.00000000000E+00  0.11368683772E-12  0.17120000000E+03  0.17120000000E+03 0.  0.
         13    1    1    2    0    0  0.72069366945E+01  0.99279324654E+01  0.11246324339E+02  0.16643159398E+02  0.10566000000E+00 0. -1.
        994    1    1    2    0    0 -0.81214751114E+00  0.86749364609E+01  0.58835230241E+01  0.17152250566E+03  0.17120000000E+03 0.  0.
        998    1    1    2    0    0 -0.63947891834E+01 -0.18602868926E+02  0.14828701489E+04  0.14830343349E+04  0.10000000000E+02 0. -1.
</event>
<event>
 5    1  0.1068111E-008  0.3696163E+03  0.7957747E-01  0.3497656E+00
         13   -1    0    0    0    0  0.00000000000E+00  0.00000000000E+00  0.14999999963E+04  0.15000000000E+04  0.10566000000E+00 0. -1.
        994   -1    0    0    0    0 -0.00000000000E+00 -0.00000000000E+00  0.11368683772E-12  0.17120000000E+03  0.17120000000E+03 0.  0.
         13    1    1    2    0    0 -0.87639740379E+01 -0.12718106114E+02  0.84960202032E+01  0.17628130570E+02  0.10566000000E+00 0. -1.
        994    1    1    2    0    0 -0.11499510731E+02  0.11839455013E+02  0.10413442247E+02  0.17230870907E+03  0.17120000000E+03 0.  0.
        998    1    1    2    0    0  0.20263484768E+02  0.87865110117E+00  0.14810905338E+04  0.14812631604E+04  0.10000000000E+02 0. -1.
</event>
<event>
 5    1  0.1068111E-008  0.3775772E+03  0.7957747E-01  0.3461776E+00
         13   -1    0    0    0    0  0.00000000000E+00  0.00000000000E+00  0.14999999963E+04  0.15000000000E+04  0.10566000000E+00 0. -1.
        994   -1    0    0    0    0 -0.00000000000E+00 -0.00000000000E+00  0.11368683772E-12  0.17120000000E+03  0.17120000000E+03 0.  0.
         13    1    1    2    0    0  0.53964585974E+01  0.12197014554E+02  0.14330625928E+02  0.19577204421E+02  0.10566000000E+00 0. -1.
        994    1    1    2    0    0  0.28233844394E+02 -0.19116749637E+02  0.92890237902E+01  0.17480939920E+03  0.17120000000E+03 0.  0.
        998    1    1    2    0    0 -0.33630302991E+02  0.69197350829E+01  0.14763803466E+04  0.14768133964E+04  0.10000000000E+02 0. -1.
</event>
<event>
 5    1  0.1068111E-008  0.3806512E+03  0.7957747E-01  0.3448328E+00
         13   -1    0    0    0    0  0.00000000000E+00  0.00000000000E+00  0.14999999963E+04  0.15000000000E+04  0.10566000000E+00 0. -1.
        994   -1    0    0    0    0 -0.00000000000E+00 -0.00000000000E+00  0.11368683772E-12  0.17120000000E+03  0.17120000000E+03 0.  0.
         13    1    1    2    0    0 -0.15454612857E+02 -0.50148570706E+01  0.35554367660E+02  0.39091150837E+02  0.10566000000E+00 0. -1.
        994    1    1    2    0    0 -0.10353668490E+02  0.24805903010E+01  0.41829865940E+01  0.17158172734E+03  0.17120000000E+03 0.  0.
        998    1    1    2    0    0  0.25808281347E+02  0.25342667696E+01  0.14602626420E+04  0.14605271218E+04  0.10000000000E+02 0. -1.
</event>
<event>
 5    1  0.1068111E-008  0.3836115E+03  0.7957747E-01  0.3435582E+00
         13   -1    0    0    0    0  0.00000000000E+00  0.00000000000E+00  0.14999999963E+04  0.15000000000E+04  0.10566000000E+00 0.  1.
        994   -1    0    0    0    0 -0.00000000000E+00 -0.00000000000E+00  0.11368683772E-12  0.17120000000E+03  0.17120000000E+03 0.  0.
         13    1    1    2    0    0  0.11829665452E+02  0.45128336012E+01  0.35757092554E+02  0.37932670401E+02  0.10566000000E+00 0.  1.
        994    1    1    2    0    0  0.42151339249E+01  0.21236295129E+01  0.23946765239E+01  0.17128179014E+03  0.17120000000E+03 0.  0.
        998    1    1    2    0    0 -0.16044799377E+02 -0.66364631141E+01  0.14618482272E+04  0.14619855395E+04  0.10000000000E+02 0.  1.
</event>
<event>
 5    1  0.1068111E-008  0.3778942E+03  0.7957747E-01  0.3460379E+00
         13   -1    0    0    0    0  0.00000000000E+00  0.00000000000E+00  0.14999999963E+04  0.15000000000E+04  0.10566000000E+00 0.  1.
        994   -1    0    0    0    0 -0.00000000000E+00 -0.00000000000E+00  0.11368683772E-12  0.17120000000E+03  0.17120000000E+03 0.  0.
         13    1    1    2    0    0  0.38712271381E+02  0.87406465924E+01  0.43990313460E+02  0.59246921445E+02  0.10566000000E+00 0.  1.
        994    1    1    2    0    0 -0.46186096590E+02 -0.69599616917E+01  0.23061433309E+02  0.17894934001E+03  0.17120000000E+03 0.  0.
        998    1    1    2    0    0  0.74738252091E+01 -0.17806849007E+01  0.14329482495E+04  0.14330037385E+04  0.10000000000E+02 0.  1.
</event>
<event>
 5    1  0.1068111E-008  0.3722796E+03  0.7957747E-01  0.3485479E+00
         13   -1    0    0    0    0  0.00000000000E+00  0.00000000000E+00  0.14999999963E+04  0.15000000000E+04  0.10566000000E+00 0. -1.
        994   -1    0    0    0    0 -0.00000000000E+00 -0.00000000000E+00  0.11368683772E-12  0.17120000000E+03  0.17120000000E+03 0.  0.
         13    1    1    2    0    0  0.66149370476E+02 -0.90971782132E+02  0.39893328294E+03  0.41448688732E+03  0.10566000000E+00 0. -1.
        994    1    1    2    0    0 -0.45790503268E+02  0.94406227606E+02  0.52031581722E+02  0.20742717155E+03  0.17120000000E+03 0.  0.
        998    1    1    2    0    0 -0.20358867208E+02 -0.34344454738E+01  0.10490351316E+04  0.10492859411E+04  0.10000000000E+02 0. -1.
</event>
<event>
 5    1  0.1068111E-008  0.3851730E+03  0.7957747E-01  0.3428939E+00
         13   -1    0    0    0    0  0.00000000000E+00  0.00000000000E+00  0.14999999963E+04  0.15000000000E+04  0.10566000000E+00 0. -1.
        994   -1    0    0    0    0 -0.00000000000E+00 -0.00000000000E+00  0.11368683772E-12  0.17120000000E+03  0.17120000000E+03 0.  0.
         13    1    1    2    0    0 -0.10131284797E+02 -0.65774782762E+01  0.47845558087E+02  0.49346881814E+02  0.10566000000E+00 0. -1.
        994    1    1    2    0    0  0.61041827178E+01  0.14273628652E+01  0.16734319082E+01  0.17132290794E+03  0.17120000000E+03 0.  0.
        998    1    1    2    0    0  0.40271020792E+01  0.51501154110E+01  0.14504810063E+04  0.14505302102E+04  0.10000000000E+02 0. -1.
</event>
<event>
 5    1  0.1068111E-008  0.3693183E+03  0.7957747E-01  0.3499030E+00
         13   -1    0    0    0    0  0.00000000000E+00  0.00000000000E+00  0.14999999963E+04  0.15000000000E+04  0.10566000000E+00 0.  1.
        994   -1    0    0    0    0 -0.00000000000E+00 -0.00000000000E+00  0.11368683772E-12  0.17120000000E+03  0.17120000000E+03 0.  0.
         13    1    1    2    0    0 -0.18223258216E+02 -0.17407016597E+02  0.25250881564E+02  0.35675055019E+02  0.10566000000E+00 0.  1.
        994    1    1    2    0    0  0.14213215059E+02  0.19881075579E+02  0.12664650192E+02  0.17339869092E+03  0.17120000000E+03 0.  0.
        998    1    1    2    0    0  0.40100431575E+01 -0.24740589825E+01  0.14620844645E+04  0.14621262541E+04  0.10000000000E+02 0.  1.
</event>
<event>
 5    1  0.1068111E-008  0.3816914E+03  0.7957747E-01  0.3443827E+00
         13   -1    0    0    0    0  0.00000000000E+00  0.00000000000E+00  0.14999999963E+04  0.15000000000E+04  0.10566000000E+00 0. -1.
        994   -1    0    0    0    0 -0.00000000000E+00 -0.00000000000E+00  0.11368683772E-12  0.17120000000E+03  0.17120000000E+03 0.  0.
         13    1    1    2    0    0  0.18724597090E+02 -0.73300691370E+01  0.10648791804E+03  0.10836986806E+03  0.10566000000E+00 0. -1.
        994    1    1    2    0    0  0.71880537575E+02 -0.18344745504E+02  0.21797965780E+02  0.18785082561E+03  0.17120000000E+03 0.  0.
        998    1    1    2    0    0 -0.90605134665E+02  0.25674814641E+02  0.13717141125E+04  0.13749793063E+04  0.10000000000E+02 0. -1.
</event>
<event>
 5    1  0.1068111E-008  0.3853738E+03  0.7957747E-01  0.3428089E+00
         13   -1    0    0    0    0  0.00000000000E+00  0.00000000000E+00  0.14999999963E+04  0.15000000000E+04  0.10566000000E+00 0.  1.
        994   -1    0    0    0    0 -0.00000000000E+00 -0.00000000000E+00  0.11368683772E-12  0.17120000000E+03  0.17120000000E+03 0.  0.
         13    1    1    2    0    0 -0.19286325487E+01 -0.14836084756E+02  0.78919426262E+02  0.80325064830E+02  0.10566000000E+00 0.  1.
        994    1    1    2    0    0 -0.61217996559E+00  0.79350008764E+01  0.16527641142E+01  0.17139285467E+03  0.17120000000E+03 0.  0.
        998    1    1    2    0    0  0.25408125143E+01  0.69010838799E+01  0.14194278059E+04  0.14194820805E+04  0.10000000000E+02 0.  1.
</event>
<event>
 5    1  0.1068111E-008  0.3864087E+03  0.7957747E-01  0.3423720E+00
         13   -1    0    0    0    0  0.00000000000E+00  0.00000000000E+00  0.14999999963E+04  0.15000000000E+04  0.10566000000E+00 0. -1.
        994   -1    0    0    0    0 -0.00000000000E+00 -0.00000000000E+00  0.11368683772E-12  0.17120000000E+03  0.17120000000E+03 0.  0.
         13    1    1    2    0    0  0.62136703318E+00  0.99822491546E+01  0.56367091689E+02  0.57247633879E+02  0.10566000000E+00 0. -1.
        994    1    1    2    0    0  0.82234199998E+01 -0.35417236671E+01  0.11948365971E+01  0.17143814067E+03  0.17120000000E+03 0.  0.
        998    1    1    2    0    0 -0.88447870330E+01 -0.64405254876E+01  0.14424380680E+04  0.14425142254E+04  0.10000000000E+02 0. -1.
</event>
<event>
 5    1  0.1068111E-008  0.3694512E+03  0.7957747E-01  0.3498417E+00
         13   -1    0    0    0    0  0.00000000000E+00  0.00000000000E+00  0.14999999963E+04  0.15000000000E+04  0.10566000000E+00 0.  1.
        994   -1    0    0    0    0 -0.00000000000E+00 -0.00000000000E+00  0.11368683772E-12  0.17120000000E+03  0.17120000000E+03 0.  0.
         13    1    1    2    0    0  0.40717447652E+02  0.50205431287E+02  0.18688173603E+03  0.19774551904E+03  0.10566000000E+00 0.  1.
        994    1    1    2    0    0 -0.49253017459E+02 -0.46516769022E+02  0.25628433682E+02  0.18589224336E+03  0.17120000000E+03 0.  0.
        998    1    1    2    0    0  0.85355698068E+01 -0.36886622653E+01  0.12874898266E+04  0.12875622376E+04  0.10000000000E+02 0.  1.
</event>
<event>
 5    1  0.1068111E-008  0.3860744E+03  0.7957747E-01  0.3425128E+00
         13   -1    0    0    0    0  0.00000000000E+00  0.00000000000E+00  0.14999999963E+04  0.15000000000E+04  0.10566000000E+00 0.  1.
        994   -1    0    0    0    0 -0.00000000000E+00 -0.00000000000E+00  0.11368683772E-12  0.17120000000E+03  0.17120000000E+03 0.  0.
         13    1    1    2    0    0 -0.95489397996E+01 -0.80262583413E+01  0.64138661283E+02  0.65340508947E+02  0.10566000000E+00 0.  1.
        994    1    1    2    0    0  0.25333148129E+02  0.65719528728E+01  0.33456638270E+01  0.17322122395E+03  0.17120000000E+03 0.  0.
        998    1    1    2    0    0 -0.15784208329E+02  0.14543054684E+01  0.14325156712E+04  0.14326382671E+04  0.10000000000E+02 0.  1.
</event>
<event>
 5    1  0.1068111E-008  0.3757928E+03  0.7957747E-01  0.3469685E+00
         13   -1    0    0    0    0  0.00000000000E+00  0.00000000000E+00  0.14999999963E+04  0.15000000000E+04  0.10566000000E+00 0. -1.
        994   -1    0    0    0    0 -0.00000000000E+00 -0.00000000000E+00  0.11368683772E-12  0.17120000000E+03  0.17120000000E+03 0.  0.
         13    1    1    2    0    0  0.64881594412E+02 -0.46258882430E+02  0.30747781985E+03  0.31763520958E+03  0.10566000000E+00 0. -1.
        994    1    1    2    0    0 -0.97376838202E+02  0.57059884985E+02  0.50758302609E+02  0.21124375583E+03  0.17120000000E+03 0.  0.
        998    1    1    2    0    0  0.32495243790E+02 -0.10801002555E+02  0.11417638738E+04  0.11423210346E+04  0.10000000000E+02 0. -1.
</event>
<event>
 5    1  0.1068111E-008  0.3752528E+03  0.7957747E-01  0.3472093E+00
         13   -1    0    0    0    0  0.00000000000E+00  0.00000000000E+00  0.14999999963E+04  0.15000000000E+04  0.10566000000E+00 0.  1.
        994   -1    0    0    0    0 -0.00000000000E+00 -0.00000000000E+00  0.11368683772E-12  0.17120000000E+03  0.17120000000E+03 0.  0.
         13    1    1    2    0    0  0.32249705887E+02 -0.62346959205E+02  0.37553548772E+03  0.38203939660E+03  0.10566000000E+00 0.  1.
        994    1    1    2    0    0 -0.38753816872E+02  0.25556234789E+02  0.13903343022E+02  0.17792617122E+03  0.17120000000E+03 0.  0.
        998    1    1    2    0    0  0.65041109845E+01  0.36790724416E+02  0.11105611655E+04  0.11112344322E+04  0.10000000000E+02 0.  1.
</event>
<event>
 5    1  0.1068111E-008  0.3777873E+03  0.7957747E-01  0.3460850E+00
         13   -1    0    0    0    0  0.00000000000E+00  0.00000000000E+00  0.14999999963E+04  0.15000000000E+04  0.10566000000E+00 0. -1.
        994   -1    0    0    0    0 -0.00000000000E+00 -0.00000000000E+00  0.11368683772E-12  0.17120000000E+03  0.17120000000E+03 0.  0.
         13    1    1    2    0    0  0.12056131338E+02 -0.31570486022E+01  0.12344248787E+02  0.17541633358E+02  0.10566000000E+00 0. -1.
        994    1    1    2    0    0 -0.12669489831E+02  0.25751321951E+01  0.58173611226E+01  0.17178599759E+03  0.17120000000E+03 0.  0.
        998    1    1    2    0    0  0.61335849265E+00  0.58191640710E+00  0.14818383864E+04  0.14818723690E+04  0.10000000000E+02 0. -1.
</event>
<event>
 5    1  0.1068111E-008  0.3842180E+03  0.7957747E-01  0.3432995E+00
         13   -1    0    0    0    0  0.00000000000E+00  0.00000000000E+00  0.14999999963E+04  0.15000000000E+04  0.10566000000E+00 0. -1.
        994   -1    0    0    0    0 -0.00000000000E+00 -0.00000000000E+00  0.11368683772E-12  0.17120000000E+03  0.17120000000E+03 0.  0.
         13    1    1    2    0    0 -0.10877591633E+02 -0.45155544272E+01  0.34479918750E+02  0.36436083661E+02  0.10566000000E+00 0. -1.
        994    1    1    2    0    0  0.14848024309E+02 -0.24723436860E+02  0.47658529814E+01  0.17367747554E+03  0.17120000000E+03 0.  0.
        998    1    1    2    0    0 -0.39704326755E+01  0.29238991287E+02  0.14607542245E+04  0.14610864408E+04  0.10000000000E+02 0. -1.
</event>
<event>
 5    1  0.1068111E-008  0.3802587E+03  0.7957747E-01  0.3450033E+00
         13   -1    0    0    0    0  0.00000000000E+00  0.00000000000E+00  0.14999999963E+04  0.15000000000E+04  0.10566000000E+00 0.  1.
        994   -1    0    0    0    0 -0.00000000000E+00 -0.00000000000E+00  0.11368683772E-12  0.17120000000E+03  0.17120000000E+03 0.  0.
         13    1    1    2    0    0 -0.39523299231E+01 -0.15964572749E+02  0.31771867490E+02  0.35776405950E+02  0.10566000000E+00 0.  1.
        994    1    1    2    0    0  0.16164830105E+02  0.12039116790E+02  0.53606581914E+01  0.17246570303E+03  0.17120000000E+03 0.  0.
        998    1    1    2    0    0 -0.12212500182E+02  0.39254559586E+01  0.14628674706E+04  0.14629578910E+04  0.10000000000E+02 0.  1.
</event>
<event>
 5    1  0.1068111E-008  0.3782920E+03  0.7957747E-01  0.3458629E+00
         13   -1    0    0    0    0  0.00000000000E+00  0.00000000000E+00  0.14999999963E+04  0.15000000000E+04  0.10566000000E+00 0.  1.
        994   -1    0    0    0    0 -0.00000000000E+00 -0.00000000000E+00  0.11368683772E-12  0.17120000000E+03  0.17120000000E+03 0.  0.
         13    1    1    2    0    0  0.94309767670E+01  0.48468119691E+02  0.26405162852E+03  0.26862869474E+03  0.10566000000E+00 0.  1.
        994    1    1    2    0    0  0.13176951819E+02 -0.20883421629E+02  0.70504475655E+01  0.17311527422E+03  0.17120000000E+03 0.  0.
        998    1    1    2    0    0 -0.22607928586E+02 -0.27584698062E+02  0.12288979202E+04  0.12294560310E+04  0.10000000000E+02 0.  1.
</event>
<event>
 5    1  0.1068111E-008  0.3821664E+03  0.7957747E-01  0.3441779E+00
         13   -1    0    0    0    0  0.00000000000E+00  0.00000000000E+00  0.14999999963E+04  0.15000000000E+04  0.10566000000E+00 0. -1.
        994   -1    0    0    0    0 -0.00000000000E+00 -0.00000000000E+00  0.11368683772E-12  0.17120000000E+03  0.17120000000E+03 0.  0.
         13    1    1    2    0    0 -0.20560367192E+02  0.18597235012E+02  0.11760545816E+03  0.12082897336E+03  0.10566000000E+00 0. -1.
        994    1    1    2    0    0  0.13802318974E+02 -0.24764019251E+02  0.57158952079E+01  0.17362566664E+03  0.17120000000E+03 0.  0.
        998    1    1    2    0    0  0.67580482182E+01  0.61667842381E+01  0.13766786429E+04  0.13767453600E+04  0.10000000000E+02 0. -1.
</event>
<event>
 5    1  0.1068111E-008  0.3738041E+03  0.7957747E-01  0.3478589E+00
         13   -1    0    0    0    0  0.00000000000E+00  0.00000000000E+00  0.14999999963E+04  0.15000000000E+04  0.10566000000E+00 0. -1.
        994   -1    0    0    0    0 -0.00000000000E+00 -0.00000000000E+00  0.11368683772E-12  0.17120000000E+03  0.17120000000E+03 0.  0.
         13    1    1    2    0    0  0.23535323880E+02 -0.34187622602E+02  0.59307073821E+02  0.72388156341E+02  0.10566000000E+00 0. -1.
        994    1    1    2    0    0 -0.25475233556E+02  0.33406491335E+02  0.19244533611E+02  0.17732674153E+03  0.17120000000E+03 0.  0.
        998    1    1    2    0    0  0.19399096758E+01  0.78113126689E+00  0.14214483888E+04  0.14214851021E+04  0.10000000000E+02 0. -1.
</event>
<event>
 5    1  0.1068111E-008  0.3820704E+03  0.7957747E-01  0.3442193E+00
         13   -1    0    0    0    0  0.00000000000E+00  0.00000000000E+00  0.14999999963E+04  0.15000000000E+04  0.10566000000E+00 0.  1.
        994   -1    0    0    0    0 -0.00000000000E+00 -0.00000000000E+00  0.11368683772E-12  0.17120000000E+03  0.17120000000E+03 0.  0.
         13    1    1    2    0    0 -0.24221624437E+02  0.15498737471E+02  0.16105182098E+03  0.16359889413E+03  0.10566000000E+00 0.  1.
        994    1    1    2    0    0 -0.77264232806E+01  0.23651718030E+01  0.33084641616E+01  0.17142251191E+03  0.17120000000E+03 0.  0.
        998    1    1    2    0    0  0.31948047718E+02 -0.17863909274E+02  0.13356397111E+04  0.13361785940E+04  0.10000000000E+02 0.  1.
</event>
<event>
 5    1  0.1068111E-008  0.3831402E+03  0.7957747E-01  0.3437598E+00
         13   -1    0    0    0    0  0.00000000000E+00  0.00000000000E+00  0.14999999963E+04  0.15000000000E+04  0.10566000000E+00 0.  1.
        994   -1    0    0    0    0 -0.00000000000E+00 -0.00000000000E+00  0.11368683772E-12  0.17120000000E+03  0.17120000000E+03 0.  0.
         13    1    1    2    0    0  0.93544119075E+01  0.36571554587E+01  0.19004919532E+02  0.21495998200E+02  0.10566000000E+00 0.  1.
        994    1    1    2    0    0 -0.15763419798E+01 -0.47737249239E+01  0.26399185671E+01  0.17129414022E+03  0.17120000000E+03 0.  0.
        998    1    1    2    0    0 -0.77780699276E+01  0.11165694652E+01  0.14783551582E+04  0.14784098616E+04  0.10000000000E+02 0.  1.
</event>
<event>
 5    1  0.1068111E-008  0.3730419E+03  0.7957747E-01  0.3482027E+00
         13   -1    0    0    0    0  0.00000000000E+00  0.00000000000E+00  0.14999999963E+04  0.15000000000E+04  0.10566000000E+00 0. -1.
        994   -1    0    0    0    0 -0.00000000000E+00 -0.00000000000E+00  0.11368683772E-12  0.17120000000E+03  0.17120000000E+03 0.  0.
         13    1    1    2    0    0 -0.16946731771E+02 -0.51869095013E+02  0.20386126698E+03  0.21103796358E+03  0.10566000000E+00 0. -1.
        994    1    1    2    0    0  0.30792029800E+02  0.12245187548E+02  0.11454445016E+02  0.17475336342E+03  0.17120000000E+03 0.  0.
        998    1    1    2    0    0 -0.13845298029E+02  0.39623907465E+02  0.12846842843E+04  0.12854086730E+04  0.10000000000E+02 0. -1.
</event>
<event>
 5    1  0.1068111E-008  0.3823303E+03  0.7957747E-01  0.3441074E+00
         13   -1    0    0    0    0  0.00000000000E+00  0.00000000000E+00  0.14999999963E+04  0.15000000000E+04  0.10566000000E+00 0.  1.
        994   -1    0    0    0    0 -0.00000000000E+00 -0.00000000000E+00  0.11368683772E-12  0.17120000000E+03  0.17120000000E+03 0.  0.
         13    1    1    2    0    0  0.31181908421E+02 -0.69696613426E+01  0.16839143448E+03  0.17139595667E+03  0.10566000000E+00 0.  1.
        994    1    1    2    0    0 -0.17856775292E+02  0.18100741483E+02  0.51090710961E+01  0.17315323813E+03  0.17120000000E+03 0.  0.
        998    1    1    2    0    0 -0.13325133130E+02 -0.11131080141E+02  0.13264994907E+04  0.13266508052E+04  0.10000000000E+02 0.  1.
</event>
<event>
 5    1  0.1068111E-008  0.3748516E+03  0.7957747E-01  0.3473887E+00
         13   -1    0    0    0    0  0.00000000000E+00  0.00000000000E+00  0.14999999963E+04  0.15000000000E+04  0.10566000000E+00 0. -1.
        994   -1    0    0    0    0 -0.00000000000E+00 -0.00000000000E+00  0.11368683772E-12  0.17120000000E+03  0.17120000000E+03 0.  0.
         13    1    1    2    0    0  0.85384759420E+01 -0.29024945992E+02  0.66804102154E+02  0.73335886781E+02  0.10566000000E+00 0. -1.
        994    1    1    2    0    0 -0.19679575742E+02  0.73313015617E+01  0.82562838330E+01  0.17268074562E+03  0.17120000000E+03 0.  0.
        998    1    1    2    0    0  0.11141099800E+02  0.21693644431E+02  0.14249396103E+04  0.14251833676E+04  0.10000000000E+02 0. -1.
</event>
<event>
 5    1  0.1068111E-008  0.3711910E+03  0.7957747E-01  0.3490435E+00
         13   -1    0    0    0    0  0.00000000000E+00  0.00000000000E+00  0.14999999963E+04  0.15000000000E+04  0.10566000000E+00 0.  1.
        994   -1    0    0    0    0 -0.00000000000E+00 -0.00000000000E+00  0.11368683772E-12  0.17120000000E+03  0.17120000000E+03 0.  0.
         13    1    1    2    0    0  0.24067957525E+01 -0.49960328263E+02  0.25632327383E+03  0.26115791954E+03  0.10566000000E+00 0.  1.
        994    1    1    2    0    0  0.32855086536E+02 -0.55098975322E+02  0.22955246992E+02  0.18425997166E+03  0.17120000000E+03 0.  0.
        998    1    1    2    0    0 -0.35261882288E+02  0.10505930358E+03  0.12207214755E+04  0.12257821088E+04  0.10000000000E+02 0.  1.
</event>
<event>
 5    1  0.1068111E-008  0.3779011E+03  0.7957747E-01  0.3460349E+00
         13   -1    0    0    0    0  0.00000000000E+00  0.00000000000E+00  0.14999999963E+04  0.15000000000E+04  0.10566000000E+00 0.  1.
        994   -1    0    0    0    0 -0.00000000000E+00 -0.00000000000E+00  0.11368683772E-12  0.17120000000E+03  0.17120000000E+03 0.  0.
         13    1    1    2    0    0 -0.33076903669E+02  0.26752165254E+02  0.15862396237E+03  0.16422951167E+03  0.10566000000E+00 0.  1.
        994    1    1    2    0    0  0.32082285600E+02 -0.22573949273E+02  0.10394165229E+02  0.17594412439E+03  0.17120000000E+03 0.  0.
        998    1    1    2    0    0  0.99461806898E+00 -0.41782159806E+01  0.13309818687E+04  0.13310263639E+04  0.10000000000E+02 0.  1.
</event>
<event>
 5    1  0.1068111E-008  0.3790692E+03  0.7957747E-01  0.3455222E+00
         13   -1    0    0    0    0  0.00000000000E+00  0.00000000000E+00  0.14999999963E+04  0.15000000000E+04  0.10566000000E+00 0. -1.
        994   -1    0    0    0    0 -0.00000000000E+00 -0.00000000000E+00  0.11368683772E-12  0.17120000000E+03  0.17120000000E+03 0.  0.
         13    1    1    2    0    0 -0.61485474885E+02 -0.12804115278E+02  0.30963850899E+03  0.31594370765E+03  0.10566000000E+00 0. -1.
        994    1    1    2    0    0  0.69220929252E+02  0.26762659769E+02  0.23299967433E+02  0.18804282886E+03  0.17120000000E+03 0.  0.
        998    1    1    2    0    0 -0.77354543671E+01 -0.13958544491E+02  0.11670615199E+04  0.11672134635E+04  0.10000000000E+02 0. -1.
</event>
<event>
 5    1  0.1068111E-008  0.3804206E+03  0.7957747E-01  0.3449329E+00
         13   -1    0    0    0    0  0.00000000000E+00  0.00000000000E+00  0.14999999963E+04  0.15000000000E+04  0.10566000000E+00 0.  1.
        994   -1    0    0    0    0 -0.00000000000E+00 -0.00000000000E+00  0.11368683772E-12  0.17120000000E+03  0.17120000000E+03 0.  0.
         13    1    1    2    0    0 -0.12689654606E+02 -0.17402392349E+02  0.55843384522E+02  0.59852864195E+02  0.10566000000E+00 0.  1.
        994    1    1    2    0    0  0.14441634281E+02  0.16910354150E+02  0.55735668319E+01  0.17272818393E+03  0.17120000000E+03 0.  0.
        998    1    1    2    0    0 -0.17519796750E+01  0.49203819892E+00  0.14385830449E+04  0.14386189519E+04  0.10000000000E+02 0.  1.
</event>
<event>
 5    1  0.1068111E-008  0.3863589E+03  0.7957747E-01  0.3423929E+00
         13   -1    0    0    0    0  0.00000000000E+00  0.00000000000E+00  0.14999999963E+04  0.15000000000E+04  0.10566000000E+00 0.  1.
        994   -1    0    0    0    0 -0.00000000000E+00 -0.00000000000E+00  0.11368683772E-12  0.17120000000E+03  0.17120000000E+03 0.  0.
         13    1    1    2    0    0  0.22058566013E+01  0.10156416067E+02  0.56028386404E+02  0.56984294659E+02  0.10566000000E+00 0.  1.
        994    1    1    2    0    0 -0.18242685466E+02 -0.71151980425E+01  0.22133580522E+01  0.17233038203E+03  0.17120000000E+03 0.  0.
        998    1    1    2    0    0  0.16036828865E+02 -0.30412180249E+01  0.14417582518E+04  0.14418853233E+04  0.10000000000E+02 0.  1.
</event>
<event>
 5    1  0.1068111E-008  0.3835903E+03  0.7957747E-01  0.3435673E+00
         13   -1    0    0    0    0  0.00000000000E+00  0.00000000000E+00  0.14999999963E+04  0.15000000000E+04  0.10566000000E+00 0.  1.
        994   -1    0    0    0    0 -0.00000000000E+00 -0.00000000000E+00  0.11368683772E-12  0.17120000000E+03  0.17120000000E+03 0.  0.
         13    1    1    2    0    0 -0.12127253030E+02  0.12528931742E+03  0.74615845340E+03  0.75670134932E+03  0.10566000000E+00 0.  1.
        994    1    1    2    0    0  0.28766880400E+02 -0.15876970803E+03  0.93707176695E+02  0.25323078122E+03  0.17120000000E+03 0.  0.
        998    1    1    2    0    0 -0.16639627369E+02  0.33480390605E+02  0.66013436618E+03  0.66126786945E+03  0.10000000000E+02 0.  1.
</event>
<event>
 5    1  0.1068111E-008  0.3791059E+03  0.7957747E-01  0.3455061E+00
         13   -1    0    0    0    0  0.00000000000E+00  0.00000000000E+00  0.14999999963E+04  0.15000000000E+04  0.10566000000E+00 0.  1.
        994   -1    0    0    0    0 -0.00000000000E+00 -0.00000000000E+00  0.11368683772E-12  0.17120000000E+03  0.17120000000E+03 0.  0.
         13    1    1    2    0    0  0.14927378991E+02 -0.28526657443E+01  0.24494692362E+02  0.28826471573E+02  0.10566000000E+00 0.  1.
        994    1    1    2    0    0  0.71017587603E+01 -0.39533877250E+01  0.48067144928E+01  0.17146022500E+03  0.17120000000E+03 0.  0.
        998    1    1    2    0    0 -0.22029137751E+02  0.68060534692E+01  0.14706985894E+04  0.14709133034E+04  0.10000000000E+02 0.  1.
</event>
<event>
 5    1  0.1068111E-008  0.3786332E+03  0.7957747E-01  0.3457131E+00
         13   -1    0    0    0    0  0.00000000000E+00  0.00000000000E+00  0.14999999963E+04  0.15000000000E+04  0.10566000000E+00 0.  1.
        994   -1    0    0    0    0 -0.00000000000E+00 -0.00000000000E+00  0.11368683772E-12  0.17120000000E+03  0.17120000000E+03 0.  0.
         13    1    1    2    0    0 -0.15142279845E+02 -0.16348408724E+01  0.22210844369E+02  0.26931285063E+02  0.10566000000E+00 0.  1.
        994    1    1    2    0    0  0.74124957937E+01 -0.28885140650E-01  0.50092063746E+01  0.17143359670E+03  0.17120000000E+03 0.  0.
        998    1    1    2    0    0  0.77297840508E+01  0.16637260130E+01  0.14727799455E+04  0.14728351182E+04  0.10000000000E+02 0.  1.
</event>
<event>
 5    1  0.1068111E-008  0.3827159E+03  0.7957747E-01  0.3439418E+00
         13   -1    0    0    0    0  0.00000000000E+00  0.00000000000E+00  0.14999999963E+04  0.15000000000E+04  0.10566000000E+00 0.  1.
        994   -1    0    0    0    0 -0.00000000000E+00 -0.00000000000E+00  0.11368683772E-12  0.17120000000E+03  0.17120000000E+03 0.  0.
         13    1    1    2    0    0 -0.11362256512E+02 -0.21719515289E+02  0.10594274218E+03  0.10874150083E+03  0.10566000000E+00 0.  1.
        994    1    1    2    0    0  0.11012501712E+01  0.19415207907E+02  0.40223586230E+01  0.17234785296E+03  0.17120000000E+03 0.  0.
        998    1    1    2    0    0  0.10261006340E+02  0.23043073811E+01  0.13900348955E+04  0.13901106462E+04  0.10000000000E+02 0.  1.
</event>
<event>
 5    1  0.1068111E-008  0.3787137E+03  0.7957747E-01  0.3456778E+00
         13   -1    0    0    0    0  0.00000000000E+00  0.00000000000E+00  0.14999999963E+04  0.15000000000E+04  0.10566000000E+00 0. -1.
        994   -1    0    0    0    0 -0.00000000000E+00 -0.00000000000E+00  0.11368683772E-12  0.17120000000E+03  0.17120000000E+03 0.  0.
         13    1    1    2    0    0  0.18504831877E+02 -0.15850915306E+02  0.56681568395E+02  0.61696772027E+02  0.10566000000E+00 0. -1.
        994    1    1    2    0    0 -0.23653794588E+02  0.21608054395E+02  0.82374070359E+01  0.17436658191E+03  0.17120000000E+03 0.  0.
        998    1    1    2    0    0  0.51489627107E+01 -0.57571390894E+01  0.14350810208E+04  0.14351366461E+04  0.10000000000E+02 0. -1.
</event>
<event>
 5    1  0.1068111E-008  0.3762925E+03  0.7957747E-01  0.3467463E+00
         13   -1    0    0    0    0  0.00000000000E+00  0.00000000000E+00  0.14999999963E+04  0.15000000000E+04  0.10566000000E+00 0. -1.
        994   -1    0    0    0    0 -0.00000000000E+00 -0.00000000000E+00  0.11368683772E-12  0.17120000000E+03  0.17120000000E+03 0.  0.
         13    1    1    2    0    0 -0.20166307672E+01  0.14614712047E+02  0.15244469053E+02  0.21214655515E+02  0.10566000000E+00 0. -1.
        994    1    1    2    0    0 -0.13114742225E+01 -0.16803323676E+02  0.69785211782E+01  0.17216913605E+03  0.17120000000E+03 0.  0.
        998    1    1    2    0    0  0.33281049897E+01  0.21886116295E+01  0.14777770060E+04  0.14778162084E+04  0.10000000000E+02 0. -1.
</event>
<event>
 5    1  0.1068111E-008  0.4659215E+03  0.7957747E-01  0.3145461E+00
         13   -1    0    0    0    0  0.00000000000E+00  0.00000000000E+00  0.14999999963E+04  0.15000000000E+04  0.10566000000E+00 0. -1.
        994   -1    0    0    0    0 -0.00000000000E+00 -0.00000000000E+00  0.11368683772E-12  0.17120000000E+03  0.17120000000E+03 0.  0.
         13    1    1    2    0    0 -0.27616384775E+02  0.40028996460E+02 -0.85970300147E+01  0.49385274675E+02  0.10566000000E+00 0. -1.
        994    1    1    2    0    0 -0.24537667185E+01  0.25800726877E+02  0.78947076434E+02  0.19029918380E+03  0.17120000000E+03 0.  0.
        998    1    1    2    0    0  0.30070151493E+02 -0.65829723337E+02  0.14296499499E+04  0.14315155415E+04  0.10000000000E+02 0. -1.
</event>
<event>
 5    1  0.1068111E-008  0.3824147E+03  0.7957747E-01  0.3440711E+00
         13   -1    0    0    0    0  0.00000000000E+00  0.00000000000E+00  0.14999999963E+04  0.15000000000E+04  0.10566000000E+00 0.  1.
        994   -1    0    0    0    0 -0.00000000000E+00 -0.00000000000E+00  0.11368683772E-12  0.17120000000E+03  0.17120000000E+03 0.  0.
         13    1    1    2    0    0 -0.71873049748E+01  0.35870111329E+02  0.19709684179E+03  0.20046320971E+03  0.10566000000E+00 0.  1.
        994    1    1    2    0    0  0.56216417329E+01 -0.38430264552E+02  0.79381961349E+01  0.17572974434E+03  0.17120000000E+03 0.  0.
        998    1    1    2    0    0  0.15656632419E+01  0.25601532228E+01  0.12949649584E+04  0.12950070459E+04  0.10000000000E+02 0.  1.
</event>
<event>
 5    1  0.1068111E-008  0.3854307E+03  0.7957747E-01  0.3427848E+00
         13   -1    0    0    0    0  0.00000000000E+00  0.00000000000E+00  0.14999999963E+04  0.15000000000E+04  0.10566000000E+00 0.  1.
        994   -1    0    0    0    0 -0.00000000000E+00 -0.00000000000E+00  0.11368683772E-12  0.17120000000E+03  0.17120000000E+03 0.  0.
         13    1    1    2    0    0  0.46000595799E+01  0.90740763124E+01  0.36042946057E+02  0.37451362239E+02  0.10566000000E+00 0.  1.
        994    1    1    2    0    0 -0.43084960291E+01 -0.87570054060E+01  0.17293425873E+01  0.17148667268E+03  0.17120000000E+03 0.  0.
        998    1    1    2    0    0 -0.29156355080E+00 -0.31707090641E+00  0.14622277076E+04  0.14622619651E+04  0.10000000000E+02 0.  0.
</event>
<event>
 5    1  0.1458104E-008  0.3856918E+03  0.7957747E-01  0.3426744E+00
         13   -1    0    0    0    0  0.00000000000E+00  0.00000000000E+00  0.14999999963E+04  0.15000000000E+04  0.10566000000E+00 0. -1.
        994   -1    0    0    0    0 -0.00000000000E+00 -0.00000000000E+00  0.11368683772E-12  0.17120000000E+03  0.17120000000E+03 0.  0.
         13    1    1    2    0    0 -0.52541714676E+01 -0.10424035982E+02  0.53285840717E+02  0.54549599714E+02  0.10566000000E+00 0. -1.
        994    1    1    2    0    0  0.44564447445E+01  0.66099729789E+01  0.14956363809E+01  0.17139203182E+03  0.17120000000E+03 0.  0.
        998    1    1    2    0    0  0.79772672313E+00  0.38140630031E+01  0.14452185192E+04  0.14452583685E+04  0.10000000000E+02 0. -1.
</event>
<event>
 5    1  0.1068111E-008  0.3759382E+03  0.7957747E-01  0.3469038E+00
         13   -1    0    0    0    0  0.00000000000E+00  0.00000000000E+00  0.14999999963E+04  0.15000000000E+04  0.10566000000E+00 0.  1.
        994   -1    0    0    0    0 -0.00000000000E+00 -0.00000000000E+00  0.11368683772E-12  0.17120000000E+03  0.17120000000E+03 0.  0.
         13    1    1    2    0    0 -0.11356435926E+02  0.15515042907E+02  0.29022643180E+02  0.34813936499E+02  0.10566000000E+00 0.  1.
        994    1    1    2    0    0 -0.13619238284E+02  0.27786148355E+01  0.68526855718E+01  0.17189998153E+03  0.17120000000E+03 0.  0.
        998    1    1    2    0    0  0.24975674210E+02 -0.18293657742E+02  0.14641246675E+04  0.14644860820E+04  0.10000000000E+02 0.  1.
</event>
<event>
 5    1  0.1068111E-008  0.3774412E+03  0.7957747E-01  0.3462376E+00
         13   -1    0    0    0    0  0.00000000000E+00  0.00000000000E+00  0.14999999963E+04  0.15000000000E+04  0.10566000000E+00 0. -1.
        994   -1    0    0    0    0 -0.00000000000E+00 -0.00000000000E+00  0.11368683772E-12  0.17120000000E+03  0.17120000000E+03 0.  0.
         13    1    1    2    0    0 -0.15603784750E+02  0.22308800761E+02  0.63087989773E+02  0.68711471441E+02  0.10566000000E+00 0. -1.
        994    1    1    2    0    0  0.10363166566E+02 -0.29727716523E+02  0.87792170095E+01  0.17429184434E+03  0.17120000000E+03 0.  0.
        998    1    1    2    0    0  0.52406181839E+01  0.74189157620E+01  0.14281327895E+04  0.14281966842E+04  0.10000000000E+02 0. -1.
</event>
<event>
 5    1  0.1068111E-008  0.3796320E+03  0.7957747E-01  0.3452762E+00
         13   -1    0    0    0    0  0.00000000000E+00  0.00000000000E+00  0.14999999963E+04  0.15000000000E+04  0.10566000000E+00 0. -1.
        994   -1    0    0    0    0 -0.00000000000E+00 -0.00000000000E+00  0.11368683772E-12  0.17120000000E+03  0.17120000000E+03 0.  0.
         13    1    1    2    0    0 -0.38887927957E+02 -0.57206945390E+02  0.16490051591E+03  0.17882141050E+03  0.10566000000E+00 0. -1.
        994    1    1    2    0    0 -0.55829994950E+02  0.48821051310E+02  0.36310069014E+02  0.19007457615E+03  0.17120000000E+03 0.  0.
        998    1    1    2    0    0  0.94717922907E+02  0.83858940801E+01  0.12987894114E+04  0.13023040134E+04  0.10000000000E+02 0. -1.
</event>
<event>
 5    1  0.1068111E-008  0.3800032E+03  0.7957747E-01  0.3451145E+00
         13   -1    0    0    0    0  0.00000000000E+00  0.00000000000E+00  0.14999999963E+04  0.15000000000E+04  0.10566000000E+00 0.  1.
        994   -1    0    0    0    0 -0.00000000000E+00 -0.00000000000E+00  0.11368683772E-12  0.17120000000E+03  0.17120000000E+03 0.  0.
         13    1    1    2    0    0  0.72667584856E+00  0.39043582452E+02  0.21587308935E+03  0.21937668804E+03  0.10566000000E+00 0.  1.
        994    1    1    2    0    0 -0.11384877986E+02 -0.18567672156E+01  0.45764758699E+01  0.17164919797E+03  0.17120000000E+03 0.  0.
        998    1    1    2    0    0  0.10658202137E+02 -0.37186815237E+02  0.12795504311E+04  0.12801741140E+04  0.10000000000E+02 0.  1.
</event>
<event>
 5    1  0.1068111E-008  0.3741500E+03  0.7957747E-01  0.3477033E+00
         13   -1    0    0    0    0  0.00000000000E+00  0.00000000000E+00  0.14999999963E+04  0.15000000000E+04  0.10566000000E+00 0. -1.
        994   -1    0    0    0    0 -0.00000000000E+00 -0.00000000000E+00  0.11368683772E-12  0.17120000000E+03  0.17120000000E+03 0.  0.
         13    1    1    2    0    0 -0.17789851037E+02  0.92247466226E+02  0.29943604727E+03  0.31382802838E+03  0.10566000000E+00 0. -1.
        994    1    1    2    0    0  0.23582500377E+02 -0.70074980651E+02  0.32806837981E+02  0.18934720979E+03  0.17120000000E+03 0.  0.
        998    1    1    2    0    0 -0.57926493395E+01 -0.22172485576E+02  0.11677571110E+04  0.11680247618E+04  0.10000000000E+02 0. -1.
</event>
<event>
 5    1  0.1068111E-008  0.3811771E+03  0.7957747E-01  0.3446049E+00
         13   -1    0    0    0    0  0.00000000000E+00  0.00000000000E+00  0.14999999963E+04  0.15000000000E+04  0.10566000000E+00 0. -1.
        994   -1    0    0    0    0 -0.00000000000E+00 -0.00000000000E+00  0.11368683772E-12  0.17120000000E+03  0.17120000000E+03 0.  0.
         13    1    1    2    0    0  0.19319174135E+02 -0.26470169018E+02  0.15291152622E+03  0.15638365116E+03  0.10566000000E+00 0. -1.
        994    1    1    2    0    0 -0.74285460509E+01  0.15630634470E+02  0.45380877570E+01  0.17213231617E+03  0.17120000000E+03 0.  0.
        998    1    1    2    0    0 -0.11890628084E+02  0.10839534548E+02  0.13425503823E+04  0.13426840327E+04  0.10000000000E+02 0. -1.
</event>
<event>
 5    1  0.1068111E-008  0.3847260E+03  0.7957747E-01  0.3430835E+00
         13   -1    0    0    0    0  0.00000000000E+00  0.00000000000E+00  0.14999999963E+04  0.15000000000E+04  0.10566000000E+00 0.  1.
        994   -1    0    0    0    0 -0.00000000000E+00 -0.00000000000E+00  0.11368683772E-12  0.17120000000E+03  0.17120000000E+03 0.  0.
         13    1    1    2    0    0 -0.14566201304E+02  0.78694344970E+01  0.81057707606E+02  0.82731283963E+02  0.10566000000E+00 0.  1.
        994    1    1    2    0    0  0.46635297718E+01 -0.15205247315E+00  0.18379015828E+01  0.17127343493E+03  0.17120000000E+03 0.  0.
        998    1    1    2    0    0  0.99026715319E+01 -0.77173820239E+01  0.14171043871E+04  0.14171952811E+04  0.10000000000E+02 0.  1.
</event>
<event>
 5    1  0.1068111E-008  0.3811698E+03  0.7957747E-01  0.3446081E+00
         13   -1    0    0    0    0  0.00000000000E+00  0.00000000000E+00  0.14999999963E+04  0.15000000000E+04  0.10566000000E+00 0.  1.
        994   -1    0    0    0    0 -0.00000000000E+00 -0.00000000000E+00  0.11368683772E-12  0.17120000000E+03  0.17120000000E+03 0.  0.
         13    1    1    2    0    0  0.14761604896E+02  0.19769777057E+01  0.29565581703E+02  0.33105108449E+02  0.10566000000E+00 0.  1.
        994    1    1    2    0    0 -0.16084263772E+02  0.14786155143E+02  0.51349470677E+01  0.17266482446E+03  0.17120000000E+03 0.  0.
        998    1    1    2    0    0  0.13226588756E+01 -0.16763132848E+02  0.14652994675E+04  0.14654300671E+04  0.10000000000E+02 0.  1.
</event>
<event>
 5    1  0.1068111E-008  0.3849083E+03  0.7957747E-01  0.3430061E+00
         13   -1    0    0    0    0  0.00000000000E+00  0.00000000000E+00  0.14999999963E+04  0.15000000000E+04  0.10566000000E+00 0.  1.
        994   -1    0    0    0    0 -0.00000000000E+00 -0.00000000000E+00  0.11368683772E-12  0.17120000000E+03  0.17120000000E+03 0.  0.
         13    1    1    2    0    0  0.11130105938E+02  0.39071817258E+01  0.41557309360E+02  0.43199148747E+02  0.10566000000E+00 0.  1.
        994    1    1    2    0    0 -0.66357660908E+01 -0.22516704109E+01  0.18372349523E+01  0.17135319911E+03  0.17120000000E+03 0.  0.
        998    1    1    2    0    0 -0.44943398475E+01 -0.16555113149E+01  0.14566054520E+04  0.14566476521E+04  0.10000000000E+02 0.  1.
</event>
<event>
 5    1  0.1068111E-008  0.3764529E+03  0.7957747E-01  0.3466750E+00
         13   -1    0    0    0    0  0.00000000000E+00  0.00000000000E+00  0.14999999963E+04  0.15000000000E+04  0.10566000000E+00 0.  1.
        994   -1    0    0    0    0 -0.00000000000E+00 -0.00000000000E+00  0.11368683772E-12  0.17120000000E+03  0.17120000000E+03 0.  0.
         13    1    1    2    0    0 -0.50377522949E+02 -0.16905787970E+02  0.21784031220E+03  0.22422781556E+03  0.10566000000E+00 0.  1.
        994    1    1    2    0    0  0.33800644434E+02  0.35777208571E+02  0.14173234553E+02  0.17869754558E+03  0.17120000000E+03 0.  0.
        998    1    1    2    0    0  0.16576878515E+02 -0.18871420601E+02  0.12679864495E+04  0.12682746389E+04  0.10000000000E+02 0.  1.
</event>
<event>
 5    1  0.1068111E-008  0.3794582E+03  0.7957747E-01  0.3453521E+00
         13   -1    0    0    0    0  0.00000000000E+00  0.00000000000E+00  0.14999999963E+04  0.15000000000E+04  0.10566000000E+00 0.  1.
        994   -1    0    0    0    0 -0.00000000000E+00 -0.00000000000E+00  0.11368683772E-12  0.17120000000E+03  0.17120000000E+03 0.  0.
         13    1    1    2    0    0  0.23943716638E+02 -0.25383943453E+02  0.14906803976E+03  0.15309780467E+03  0.10566000000E+00 0.  1.
        994    1    1    2    0    0 -0.14292963777E+01  0.77015242732E+01  0.46123867952E+01  0.17144115747E+03  0.17120000000E+03 0.  0.
        998    1    1    2    0    0 -0.22514420261E+02  0.17682419180E+02  0.13463195697E+04  0.13466610379E+04  0.10000000000E+02 0.  1.
</event>
<event>
 5    1  0.1068111E-008  0.3860673E+03  0.7957747E-01  0.3425158E+00
         13   -1    0    0    0    0  0.00000000000E+00  0.00000000000E+00  0.14999999963E+04  0.15000000000E+04  0.10566000000E+00 0. -1.
        994   -1    0    0    0    0 -0.00000000000E+00 -0.00000000000E+00  0.11368683772E-12  0.17120000000E+03  0.17120000000E+03 0.  0.
         13    1    1    2    0    0 -0.38092660207E+01  0.93016090089E+01  0.44388892206E+02  0.45512804277E+02  0.10566000000E+00 0. -1.
        994    1    1    2    0    0 -0.32097072376E+00 -0.15343636635E+02  0.18734377800E+01  0.17189671311E+03  0.17120000000E+03 0.  0.
        998    1    1    2    0    0  0.41302367445E+01  0.60420276258E+01  0.14537376663E+04  0.14537904826E+04  0.10000000000E+02 0. -1.
</event>
<event>
 5    1  0.1068111E-008  0.3820840E+03  0.7957747E-01  0.3442134E+00
         13   -1    0    0    0    0  0.00000000000E+00  0.00000000000E+00  0.14999999963E+04  0.15000000000E+04  0.10566000000E+00 0.  1.
        994   -1    0    0    0    0 -0.00000000000E+00 -0.00000000000E+00  0.11368683772E-12  0.17120000000E+03  0.17120000000E+03 0.  0.
         13    1    1    2    0    0 -0.17927749173E+02 -0.68467453534E+01  0.65212487288E+02  0.67977656437E+02  0.10566000000E+00 0.  1.
        994    1    1    2    0    0 -0.93037398206E+01 -0.22914266955E+01  0.33896898925E+01  0.17150142917E+03  0.17120000000E+03 0.  0.
        998    1    1    2    0    0  0.27231488994E+02  0.91381720489E+01  0.14313978191E+04  0.14317209144E+04  0.10000000000E+02 0.  1.
</event>
<event>
 5    1  0.1068111E-008  0.3769252E+03  0.7957747E-01  0.3464657E+00
         13   -1    0    0    0    0  0.00000000000E+00  0.00000000000E+00  0.14999999963E+04  0.15000000000E+04  0.10566000000E+00 0. -1.
        994   -1    0    0    0    0 -0.00000000000E+00 -0.00000000000E+00  0.11368683772E-12  0.17120000000E+03  0.17120000000E+03 0.  0.
         13    1    1    2    0    0 -0.18688303376E+02  0.47379242693E+01  0.61370449399E+01  0.20233019895E+02  0.10566000000E+00 0. -1.
        994    1    1    2    0    0  0.10132366295E+02 -0.25655249270E+02  0.17379398374E+02  0.17427661963E+03  0.17120000000E+03 0.  0.
        998    1    1    2    0    0  0.85559370812E+01  0.20917325001E+02  0.14764835530E+04  0.14766903605E+04  0.10000000000E+02 0. -1.
</event>
<event>
 5    1  0.1068111E-008  0.3835167E+03  0.7957747E-01  0.3435988E+00
         13   -1    0    0    0    0  0.00000000000E+00  0.00000000000E+00  0.14999999963E+04  0.15000000000E+04  0.10566000000E+00 0. -1.
        994   -1    0    0    0    0 -0.00000000000E+00 -0.00000000000E+00  0.11368683772E-12  0.17120000000E+03  0.17120000000E+03 0.  0.
         13    1    1    2    0    0 -0.66721632213E+01 -0.85017270493E+01  0.23723642803E+02  0.26069513167E+02  0.10566000000E+00 0. -1.
        994    1    1    2    0    0  0.11141874890E+02  0.29603851683E+01  0.28076867977E+01  0.17161068837E+03  0.17120000000E+03 0.  0.
        998    1    1    2    0    0 -0.44697116687E+01  0.55413418810E+01  0.14734686667E+04  0.14735197985E+04  0.10000000000E+02 0. -1.
</event>
<event>
 5    1  0.1068111E-008  0.3769038E+03  0.7957747E-01  0.3464752E+00
         13   -1    0    0    0    0  0.00000000000E+00  0.00000000000E+00  0.14999999963E+04  0.15000000000E+04  0.10566000000E+00 0.  1.
        994   -1    0    0    0    0 -0.00000000000E+00 -0.00000000000E+00  0.11368683772E-12  0.17120000000E+03  0.17120000000E+03 0.  0.
         13    1    1    2    0    0  0.23663089742E+02 -0.11485242165E+02  0.59248449139E+02  0.64824705886E+02  0.10566000000E+00 0.  1.
        994    1    1    2    0    0 -0.11183993955E+02  0.73541861485E+01  0.63096850052E+01  0.17183834816E+03  0.17120000000E+03 0.  0.
        998    1    1    2    0    0 -0.12479095787E+02  0.41310560162E+01  0.14344418621E+04  0.14345369460E+04  0.10000000000E+02 0.  1.
</event>
<event>
 5    1  0.1068111E-008  0.3899834E+03  0.7957747E-01  0.3408808E+00
         13   -1    0    0    0    0  0.00000000000E+00  0.00000000000E+00  0.14999999963E+04  0.15000000000E+04  0.10566000000E+00 0.  1.
        994   -1    0    0    0    0 -0.00000000000E+00 -0.00000000000E+00  0.11368683772E-12  0.17120000000E+03  0.17120000000E+03 0.  0.
         13    1    1    2    0    0  0.30248051878E+02  0.19776194257E+02  0.20556647498E+02  0.41576789464E+02  0.10566000000E+00 0.  1.
        994    1    1    2    0    0 -0.42968363019E+02 -0.35445937447E+00  0.28900983126E+02  0.17886059568E+03  0.17120000000E+03 0.  0.
        998    1    1    2    0    0  0.12720311141E+02 -0.19421734882E+02  0.14505423657E+04  0.14507626149E+04  0.10000000000E+02 0.  1.
</event>
<event>
 5    1  0.1068111E-008  0.3753470E+03  0.7957747E-01  0.3471672E+00
         13   -1    0    0    0    0  0.00000000000E+00  0.00000000000E+00  0.14999999963E+04  0.15000000000E+04  0.10566000000E+00 0. -1.
        994   -1    0    0    0    0 -0.00000000000E+00 -0.00000000000E+00  0.11368683772E-12  0.17120000000E+03  0.17120000000E+03 0.  0.
         13    1    1    2    0    0 -0.17944137370E+02 -0.44194772211E+02  0.22520869776E+03  0.23020455831E+03  0.10566000000E+00 0. -1.
        994    1    1    2    0    0 -0.14980292751E+02 -0.63332720710E+01  0.73992445810E+01  0.17212991700E+03  0.17120000000E+03 0.  0.
        998    1    1    2    0    0  0.32924430121E+02  0.50528044282E+02  0.12673920539E+04  0.12688655247E+04  0.10000000000E+02 0. -1.
</event>
<event>
 5    1  0.1068111E-008  0.3789868E+03  0.7957747E-01  0.3455582E+00
         13   -1    0    0    0    0  0.00000000000E+00  0.00000000000E+00  0.14999999963E+04  0.15000000000E+04  0.10566000000E+00 0.  1.
        994   -1    0    0    0    0 -0.00000000000E+00 -0.00000000000E+00  0.11368683772E-12  0.17120000000E+03  0.17120000000E+03 0.  0.
         13    1    1    2    0    0  0.74881038982E+01 -0.23933505271E+02  0.68126059371E+02  0.72595147937E+02  0.10566000000E+00 0.  1.
        994    1    1    2    0    0 -0.24527936590E+01  0.77259052424E+01  0.48658902624E+01  0.17146084887E+03  0.17120000000E+03 0.  0.
        998    1    1    2    0    0 -0.50353102391E+01  0.16207600028E+02  0.14270080466E+04  0.14271440032E+04  0.10000000000E+02 0.  1.
</event>
<event>
 5    1  0.1068111E-008  0.3771299E+03  0.7957747E-01  0.3463752E+00
         13   -1    0    0    0    0  0.00000000000E+00  0.00000000000E+00  0.14999999963E+04  0.15000000000E+04  0.10566000000E+00 0.  1.
        994   -1    0    0    0    0 -0.00000000000E+00 -0.00000000000E+00  0.11368683772E-12  0.17120000000E+03  0.17120000000E+03 0.  0.
         13    1    1    2    0    0 -0.14089960425E+02  0.24527854320E+02  0.66961247211E+02  0.72690868851E+02  0.10566000000E+00 0.  1.
        994    1    1    2    0    0  0.13484548047E+02 -0.24274142068E+02  0.81957241918E+01  0.17363086392E+03  0.17120000000E+03 0.  0.
        998    1    1    2    0    0  0.60541237777E+00 -0.25371225144E+00  0.14248430249E+04  0.14248782672E+04  0.10000000000E+02 0.  0.
</event>
<event>
 5    1  0.1068111E-008  0.3829142E+03  0.7957747E-01  0.3438567E+00
         13   -1    0    0    0    0  0.00000000000E+00  0.00000000000E+00  0.14999999963E+04  0.15000000000E+04  0.10566000000E+00 0.  1.
        994   -1    0    0    0    0 -0.00000000000E+00 -0.00000000000E+00  0.11368683772E-12  0.17120000000E+03  0.17120000000E+03 0.  0.
         13    1    1    2    0    0  0.78338779964E+01 -0.10625155972E+02  0.31949976390E+02  0.34569867504E+02  0.10566000000E+00 0.  1.
        994    1    1    2    0    0 -0.13108822675E+01  0.80178257999E+01  0.28878401397E+01  0.17141698738E+03  0.17120000000E+03 0.  0.
        998    1    1    2    0    0 -0.65229957289E+01  0.26073301725E+01  0.14651621797E+04  0.14652131451E+04  0.10000000000E+02 0.  1.
</event>
<event>
 5    1  0.1068111E-008  0.3787810E+03  0.7957747E-01  0.3456484E+00
         13   -1    0    0    0    0  0.00000000000E+00  0.00000000000E+00  0.14999999963E+04  0.15000000000E+04  0.10566000000E+00 0.  1.
        994   -1    0    0    0    0 -0.00000000000E+00 -0.00000000000E+00  0.11368683772E-12  0.17120000000E+03  0.17120000000E+03 0.  0.
         13    1    1    2    0    0 -0.28748158544E+02 -0.22662662088E+02  0.19931490429E+03  0.20264869876E+03  0.10566000000E+00 0.  1.
        994    1    1    2    0    0  0.18229221523E+02 -0.58749951384E+02  0.17556753019E+02  0.18276088444E+03  0.17120000000E+03 0.  0.
        998    1    1    2    0    0  0.10518937020E+02  0.81412613472E+02  0.12831283390E+04  0.12857904168E+04  0.10000000000E+02 0.  1.
</event>
<event>
 5    1  0.1068111E-008  0.3797649E+03  0.7957747E-01  0.3452183E+00
         13   -1    0    0    0    0  0.00000000000E+00  0.00000000000E+00  0.14999999963E+04  0.15000000000E+04  0.10566000000E+00 0.  1.
        994   -1    0    0    0    0 -0.00000000000E+00 -0.00000000000E+00  0.11368683772E-12  0.17120000000E+03  0.17120000000E+03 0.  0.
         13    1    1    2    0    0  0.15758966558E+02  0.52318541470E+01  0.32159032166E+02  0.36192980516E+02  0.10566000000E+00 0.  1.
        994    1    1    2    0    0  0.22631474994E+01  0.34826554285E+01  0.43095992875E+01  0.17130459238E+03  0.17120000000E+03 0.  0.
        998    1    1    2    0    0 -0.18022114058E+02 -0.87145095755E+01  0.14635313648E+04  0.14637024271E+04  0.10000000000E+02 0.  1.
</event>
<event>
 5    1  0.1068111E-008  0.3832010E+03  0.7957747E-01  0.3437338E+00
         13   -1    0    0    0    0  0.00000000000E+00  0.00000000000E+00  0.14999999963E+04  0.15000000000E+04  0.10566000000E+00 0.  1.
        994   -1    0    0    0    0 -0.00000000000E+00 -0.00000000000E+00  0.11368683772E-12  0.17120000000E+03  0.17120000000E+03 0.  0.
         13    1    1    2    0    0 -0.43808433704E+01 -0.15384099111E+02  0.51553743544E+02  0.53978346877E+02  0.10566000000E+00 0.  1.
        994    1    1    2    0    0 -0.41840839960E+01  0.50095186714E+01  0.26669041390E+01  0.17134513187E+03  0.17120000000E+03 0.  0.
        998    1    1    2    0    0  0.85649273663E+01  0.10374580440E+02  0.14457793486E+04  0.14458765213E+04  0.10000000000E+02 0.  1.
</event>
<event>
 5    1  0.1068111E-008  0.3838166E+03  0.7957747E-01  0.3434707E+00
         13   -1    0    0    0    0  0.00000000000E+00  0.00000000000E+00  0.14999999963E+04  0.15000000000E+04  0.10566000000E+00 0. -1.
        994   -1    0    0    0    0 -0.00000000000E+00 -0.00000000000E+00  0.11368683772E-12  0.17120000000E+03  0.17120000000E+03 0.  0.
         13    1    1    2    0    0  0.19524597920E+03  0.11758843152E+03  0.12412763354E+04  0.12620281231E+04  0.10566000000E+00 0. -1.
        994    1    1    2    0    0 -0.20017881610E+03 -0.10932184392E+03  0.19874681202E+03  0.34760978016E+03  0.17120000000E+03 0.  0.
        998    1    1    2    0    0  0.49328369010E+01 -0.82665875949E+01  0.59976848885E+02  0.61562096719E+02  0.10000000000E+02 0.  1.
</event>
<event>
 5    1  0.1068111E-008  0.3791600E+03  0.7957747E-01  0.3454824E+00
         13   -1    0    0    0    0  0.00000000000E+00  0.00000000000E+00  0.14999999963E+04  0.15000000000E+04  0.10566000000E+00 0.  1.
        994   -1    0    0    0    0 -0.00000000000E+00 -0.00000000000E+00  0.11368683772E-12  0.17120000000E+03  0.17120000000E+03 0.  0.
         13    1    1    2    0    0  0.31573257693E+02  0.29204784804E+02  0.22112348035E+03  0.22526738509E+03  0.10566000000E+00 0.  1.
        994    1    1    2    0    0 -0.76363490192E+01 -0.10059063592E+02  0.50926002848E+01  0.17174071493E+03  0.17120000000E+03 0.  0.
        998    1    1    2    0    0 -0.23936908673E+02 -0.19145721213E+02  0.12737839156E+04  0.12741919000E+04  0.10000000000E+02 0.  1.
</event>
<event>
 5    1  0.1068111E-008  0.3751424E+03  0.7957747E-01  0.3472586E+00
         13   -1    0    0    0    0  0.00000000000E+00  0.00000000000E+00  0.14999999963E+04  0.15000000000E+04  0.10566000000E+00 0. -1.
        994   -1    0    0    0    0 -0.00000000000E+00 -0.00000000000E+00  0.11368683772E-12  0.17120000000E+03  0.17120000000E+03 0.  0.
         13    1    1    2    0    0 -0.84738488454E+02  0.10352267487E+01  0.47944609272E+03  0.48687806492E+03  0.10566000000E+00 0. -1.
        994    1    1    2    0    0  0.65054475434E+02  0.40884243359E+02  0.26935602488E+02  0.18957471564E+03  0.17120000000E+03 0.  0.
        998    1    1    2    0    0  0.19684013019E+02 -0.41919470108E+02  0.99361830107E+03  0.99474721943E+03  0.10000000000E+02 0. -1.
</event>
<event>
 5    1  0.1068111E-008  0.3823076E+03  0.7957747E-01  0.3441172E+00
         13   -1    0    0    0    0  0.00000000000E+00  0.00000000000E+00  0.14999999963E+04  0.15000000000E+04  0.10566000000E+00 0.  1.
        994   -1    0    0    0    0 -0.00000000000E+00 -0.00000000000E+00  0.11368683772E-12  0.17120000000E+03  0.17120000000E+03 0.  0.
         13    1    1    2    0    0 -0.71851051811E+01  0.23646520087E+02  0.10610786877E+03  0.10894803637E+03  0.10566000000E+00 0.  1.
        994    1    1    2    0    0 -0.74033817858E+02 -0.39596991326E+02  0.26721908826E+02  0.19254201702E+03  0.17120000000E+03 0.  0.
        998    1    1    2    0    0  0.81218923039E+02  0.15950471239E+02  0.13671702187E+04  0.13697099466E+04  0.10000000000E+02 0.  1.
</event>
<event>
 5    1  0.1068111E-008  0.3792439E+03  0.7957747E-01  0.3454457E+00
         13   -1    0    0    0    0  0.00000000000E+00  0.00000000000E+00  0.14999999963E+04  0.15000000000E+04  0.10566000000E+00 0. -1.
        994   -1    0    0    0    0 -0.00000000000E+00 -0.00000000000E+00  0.11368683772E-12  0.17120000000E+03  0.17120000000E+03 0.  0.
         13    1    1    2    0    0 -0.13313949531E+02  0.81408274733E+01  0.25682778984E+02  0.30052464532E+02  0.10566000000E+00 0. -1.
        994    1    1    2    0    0  0.83135840448E+01  0.81112483580E+01  0.49675361802E+01  0.17166544336E+03  0.17120000000E+03 0.  0.
        998    1    1    2    0    0  0.50003654864E+01 -0.16252075831E+02  0.14693496811E+04  0.14694820921E+04  0.10000000000E+02 0. -1.
</event>
<event>
 5    1  0.1068111E-008  0.3755787E+03  0.7957747E-01  0.3470639E+00
         13   -1    0    0    0    0  0.00000000000E+00  0.00000000000E+00  0.14999999963E+04  0.15000000000E+04  0.10566000000E+00 0. -1.
        994   -1    0    0    0    0 -0.00000000000E+00 -0.00000000000E+00  0.11368683772E-12  0.17120000000E+03  0.17120000000E+03 0.  0.
         13    1    1    2    0    0 -0.18482730784E+02 -0.42686837087E+02  0.15297179019E+03  0.15988795188E+03  0.10566000000E+00 0. -1.
        994    1    1    2    0    0  0.20639583189E+02  0.39595736733E+02  0.13176178309E+02  0.17741721009E+03  0.17120000000E+03 0.  0.
        998    1    1    2    0    0 -0.21568524056E+01  0.30911003539E+01  0.13338520278E+04  0.13338948380E+04  0.10000000000E+02 0. -1.
</event>
<event>
 5    1  0.1068111E-008  0.4055188E+03  0.7957747E-01  0.3347053E+00
         13   -1    0    0    0    0  0.00000000000E+00  0.00000000000E+00  0.14999999963E+04  0.15000000000E+04  0.10566000000E+00 0.  1.
        994   -1    0    0    0    0 -0.00000000000E+00 -0.00000000000E+00  0.11368683772E-12  0.17120000000E+03  0.17120000000E+03 0.  0.
         13    1    1    2    0    0 -0.52164631469E+01  0.49436333887E+02  0.28194073213E+02  0.57149624008E+02  0.10566000000E+00 0.  1.
        994    1    1    2    0    0  0.89937268974E+01 -0.40422418431E+02  0.38016915606E+02  0.18019318774E+03  0.17120000000E+03 0.  0.
        998    1    1    2    0    0 -0.37772637506E+01 -0.90139154560E+01  0.14337890075E+04  0.14338571883E+04  0.10000000000E+02 0.  1.
</event>
<event>
 5    1  0.1068111E-008  0.3804382E+03  0.7957747E-01  0.3449252E+00
         13   -1    0    0    0    0  0.00000000000E+00  0.00000000000E+00  0.14999999963E+04  0.15000000000E+04  0.10566000000E+00 0. -1.
        994   -1    0    0    0    0 -0.00000000000E+00 -0.00000000000E+00  0.11368683772E-12  0.17120000000E+03  0.17120000000E+03 0.  0.
         13    1    1    2    0    0  0.27873070967E+02 -0.29718337203E+02  0.22914095653E+03  0.23273520743E+03  0.10566000000E+00 0. -1.
        994    1    1    2    0    0  0.26861950870E+02  0.50702158015E+02  0.14981219520E+02  0.18117988346E+03  0.17120000000E+03 0.  0.
        998    1    1    2    0    0 -0.54735021836E+02 -0.20983820813E+02  0.12558778202E+04  0.12572849091E+04  0.10000000000E+02 0. -1.
</event>
<event>
 5    1  0.1068111E-008  0.4392328E+03  0.7957747E-01  0.3227885E+00
         13   -1    0    0    0    0  0.00000000000E+00  0.00000000000E+00  0.14999999963E+04  0.15000000000E+04  0.10566000000E+00 0. -1.
        994   -1    0    0    0    0 -0.00000000000E+00 -0.00000000000E+00  0.11368683772E-12  0.17120000000E+03  0.17120000000E+03 0.  0.
         13    1    1    2    0    0  0.31074120626E+02  0.66618531493E+02  0.36992079865E+02  0.82292495695E+02  0.10566000000E+00 0. -1.
        994    1    1    2    0    0 -0.16116620387E+02 -0.27044783909E+02  0.58369150670E+02  0.18359619696E+03  0.17120000000E+03 0.  0.
        998    1    1    2    0    0 -0.14957500239E+02 -0.39573747585E+02  0.14046387657E+04  0.14053113073E+04  0.10000000000E+02 0. -1.
</event>
<event>
 5    1  0.1068111E-008  0.3812533E+03  0.7957747E-01  0.3445720E+00
         13   -1    0    0    0    0  0.00000000000E+00  0.00000000000E+00  0.14999999963E+04  0.15000000000E+04  0.10566000000E+00 0.  1.
        994   -1    0    0    0    0 -0.00000000000E+00 -0.00000000000E+00  0.11368683772E-12  0.17120000000E+03  0.17120000000E+03 0.  0.
         13    1    1    2    0    0  0.10990238821E+02  0.16658813007E+01  0.15976179351E+02  0.19463041400E+02  0.10566000000E+00 0.  1.
        994    1    1    2    0    0 -0.13525191271E+02  0.42156219008E+01  0.41702782749E+01  0.17183577476E+03  0.17120000000E+03 0.  0.
        998    1    1    2    0    0  0.25349524495E+01 -0.58815032015E+01  0.14798535387E+04  0.14799011838E+04  0.10000000000E+02 0.  1.
</event>
<event>
 5    1  0.1068111E-008  0.3851557E+03  0.7957747E-01  0.3429012E+00
         13   -1    0    0    0    0  0.00000000000E+00  0.00000000000E+00  0.14999999963E+04  0.15000000000E+04  0.10566000000E+00 0.  1.
        994   -1    0    0    0    0 -0.00000000000E+00 -0.00000000000E+00  0.11368683772E-12  0.17120000000E+03  0.17120000000E+03 0.  0.
         13    1    1    2    0    0  0.28862268579E+01  0.18467294680E+02  0.10163233441E+03  0.10333689487E+03  0.10566000000E+00 0.  1.
        994    1    1    2    0    0 -0.10328918662E+02 -0.23610652088E+02  0.37389432418E+01  0.17316919226E+03  0.17120000000E+03 0.  0.
        998    1    1    2    0    0  0.74426918040E+01  0.51433574073E+01  0.13946287186E+04  0.13946939129E+04  0.10000000000E+02 0.  1.
</event>
<event>
 5    1  0.1068111E-008  0.3780761E+03  0.7957747E-01  0.3459579E+00
         13   -1    0    0    0    0  0.00000000000E+00  0.00000000000E+00  0.14999999963E+04  0.15000000000E+04  0.10566000000E+00 0.  1.
        994   -1    0    0    0    0 -0.00000000000E+00 -0.00000000000E+00  0.11368683772E-12  0.17120000000E+03  0.17120000000E+03 0.  0.
         13    1    1    2    0    0  0.13874295144E+02 -0.22101844634E+02  0.60434444184E+02  0.65827963738E+02  0.10566000000E+00 0.  1.
        994    1    1    2    0    0 -0.23876774631E+02  0.26445028944E+02  0.93901635395E+01  0.17512011619E+03  0.17120000000E+03 0.  0.
        998    1    1    2    0    0  0.10002479486E+02 -0.43431843098E+01  0.14301753886E+04  0.14302519201E+04  0.10000000000E+02 0.  1.
</event>
<event>
 5    1  0.1068111E-008  0.3859302E+03  0.7957747E-01  0.3425737E+00
         13   -1    0    0    0    0  0.00000000000E+00  0.00000000000E+00  0.14999999963E+04  0.15000000000E+04  0.10566000000E+00 0. -1.
        994   -1    0    0    0    0 -0.00000000000E+00 -0.00000000000E+00  0.11368683772E-12  0.17120000000E+03  0.17120000000E+03 0.  0.
         13    1    1    2    0    0 -0.13110648570E+02  0.66463495878E-01  0.71911323281E+02  0.73096806383E+02  0.10566000000E+00 0. -1.
        994    1    1    2    0    0  0.13067440023E+02  0.98045717388E+01  0.20445518705E+01  0.17198984798E+03  0.17120000000E+03 0.  0.
        998    1    1    2    0    0  0.43208546742E-01 -0.98710352347E+01  0.14260441211E+04  0.14261133456E+04  0.10000000000E+02 0. -1.
</event>
<event>
 5    1  0.1068111E-008  0.3831826E+03  0.7957747E-01  0.3437417E+00
         13   -1    0    0    0    0  0.00000000000E+00  0.00000000000E+00  0.14999999963E+04  0.15000000000E+04  0.10566000000E+00 0. -1.
        994   -1    0    0    0    0 -0.00000000000E+00 -0.00000000000E+00  0.11368683772E-12  0.17120000000E+03  0.17120000000E+03 0.  0.
         13    1    1    2    0    0  0.26488009552E+01 -0.16280469052E+02  0.53097494074E+02  0.55600583270E+02  0.10566000000E+00 0. -1.
        994    1    1    2    0    0  0.19439425999E+01  0.10641675210E+02  0.29223509767E+01  0.17156632624E+03  0.17120000000E+03 0.  0.
        998    1    1    2    0    0 -0.45927435551E+01  0.56387938420E+01  0.14439801512E+04  0.14440330905E+04  0.10000000000E+02 0. -1.
</event>
<event>
 5    1  0.1068111E-008  0.3819836E+03  0.7957747E-01  0.3442567E+00
         13   -1    0    0    0    0  0.00000000000E+00  0.00000000000E+00  0.14999999963E+04  0.15000000000E+04  0.10566000000E+00 0.  1.
        994   -1    0    0    0    0 -0.00000000000E+00 -0.00000000000E+00  0.11368683772E-12  0.17120000000E+03  0.17120000000E+03 0.  0.
         13    1    1    2    0    0 -0.99347820709E+01 -0.25763363309E+02  0.11342070169E+03  0.11673353211E+03  0.10566000000E+00 0.  1.
        994    1    1    2    0    0  0.13937822857E+02  0.23265200997E+02  0.55817998923E+01  0.17342470693E+03  0.17120000000E+03 0.  0.
        998    1    1    2    0    0 -0.40030407865E+01  0.24981623130E+01  0.13809974947E+04  0.13810417610E+04  0.10000000000E+02 0.  1.
</event>
<event>
 5    1  0.1068111E-008  0.3783255E+03  0.7957747E-01  0.3458482E+00
         13   -1    0    0    0    0  0.00000000000E+00  0.00000000000E+00  0.14999999963E+04  0.15000000000E+04  0.10566000000E+00 0.  1.
        994   -1    0    0    0    0 -0.00000000000E+00 -0.00000000000E+00  0.11368683772E-12  0.17120000000E+03  0.17120000000E+03 0.  0.
         13    1    1    2    0    0  0.15863650989E+03  0.48047953289E+02  0.86522087012E+03  0.88095477372E+03  0.10566000000E+00 0.  1.
        994    1    1    2    0    0 -0.16221698359E+03 -0.59441070762E+02  0.11292501141E+03  0.26815870089E+03  0.17120000000E+03 0.  0.
        998    1    1    2    0    0  0.35804737048E+01  0.11393117473E+02  0.52185411474E+03  0.52208652539E+03  0.10000000000E+02 0. -1.
</event>
<event>
 5    1  0.1068111E-008  0.3808838E+03  0.7957747E-01  0.3447319E+00
         13   -1    0    0    0    0  0.00000000000E+00  0.00000000000E+00  0.14999999963E+04  0.15000000000E+04  0.10566000000E+00 0. -1.
        994   -1    0    0    0    0 -0.00000000000E+00 -0.00000000000E+00  0.11368683772E-12  0.17120000000E+03  0.17120000000E+03 0.  0.
         13    1    1    2    0    0 -0.28551194204E+02  0.35373688930E+02  0.25496018670E+03  0.25898103507E+03  0.10566000000E+00 0. -1.
        994    1    1    2    0    0  0.17801046074E+02 -0.32219633088E+02  0.82173016960E+01  0.17530529383E+03  0.17120000000E+03 0.  0.
        998    1    1    2    0    0  0.10750148131E+02 -0.31540558413E+01  0.12368225079E+04  0.12369136711E+04  0.10000000000E+02 0.  0.
</event>
<event>
 5    1  0.1068111E-008  0.3704418E+03  0.7957747E-01  0.3493863E+00
         13   -1    0    0    0    0  0.00000000000E+00  0.00000000000E+00  0.14999999963E+04  0.15000000000E+04  0.10566000000E+00 0. -1.
        994   -1    0    0    0    0 -0.00000000000E+00 -0.00000000000E+00  0.11368683772E-12  0.17120000000E+03  0.17120000000E+03 0.  0.
         13    1    1    2    0    0  0.36998572998E+02  0.22535187507E+03  0.11604142104E+04  0.11826721917E+04  0.10566000000E+00 0. -1.
        994    1    1    2    0    0 -0.49225737790E+02 -0.21614258190E+03  0.19145218876E+03  0.33927005402E+03  0.17120000000E+03 0.  0.
        998    1    1    2    0    0  0.12227164791E+02 -0.92092931706E+01  0.14813359710E+03  0.14925775433E+03  0.10000000000E+02 0.  1.
</event>
<event>
 5    1  0.1068111E-008  0.3731933E+03  0.7957747E-01  0.3481343E+00
         13   -1    0    0    0    0  0.00000000000E+00  0.00000000000E+00  0.14999999963E+04  0.15000000000E+04  0.10566000000E+00 0.  1.
        994   -1    0    0    0    0 -0.00000000000E+00 -0.00000000000E+00  0.11368683772E-12  0.17120000000E+03  0.17120000000E+03 0.  0.
         13    1    1    2    0    0  0.71546627605E+02  0.38747421383E+02  0.23306699150E+03  0.24686133006E+03  0.10566000000E+00 0.  1.
        994    1    1    2    0    0 -0.70195832610E+02 -0.15072609839E+02  0.31093144336E+02  0.18823087448E+03  0.17120000000E+03 0.  0.
        998    1    1    2    0    0 -0.13507949950E+01 -0.23674811544E+02  0.12358398604E+04  0.12361077955E+04  0.10000000000E+02 0.  1.
</event>
<event>
 5    1  0.1068111E-008  0.3770272E+03  0.7957747E-01  0.3464206E+00
         13   -1    0    0    0    0  0.00000000000E+00  0.00000000000E+00  0.14999999963E+04  0.15000000000E+04  0.10566000000E+00 0. -1.
        994   -1    0    0    0    0 -0.00000000000E+00 -0.00000000000E+00  0.11368683772E-12  0.17120000000E+03  0.17120000000E+03 0.  0.
         13    1    1    2    0    0  0.57421696798E+02  0.40608725542E+01  0.25496584703E+03  0.26138350420E+03  0.10566000000E+00 0. -1.
        994    1    1    2    0    0 -0.50690655892E+02 -0.40097923938E+02  0.19877267830E+02  0.18407045356E+03  0.17120000000E+03 0.  0.
        998    1    1    2    0    0 -0.67310409053E+01  0.36037051383E+02  0.12251568814E+04  0.12257460422E+04  0.10000000000E+02 0. -1.
</event>
<event>
 5    1  0.1086068E-008  0.3861772E+03  0.7957747E-01  0.3424695E+00
         13   -1    0    0    0    0  0.00000000000E+00  0.00000000000E+00  0.14999999963E+04  0.15000000000E+04  0.10566000000E+00 0.  1.
        994   -1    0    0    0    0 -0.00000000000E+00 -0.00000000000E+00  0.11368683772E-12  0.17120000000E+03  0.17120000000E+03 0.  0.
         13    1    1    2    0    0  0.12072272088E+02 -0.10017557954E+01  0.73150780791E+02  0.74147091396E+02  0.10566000000E+00 0.  1.
        994    1    1    2    0    0 -0.45056477684E+01  0.20372767321E+01  0.11269349426E+01  0.17127510426E+03  0.17120000000E+03 0.  0.
        998    1    1    2    0    0 -0.75666243200E+01 -0.10355209367E+01  0.14257222805E+04  0.14257778043E+04  0.10000000000E+02 0.  1.
</event>
<event>
 5    1  0.1068111E-008  0.3840961E+03  0.7957747E-01  0.3433515E+00
         13   -1    0    0    0    0  0.00000000000E+00  0.00000000000E+00  0.14999999963E+04  0.15000000000E+04  0.10566000000E+00 0. -1.
        994   -1    0    0    0    0 -0.00000000000E+00 -0.00000000000E+00  0.11368683772E-12  0.17120000000E+03  0.17120000000E+03 0.  0.
         13    1    1    2    0    0 -0.21297713255E+01  0.11000572766E+02  0.30703985844E+02  0.32684773792E+02  0.10566000000E+00 0. -1.
        994    1    1    2    0    0  0.56906958851E+01  0.23262932352E+01  0.22042425108E+01  0.17132452931E+03  0.17120000000E+03 0.  0.
        998    1    1    2    0    0 -0.35609245595E+01 -0.13326866001E+02  0.14670917679E+04  0.14671906969E+04  0.10000000000E+02 0. -1.
</event>
<event>
 5    1  0.1068111E-008  0.4175212E+03  0.7957747E-01  0.3302464E+00
         13   -1    0    0    0    0  0.00000000000E+00  0.00000000000E+00  0.14999999963E+04  0.15000000000E+04  0.10566000000E+00 0.  1.
        994   -1    0    0    0    0 -0.00000000000E+00 -0.00000000000E+00  0.11368683772E-12  0.17120000000E+03  0.17120000000E+03 0.  0.
         13    1    1    2    0    0 -0.66757711771E+02  0.41754091496E+02  0.67407952237E+02  0.10365249358E+03  0.10566000000E+00 0.  1.
        994    1    1    2    0    0  0.62123281349E+02 -0.26184261869E+02  0.58139492975E+02  0.19296258264E+03  0.17120000000E+03 0.  0.
        998    1    1    2    0    0  0.46344304217E+01 -0.15569829626E+02  0.13744525511E+04  0.13745849238E+04  0.10000000000E+02 0.  1.
</event>
<event>
 5    1  0.1068111E-008  0.3844837E+03  0.7957747E-01  0.3431865E+00
         13   -1    0    0    0    0  0.00000000000E+00  0.00000000000E+00  0.14999999963E+04  0.15000000000E+04  0.10566000000E+00 0. -1.
        994   -1    0    0    0    0 -0.00000000000E+00 -0.00000000000E+00  0.11368683772E-12  0.17120000000E+03  0.17120000000E+03 0.  0.
         13    1    1    2    0    0 -0.55018684682E+01 -0.11723037395E+02  0.44532757420E+02  0.46377557179E+02  0.10566000000E+00 0. -1.
        994    1    1    2    0    0  0.10332266883E+02  0.27592125377E+01  0.22635049695E+01  0.17154862998E+03  0.17120000000E+03 0.  0.
        998    1    1    2    0    0 -0.48303984146E+01  0.89638248572E+01  0.14532037339E+04  0.14532738128E+04  0.10000000000E+02 0. -1.
</event>
<event>
 5    1  0.1068111E-008  0.3857881E+03  0.7957747E-01  0.3426337E+00
         13   -1    0    0    0    0  0.00000000000E+00  0.00000000000E+00  0.14999999963E+04  0.15000000000E+04  0.10566000000E+00 0. -1.
        994   -1    0    0    0    0 -0.00000000000E+00 -0.00000000000E+00  0.11368683772E-12  0.17120000000E+03  0.17120000000E+03 0.  0.
         13    1    1    2    0    0  0.91937496921E+01  0.64745916497E+01  0.52058953038E+02  0.53259657584E+02  0.10566000000E+00 0. -1.
        994    1    1    2    0    0 -0.66326872262E+01 -0.52408357553E+00  0.13846019041E+01  0.17133483104E+03  0.17120000000E+03 0.  0.
        998    1    1    2    0    0 -0.25610624659E+01 -0.59505080741E+01  0.14465564413E+04  0.14466055114E+04  0.10000000000E+02 0. -1.
</event>
<event>
 5    1  0.1068111E-008  0.3852269E+03  0.7957747E-01  0.3428710E+00
         13   -1    0    0    0    0  0.00000000000E+00  0.00000000000E+00  0.14999999963E+04  0.15000000000E+04  0.10566000000E+00 0.  1.
        994   -1    0    0    0    0 -0.00000000000E+00 -0.00000000000E+00  0.11368683772E-12  0.17120000000E+03  0.17120000000E+03 0.  0.
         13    1    1    2    0    0  0.82899734975E+01  0.64490003409E+01  0.38010843875E+02  0.39435373488E+02  0.10566000000E+00 0.  1.
        994    1    1    2    0    0  0.71163611860E+01 -0.60318773564E+01  0.18035613023E+01  0.17146346251E+03  0.17120000000E+03 0.  0.
        998    1    1    2    0    0 -0.15406334683E+02 -0.41712298446E+00  0.14601855911E+04  0.14603011640E+04  0.10000000000E+02 0.  1.
</event>
<event>
 5    1  0.1068111E-008  0.3832642E+03  0.7957747E-01  0.3437067E+00
         13   -1    0    0    0    0  0.00000000000E+00  0.00000000000E+00  0.14999999963E+04  0.15000000000E+04  0.10566000000E+00 0.  1.
        994   -1    0    0    0    0 -0.00000000000E+00 -0.00000000000E+00  0.11368683772E-12  0.17120000000E+03  0.17120000000E+03 0.  0.
         13    1    1    2    0    0 -0.23372048225E+02 -0.57106131616E+01  0.11819104130E+03  0.12061507844E+03  0.10566000000E+00 0.  1.
        994    1    1    2    0    0  0.11118118716E+02  0.20692321136E+01  0.29174675925E+01  0.17159791928E+03  0.17120000000E+03 0.  0.
        998    1    1    2    0    0  0.12253929510E+02  0.36413810480E+01  0.13788914874E+04  0.13789870023E+04  0.10000000000E+02 0.  1.
</event>
<event>
 5    1  0.1068111E-008  0.3803327E+03  0.7957747E-01  0.3449711E+00
         13   -1    0    0    0    0  0.00000000000E+00  0.00000000000E+00  0.14999999963E+04  0.15000000000E+04  0.10566000000E+00 0. -1.
        994   -1    0    0    0    0 -0.00000000000E+00 -0.00000000000E+00  0.11368683772E-12  0.17120000000E+03  0.17120000000E+03 0.  0.
         13    1    1    2    0    0 -0.10899859959E+02  0.91608778270E+01  0.23917569688E+02  0.27835048652E+02  0.10566000000E+00 0. -1.
        994    1    1    2    0    0  0.64667133104E+01 -0.84798082667E+01  0.43451283026E+01  0.17158684585E+03  0.17120000000E+03 0.  0.
        998    1    1    2    0    0  0.44331466482E+01 -0.68106956024E+00  0.14717372983E+04  0.14717781055E+04  0.10000000000E+02 0. -1.
</event>
<event>
 5    1  0.1068111E-008  0.3832156E+03  0.7957747E-01  0.3437276E+00
         13   -1    0    0    0    0  0.00000000000E+00  0.00000000000E+00  0.14999999963E+04  0.15000000000E+04  0.10566000000E+00 0. -1.
        994   -1    0    0    0    0 -0.00000000000E+00 -0.00000000000E+00  0.11368683772E-12  0.17120000000E+03  0.17120000000E+03 0.  0.
         13    1    1    2    0    0  0.17589550542E+02  0.18536872354E+02  0.14157883177E+03  0.14386655169E+03  0.10566000000E+00 0. -1.
        994    1    1    2    0    0 -0.73552243038E+01  0.20777887419E+01  0.27119191304E+01  0.17139198066E+03  0.17120000000E+03 0.  0.
        998    1    1    2    0    0 -0.10234326238E+02 -0.20614661096E+02  0.13557092454E+04  0.13559414676E+04  0.10000000000E+02 0. -1.
</event>
<event>
 5    1  0.1068111E-008  0.3852724E+03  0.7957747E-01  0.3428518E+00
         13   -1    0    0    0    0  0.00000000000E+00  0.00000000000E+00  0.14999999963E+04  0.15000000000E+04  0.10566000000E+00 0.  1.
        994   -1    0    0    0    0 -0.00000000000E+00 -0.00000000000E+00  0.11368683772E-12  0.17120000000E+03  0.17120000000E+03 0.  0.
         13    1    1    2    0    0  0.14827337875E+02  0.22258907443E+01  0.69878322873E+02  0.71468844328E+02  0.10566000000E+00 0.  1.
        994    1    1    2    0    0 -0.21069980252E+02 -0.19130828393E+01  0.29670554005E+01  0.17252781623E+03  0.17120000000E+03 0.  0.
        998    1    1    2    0    0  0.62426423771E+01 -0.31280790500E+00  0.14271546180E+04  0.14272033394E+04  0.10000000000E+02 0.  1.
</event>
<event>
 5    1  0.1068111E-008  0.3819507E+03  0.7957747E-01  0.3442708E+00
         13   -1    0    0    0    0  0.00000000000E+00  0.00000000000E+00  0.14999999963E+04  0.15000000000E+04  0.10566000000E+00 0. -1.
        994   -1    0    0    0    0 -0.00000000000E+00 -0.00000000000E+00  0.11368683772E-12  0.17120000000E+03  0.17120000000E+03 0.  0.
         13    1    1    2    0    0  0.23342876495E+02 -0.14820472489E+02  0.10081282261E+03  0.10453598737E+03  0.10566000000E+00 0. -1.
        994    1    1    2    0    0 -0.43601695219E+02  0.20711450332E+02  0.10929963436E+02  0.17821048258E+03  0.17120000000E+03 0.  0.
        998    1    1    2    0    0  0.20258818724E+02 -0.58909778433E+01  0.13882572102E+04  0.13884535301E+04  0.10000000000E+02 0. -1.
</event>
<event>
 5    1  0.1068111E-008  0.2409938E+03  0.7957747E-01  0.4434696E+00
         13   -1    0    0    0    0  0.00000000000E+00  0.00000000000E+00  0.14999999963E+04  0.15000000000E+04  0.10566000000E+00 0.  1.
        994   -1    0    0    0    0 -0.00000000000E+00 -0.00000000000E+00  0.11368683772E-12  0.17120000000E+03  0.17120000000E+03 0.  0.
         13    1    1    2    0    0  0.37919625384E+02 -0.17404323045E+03  0.17635127629E+03  0.25065659350E+03  0.10566000000E+00 0.  1.
        994    1    1    2    0    0 -0.29677391950E+02  0.15522673019E+03  0.23249182392E+03  0.32914734322E+03  0.17120000000E+03 0.  0.
        998    1    1    2    0    0 -0.82422334338E+01  0.18816500258E+02  0.10911568961E+04  0.10913960633E+04  0.10000000000E+02 0.  1.
</event>
<event>
 5    1  0.1068111E-008  0.3728294E+03  0.7957747E-01  0.3482988E+00
         13   -1    0    0    0    0  0.00000000000E+00  0.00000000000E+00  0.14999999963E+04  0.15000000000E+04  0.10566000000E+00 0.  1.
        994   -1    0    0    0    0 -0.00000000000E+00 -0.00000000000E+00  0.11368683772E-12  0.17120000000E+03  0.17120000000E+03 0.  0.
         13    1    1    2    0    0 -0.18020763169E+02  0.13517093425E+01  0.18283415456E+02  0.25707381588E+02  0.10566000000E+00 0.  1.
        994    1    1    2    0    0 -0.41164971791E+01  0.15007974041E+01  0.78633757233E+01  0.17143649151E+03  0.17120000000E+03 0.  0.
        998    1    1    2    0    0  0.22137260348E+02 -0.28525067467E+01  0.14738532051E+04  0.14740561269E+04  0.10000000000E+02 0.  1.
</event>
<event>
 5    1  0.1068111E-008  0.3719789E+03  0.7957747E-01  0.3486845E+00
         13   -1    0    0    0    0  0.00000000000E+00  0.00000000000E+00  0.14999999963E+04  0.15000000000E+04  0.10566000000E+00 0. -1.
        994   -1    0    0    0    0 -0.00000000000E+00 -0.00000000000E+00  0.11368683772E-12  0.17120000000E+03  0.17120000000E+03 0.  0.
         13    1    1    2    0    0  0.53892399168E+02  0.94626771449E+01  0.10134009975E+03  0.11516839813E+03  0.10566000000E+00 0. -1.
        994    1    1    2    0    0 -0.84078688716E+02 -0.98141923062E+01  0.37662104872E+02  0.19466231893E+03  0.17120000000E+03 0.  0.
        998    1    1    2    0    0  0.30186289547E+02  0.35151516136E+00  0.13609977917E+04  0.13613692829E+04  0.10000000000E+02 0. -1.
</event>
<event>
 5    1  0.1068111E-008  0.3717622E+03  0.7957747E-01  0.3487831E+00
         13   -1    0    0    0    0  0.00000000000E+00  0.00000000000E+00  0.14999999963E+04  0.15000000000E+04  0.10566000000E+00 0.  1.
        994   -1    0    0    0    0 -0.00000000000E+00 -0.00000000000E+00  0.11368683772E-12  0.17120000000E+03  0.17120000000E+03 0.  0.
         13    1    1    2    0    0 -0.29453586280E+02  0.87234147511E+00  0.31073034370E+02  0.42823117044E+02  0.10566000000E+00 0.  1.
        994    1    1    2    0    0  0.29889420552E+02  0.39062990541E+00  0.15023230686E+02  0.17443814810E+03  0.17120000000E+03 0.  0.
        998    1    1    2    0    0 -0.43583427223E+00 -0.12629713805E+01  0.14539037312E+04  0.14539387349E+04  0.10000000000E+02 0.  1.
</event>
<event>
 5    1  0.1068111E-008  0.3828301E+03  0.7957747E-01  0.3438927E+00
         13   -1    0    0    0    0  0.00000000000E+00  0.00000000000E+00  0.14999999963E+04  0.15000000000E+04  0.10566000000E+00 0.  1.
        994   -1    0    0    0    0 -0.00000000000E+00 -0.00000000000E+00  0.11368683772E-12  0.17120000000E+03  0.17120000000E+03 0.  0.
         13    1    1    2    0    0  0.24370899012E+02  0.12910180773E+02  0.15179952214E+03  0.15428454093E+03  0.10566000000E+00 0.  1.
        994    1    1    2    0    0 -0.72252893760E+01  0.14706223415E+01  0.28913852976E+01  0.17138310198E+03  0.17120000000E+03 0.  0.
        998    1    1    2    0    0 -0.17145609636E+02 -0.14380803115E+02  0.13453090888E+04  0.13455323571E+04  0.10000000000E+02 0.  1.
</event>
<event>
 5    1  0.1068111E-008  0.3747259E+03  0.7957747E-01  0.3474449E+00
         13   -1    0    0    0    0  0.00000000000E+00  0.00000000000E+00  0.14999999963E+04  0.15000000000E+04  0.10566000000E+00 0. -1.
        994   -1    0    0    0    0 -0.00000000000E+00 -0.00000000000E+00  0.11368683772E-12  0.17120000000E+03  0.17120000000E+03 0.  0.
         13    1    1    2    0    0 -0.82834693635E+01 -0.15090252015E+02  0.18742955657E+02  0.25448794105E+02  0.10566000000E+00 0. -1.
        994    1    1    2    0    0 -0.36458928665E+01  0.17008055609E+02  0.78496442743E+01  0.17226033614E+03  0.17120000000E+03 0.  0.
        998    1    1    2    0    0  0.11929362230E+02 -0.19178035934E+01  0.14734073963E+04  0.14734908698E+04  0.10000000000E+02 0. -1.
</event>
<event>
 5    1  0.1068111E-008  0.3840982E+03  0.7957747E-01  0.3433506E+00
         13   -1    0    0    0    0  0.00000000000E+00  0.00000000000E+00  0.14999999963E+04  0.15000000000E+04  0.10566000000E+00 0. -1.
        994   -1    0    0    0    0 -0.00000000000E+00 -0.00000000000E+00  0.11368683772E-12  0.17120000000E+03  0.17120000000E+03 0.  0.
         13    1    1    2    0    0  0.99973501882E+00 -0.13699104186E+02  0.44567601176E+02  0.46636328803E+02  0.10566000000E+00 0. -1.
        994    1    1    2    0    0 -0.78919784463E+01  0.10368551715E+02  0.26387483213E+01  0.17171544247E+03  0.17120000000E+03 0.  0.
        998    1    1    2    0    0  0.68922434275E+01  0.33305524713E+01  0.14527936468E+04  0.14528482287E+04  0.10000000000E+02 0. -1.
</event>
<event>
 5    1  0.1068111E-008  0.3845586E+03  0.7957747E-01  0.3431546E+00
         13   -1    0    0    0    0  0.00000000000E+00  0.00000000000E+00  0.14999999963E+04  0.15000000000E+04  0.10566000000E+00 0.  1.
        994   -1    0    0    0    0 -0.00000000000E+00 -0.00000000000E+00  0.11368683772E-12  0.17120000000E+03  0.17120000000E+03 0.  0.
         13    1    1    2    0    0  0.72184186861E+01 -0.71045208164E+01  0.27196680782E+02  0.29021550509E+02  0.10566000000E+00 0.  1.
        994    1    1    2    0    0 -0.16434351314E+01  0.96157631568E+01  0.21629218653E+01  0.17149134675E+03  0.17120000000E+03 0.  0.
        998    1    1    2    0    0 -0.55749835547E+01 -0.25112423403E+01  0.14706403936E+04  0.14706871027E+04  0.10000000000E+02 0.  1.
</event>
<event>
 5    1  0.1068111E-008  0.3783045E+03  0.7957747E-01  0.3458575E+00
         13   -1    0    0    0    0  0.00000000000E+00  0.00000000000E+00  0.14999999963E+04  0.15000000000E+04  0.10566000000E+00 0. -1.
        994   -1    0    0    0    0 -0.00000000000E+00 -0.00000000000E+00  0.11368683772E-12  0.17120000000E+03  0.17120000000E+03 0.  0.
         13    1    1    2    0    0 -0.30754529459E+02  0.10621490635E+03  0.62232735766E+03  0.63207499450E+03  0.10566000000E+00 0. -1.
        994    1    1    2    0    0  0.28702622942E+02 -0.11421078925E+03  0.53124840110E+02  0.21447525167E+03  0.17120000000E+03 0.  0.
        998    1    1    2    0    0  0.20519065169E+01  0.79958828924E+01  0.82454779851E+03  0.82464975383E+03  0.10000000000E+02 0.  0.
</event>
<event>
 5    1  0.1068111E-008  0.3874980E+03  0.7957747E-01  0.3419146E+00
         13   -1    0    0    0    0  0.00000000000E+00  0.00000000000E+00  0.14999999963E+04  0.15000000000E+04  0.10566000000E+00 0. -1.
        994   -1    0    0    0    0 -0.00000000000E+00 -0.00000000000E+00  0.11368683772E-12  0.17120000000E+03  0.17120000000E+03 0.  0.
         13    1    1    2    0    0 -0.63739545717E+02 -0.50498995472E+02  0.20223583137E+03  0.21797298201E+03  0.10566000000E+00 0. -1.
        994    1    1    2    0    0  0.15603563189E+02 -0.42100323563E+02  0.28058151126E+02  0.17919991148E+03  0.17120000000E+03 0.  0.
        998    1    1    2    0    0  0.48135982527E+02  0.92599319035E+02  0.12697060138E+04  0.12740271065E+04  0.10000000000E+02 0. -1.
</event>
<event>
 5    1  0.1068111E-008  0.3854486E+03  0.7957747E-01  0.3427772E+00
         13   -1    0    0    0    0  0.00000000000E+00  0.00000000000E+00  0.14999999963E+04  0.15000000000E+04  0.10566000000E+00 0. -1.
        994   -1    0    0    0    0 -0.00000000000E+00 -0.00000000000E+00  0.11368683772E-12  0.17120000000E+03  0.17120000000E+03 0.  0.
         13    1    1    2    0    0 -0.12413493855E+01 -0.13913425868E+02  0.64406138407E+02  0.65903612923E+02  0.10566000000E+00 0. -1.
        994    1    1    2    0    0  0.27093106152E+01  0.20769782327E+02  0.28496256386E+01  0.17250010026E+03  0.17120000000E+03 0.  0.
        998    1    1    2    0    0 -0.14679612298E+01 -0.68563564588E+01  0.14327442322E+04  0.14327962868E+04  0.10000000000E+02 0. -1.
</event>
<event>
 5    1  0.1068111E-008  0.3828930E+03  0.7957747E-01  0.3438658E+00
         13   -1    0    0    0    0  0.00000000000E+00  0.00000000000E+00  0.14999999963E+04  0.15000000000E+04  0.10566000000E+00 0. -1.
        994   -1    0    0    0    0 -0.00000000000E+00 -0.00000000000E+00  0.11368683772E-12  0.17120000000E+03  0.17120000000E+03 0.  0.
         13    1    1    2    0    0 -0.50449350952E+01 -0.98956560822E+01  0.21835980699E+02  0.24498910109E+02  0.10566000000E+00 0. -1.
        994    1    1    2    0    0  0.83854099133E+01  0.76051300748E+01  0.31043351847E+01  0.17160195220E+03  0.17120000000E+03 0.  0.
        998    1    1    2    0    0 -0.33404748181E+01  0.22905260074E+01  0.14750596804E+04  0.14750991377E+04  0.10000000000E+02 0. -1.
</event>
<event>
 5    1  0.1068111E-008  0.3855912E+03  0.7957747E-01  0.3427169E+00
         13   -1    0    0    0    0  0.00000000000E+00  0.00000000000E+00  0.14999999963E+04  0.15000000000E+04  0.10566000000E+00 0. -1.
        994   -1    0    0    0    0 -0.00000000000E+00 -0.00000000000E+00  0.11368683772E-12  0.17120000000E+03  0.17120000000E+03 0.  0.
         13    1    1    2    0    0 -0.11687771333E+02 -0.98097522832E+01  0.79787022260E+02  0.81233092541E+02  0.10566000000E+00 0. -1.
        994    1    1    2    0    0  0.25586628615E+02  0.45827811075E+01  0.35578399771E+01  0.17319865956E+03  0.17120000000E+03 0.  0.
        998    1    1    2    0    0 -0.13898857281E+02  0.52269711757E+01  0.14166551340E+04  0.14167682479E+04  0.10000000000E+02 0. -1.
</event>
<event>
 5    1  0.1068111E-008  0.3744964E+03  0.7957747E-01  0.3475478E+00
         13   -1    0    0    0    0  0.00000000000E+00  0.00000000000E+00  0.14999999963E+04  0.15000000000E+04  0.10566000000E+00 0.  1.
        994   -1    0    0    0    0 -0.00000000000E+00 -0.00000000000E+00  0.11368683772E-12  0.17120000000E+03  0.17120000000E+03 0.  0.
         13    1    1    2    0    0  0.65448453360E+02 -0.97939682296E+01  0.33263582408E+03  0.33915486800E+03  0.10566000000E+00 0.  1.
        994    1    1    2    0    0 -0.33213274494E+02 -0.13550537356E+02  0.11331482086E+02  0.17528428666E+03  0.17120000000E+03 0.  0.
        998    1    1    2    0    0 -0.32235178866E+02  0.23344505586E+02  0.11560326901E+04  0.11567608453E+04  0.10000000000E+02 0.  1.
</event>
<event>
 5    1  0.1068111E-008  0.3805696E+03  0.7957747E-01  0.3448682E+00
         13   -1    0    0    0    0  0.00000000000E+00  0.00000000000E+00  0.14999999963E+04  0.15000000000E+04  0.10566000000E+00 0.  1.
        994   -1    0    0    0    0 -0.00000000000E+00 -0.00000000000E+00  0.11368683772E-12  0.17120000000E+03  0.17120000000E+03 0.  0.
         13    1    1    2    0    0 -0.26192252766E+02  0.25458113270E+02  0.15928121001E+03  0.16341561940E+03  0.10566000000E+00 0.  1.
        994    1    1    2    0    0  0.42977165086E+02 -0.44634870425E+01  0.10100499047E+02  0.17685705956E+03  0.17120000000E+03 0.  0.
        998    1    1    2    0    0 -0.16784912321E+02 -0.20994626228E+02  0.13306182872E+04  0.13309273210E+04  0.10000000000E+02 0.  1.
</event>
<event>
 5    1  0.1068111E-008  0.3857852E+03  0.7957747E-01  0.3426349E+00
         13   -1    0    0    0    0  0.00000000000E+00  0.00000000000E+00  0.14999999963E+04  0.15000000000E+04  0.10566000000E+00 0. -1.
        994   -1    0    0    0    0 -0.00000000000E+00 -0.00000000000E+00  0.11368683772E-12  0.17120000000E+03  0.17120000000E+03 0.  0.
         13    1    1    2    0    0 -0.14001157799E+02 -0.43545867140E+01  0.81372817715E+02  0.82683380870E+02  0.10566000000E+00 0. -1.
        994    1    1    2    0    0  0.20250132694E+02 -0.25217959681E+01  0.26079885678E+01  0.17243163554E+03  0.17120000000E+03 0.  0.
        998    1    1    2    0    0 -0.62489748946E+01  0.68763826821E+01  0.14160191900E+04  0.14160849836E+04  0.10000000000E+02 0. -1.
</event>
<event>
 5    1  0.1068111E-008  0.3822831E+03  0.7957747E-01  0.3441277E+00
         13   -1    0    0    0    0  0.00000000000E+00  0.00000000000E+00  0.14999999963E+04  0.15000000000E+04  0.10566000000E+00 0.  1.
        994   -1    0    0    0    0 -0.00000000000E+00 -0.00000000000E+00  0.11368683772E-12  0.17120000000E+03  0.17120000000E+03 0.  0.
         13    1    1    2    0    0 -0.10167719034E+02 -0.72759796048E+01  0.24676232113E+02  0.27663152114E+02  0.10566000000E+00 0.  1.
        994    1    1    2    0    0  0.12207891477E+02  0.61838708409E+01  0.36066453491E+01  0.17178393628E+03  0.17120000000E+03 0.  0.
        998    1    1    2    0    0 -0.20401724434E+01  0.10921087639E+01  0.14717171188E+04  0.14717529116E+04  0.10000000000E+02 0.  1.
</event>
<event>
 5    1  0.1068111E-008  0.3699512E+03  0.7957747E-01  0.3496115E+00
         13   -1    0    0    0    0  0.00000000000E+00  0.00000000000E+00  0.14999999963E+04  0.15000000000E+04  0.10566000000E+00 0.  1.
        994   -1    0    0    0    0 -0.00000000000E+00 -0.00000000000E+00  0.11368683772E-12  0.17120000000E+03  0.17120000000E+03 0.  0.
         13    1    1    2    0    0 -0.42369437057E+02  0.10071017781E+02  0.94164916172E+02  0.10374795033E+03  0.10566000000E+00 0.  1.
        994    1    1    2    0    0  0.38873303161E+02 -0.11112513541E+02  0.14968726970E+02  0.17654496437E+03  0.17120000000E+03 0.  0.
        998    1    1    2    0    0  0.34961338959E+01  0.10414957602E+01  0.13908663531E+04  0.13909070853E+04  0.10000000000E+02 0.  1.
</event>
<event>
 5    1  0.1068111E-008  0.3748417E+03  0.7957747E-01  0.3473931E+00
         13   -1    0    0    0    0  0.00000000000E+00  0.00000000000E+00  0.14999999963E+04  0.15000000000E+04  0.10566000000E+00 0. -1.
        994   -1    0    0    0    0 -0.00000000000E+00 -0.00000000000E+00  0.11368683772E-12  0.17120000000E+03  0.17120000000E+03 0.  0.
         13    1    1    2    0    0  0.35933182435E+02  0.58589032599E+02  0.15279747148E+03  0.16754386529E+03  0.10566000000E+00 0. -1.
        994    1    1    2    0    0 -0.36471508960E+02 -0.59498314502E+02  0.31051799423E+02  0.18746699614E+03  0.17120000000E+03 0.  0.
        998    1    1    2    0    0  0.53832652477E+00  0.90928190353E+00  0.13161507254E+04  0.13161891386E+04  0.10000000000E+02 0.  0.
</event>
<event>
 5    1  0.1068111E-008  0.3822809E+03  0.7957747E-01  0.3441287E+00
         13   -1    0    0    0    0  0.00000000000E+00  0.00000000000E+00  0.14999999963E+04  0.15000000000E+04  0.10566000000E+00 0.  1.
        994   -1    0    0    0    0 -0.00000000000E+00 -0.00000000000E+00  0.11368683772E-12  0.17120000000E+03  0.17120000000E+03 0.  0.
         13    1    1    2    0    0 -0.14300532614E+02 -0.16848994656E+02  0.92505899219E+02  0.95109128943E+02  0.10566000000E+00 0.  1.
        994    1    1    2    0    0 -0.52921683833E+00 -0.11653409667E+02  0.34378046473E+01  0.17163140892E+03  0.17120000000E+03 0.  0.
        998    1    1    2    0    0  0.14829749452E+02  0.28502404323E+02  0.14040562924E+04  0.14044594621E+04  0.10000000000E+02 0.  1.
</event>
<event>
 5    1  0.1068111E-008  0.3789767E+03  0.7957747E-01  0.3455626E+00
         13   -1    0    0    0    0  0.00000000000E+00  0.00000000000E+00  0.14999999963E+04  0.15000000000E+04  0.10566000000E+00 0.  1.
        994   -1    0    0    0    0 -0.00000000000E+00 -0.00000000000E+00  0.11368683772E-12  0.17120000000E+03  0.17120000000E+03 0.  0.
         13    1    1    2    0    0  0.16879094261E+02 -0.65344121157E+02  0.37079841255E+03  0.37689021200E+03  0.10566000000E+00 0.  1.
        994    1    1    2    0    0 -0.74179495056E+01  0.67304489574E+02  0.20186575237E+02  0.18520760814E+03  0.17120000000E+03 0.  0.
        998    1    1    2    0    0 -0.94611447557E+01 -0.19603684167E+01  0.11090150085E+04  0.11091021799E+04  0.10000000000E+02 0.  1.
</event>
<event>
 5    1  0.1068111E-008  0.3859362E+03  0.7957747E-01  0.3425711E+00
         13   -1    0    0    0    0  0.00000000000E+00  0.00000000000E+00  0.14999999963E+04  0.15000000000E+04  0.10566000000E+00 0. -1.
        994   -1    0    0    0    0 -0.00000000000E+00 -0.00000000000E+00  0.11368683772E-12  0.17120000000E+03  0.17120000000E+03 0.  0.
         13    1    1    2    0    0  0.21755396344E+01 -0.11084701689E+02  0.54560769107E+02  0.55717970833E+02  0.10566000000E+00 0. -1.
        994    1    1    2    0    0  0.35148975110E+01  0.10485930006E+02  0.15671612801E+01  0.17156399747E+03  0.17120000000E+03 0.  0.
        998    1    1    2    0    0 -0.56904371455E+01  0.59877168370E+00  0.14438720659E+04  0.14439180317E+04  0.10000000000E+02 0. -1.
</event>
<event>
 5    1  0.1068111E-008  0.3762203E+03  0.7957747E-01  0.3467783E+00
         13   -1    0    0    0    0  0.00000000000E+00  0.00000000000E+00  0.14999999963E+04  0.15000000000E+04  0.10566000000E+00 0. -1.
        994   -1    0    0    0    0 -0.00000000000E+00 -0.00000000000E+00  0.11368683772E-12  0.17120000000E+03  0.17120000000E+03 0.  0.
         13    1    1    2    0    0  0.10113341234E+02 -0.11622187227E+02  0.17010353807E+02  0.22950342210E+02  0.10566000000E+00 0. -1.
        994    1    1    2    0    0 -0.64581724896E+01  0.79640098313E+01  0.64093967160E+01  0.17162649507E+03  0.17120000000E+03 0.  0.
        998    1    1    2    0    0 -0.36551687447E+01  0.36581773958E+01  0.14765802458E+04  0.14766231627E+04  0.10000000000E+02 0. -1.
</event>
<event>
 5    1  0.1068111E-008  0.3783221E+03  0.7957747E-01  0.3458497E+00
         13   -1    0    0    0    0  0.00000000000E+00  0.00000000000E+00  0.14999999963E+04  0.15000000000E+04  0.10566000000E+00 0.  1.
        994   -1    0    0    0    0 -0.00000000000E+00 -0.00000000000E+00  0.11368683772E-12  0.17120000000E+03  0.17120000000E+03 0.  0.
         13    1    1    2    0    0  0.79984666180E+01  0.76984068125E+01  0.10088323391E+02  0.15000878927E+02  0.10566000000E+00 0.  1.
        994    1    1    2    0    0 -0.11012799806E+02 -0.33459525679E+01  0.54279783731E+01  0.17167230443E+03  0.17120000000E+03 0.  0.
        998    1    1    2    0    0  0.30143331882E+01 -0.43524542446E+01  0.14844836945E+04  0.14845268166E+04  0.10000000000E+02 0.  1.
</event>
<event>
 5    1  0.1068111E-008  0.3857058E+03  0.7957747E-01  0.3426684E+00
         13   -1    0    0    0    0  0.00000000000E+00  0.00000000000E+00  0.14999999963E+04  0.15000000000E+04  0.10566000000E+00 0. -1.
        994   -1    0    0    0    0 -0.00000000000E+00 -0.00000000000E+00  0.11368683772E-12  0.17120000000E+03  0.17120000000E+03 0.  0.
         13    1    1    2    0    0 -0.63007666855E+01 -0.86680442003E+01  0.48346583367E+02  0.49520076115E+02  0.10566000000E+00 0. -1.
        994    1    1    2    0    0 -0.44067100344E+01 -0.14122507489E+01  0.13503698956E+01  0.17126785175E+03  0.17120000000E+03 0.  0.
        998    1    1    2    0    0  0.10707476720E+02  0.10080294949E+02  0.14503030430E+04  0.14504120721E+04  0.10000000000E+02 0. -1.
</event>
<event>
 5    1  0.1068111E-008  0.3705727E+03  0.7957747E-01  0.3493263E+00
         13   -1    0    0    0    0  0.00000000000E+00  0.00000000000E+00  0.14999999963E+04  0.15000000000E+04  0.10566000000E+00 0. -1.
        994   -1    0    0    0    0 -0.00000000000E+00 -0.00000000000E+00  0.11368683772E-12  0.17120000000E+03  0.17120000000E+03 0.  0.
         13    1    1    2    0    0  0.18642275874E+02 -0.68141717388E+02  0.26879157677E+03  0.27792040408E+03  0.10566000000E+00 0. -1.
        994    1    1    2    0    0 -0.17305978400E+02  0.41683683011E+02  0.16032443588E+02  0.17777374825E+03  0.17120000000E+03 0.  0.
        998    1    1    2    0    0 -0.13362974737E+01  0.26458034376E+02  0.12151759759E+04  0.12155058477E+04  0.10000000000E+02 0. -1.
</event>
<event>
 5    1  0.1068111E-008  0.3692415E+03  0.7957747E-01  0.3499384E+00
         13   -1    0    0    0    0  0.00000000000E+00  0.00000000000E+00  0.14999999963E+04  0.15000000000E+04  0.10566000000E+00 0.  1.
        994   -1    0    0    0    0 -0.00000000000E+00 -0.00000000000E+00  0.11368683772E-12  0.17120000000E+03  0.17120000000E+03 0.  0.
         13    1    1    2    0    0 -0.28269208910E+02 -0.16129880476E+02  0.52661435638E+02  0.61907666601E+02  0.10566000000E+00 0.  1.
        994    1    1    2    0    0  0.86240567029E+01  0.76196962464E+01  0.10125296185E+02  0.17188483280E+03  0.17120000000E+03 0.  0.
        998    1    1    2    0    0  0.19645152207E+02  0.85101842295E+01  0.14372132645E+04  0.14374075006E+04  0.10000000000E+02 0.  1.
</event>
<event>
 5    1  0.1068111E-008  0.3769563E+03  0.7957747E-01  0.3464519E+00
         13   -1    0    0    0    0  0.00000000000E+00  0.00000000000E+00  0.14999999963E+04  0.15000000000E+04  0.10566000000E+00 0. -1.
        994   -1    0    0    0    0 -0.00000000000E+00 -0.00000000000E+00  0.11368683772E-12  0.17120000000E+03  0.17120000000E+03 0.  0.
         13    1    1    2    0    0 -0.41993757864E+02 -0.37555719682E+02  0.23395801351E+03  0.24064552984E+03  0.10566000000E+00 0. -1.
        994    1    1    2    0    0  0.11833330166E+02  0.77445802831E+02  0.26693880862E+02  0.19015752248E+03  0.17120000000E+03 0.  0.
        998    1    1    2    0    0  0.30160427699E+02 -0.39890083149E+02  0.12393481019E+04  0.12403969477E+04  0.10000000000E+02 0. -1.
</event>
<event>
 5    1  0.1068111E-008  0.3745742E+03  0.7957747E-01  0.3475129E+00
         13   -1    0    0    0    0  0.00000000000E+00  0.00000000000E+00  0.14999999963E+04  0.15000000000E+04  0.10566000000E+00 0.  1.
        994   -1    0    0    0    0 -0.00000000000E+00 -0.00000000000E+00  0.11368683772E-12  0.17120000000E+03  0.17120000000E+03 0.  0.
         13    1    1    2    0    0  0.65918823100E+01  0.13623251238E+02  0.14038140834E+02  0.20642830445E+02  0.10566000000E+00 0.  1.
        994    1    1    2    0    0  0.18814631417E+02 -0.40476117491E+01  0.81593240561E+01  0.17247141237E+03  0.17120000000E+03 0.  0.
        998    1    1    2    0    0 -0.25406513727E+02 -0.95756394886E+01  0.14778025314E+04  0.14780857572E+04  0.10000000000E+02 0.  1.
</event>
<event>
 5    1  0.1068111E-008  0.3618558E+03  0.7957747E-01  0.3534178E+00
         13   -1    0    0    0    0  0.00000000000E+00  0.00000000000E+00  0.14999999963E+04  0.15000000000E+04  0.10566000000E+00 0. -1.
        994   -1    0    0    0    0 -0.00000000000E+00 -0.00000000000E+00  0.11368683772E-12  0.17120000000E+03  0.17120000000E+03 0.  0.
         13    1    1    2    0    0 -0.16809235819E+03  0.20229996840E+03  0.10015708863E+04  0.10355310567E+04  0.10566000000E+00 0. -1.
        994    1    1    2    0    0  0.17554488889E+03 -0.18360883995E+03  0.27667478387E+03  0.41277910576E+03  0.17120000000E+03 0.  0.
        998    1    1    2    0    0 -0.74525307056E+01 -0.18691128451E+02  0.22175432615E+03  0.22288983751E+03  0.10000000000E+02 0.  0.
</event>
<event>
 5    1  0.1068111E-008  0.3715420E+03  0.7957747E-01  0.3488834E+00
         13   -1    0    0    0    0  0.00000000000E+00  0.00000000000E+00  0.14999999963E+04  0.15000000000E+04  0.10566000000E+00 0. -1.
        994   -1    0    0    0    0 -0.00000000000E+00 -0.00000000000E+00  0.11368683772E-12  0.17120000000E+03  0.17120000000E+03 0.  0.
         13    1    1    2    0    0 -0.31637195229E+02 -0.34319000078E+02  0.12093842150E+03  0.12963340174E+03  0.10566000000E+00 0. -1.
        994    1    1    2    0    0  0.23635488148E+02  0.29593203323E+02  0.13414824222E+02  0.17585161783E+03  0.17120000000E+03 0.  0.
        998    1    1    2    0    0  0.80017070813E+01  0.47257967551E+01  0.13656467506E+04  0.13657149804E+04  0.10000000000E+02 0. -1.
</event>
<event>
 5    1  0.1068111E-008  0.3810345E+03  0.7957747E-01  0.3446666E+00
         13   -1    0    0    0    0  0.00000000000E+00  0.00000000000E+00  0.14999999963E+04  0.15000000000E+04  0.10566000000E+00 0.  1.
        994   -1    0    0    0    0 -0.00000000000E+00 -0.00000000000E+00  0.11368683772E-12  0.17120000000E+03  0.17120000000E+03 0.  0.
         13    1    1    2    0    0 -0.39899551261E+01 -0.26575784422E+02  0.10996807435E+03  0.11320415451E+03  0.10566000000E+00 0.  1.
        994    1    1    2    0    0  0.57281287815E+01 -0.29648302473E+01  0.37504363741E+01  0.17136250305E+03  0.17120000000E+03 0.  0.
        998    1    1    2    0    0 -0.17381736555E+01  0.29540614670E+02  0.13862814856E+04  0.13866333424E+04  0.10000000000E+02 0.  1.
</event>
<event>
 5    1  0.1068111E-008  0.3800555E+03  0.7957747E-01  0.3450917E+00
         13   -1    0    0    0    0  0.00000000000E+00  0.00000000000E+00  0.14999999963E+04  0.15000000000E+04  0.10566000000E+00 0. -1.
        994   -1    0    0    0    0 -0.00000000000E+00 -0.00000000000E+00  0.11368683772E-12  0.17120000000E+03  0.17120000000E+03 0.  0.
         13    1    1    2    0    0 -0.13030452022E+02  0.27284101407E+00  0.18633901722E+02  0.22739845635E+02  0.10566000000E+00 0. -1.
        994    1    1    2    0    0  0.15941935714E+02  0.17494381510E+01  0.49652807995E+01  0.17202121922E+03  0.17120000000E+03 0.  0.
        998    1    1    2    0    0 -0.29114836917E+01 -0.20222791651E+01  0.14764008138E+04  0.14764389351E+04  0.10000000000E+02 0. -1.
</event>
<event>
 5    1  0.1068111E-008  0.3833382E+03  0.7957747E-01  0.3436751E+00
         13   -1    0    0    0    0  0.00000000000E+00  0.00000000000E+00  0.14999999963E+04  0.15000000000E+04  0.10566000000E+00 0.  1.
        994   -1    0    0    0    0 -0.00000000000E+00 -0.00000000000E+00  0.11368683772E-12  0.17120000000E+03  0.17120000000E+03 0.  0.
         13    1    1    2    0    0  0.21142512278E+02  0.61549453595E+01  0.10496349904E+03  0.10724848005E+03  0.10566000000E+00 0.  1.
        994    1    1    2    0    0 -0.18050323220E+01 -0.64876896672E+01  0.26074210982E+01  0.17135223052E+03  0.17120000000E+03 0.  0.
        998    1    1    2    0    0 -0.19337479956E+02  0.33274430764E+00  0.13924290761E+04  0.13925992894E+04  0.10000000000E+02 0.  1.
</event>
<event>
 5    1  0.1068111E-008  0.3862424E+03  0.7957747E-01  0.3424420E+00
         13   -1    0    0    0    0  0.00000000000E+00  0.00000000000E+00  0.14999999963E+04  0.15000000000E+04  0.10566000000E+00 0. -1.
        994   -1    0    0    0    0 -0.00000000000E+00 -0.00000000000E+00  0.11368683772E-12  0.17120000000E+03  0.17120000000E+03 0.  0.
         13    1    1    2    0    0  0.10625281115E+02 -0.20314270439E+01  0.57844458211E+02  0.58847394202E+02  0.10566000000E+00 0. -1.
        994    1    1    2    0    0 -0.88496088453E+01  0.16732202755E+01  0.12802904635E+01  0.17144151885E+03  0.17120000000E+03 0.  0.
        998    1    1    2    0    0 -0.17756722693E+01  0.35820676840E+00  0.14408752476E+04  0.14409110869E+04  0.10000000000E+02 0. -1.
</event>
<event>
 5    1  0.1068111E-008  0.3732840E+03  0.7957747E-01  0.3480933E+00
         13   -1    0    0    0    0  0.00000000000E+00  0.00000000000E+00  0.14999999963E+04  0.15000000000E+04  0.10566000000E+00 0. -1.
        994   -1    0    0    0    0 -0.00000000000E+00 -0.00000000000E+00  0.11368683772E-12  0.17120000000E+03  0.17120000000E+03 0.  0.
         13    1    1    2    0    0 -0.32148875791E+01  0.11559319812E+02 -0.18390860957E+00  0.11999931794E+02  0.10566000000E+00 0. -1.
        994    1    1    2    0    0 -0.23202831651E+02 -0.10602378548E+02  0.14990899408E+02  0.17373816188E+03  0.17120000000E+03 0.  0.
        998    1    1    2    0    0  0.26417719230E+02 -0.95694126375E+00  0.14851930055E+04  0.14854619063E+04  0.10000000000E+02 0. -1.
</event>
<event>
 5    1  0.1068111E-008  0.3851318E+03  0.7957747E-01  0.3429113E+00
         13   -1    0    0    0    0  0.00000000000E+00  0.00000000000E+00  0.14999999963E+04  0.15000000000E+04  0.10566000000E+00 0.  1.
        994   -1    0    0    0    0 -0.00000000000E+00 -0.00000000000E+00  0.11368683772E-12  0.17120000000E+03  0.17120000000E+03 0.  0.
         13    1    1    2    0    0  0.10213344406E+02 -0.13051841946E+02  0.88661148737E+02  0.90196859378E+02  0.10566000000E+00 0.  1.
        994    1    1    2    0    0 -0.67654530990E+01  0.68792802033E+01  0.18707950153E+01  0.17148188163E+03  0.17120000000E+03 0.  0.
        998    1    1    2    0    0 -0.34478913074E+01  0.61725617427E+01  0.14094680525E+04  0.14095212590E+04  0.10000000000E+02 0.  1.
</event>
<event>
 5    1  0.1068111E-008  0.3780639E+03  0.7957747E-01  0.3459632E+00
         13   -1    0    0    0    0  0.00000000000E+00  0.00000000000E+00  0.14999999963E+04  0.15000000000E+04  0.10566000000E+00 0.  1.
        994   -1    0    0    0    0 -0.00000000000E+00 -0.00000000000E+00  0.11368683772E-12  0.17120000000E+03  0.17120000000E+03 0.  0.
         13    1    1    2    0    0  0.35178303603E+02  0.11819176008E+02  0.14989434746E+03  0.15441998747E+03  0.10566000000E+00 0.  1.
        994    1    1    2    0    0 -0.82627916508E+01  0.18963602301E+02  0.65546112119E+01  0.17256968119E+03  0.17120000000E+03 0.  0.
        998    1    1    2    0    0 -0.26915511952E+02 -0.30782778309E+02  0.13435510376E+04  0.13442103313E+04  0.10000000000E+02 0.  1.
</event>
<event>
 5    1  0.1068111E-008  0.3848251E+03  0.7957747E-01  0.3430414E+00
         13   -1    0    0    0    0  0.00000000000E+00  0.00000000000E+00  0.14999999963E+04  0.15000000000E+04  0.10566000000E+00 0. -1.
        994   -1    0    0    0    0 -0.00000000000E+00 -0.00000000000E+00  0.11368683772E-12  0.17120000000E+03  0.17120000000E+03 0.  0.
         13    1    1    2    0    0 -0.11465401976E+02  0.29967018983E+01  0.50560761506E+02  0.51931083494E+02  0.10566000000E+00 0. -1.
        994    1    1    2    0    0 -0.22123189833E+02  0.31990297855E+02  0.67108386408E+01  0.17569089345E+03  0.17120000000E+03 0.  0.
        998    1    1    2    0    0  0.33588591810E+02 -0.34986999754E+02  0.14427283961E+04  0.14435780231E+04  0.10000000000E+02 0. -1.
</event>
<event>
 5    1  0.1068111E-008  0.3820531E+03  0.7957747E-01  0.3442267E+00
         13   -1    0    0    0    0  0.00000000000E+00  0.00000000000E+00  0.14999999963E+04  0.15000000000E+04  0.10566000000E+00 0. -1.
        994   -1    0    0    0    0 -0.00000000000E+00 -0.00000000000E+00  0.11368683772E-12  0.17120000000E+03  0.17120000000E+03 0.  0.
         13    1    1    2    0    0  0.67169218767E+01  0.36570912781E+02  0.20471041283E+03  0.20805987837E+03  0.10566000000E+00 0. -1.
        994    1    1    2    0    0  0.35314913152E+01 -0.32454337596E+02  0.66471103653E+01  0.17441152352E+03  0.17120000000E+03 0.  0.
        998    1    1    2    0    0 -0.10248413192E+02 -0.41165751846E+01  0.12886424731E+04  0.12887285981E+04  0.10000000000E+02 0. -1.
</event>
<event>
 5    1  0.1068111E-008  0.3846429E+03  0.7957747E-01  0.3431188E+00
         13   -1    0    0    0    0  0.00000000000E+00  0.00000000000E+00  0.14999999963E+04  0.15000000000E+04  0.10566000000E+00 0.  1.
        994   -1    0    0    0    0 -0.00000000000E+00 -0.00000000000E+00  0.11368683772E-12  0.17120000000E+03  0.17120000000E+03 0.  0.
         13    1    1    2    0    0  0.12464002602E+02  0.36388773671E+01  0.47356711311E+02  0.49104603242E+02  0.10566000000E+00 0.  1.
        994    1    1    2    0    0 -0.70622976976E+01  0.69640449719E+01  0.21314793632E+01  0.17150031246E+03  0.17120000000E+03 0.  0.
        998    1    1    2    0    0 -0.54017049040E+01 -0.10602922339E+02  0.14505118056E+04  0.14505950843E+04  0.10000000000E+02 0.  1.
</event>
<event>
 5    1  0.1068111E-008  0.3848780E+03  0.7957747E-01  0.3430190E+00
         13   -1    0    0    0    0  0.00000000000E+00  0.00000000000E+00  0.14999999963E+04  0.15000000000E+04  0.10566000000E+00 0.  1.
        994   -1    0    0    0    0 -0.00000000000E+00 -0.00000000000E+00  0.11368683772E-12  0.17120000000E+03  0.17120000000E+03 0.  0.
         13    1    1    2    0    0 -0.10262456596E+02 -0.16258747440E+02  0.11361566834E+03  0.11523105545E+03  0.10566000000E+00 0.  1.
        994    1    1    2    0    0  0.31403265962E+01  0.68753200805E+01  0.18786842283E+01  0.17137707295E+03  0.17120000000E+03 0.  0.
        998    1    1    2    0    0  0.71221299995E+01  0.93834273593E+01  0.13845056437E+04  0.13845918716E+04  0.10000000000E+02 0.  1.
</event>
<event>
 5    1  0.1068111E-008  0.3749462E+03  0.7957747E-01  0.3473463E+00
         13   -1    0    0    0    0  0.00000000000E+00  0.00000000000E+00  0.14999999963E+04  0.15000000000E+04  0.10566000000E+00 0.  1.
        994   -1    0    0    0    0 -0.00000000000E+00 -0.00000000000E+00  0.11368683772E-12  0.17120000000E+03  0.17120000000E+03 0.  0.
         13    1    1    2    0    0 -0.35110599689E+02  0.19237154198E+02  0.11277125446E+03  0.11966699340E+03  0.10566000000E+00 0.  1.
        994    1    1    2    0    0  0.32126646123E+02 -0.97031825455E+01  0.10545045751E+02  0.17477674654E+03  0.17120000000E+03 0.  0.
        998    1    1    2    0    0  0.29839535658E+01 -0.95339716524E+01  0.13766836961E+04  0.13767562601E+04  0.10000000000E+02 0.  1.
</event>
<event>
 5    1  0.1068111E-008  0.3761870E+03  0.7957747E-01  0.3467931E+00
         13   -1    0    0    0    0  0.00000000000E+00  0.00000000000E+00  0.14999999963E+04  0.15000000000E+04  0.10566000000E+00 0. -1.
        994   -1    0    0    0    0 -0.00000000000E+00 -0.00000000000E+00  0.11368683772E-12  0.17120000000E+03  0.17120000000E+03 0.  0.
         13    1    1    2    0    0 -0.52299463191E+01  0.72061749964E+02  0.14341273752E+03  0.16058478319E+03  0.10566000000E+00 0. -1.
        994    1    1    2    0    0  0.25491664832E+02 -0.10007111923E+03  0.53414808129E+02  0.20694597268E+03  0.17120000000E+03 0.  0.
        998    1    1    2    0    0 -0.20261718513E+02  0.28009369269E+02  0.13031724506E+04  0.13036692441E+04  0.10000000000E+02 0. -1.
</event>
<event>
 5    1  0.1068111E-008  0.3831372E+03  0.7957747E-01  0.3437611E+00
         13   -1    0    0    0    0  0.00000000000E+00  0.00000000000E+00  0.14999999963E+04  0.15000000000E+04  0.10566000000E+00 0. -1.
        994   -1    0    0    0    0 -0.00000000000E+00 -0.00000000000E+00  0.11368683772E-12  0.17120000000E+03  0.17120000000E+03 0.  0.
         13    1    1    2    0    0  0.45223589415E+01 -0.11226517074E+02  0.27781973718E+02  0.30304053255E+02  0.10566000000E+00 0. -1.
        994    1    1    2    0    0 -0.11784619053E+02  0.40802104830E+01  0.30725547352E+01  0.17168111706E+03  0.17120000000E+03 0.  0.
        998    1    1    2    0    0  0.72622601118E+01  0.71463065915E+01  0.14691454678E+04  0.14692148297E+04  0.10000000000E+02 0. -1.
</event>
<event>
 5    1  0.1068111E-008  0.3821360E+03  0.7957747E-01  0.3441910E+00
         13   -1    0    0    0    0  0.00000000000E+00  0.00000000000E+00  0.14999999963E+04  0.15000000000E+04  0.10566000000E+00 0.  1.
        994   -1    0    0    0    0 -0.00000000000E+00 -0.00000000000E+00  0.11368683772E-12  0.17120000000E+03  0.17120000000E+03 0.  0.
         13    1    1    2    0    0  0.31410219952E+02 -0.80251131484E+01  0.19017761694E+03  0.19292107586E+03  0.10566000000E+00 0.  1.
        994    1    1    2    0    0 -0.91374651037E+01 -0.96986839735E+01  0.36483722431E+01  0.17175653804E+03  0.17120000000E+03 0.  0.
        998    1    1    2    0    0 -0.22272754849E+02  0.17723797122E+02  0.13061740071E+04  0.13065223861E+04  0.10000000000E+02 0.  1.
</event>
<event>
 5    1  0.1068111E-008  0.3742160E+03  0.7957747E-01  0.3476737E+00
         13   -1    0    0    0    0  0.00000000000E+00  0.00000000000E+00  0.14999999963E+04  0.15000000000E+04  0.10566000000E+00 0. -1.
        994   -1    0    0    0    0 -0.00000000000E+00 -0.00000000000E+00  0.11368683772E-12  0.17120000000E+03  0.17120000000E+03 0.  0.
         13    1    1    2    0    0 -0.54037932312E+02 -0.57038041696E+02  0.39373131391E+03  0.40149445207E+03  0.10566000000E+00 0. -1.
        994    1    1    2    0    0  0.33492823926E+02  0.45642709682E+02  0.18084984257E+02  0.18122232991E+03  0.17120000000E+03 0.  0.
        998    1    1    2    0    0  0.20545108387E+02  0.11395332014E+02  0.10881836981E+04  0.10884832180E+04  0.10000000000E+02 0. -1.
</event>
<event>
 5    1  0.1068111E-008  0.3851323E+03  0.7957747E-01  0.3429111E+00
         13   -1    0    0    0    0  0.00000000000E+00  0.00000000000E+00  0.14999999963E+04  0.15000000000E+04  0.10566000000E+00 0.  1.
        994   -1    0    0    0    0 -0.00000000000E+00 -0.00000000000E+00  0.11368683772E-12  0.17120000000E+03  0.17120000000E+03 0.  0.
         13    1    1    2    0    0  0.15629914794E+02 -0.74292753444E+00  0.78522883033E+02  0.80066850205E+02  0.10566000000E+00 0.  1.
        994    1    1    2    0    0 -0.10499827665E+02 -0.88191377671E+01  0.21827990915E+01  0.17176212674E+03  0.17120000000E+03 0.  0.
        998    1    1    2    0    0 -0.51300871296E+01  0.95620653015E+01  0.14192943142E+04  0.14193710231E+04  0.10000000000E+02 0.  1.
</event>
<event>
 5    1  0.1068111E-008  0.3767262E+03  0.7957747E-01  0.3465538E+00
         13   -1    0    0    0    0  0.00000000000E+00  0.00000000000E+00  0.14999999963E+04  0.15000000000E+04  0.10566000000E+00 0. -1.
        994   -1    0    0    0    0 -0.00000000000E+00 -0.00000000000E+00  0.11368683772E-12  0.17120000000E+03  0.17120000000E+03 0.  0.
         13    1    1    2    0    0  0.15247948183E+02 -0.81754212339E+01  0.23222353788E+02  0.28959045489E+02  0.10566000000E+00 0. -1.
        994    1    1    2    0    0 -0.10278788864E+02  0.12118909105E+02  0.66488153294E+01  0.17206443038E+03  0.17120000000E+03 0.  0.
        998    1    1    2    0    0 -0.49691593190E+01 -0.39434878711E+01  0.14701288272E+04  0.14701765241E+04  0.10000000000E+02 0. -1.
</event>
<event>
 5    1  0.1068111E-008  0.3830059E+03  0.7957747E-01  0.3438174E+00
         13   -1    0    0    0    0  0.00000000000E+00  0.00000000000E+00  0.14999999963E+04  0.15000000000E+04  0.10566000000E+00 0.  1.
        994   -1    0    0    0    0 -0.00000000000E+00 -0.00000000000E+00  0.11368683772E-12  0.17120000000E+03  0.17120000000E+03 0.  0.
         13    1    1    2    0    0 -0.43642567336E+00 -0.12540111639E+02  0.29121520079E+02  0.31709919001E+02  0.10566000000E+00 0.  1.
        994    1    1    2    0    0 -0.65785997674E+01  0.87676698432E+01  0.30212158934E+01  0.17157714811E+03  0.17120000000E+03 0.  0.
        998    1    1    2    0    0  0.70150254408E+01  0.37724417954E+01  0.14678572603E+04  0.14679129329E+04  0.10000000000E+02 0.  1.
</event>
<event>
 5    1  0.1068111E-008  0.3829846E+03  0.7957747E-01  0.3438265E+00
         13   -1    0    0    0    0  0.00000000000E+00  0.00000000000E+00  0.14999999963E+04  0.15000000000E+04  0.10566000000E+00 0.  1.
        994   -1    0    0    0    0 -0.00000000000E+00 -0.00000000000E+00  0.11368683772E-12  0.17120000000E+03  0.17120000000E+03 0.  0.
         13    1    1    2    0    0  0.69962438283E+01 -0.17135851739E+02  0.64039302954E+02  0.66660545522E+02  0.10566000000E+00 0.  1.
        994    1    1    2    0    0 -0.13574810072E+02  0.81985802846E+01  0.34670078865E+01  0.17196788168E+03  0.17120000000E+03 0.  0.
        998    1    1    2    0    0  0.65785662442E+01  0.89372714546E+01  0.14324936854E+04  0.14325715728E+04  0.10000000000E+02 0.  1.
</event>
<event>
 5    1  0.1068111E-008  0.3686613E+03  0.7957747E-01  0.3502066E+00
         13   -1    0    0    0    0  0.00000000000E+00  0.00000000000E+00  0.14999999963E+04  0.15000000000E+04  0.10566000000E+00 0. -1.
        994   -1    0    0    0    0 -0.00000000000E+00 -0.00000000000E+00  0.11368683772E-12  0.17120000000E+03  0.17120000000E+03 0.  0.
         13    1    1    2    0    0 -0.24030562681E+02 -0.26612282411E+02  0.59102527149E+02  0.69128875278E+02  0.10566000000E+00 0. -1.
        994    1    1    2    0    0  0.23673681627E+02  0.22839154980E+02  0.13738527948E+02  0.17487211714E+03  0.17120000000E+03 0.  0.
        998    1    1    2    0    0  0.35688105379E+00  0.37731274311E+01  0.14271589412E+04  0.14271990076E+04  0.10000000000E+02 0. -1.
</event>
<event>
 5    1  0.1068111E-008  0.4384038E+03  0.7957747E-01  0.3230600E+00
         13   -1    0    0    0    0  0.00000000000E+00  0.00000000000E+00  0.14999999963E+04  0.15000000000E+04  0.10566000000E+00 0.  1.
        994   -1    0    0    0    0 -0.00000000000E+00 -0.00000000000E+00  0.11368683772E-12  0.17120000000E+03  0.17120000000E+03 0.  0.
         13    1    1    2    0    0  0.32301278224E+02 -0.18794862337E+02 -0.72683284176E+01  0.38071763647E+02  0.10566000000E+00 0.  1.
        994    1    1    2    0    0 -0.11197497414E+02  0.30573107716E+02  0.58062885938E+02  0.18368679209E+03  0.17120000000E+03 0.  0.
        998    1    1    2    0    0 -0.21103780810E+02 -0.11778245380E+02  0.14492054388E+04  0.14494414443E+04  0.10000000000E+02 0.  1.
</event>
<event>
 5    1  0.1068111E-008  0.3789770E+03  0.7957747E-01  0.3455625E+00
         13   -1    0    0    0    0  0.00000000000E+00  0.00000000000E+00  0.14999999963E+04  0.15000000000E+04  0.10566000000E+00 0. -1.
        994   -1    0    0    0    0 -0.00000000000E+00 -0.00000000000E+00  0.11368683772E-12  0.17120000000E+03  0.17120000000E+03 0.  0.
         13    1    1    2    0    0 -0.34407123481E+02 -0.11812896864E+02  0.15809543593E+03  0.16222691732E+03  0.10566000000E+00 0. -1.
        994    1    1    2    0    0  0.46319984954E+01 -0.46997770001E+01  0.47965246531E+01  0.17139425300E+03  0.17120000000E+03 0.  0.
        998    1    1    2    0    0  0.29775124985E+02  0.16512673864E+02  0.13371080357E+04  0.13375788297E+04  0.10000000000E+02 0. -1.
</event>
<event>
 5    1  0.1068111E-008  0.3822966E+03  0.7957747E-01  0.3441219E+00
         13   -1    0    0    0    0  0.00000000000E+00  0.00000000000E+00  0.14999999963E+04  0.15000000000E+04  0.10566000000E+00 0. -1.
        994   -1    0    0    0    0 -0.00000000000E+00 -0.00000000000E+00  0.11368683772E-12  0.17120000000E+03  0.17120000000E+03 0.  0.
         13    1    1    2    0    0  0.50165932295E+01 -0.31117398118E+02  0.18274453705E+03  0.18544280968E+03  0.10566000000E+00 0. -1.
        994    1    1    2    0    0 -0.83848646542E+01  0.56612421356E+01  0.33179695741E+01  0.17153076849E+03  0.17120000000E+03 0.  0.
        998    1    1    2    0    0  0.33682714247E+01  0.25456155983E+02  0.13139374897E+04  0.13142264218E+04  0.10000000000E+02 0. -1.
</event>
<event>
 5    1  0.1068111E-008  0.3817772E+03  0.7957747E-01  0.3443456E+00
         13   -1    0    0    0    0  0.00000000000E+00  0.00000000000E+00  0.14999999963E+04  0.15000000000E+04  0.10566000000E+00 0. -1.
        994   -1    0    0    0    0 -0.00000000000E+00 -0.00000000000E+00  0.11368683772E-12  0.17120000000E+03  0.17120000000E+03 0.  0.
         13    1    1    2    0    0 -0.12747435073E+02  0.15212879589E+01  0.24056517955E+02  0.27267904910E+02  0.10566000000E+00 0. -1.
        994    1    1    2    0    0  0.98941679339E+01 -0.72116481622E+01  0.37370259617E+01  0.17167791876E+03  0.17120000000E+03 0.  0.
        998    1    1    2    0    0  0.28532671395E+01  0.56903602033E+01  0.14722064524E+04  0.14722541763E+04  0.10000000000E+02 0. -1.
</event>
<event>
 5    1  0.1068111E-008  0.3757145E+03  0.7957747E-01  0.3470033E+00
         13   -1    0    0    0    0  0.00000000000E+00  0.00000000000E+00  0.14999999963E+04  0.15000000000E+04  0.10566000000E+00 0. -1.
        994   -1    0    0    0    0 -0.00000000000E+00 -0.00000000000E+00  0.11368683772E-12  0.17120000000E+03  0.17120000000E+03 0.  0.
         13    1    1    2    0    0  0.37768651027E+02  0.94844307364E+02  0.49383001818E+03  0.50427176369E+03  0.10566000000E+00 0. -1.
        994    1    1    2    0    0 -0.39827754826E+02 -0.10265091513E+03  0.48600267253E+02  0.20927227816E+03  0.17120000000E+03 0.  0.
        998    1    1    2    0    0  0.20591037992E+01  0.78066077647E+01  0.95756971085E+03  0.95765595814E+03  0.10000000000E+02 0. -1.
</event>
<event>
 5    1  0.1068111E-008  0.3703316E+03  0.7957747E-01  0.3494368E+00
         13   -1    0    0    0    0  0.00000000000E+00  0.00000000000E+00  0.14999999963E+04  0.15000000000E+04  0.10566000000E+00 0.  1.
        994   -1    0    0    0    0 -0.00000000000E+00 -0.00000000000E+00  0.11368683772E-12  0.17120000000E+03  0.17120000000E+03 0.  0.
         13    1    1    2    0    0  0.62194978878E+02 -0.14969223083E+02  0.18650487977E+03  0.19717092681E+03  0.10566000000E+00 0.  1.
        994    1    1    2    0    0 -0.29811971325E+02  0.10767414224E+02  0.14638797407E+02  0.17472385422E+03  0.17120000000E+03 0.  0.
        998    1    1    2    0    0 -0.32383007553E+02  0.42018088596E+01  0.12988563191E+04  0.12993052190E+04  0.10000000000E+02 0. -1.
</event>
<event>
 5    1  0.1068111E-008  0.3850291E+03  0.7957747E-01  0.3429549E+00
         13   -1    0    0    0    0  0.00000000000E+00  0.00000000000E+00  0.14999999963E+04  0.15000000000E+04  0.10566000000E+00 0.  1.
        994   -1    0    0    0    0 -0.00000000000E+00 -0.00000000000E+00  0.11368683772E-12  0.17120000000E+03  0.17120000000E+03 0.  0.
         13    1    1    2    0    0  0.50231016770E+01  0.15457139542E+02  0.88831377741E+02  0.90306032737E+02  0.10566000000E+00 0.  1.
        994    1    1    2    0    0  0.73648136359E+01 -0.21016476064E+01  0.18086140249E+01  0.17138077047E+03  0.17120000000E+03 0.  0.
        998    1    1    2    0    0 -0.12387915313E+02 -0.13355491936E+02  0.14093600045E+04  0.14095131968E+04  0.10000000000E+02 0.  1.
</event>
<event>
 5    1  0.1068111E-008  0.3851005E+03  0.7957747E-01  0.3429246E+00
         13   -1    0    0    0    0  0.00000000000E+00  0.00000000000E+00  0.14999999963E+04  0.15000000000E+04  0.10566000000E+00 0.  1.
        994   -1    0    0    0    0 -0.00000000000E+00 -0.00000000000E+00  0.11368683772E-12  0.17120000000E+03  0.17120000000E+03 0.  0.
         13    1    1    2    0    0  0.32684245206E+01 -0.10103488062E+02  0.34734774526E+02  0.36321877640E+02  0.10566000000E+00 0.  1.
        994    1    1    2    0    0 -0.44867161708E+01  0.11226047889E+02  0.20609047442E+01  0.17163869640E+03  0.17120000000E+03 0.  0.
        998    1    1    2    0    0  0.12182916502E+01 -0.11225598269E+01  0.14632043170E+04  0.14632394260E+04  0.10000000000E+02 0.  1.
</event>
<event>
 5    1  0.1068111E-008  0.4176644E+03  0.7957747E-01  0.3301947E+00
         13   -1    0    0    0    0  0.00000000000E+00  0.00000000000E+00  0.14999999963E+04  0.15000000000E+04  0.10566000000E+00 0. -1.
        994   -1    0    0    0    0 -0.00000000000E+00 -0.00000000000E+00  0.11368683772E-12  0.17120000000E+03  0.17120000000E+03 0.  0.
         13    1    1    2    0    0 -0.15859307049E+02  0.85345858746E+02  0.94052296589E+02  0.12798937020E+03  0.10566000000E+00 0. -1.
        994    1    1    2    0    0  0.75704575873E+02 -0.16018784146E+02  0.64553561879E+02  0.19865645372E+03  0.17120000000E+03 0.  0.
        998    1    1    2    0    0 -0.59845268823E+02 -0.69327074600E+02  0.13413941378E+04  0.13445541761E+04  0.10000000000E+02 0. -1.
</event>
<event>
 5    1  0.1068111E-008  0.3837175E+03  0.7957747E-01  0.3435130E+00
         13   -1    0    0    0    0  0.00000000000E+00  0.00000000000E+00  0.14999999963E+04  0.15000000000E+04  0.10566000000E+00 0.  1.
        994   -1    0    0    0    0 -0.00000000000E+00 -0.00000000000E+00  0.11368683772E-12  0.17120000000E+03  0.17120000000E+03 0.  0.
         13    1    1    2    0    0  0.22959238566E+02  0.53316945127E+01  0.11221126870E+03  0.11466007845E+03  0.10566000000E+00 0.  1.
        994    1    1    2    0    0 -0.24891102192E+02 -0.91785775177E+01  0.45959391527E+01  0.17330428705E+03  0.17120000000E+03 0.  0.
        998    1    1    2    0    0  0.19318636266E+01  0.38468830050E+01  0.13831927884E+04  0.13832356345E+04  0.10000000000E+02 0.  0.
</event>
<event>
 5    1  0.1068111E-008  0.3788501E+03  0.7957747E-01  0.3456181E+00
         13   -1    0    0    0    0  0.00000000000E+00  0.00000000000E+00  0.14999999963E+04  0.15000000000E+04  0.10566000000E+00 0. -1.
        994   -1    0    0    0    0 -0.00000000000E+00 -0.00000000000E+00  0.11368683772E-12  0.17120000000E+03  0.17120000000E+03 0.  0.
         13    1    1    2    0    0 -0.38229313564E+02  0.31568102611E+02  0.21981087732E+03  0.22533277274E+03  0.10566000000E+00 0. -1.
        994    1    1    2    0    0  0.38125685164E+02 -0.34536521233E+02  0.13646791553E+02  0.17928194022E+03  0.17120000000E+03 0.  0.
        998    1    1    2    0    0  0.10362840017E+00  0.29684186215E+01  0.12665423274E+04  0.12665852870E+04  0.10000000000E+02 0. -1.
</event>
<event>
 5    1  0.1068111E-008  0.3776829E+03  0.7957747E-01  0.3461310E+00
         13   -1    0    0    0    0  0.00000000000E+00  0.00000000000E+00  0.14999999963E+04  0.15000000000E+04  0.10566000000E+00 0.  1.
        994   -1    0    0    0    0 -0.00000000000E+00 -0.00000000000E+00  0.11368683772E-12  0.17120000000E+03  0.17120000000E+03 0.  0.
         13    1    1    2    0    0 -0.12251411378E+02 -0.46379699573E-01  0.11724476077E+02  0.16957999149E+02  0.10566000000E+00 0.  1.
        994    1    1    2    0    0  0.11103261355E+02 -0.24989689689E+01  0.57438658338E+01  0.17167399120E+03  0.17120000000E+03 0.  0.
        998    1    1    2    0    0  0.11481500229E+01  0.25453486685E+01  0.14825316544E+04  0.14825680097E+04  0.10000000000E+02 0.  1.
</event>
<event>
 5    1  0.1068111E-008  0.3776689E+03  0.7957747E-01  0.3461372E+00
         13   -1    0    0    0    0  0.00000000000E+00  0.00000000000E+00  0.14999999963E+04  0.15000000000E+04  0.10566000000E+00 0.  1.
        994   -1    0    0    0    0 -0.00000000000E+00 -0.00000000000E+00  0.11368683772E-12  0.17120000000E+03  0.17120000000E+03 0.  0.
         13    1    1    2    0    0 -0.77588865676E+02  0.66106169744E+02  0.26861750332E+03  0.28730720841E+03  0.10566000000E+00 0.  1.
        994    1    1    2    0    0  0.81469450197E+02 -0.69553913105E+02  0.57529813988E+02  0.20998604154E+03  0.17120000000E+03 0.  0.
        998    1    1    2    0    0 -0.38805845215E+01  0.34477433612E+01  0.11738526790E+04  0.11739067500E+04  0.10000000000E+02 0.  1.
</event>
<event>
 5    1  0.1068111E-008  0.3845875E+03  0.7957747E-01  0.3431424E+00
         13   -1    0    0    0    0  0.00000000000E+00  0.00000000000E+00  0.14999999963E+04  0.15000000000E+04  0.10566000000E+00 0. -1.
        994   -1    0    0    0    0 -0.00000000000E+00 -0.00000000000E+00  0.11368683772E-12  0.17120000000E+03  0.17120000000E+03 0.  0.
         13    1    1    2    0    0 -0.83935466753E+02  0.31957967639E+02  0.28515448281E+03  0.29896415254E+03  0.10566000000E+00 0. -1.
        994    1    1    2    0    0 -0.11115362698E+02 -0.64317638387E+01  0.19478529419E+02  0.17278244119E+03  0.17120000000E+03 0.  0.
        998    1    1    2    0    0  0.95050829451E+02 -0.25526203801E+02  0.11953669840E+04  0.11994534063E+04  0.10000000000E+02 0. -1.
</event>
<event>
 5    1  0.1068111E-008  0.3850453E+03  0.7957747E-01  0.3429480E+00
         13   -1    0    0    0    0  0.00000000000E+00  0.00000000000E+00  0.14999999963E+04  0.15000000000E+04  0.10566000000E+00 0.  1.
        994   -1    0    0    0    0 -0.00000000000E+00 -0.00000000000E+00  0.11368683772E-12  0.17120000000E+03  0.17120000000E+03 0.  0.
         13    1    1    2    0    0  0.10043877922E+02  0.34262896086E+01  0.32418440837E+02  0.34111367820E+02  0.10566000000E+00 0.  1.
        994    1    1    2    0    0 -0.24324359124E+02 -0.46041079120E+00  0.35562894338E+01  0.17295656570E+03  0.17120000000E+03 0.  0.
        998    1    1    2    0    0  0.14280481201E+02 -0.29658788174E+01  0.14640252660E+04  0.14641320665E+04  0.10000000000E+02 0.  1.
</event>
<event>
 5    1  0.1068111E-008  0.3804479E+03  0.7957747E-01  0.3449211E+00
         13   -1    0    0    0    0  0.00000000000E+00  0.00000000000E+00  0.14999999963E+04  0.15000000000E+04  0.10566000000E+00 0.  1.
        994   -1    0    0    0    0 -0.00000000000E+00 -0.00000000000E+00  0.11368683772E-12  0.17120000000E+03  0.17120000000E+03 0.  0.
         13    1    1    2    0    0 -0.20794667492E+02 -0.46769400235E+02  0.30030089136E+03  0.30463163248E+03  0.10566000000E+00 0.  1.
        994    1    1    2    0    0  0.11470173120E+02  0.39145121026E+02  0.94813581224E+01  0.17624767097E+03  0.17120000000E+03 0.  0.
        998    1    1    2    0    0  0.93244943717E+01  0.76242792088E+01  0.11902177468E+04  0.11903206965E+04  0.10000000000E+02 0.  0.
</event>
<event>
 5    1  0.1068111E-008  0.3745166E+03  0.7957747E-01  0.3475388E+00
         13   -1    0    0    0    0  0.00000000000E+00  0.00000000000E+00  0.14999999963E+04  0.15000000000E+04  0.10566000000E+00 0. -1.
        994   -1    0    0    0    0 -0.00000000000E+00 -0.00000000000E+00  0.11368683772E-12  0.17120000000E+03  0.17120000000E+03 0.  0.
         13    1    1    2    0    0  0.34136691173E+01  0.15558826107E+02  0.14920390276E+02  0.21825659593E+02  0.10566000000E+00 0. -1.
        994    1    1    2    0    0  0.10796537502E+02 -0.24240081103E+02  0.93283502093E+01  0.17349525893E+03  0.17120000000E+03 0.  0.
        998    1    1    2    0    0 -0.14210206619E+02  0.86812549957E+01  0.14757512558E+04  0.14758790815E+04  0.10000000000E+02 0. -1.
</event>
<event>
 5    1  0.1068111E-008  0.3828895E+03  0.7957747E-01  0.3438673E+00
         13   -1    0    0    0    0  0.00000000000E+00  0.00000000000E+00  0.14999999963E+04  0.15000000000E+04  0.10566000000E+00 0.  1.
        994   -1    0    0    0    0 -0.00000000000E+00 -0.00000000000E+00  0.11368683772E-12  0.17120000000E+03  0.17120000000E+03 0.  0.
         13    1    1    2    0    0  0.19251486130E+01 -0.12309722998E+02  0.26781897921E+02  0.29538393621E+02  0.10566000000E+00 0.  1.
        994    1    1    2    0    0 -0.41587344348E+00  0.21789426953E+02  0.42559113492E+01  0.17263401999E+03  0.17120000000E+03 0.  0.
        998    1    1    2    0    0 -0.15092751695E+01 -0.94797039554E+01  0.14689621870E+04  0.14690275864E+04  0.10000000000E+02 0.  1.
</event>
<event>
 5    1  0.1068111E-008  0.3697595E+03  0.7957747E-01  0.3496997E+00
         13   -1    0    0    0    0  0.00000000000E+00  0.00000000000E+00  0.14999999963E+04  0.15000000000E+04  0.10566000000E+00 0. -1.
        994   -1    0    0    0    0 -0.00000000000E+00 -0.00000000000E+00  0.11368683772E-12  0.17120000000E+03  0.17120000000E+03 0.  0.
         13    1    1    2    0    0 -0.58774287679E+02 -0.49290948989E+02  0.34286959043E+03  0.35134538812E+03  0.10566000000E+00 0. -1.
        994    1    1    2    0    0  0.36399913426E+02  0.44976023309E+01  0.14064183507E+02  0.17564857922E+03  0.17120000000E+03 0.  0.
        998    1    1    2    0    0  0.22374374253E+02  0.44793346659E+02  0.11430662223E+04  0.11442060327E+04  0.10000000000E+02 0.  1.
</event>
<event>
 5    1  0.1068111E-008  0.3848319E+03  0.7957747E-01  0.3430385E+00
         13   -1    0    0    0    0  0.00000000000E+00  0.00000000000E+00  0.14999999963E+04  0.15000000000E+04  0.10566000000E+00 0. -1.
        994   -1    0    0    0    0 -0.00000000000E+00 -0.00000000000E+00  0.11368683772E-12  0.17120000000E+03  0.17120000000E+03 0.  0.
         13    1    1    2    0    0  0.11250044413E+02  0.98486382083E+01  0.82721452417E+02  0.84061935666E+02  0.10566000000E+00 0. -1.
        994    1    1    2    0    0  0.42114697057E+02 -0.17177878520E+02  0.85504862708E+01  0.17734508179E+03  0.17120000000E+03 0.  0.
        998    1    1    2    0    0 -0.53364741470E+02  0.73292403113E+01  0.14087280576E+04  0.14097929825E+04  0.10000000000E+02 0. -1.
</event>
<event>
 5    1  0.1068111E-008  0.3771418E+03  0.7957747E-01  0.3463699E+00
         13   -1    0    0    0    0  0.00000000000E+00  0.00000000000E+00  0.14999999963E+04  0.15000000000E+04  0.10566000000E+00 0.  1.
        994   -1    0    0    0    0 -0.00000000000E+00 -0.00000000000E+00  0.11368683772E-12  0.17120000000E+03  0.17120000000E+03 0.  0.
         13    1    1    2    0    0  0.10187049963E+02 -0.24390779602E+02  0.15996104412E+02  0.30896158935E+02  0.10566000000E+00 0.  1.
        994    1    1    2    0    0 -0.43103500286E+02  0.38849886694E+02  0.26941350871E+02  0.18276351337E+03  0.17120000000E+03 0.  0.
        998    1    1    2    0    0  0.32916450323E+02 -0.14459107092E+02  0.14570625410E+04  0.14575403277E+04  0.10000000000E+02 0.  1.
</event>
<event>
 5    1  0.1068111E-008  0.3850065E+03  0.7957747E-01  0.3429645E+00
         13   -1    0    0    0    0  0.00000000000E+00  0.00000000000E+00  0.14999999963E+04  0.15000000000E+04  0.10566000000E+00 0. -1.
        994   -1    0    0    0    0 -0.00000000000E+00 -0.00000000000E+00  0.11368683772E-12  0.17120000000E+03  0.17120000000E+03 0.  0.
         13    1    1    2    0    0  0.11582273865E+02 -0.11434909066E+02  0.86772967756E+02  0.88286269094E+02  0.10566000000E+00 0. -1.
        994    1    1    2    0    0 -0.80990796358E+01 -0.51194600767E+01  0.19288663280E+01  0.17147875812E+03  0.17120000000E+03 0.  0.
        998    1    1    2    0    0 -0.34831942291E+01  0.16554369142E+02  0.14112981622E+04  0.14114349728E+04  0.10000000000E+02 0. -1.
</event>
<event>
 5    1  0.1068111E-008  0.3844286E+03  0.7957747E-01  0.3432099E+00
         13   -1    0    0    0    0  0.00000000000E+00  0.00000000000E+00  0.14999999963E+04  0.15000000000E+04  0.10566000000E+00 0. -1.
        994   -1    0    0    0    0 -0.00000000000E+00 -0.00000000000E+00  0.11368683772E-12  0.17120000000E+03  0.17120000000E+03 0.  0.
         13    1    1    2    0    0 -0.85777987490E+01 -0.56105343602E+01  0.27068384658E+02  0.28944176257E+02  0.10566000000E+00 0. -1.
        994    1    1    2    0    0  0.40336498128E+01  0.48985414924E+01  0.20467571874E+01  0.17132978508E+03  0.17120000000E+03 0.  0.
        998    1    1    2    0    0  0.45441489362E+01  0.71199286780E+00  0.14708848544E+04  0.14709260387E+04  0.10000000000E+02 0. -1.
</event>
<event>
 5    1  0.1068111E-008  0.3737129E+03  0.7957747E-01  0.3478999E+00
         13   -1    0    0    0    0  0.00000000000E+00  0.00000000000E+00  0.14999999963E+04  0.15000000000E+04  0.10566000000E+00 0. -1.
        994   -1    0    0    0    0 -0.00000000000E+00 -0.00000000000E+00  0.11368683772E-12  0.17120000000E+03  0.17120000000E+03 0.  0.
         13    1    1    2    0    0  0.23292853169E+01  0.60014083528E+02  0.30722137084E+03  0.31303689504E+03  0.10566000000E+00 0. -1.
        994    1    1    2    0    0  0.19876866094E+01 -0.39475348174E+01  0.74078865690E+01  0.17141718325E+03  0.17120000000E+03 0.  0.
        998    1    1    2    0    0 -0.43169719263E+01 -0.56066548710E+02  0.11853707389E+04  0.11867459217E+04  0.10000000000E+02 0.  1.
</event>
<event>
 5    1  0.1068111E-008  0.3837294E+03  0.7957747E-01  0.3435079E+00
         13   -1    0    0    0    0  0.00000000000E+00  0.00000000000E+00  0.14999999963E+04  0.15000000000E+04  0.10566000000E+00 0. -1.
        994   -1    0    0    0    0 -0.00000000000E+00 -0.00000000000E+00  0.11368683772E-12  0.17120000000E+03  0.17120000000E+03 0.  0.
         13    1    1    2    0    0  0.65978677477E+01 -0.23650701410E+02  0.13609821933E+03  0.13829542294E+03  0.10566000000E+00 0. -1.
        994    1    1    2    0    0 -0.75305337991E+01  0.10140062335E+02  0.27892473783E+01  0.17168794280E+03  0.17120000000E+03 0.  0.
        998    1    1    2    0    0  0.93266605142E+00  0.13510639075E+02  0.13611125296E+04  0.13612166343E+04  0.10000000000E+02 0. -1.
</event>
<event>
 5    1  0.1068111E-008  0.3783209E+03  0.7957747E-01  0.3458502E+00
         13   -1    0    0    0    0  0.00000000000E+00  0.00000000000E+00  0.14999999963E+04  0.15000000000E+04  0.10566000000E+00 0.  1.
        994   -1    0    0    0    0 -0.00000000000E+00 -0.00000000000E+00  0.11368683772E-12  0.17120000000E+03  0.17120000000E+03 0.  0.
         13    1    1    2    0    0  0.29152009014E+02 -0.35716492544E+02  0.26903628719E+03  0.27295794998E+03  0.10566000000E+00 0.  1.
        994    1    1    2    0    0  0.54245124139E+01  0.16948728183E+01  0.50917272816E+01  0.17136996124E+03  0.17120000000E+03 0.  0.
        998    1    1    2    0    0 -0.34576521428E+02  0.34021619726E+02  0.12258719818E+04  0.12268720888E+04  0.10000000000E+02 0.  1.
</event>
<event>
 5    1  0.1068111E-008  0.3849675E+03  0.7957747E-01  0.3429810E+00
         13   -1    0    0    0    0  0.00000000000E+00  0.00000000000E+00  0.14999999963E+04  0.15000000000E+04  0.10566000000E+00 0. -1.
        994   -1    0    0    0    0 -0.00000000000E+00 -0.00000000000E+00  0.11368683772E-12  0.17120000000E+03  0.17120000000E+03 0.  0.
         13    1    1    2    0    0 -0.18395398886E+02 -0.39543354289E+01  0.11339482107E+03  0.11494530907E+03  0.10566000000E+00 0. -1.
        994    1    1    2    0    0  0.24731570051E+01  0.17895634856E+02  0.27204586726E+01  0.17217203939E+03  0.17120000000E+03 0.  0.
        998    1    1    2    0    0  0.15922241881E+02 -0.13941299427E+02  0.13838847165E+04  0.13840826515E+04  0.10000000000E+02 0. -1.
</event>
<event>
 5    1  0.1248938E-008  0.3853728E+03  0.7957747E-01  0.3428092E+00
         13   -1    0    0    0    0  0.00000000000E+00  0.00000000000E+00  0.14999999963E+04  0.15000000000E+04  0.10566000000E+00 0.  1.
        994   -1    0    0    0    0 -0.00000000000E+00 -0.00000000000E+00  0.11368683772E-12  0.17120000000E+03  0.17120000000E+03 0.  0.
         13    1    1    2    0    0  0.13666613082E+02 -0.48005973607E+01  0.70030030056E+02  0.71512504654E+02  0.10566000000E+00 0.  1.
        994    1    1    2    0    0 -0.16140620951E+02  0.28504849741E+00  0.23015956318E+01  0.17197481862E+03  0.17120000000E+03 0.  0.
        998    1    1    2    0    0  0.24740078696E+01  0.45155488633E+01  0.14276683706E+04  0.14277126767E+04  0.10000000000E+02 0.  1.
</event>
<event>
 5    1  0.1068111E-008  0.3850305E+03  0.7957747E-01  0.3429543E+00
         13   -1    0    0    0    0  0.00000000000E+00  0.00000000000E+00  0.14999999963E+04  0.15000000000E+04  0.10566000000E+00 0. -1.
        994   -1    0    0    0    0 -0.00000000000E+00 -0.00000000000E+00  0.11368683772E-12  0.17120000000E+03  0.17120000000E+03 0.  0.
         13    1    1    2    0    0  0.44983048106E+01  0.10409107970E+02  0.42746757180E+02  0.44225339890E+02  0.10566000000E+00 0. -1.
        994    1    1    2    0    0  0.84615084194E+01  0.32959954812E+01  0.18861968209E+01  0.17145103805E+03  0.17120000000E+03 0.  0.
        998    1    1    2    0    0 -0.12959813230E+02 -0.13705103451E+02  0.14553670423E+04  0.14555236221E+04  0.10000000000E+02 0. -1.
</event>
<event>
 5    1  0.1068111E-008  0.3737737E+03  0.7957747E-01  0.3478725E+00
         13   -1    0    0    0    0  0.00000000000E+00  0.00000000000E+00  0.14999999963E+04  0.15000000000E+04  0.10566000000E+00 0. -1.
        994   -1    0    0    0    0 -0.00000000000E+00 -0.00000000000E+00  0.11368683772E-12  0.17120000000E+03  0.17120000000E+03 0.  0.
         13    1    1    2    0    0  0.15689949408E+01 -0.16604891617E+02  0.15270153582E+02  0.22613556226E+02  0.10566000000E+00 0. -1.
        994    1    1    2    0    0 -0.19237353222E+01  0.27296274799E+02  0.98698923854E+01  0.17365379970E+03  0.17120000000E+03 0.  0.
        998    1    1    2    0    0  0.35474038143E+00 -0.10691383182E+02  0.14748599503E+04  0.14749326441E+04  0.10000000000E+02 0. -1.
</event>
<event>
 5    1  0.1068111E-008  0.3817789E+03  0.7957747E-01  0.3443449E+00
         13   -1    0    0    0    0  0.00000000000E+00  0.00000000000E+00  0.14999999963E+04  0.15000000000E+04  0.10566000000E+00 0.  1.
        994   -1    0    0    0    0 -0.00000000000E+00 -0.00000000000E+00  0.11368683772E-12  0.17120000000E+03  0.17120000000E+03 0.  0.
         13    1    1    2    0    0 -0.90165257150E+01  0.15806401912E+02  0.48287200294E+02  0.51602373527E+02  0.10566000000E+00 0.  1.
        994    1    1    2    0    0  0.92206439922E+01 -0.18444069008E+02  0.46522485068E+01  0.17250010833E+03  0.17120000000E+03 0.  0.
        998    1    1    2    0    0 -0.20411827721E+00  0.26376670955E+01  0.14470605475E+04  0.14470975181E+04  0.10000000000E+02 0.  1.
</event>
<event>
 5    1  0.1068111E-008  0.3803727E+03  0.7957747E-01  0.3449537E+00
         13   -1    0    0    0    0  0.00000000000E+00  0.00000000000E+00  0.14999999963E+04  0.15000000000E+04  0.10566000000E+00 0.  1.
        994   -1    0    0    0    0 -0.00000000000E+00 -0.00000000000E+00  0.11368683772E-12  0.17120000000E+03  0.17120000000E+03 0.  0.
         13    1    1    2    0    0 -0.79775147272E+01  0.82720039632E+01  0.14917411145E+02  0.18831014580E+02  0.10566000000E+00 0.  1.
        994    1    1    2    0    0  0.34779948299E+01 -0.13020155793E+02  0.45517496122E+01  0.17178992790E+03  0.17120000000E+03 0.  0.
        998    1    1    2    0    0  0.44995198974E+01  0.47481518302E+01  0.14805308355E+04  0.14805790575E+04  0.10000000000E+02 0.  1.
</event>
<event>
 5    1  0.1068111E-008  0.3847814E+03  0.7957747E-01  0.3430600E+00
         13   -1    0    0    0    0  0.00000000000E+00  0.00000000000E+00  0.14999999963E+04  0.15000000000E+04  0.10566000000E+00 0.  1.
        994   -1    0    0    0    0 -0.00000000000E+00 -0.00000000000E+00  0.11368683772E-12  0.17120000000E+03  0.17120000000E+03 0.  0.
         13    1    1    2    0    0 -0.33367716291E+01  0.21282277551E+02  0.12313404703E+03  0.12500429627E+03  0.10566000000E+00 0.  1.
        994    1    1    2    0    0  0.34271607648E+01 -0.22673817739E+02  0.34711762079E+01  0.17276381712E+03  0.17120000000E+03 0.  0.
        998    1    1    2    0    0 -0.90389135721E-01  0.13915401881E+01  0.13733947730E+04  0.13734318866E+04  0.10000000000E+02 0.  1.
</event>
<event>
 5    1  0.1068111E-008  0.3737721E+03  0.7957747E-01  0.3478733E+00
         13   -1    0    0    0    0  0.00000000000E+00  0.00000000000E+00  0.14999999963E+04  0.15000000000E+04  0.10566000000E+00 0.  1.
        994   -1    0    0    0    0 -0.00000000000E+00 -0.00000000000E+00  0.11368683772E-12  0.17120000000E+03  0.17120000000E+03 0.  0.
         13    1    1    2    0    0  0.48599875719E+02 -0.98555803016E+02  0.52204383669E+03  0.53348380746E+03  0.10566000000E+00 0.  1.
        994    1    1    2    0    0 -0.54166839432E+02  0.95828908279E+02  0.49870602863E+02  0.20955606216E+03  0.17120000000E+03 0.  0.
        998    1    1    2    0    0  0.55669637131E+01  0.27268947367E+01  0.92808555672E+03  0.92816013039E+03  0.10000000000E+02 0.  1.
</event>
<event>
 5    1  0.1068111E-008  0.3780603E+03  0.7957747E-01  0.3459648E+00
         13   -1    0    0    0    0  0.00000000000E+00  0.00000000000E+00  0.14999999963E+04  0.15000000000E+04  0.10566000000E+00 0.  1.
        994   -1    0    0    0    0 -0.00000000000E+00 -0.00000000000E+00  0.11368683772E-12  0.17120000000E+03  0.17120000000E+03 0.  0.
         13    1    1    2    0    0 -0.10706132380E+03  0.12557522598E+03  0.75605595882E+03  0.77385521156E+03  0.10566000000E+00 0.  1.
        994    1    1    2    0    0  0.16474239215E+03 -0.11796726503E+03  0.15866488090E+03  0.30909596539E+03  0.17120000000E+03 0.  0.
        998    1    1    2    0    0 -0.57681068342E+02 -0.76079609556E+01  0.58527915656E+03  0.58824882305E+03  0.10000000000E+02 0. -1.
</event>
<event>
 5    1  0.1068111E-008  0.3715134E+03  0.7957747E-01  0.3488964E+00
         13   -1    0    0    0    0  0.00000000000E+00  0.00000000000E+00  0.14999999963E+04  0.15000000000E+04  0.10566000000E+00 0. -1.
        994   -1    0    0    0    0 -0.00000000000E+00 -0.00000000000E+00  0.11368683772E-12  0.17120000000E+03  0.17120000000E+03 0.  0.
         13    1    1    2    0    0 -0.45277012788E+01 -0.10469468671E+02  0.36452962479E+01  0.11975358111E+02  0.10566000000E+00 0. -1.
        994    1    1    2    0    0  0.10398699888E+02  0.14262562573E+02  0.95525162907E+01  0.17237239982E+03  0.17120000000E+03 0.  0.
        998    1    1    2    0    0 -0.58709986095E+01 -0.37930939017E+01  0.14868021837E+04  0.14868522421E+04  0.10000000000E+02 0. -1.
</event>
<event>
 5    1  0.1068111E-008  0.3812416E+03  0.7957747E-01  0.3445770E+00
         13   -1    0    0    0    0  0.00000000000E+00  0.00000000000E+00  0.14999999963E+04  0.15000000000E+04  0.10566000000E+00 0.  1.
        994   -1    0    0    0    0 -0.00000000000E+00 -0.00000000000E+00  0.11368683772E-12  0.17120000000E+03  0.17120000000E+03 0.  0.
         13    1    1    2    0    0  0.13261753621E+02 -0.84237576924E+01  0.34564819404E+02  0.37968035335E+02  0.10566000000E+00 0.  1.
        994    1    1    2    0    0 -0.57912472041E+01 -0.42854419876E+00  0.36200118102E+01  0.17133670558E+03  0.17120000000E+03 0.  0.
        998    1    1    2    0    0 -0.74705064167E+01  0.88523018912E+01  0.14618151651E+04  0.14618952591E+04  0.10000000000E+02 0.  1.
</event>
<event>
 5    1  0.1068111E-008  0.3809004E+03  0.7957747E-01  0.3447247E+00
         13   -1    0    0    0    0  0.00000000000E+00  0.00000000000E+00  0.14999999963E+04  0.15000000000E+04  0.10566000000E+00 0. -1.
        994   -1    0    0    0    0 -0.00000000000E+00 -0.00000000000E+00  0.11368683772E-12  0.17120000000E+03  0.17120000000E+03 0.  0.
         13    1    1    2    0    0 -0.24471366748E+02  0.49533182351E+02  0.30767081940E+03  0.31259195162E+03  0.10566000000E+00 0. -1.
        994    1    1    2    0    0  0.32869168566E+02 -0.53582222549E+02  0.16963512238E+02  0.18316287168E+03  0.17120000000E+03 0.  0.
        998    1    1    2    0    0 -0.83978018182E+01  0.40490401984E+01  0.11753656646E+04  0.11754451767E+04  0.10000000000E+02 0. -1.
</event>
<event>
 5    1  0.1068111E-008  0.3720812E+03  0.7957747E-01  0.3486380E+00
         13   -1    0    0    0    0  0.00000000000E+00  0.00000000000E+00  0.14999999963E+04  0.15000000000E+04  0.10566000000E+00 0.  1.
        994   -1    0    0    0    0 -0.00000000000E+00 -0.00000000000E+00  0.11368683772E-12  0.17120000000E+03  0.17120000000E+03 0.  0.
         13    1    1    2    0    0 -0.65997088866E+02  0.50376886084E+02  0.27991343153E+03  0.29196744118E+03  0.10566000000E+00 0.  1.
        994    1    1    2    0    0  0.22081917877E+02 -0.55346508565E+02  0.24655606337E+02  0.18294312239E+03  0.17120000000E+03 0.  0.
        998    1    1    2    0    0  0.43915170989E+02  0.49696224804E+01  0.11954309584E+04  0.11962894364E+04  0.10000000000E+02 0.  1.
</event>
<event>
 5    1  0.1068111E-008  0.3783308E+03  0.7957747E-01  0.3458459E+00
         13   -1    0    0    0    0  0.00000000000E+00  0.00000000000E+00  0.14999999963E+04  0.15000000000E+04  0.10566000000E+00 0. -1.
        994   -1    0    0    0    0 -0.00000000000E+00 -0.00000000000E+00  0.11368683772E-12  0.17120000000E+03  0.17120000000E+03 0.  0.
         13    1    1    2    0    0  0.12296244895E+02  0.50905362398E+02  0.28391779631E+03  0.28870725620E+03  0.10566000000E+00 0. -1.
        994    1    1    2    0    0 -0.34745492892E+01 -0.25389447237E+02  0.71887341710E+01  0.17325649893E+03  0.17120000000E+03 0.  0.
        998    1    1    2    0    0 -0.88216956063E+01 -0.25515915161E+02  0.12088934658E+04  0.12092362449E+04  0.10000000000E+02 0. -1.
</event>
<event>
 5    1  0.1068111E-008  0.3804708E+03  0.7957747E-01  0.3449111E+00
         13   -1    0    0    0    0  0.00000000000E+00  0.00000000000E+00  0.14999999963E+04  0.15000000000E+04  0.10566000000E+00 0. -1.
        994   -1    0    0    0    0 -0.00000000000E+00 -0.00000000000E+00  0.11368683772E-12  0.17120000000E+03  0.17120000000E+03 0.  0.
         13    1    1    2    0    0 -0.51424413415E+02  0.14528447895E+02  0.27571336480E+03  0.28084411474E+03  0.10566000000E+00 0. -1.
        994    1    1    2    0    0  0.57700505775E+02 -0.27184093990E+02  0.17596100359E+02  0.18354123809E+03  0.17120000000E+03 0.  0.
        998    1    1    2    0    0 -0.62760923603E+01  0.12655646096E+02  0.12066905311E+04  0.12068146472E+04  0.10000000000E+02 0. -1.
</event>
<event>
 5    1  0.1068111E-008  0.3859892E+03  0.7957747E-01  0.3425488E+00
         13   -1    0    0    0    0  0.00000000000E+00  0.00000000000E+00  0.14999999963E+04  0.15000000000E+04  0.10566000000E+00 0.  1.
        994   -1    0    0    0    0 -0.00000000000E+00 -0.00000000000E+00  0.11368683772E-12  0.17120000000E+03  0.17120000000E+03 0.  0.
         13    1    1    2    0    0 -0.14751451766E+01  0.12364128616E+02  0.66068440940E+02  0.67231672462E+02  0.10566000000E+00 0.  1.
        994    1    1    2    0    0  0.81726829345E+01 -0.12842053019E+02  0.18997771360E+01  0.17188589304E+03  0.17120000000E+03 0.  0.
        998    1    1    2    0    0 -0.66975377579E+01  0.47792440330E+00  0.14320317782E+04  0.14320824345E+04  0.10000000000E+02 0.  1.
</event>
<event>
 5    1  0.1068111E-008  0.3845383E+03  0.7957747E-01  0.3431633E+00
         13   -1    0    0    0    0  0.00000000000E+00  0.00000000000E+00  0.14999999963E+04  0.15000000000E+04  0.10566000000E+00 0. -1.
        994   -1    0    0    0    0 -0.00000000000E+00 -0.00000000000E+00  0.11368683772E-12  0.17120000000E+03  0.17120000000E+03 0.  0.
         13    1    1    2    0    0 -0.14666985637E+02  0.25995737364E+01  0.56194329106E+02  0.58135118809E+02  0.10566000000E+00 0. -1.
        994    1    1    2    0    0  0.19498211871E+02 -0.46193958151E+01  0.31830691587E+01  0.17239805977E+03  0.17120000000E+03 0.  0.
        998    1    1    2    0    0 -0.48312262341E+01  0.20198220788E+01  0.14406225980E+04  0.14406668214E+04  0.10000000000E+02 0. -1.
</event>
<event>
 5    1  0.1068111E-008  0.3728793E+03  0.7957747E-01  0.3482762E+00
         13   -1    0    0    0    0  0.00000000000E+00  0.00000000000E+00  0.14999999963E+04  0.15000000000E+04  0.10566000000E+00 0.  1.
        994   -1    0    0    0    0 -0.00000000000E+00 -0.00000000000E+00  0.11368683772E-12  0.17120000000E+03  0.17120000000E+03 0.  0.
         13    1    1    2    0    0  0.20683817359E+02  0.14673221745E+02  0.20124475963E+02  0.32374827161E+02  0.10566000000E+00 0.  1.
        994    1    1    2    0    0 -0.22661719739E+02 -0.15205818626E+02  0.15104148264E+02  0.17401823398E+03  0.17120000000E+03 0.  0.
        998    1    1    2    0    0  0.19779023802E+01  0.53259688037E+00  0.14647713721E+04  0.14648069389E+04  0.10000000000E+02 0.  1.
</event>
<event>
 5    1  0.1068111E-008  0.3802526E+03  0.7957747E-01  0.3450059E+00
         13   -1    0    0    0    0  0.00000000000E+00  0.00000000000E+00  0.14999999963E+04  0.15000000000E+04  0.10566000000E+00 0.  1.
        994   -1    0    0    0    0 -0.00000000000E+00 -0.00000000000E+00  0.11368683772E-12  0.17120000000E+03  0.17120000000E+03 0.  0.
         13    1    1    2    0    0 -0.96361378371E+02 -0.14193668627E+03  0.10267606043E+04  0.10409941824E+04  0.10566000000E+00 0.  1.
        994    1    1    2    0    0  0.78989699346E+02  0.15413329109E+03  0.11172964462E+03  0.26793543534E+03  0.17120000000E+03 0.  0.
        998    1    1    2    0    0  0.17371679024E+02 -0.12196604825E+02  0.36150974739E+03  0.36227038225E+03  0.10000000000E+02 0.  1.
</event>
<event>
 5    1  0.1068111E-008  0.3746519E+03  0.7957747E-01  0.3474781E+00
         13   -1    0    0    0    0  0.00000000000E+00  0.00000000000E+00  0.14999999963E+04  0.15000000000E+04  0.10566000000E+00 0.  1.
        994   -1    0    0    0    0 -0.00000000000E+00 -0.00000000000E+00  0.11368683772E-12  0.17120000000E+03  0.17120000000E+03 0.  0.
         13    1    1    2    0    0  0.21394075134E+02 -0.61174236925E+01  0.32865196827E+02  0.39689566009E+02  0.10566000000E+00 0.  1.
        994    1    1    2    0    0 -0.16241805424E+02  0.15879284451E+02  0.86154619447E+01  0.17291504880E+03  0.17120000000E+03 0.  0.
        998    1    1    2    0    0 -0.51522697109E+01 -0.97618607582E+01  0.14585193375E+04  0.14585953852E+04  0.10000000000E+02 0.  1.
</event>
<event>
 5    1  0.1068111E-008  0.3781167E+03  0.7957747E-01  0.3459400E+00
         13   -1    0    0    0    0  0.00000000000E+00  0.00000000000E+00  0.14999999963E+04  0.15000000000E+04  0.10566000000E+00 0.  1.
        994   -1    0    0    0    0 -0.00000000000E+00 -0.00000000000E+00  0.11368683772E-12  0.17120000000E+03  0.17120000000E+03 0.  0.
         13    1    1    2    0    0 -0.76021500380E+01  0.46407046752E+02  0.22829386932E+03  0.23308691213E+03  0.10566000000E+00 0.  1.
        994    1    1    2    0    0 -0.38211973813E+01 -0.20153799810E+02  0.65035920162E+01  0.17254713531E+03  0.17120000000E+03 0.  0.
        998    1    1    2    0    0  0.11423347419E+02 -0.26253246942E+02  0.12652025349E+04  0.12655659526E+04  0.10000000000E+02 0.  1.
</event>
<event>
 5    1  0.1068111E-008  0.3821186E+03  0.7957747E-01  0.3441985E+00
         13   -1    0    0    0    0  0.00000000000E+00  0.00000000000E+00  0.14999999963E+04  0.15000000000E+04  0.10566000000E+00 0.  1.
        994   -1    0    0    0    0 -0.00000000000E+00 -0.00000000000E+00  0.11368683772E-12  0.17120000000E+03  0.17120000000E+03 0.  0.
         13    1    1    2    0    0 -0.93403645959E+01 -0.46572887247E+01  0.14792914308E+02  0.18104536084E+02  0.10566000000E+00 0.  1.
        994    1    1    2    0    0  0.38302999716E+02  0.29588673982E+02  0.10883531549E+02  0.17824281381E+03  0.17120000000E+03 0.  0.
        998    1    1    2    0    0 -0.28962635120E+02 -0.24931385258E+02  0.14743235504E+04  0.14748526501E+04  0.10000000000E+02 0.  1.
</event>
<event>
 5    1  0.1068111E-008  0.3780038E+03  0.7957747E-01  0.3459897E+00
         13   -1    0    0    0    0  0.00000000000E+00  0.00000000000E+00  0.14999999963E+04  0.15000000000E+04  0.10566000000E+00 0.  1.
        994   -1    0    0    0    0 -0.00000000000E+00 -0.00000000000E+00  0.11368683772E-12  0.17120000000E+03  0.17120000000E+03 0.  0.
         13    1    1    2    0    0 -0.20280166761E+01  0.13468942686E+02  0.15623500028E+02  0.20727522425E+02  0.10566000000E+00 0.  1.
        994    1    1    2    0    0 -0.43331475241E+01 -0.15134857063E+02  0.59786951730E+01  0.17202623306E+03  0.17120000000E+03 0.  0.
        998    1    1    2    0    0  0.63611642002E+01  0.16659143771E+01  0.14783978011E+04  0.14784462445E+04  0.10000000000E+02 0.  1.
</event>
<event>
 5    1  0.1068111E-008  0.3785305E+03  0.7957747E-01  0.3457582E+00
         13   -1    0    0    0    0  0.00000000000E+00  0.00000000000E+00  0.14999999963E+04  0.15000000000E+04  0.10566000000E+00 0. -1.
        994   -1    0    0    0    0 -0.00000000000E+00 -0.00000000000E+00  0.11368683772E-12  0.17120000000E+03  0.17120000000E+03 0.  0.
         13    1    1    2    0    0 -0.26432865449E+02  0.34630053026E+02  0.17744208557E+03  0.18271190942E+03  0.10566000000E+00 0. -1.
        994    1    1    2    0    0  0.26279332712E+02 -0.28337472789E+02  0.99105878531E+01  0.17578758615E+03  0.17120000000E+03 0.  0.
        998    1    1    2    0    0  0.15353273698E+00 -0.62925802377E+01  0.13126473229E+04  0.13127005044E+04  0.10000000000E+02 0. -1.
</event>
<event>
 5    1  0.1068111E-008  0.3842550E+03  0.7957747E-01  0.3432838E+00
         13   -1    0    0    0    0  0.00000000000E+00  0.00000000000E+00  0.14999999963E+04  0.15000000000E+04  0.10566000000E+00 0. -1.
        994   -1    0    0    0    0 -0.00000000000E+00 -0.00000000000E+00  0.11368683772E-12  0.17120000000E+03  0.17120000000E+03 0.  0.
         13    1    1    2    0    0 -0.73080526993E+01  0.10113196748E+02  0.37730661712E+02  0.39740387265E+02  0.10566000000E+00 0. -1.
        994    1    1    2    0    0  0.13185341810E+02 -0.62815362391E+01  0.27039734592E+01  0.17184313314E+03  0.17120000000E+03 0.  0.
        998    1    1    2    0    0 -0.58772891108E+01 -0.38316605087E+01  0.14595653611E+04  0.14596164796E+04  0.10000000000E+02 0. -1.
</event>
<event>
 5    1  0.1068111E-008  0.3690145E+03  0.7957747E-01  0.3500432E+00
         13   -1    0    0    0    0  0.00000000000E+00  0.00000000000E+00  0.14999999963E+04  0.15000000000E+04  0.10566000000E+00 0. -1.
        994   -1    0    0    0    0 -0.00000000000E+00 -0.00000000000E+00  0.11368683772E-12  0.17120000000E+03  0.17120000000E+03 0.  0.
         13    1    1    2    0    0 -0.30647908990E+02  0.16043419925E+03  0.72141190784E+03  0.73967126384E+03  0.10566000000E+00 0. -1.
        994    1    1    2    0    0  0.12329751710E+02 -0.15464894423E+03  0.98601178677E+02  0.25119703654E+03  0.17120000000E+03 0.  0.
        998    1    1    2    0    0  0.18318157280E+02 -0.57852550156E+01  0.67998690976E+03  0.68033169962E+03  0.10000000000E+02 0. -1.
</event>
<event>
 5    1  0.1068111E-008  0.3778390E+03  0.7957747E-01  0.3460622E+00
         13   -1    0    0    0    0  0.00000000000E+00  0.00000000000E+00  0.14999999963E+04  0.15000000000E+04  0.10566000000E+00 0. -1.
        994   -1    0    0    0    0 -0.00000000000E+00 -0.00000000000E+00  0.11368683772E-12  0.17120000000E+03  0.17120000000E+03 0.  0.
         13    1    1    2    0    0  0.21169577568E+02 -0.42220513134E+02  0.68919844905E+02  0.83550457386E+02  0.10566000000E+00 0. -1.
        994    1    1    2    0    0 -0.39096112356E+02  0.12284450382E+02  0.21207101937E+02  0.17730931982E+03  0.17120000000E+03 0.  0.
        998    1    1    2    0    0  0.17926534788E+02  0.29936062752E+02  0.14098730494E+04  0.14103402228E+04  0.10000000000E+02 0. -1.
</event>
<event>
 5    1  0.1068111E-008  0.3735575E+03  0.7957747E-01  0.3479699E+00
         13   -1    0    0    0    0  0.00000000000E+00  0.00000000000E+00  0.14999999963E+04  0.15000000000E+04  0.10566000000E+00 0. -1.
        994   -1    0    0    0    0 -0.00000000000E+00 -0.00000000000E+00  0.11368683772E-12  0.17120000000E+03  0.17120000000E+03 0.  0.
         13    1    1    2    0    0  0.36953255542E+02 -0.19557283230E+02  0.11557011823E+03  0.12290034099E+03  0.10566000000E+00 0. -1.
        994    1    1    2    0    0 -0.26227534611E+02  0.32349351404E+01  0.98104732147E+01  0.17350514045E+03  0.17120000000E+03 0.  0.
        998    1    1    2    0    0 -0.10725720931E+02  0.16322348090E+02  0.13746194048E+04  0.13747945186E+04  0.10000000000E+02 0. -1.
</event>
<event>
 5    1  0.1068111E-008  0.3846500E+03  0.7957747E-01  0.3431158E+00
         13   -1    0    0    0    0  0.00000000000E+00  0.00000000000E+00  0.14999999963E+04  0.15000000000E+04  0.10566000000E+00 0. -1.
        994   -1    0    0    0    0 -0.00000000000E+00 -0.00000000000E+00  0.11368683772E-12  0.17120000000E+03  0.17120000000E+03 0.  0.
         13    1    1    2    0    0  0.18108907130E+02  0.22096571603E+01  0.10491800369E+03  0.10649231786E+03  0.10566000000E+00 0. -1.
        994    1    1    2    0    0  0.42296530636E+01  0.55763603957E+01  0.19653146126E+01  0.17135427693E+03  0.17120000000E+03 0.  0.
        998    1    1    2    0    0 -0.22338560193E+02 -0.77860175560E+01  0.13931166780E+04  0.13933534052E+04  0.10000000000E+02 0. -1.
</event>
<event>
 5    1  0.1068111E-008  0.3828066E+03  0.7957747E-01  0.3439028E+00
         13   -1    0    0    0    0  0.00000000000E+00  0.00000000000E+00  0.14999999963E+04  0.15000000000E+04  0.10566000000E+00 0. -1.
        994   -1    0    0    0    0 -0.00000000000E+00 -0.00000000000E+00  0.11368683772E-12  0.17120000000E+03  0.17120000000E+03 0.  0.
         13    1    1    2    0    0 -0.30098289740E+02 -0.77893655412E+01  0.15579761483E+03  0.15886940930E+03  0.10566000000E+00 0. -1.
        994    1    1    2    0    0  0.33551496414E+02  0.94376985218E+01  0.67570661471E+01  0.17484241764E+03  0.17120000000E+03 0.  0.
        998    1    1    2    0    0 -0.34532066737E+01 -0.16483329806E+01  0.13374453153E+04  0.13374881731E+04  0.10000000000E+02 0. -1.
</event>
<event>
 5    1  0.1068111E-008  0.3825615E+03  0.7957747E-01  0.3440080E+00
         13   -1    0    0    0    0  0.00000000000E+00  0.00000000000E+00  0.14999999963E+04  0.15000000000E+04  0.10566000000E+00 0.  1.
        994   -1    0    0    0    0 -0.00000000000E+00 -0.00000000000E+00  0.11368683772E-12  0.17120000000E+03  0.17120000000E+03 0.  0.
         13    1    1    2    0    0  0.88088875999E+01 -0.17766014657E+02  0.68828147144E+02  0.71627877121E+02  0.10566000000E+00 0.  1.
        994    1    1    2    0    0 -0.38557583759E+01  0.10278632075E+02  0.32452709358E+01  0.17158230950E+03  0.17120000000E+03 0.  0.
        998    1    1    2    0    0 -0.49531292240E+01  0.74873825814E+01  0.14279265782E+04  0.14279898134E+04  0.10000000000E+02 0.  1.
</event>
<event>
 5    1  0.1068111E-008  0.3851810E+03  0.7957747E-01  0.3428905E+00
         13   -1    0    0    0    0  0.00000000000E+00  0.00000000000E+00  0.14999999963E+04  0.15000000000E+04  0.10566000000E+00 0.  1.
        994   -1    0    0    0    0 -0.00000000000E+00 -0.00000000000E+00  0.11368683772E-12  0.17120000000E+03  0.17120000000E+03 0.  0.
         13    1    1    2    0    0  0.25333790148E+01  0.18854744817E+02  0.10498966132E+03  0.10669938875E+03  0.10566000000E+00 0.  1.
        994    1    1    2    0    0 -0.39569330805E+01 -0.25852740099E+02  0.37916980340E+01  0.17322770698E+03  0.17120000000E+03 0.  0.
        998    1    1    2    0    0  0.14235540656E+01  0.69979952815E+01  0.13912186369E+04  0.13912729043E+04  0.10000000000E+02 0.  1.
</event>
<event>
 5    1  0.1068111E-008  0.3692040E+03  0.7957747E-01  0.3499557E+00
         13   -1    0    0    0    0  0.00000000000E+00  0.00000000000E+00  0.14999999963E+04  0.15000000000E+04  0.10566000000E+00 0. -1.
        994   -1    0    0    0    0 -0.00000000000E+00 -0.00000000000E+00  0.11368683772E-12  0.17120000000E+03  0.17120000000E+03 0.  0.
         13    1    1    2    0    0 -0.32847019133E+02 -0.48748076674E+02  0.14868341240E+03  0.15988142460E+03  0.10566000000E+00 0. -1.
        994    1    1    2    0    0  0.46536051061E+02  0.33904961323E+02  0.22166900450E+02  0.18197791604E+03  0.17120000000E+03 0.  0.
        998    1    1    2    0    0 -0.13689031928E+02  0.14843115351E+02  0.13291496834E+04  0.13293406594E+04  0.10000000000E+02 0. -1.
</event>
<event>
 5    1  0.1068111E-008  0.3694239E+03  0.7957747E-01  0.3498543E+00
         13   -1    0    0    0    0  0.00000000000E+00  0.00000000000E+00  0.14999999963E+04  0.15000000000E+04  0.10566000000E+00 0. -1.
        994   -1    0    0    0    0 -0.00000000000E+00 -0.00000000000E+00  0.11368683772E-12  0.17120000000E+03  0.17120000000E+03 0.  0.
         13    1    1    2    0    0 -0.23604939691E+01  0.36241338658E+02  0.52549490350E+02  0.63878530506E+02  0.10566000000E+00 0. -1.
        994    1    1    2    0    0  0.21069973141E+02 -0.57085925101E+02  0.23667142723E+02  0.18322750955E+03  0.17120000000E+03 0.  0.
        998    1    1    2    0    0 -0.18709479172E+02  0.20844586443E+02  0.14237833632E+04  0.14240939599E+04  0.10000000000E+02 0. -1.
</event>
<event>
 5    1  0.1068111E-008  0.3839219E+03  0.7957747E-01  0.3434258E+00
         13   -1    0    0    0    0  0.00000000000E+00  0.00000000000E+00  0.14999999963E+04  0.15000000000E+04  0.10566000000E+00 0.  1.
        994   -1    0    0    0    0 -0.00000000000E+00 -0.00000000000E+00  0.11368683772E-12  0.17120000000E+03  0.17120000000E+03 0.  0.
         13    1    1    2    0    0  0.16030532311E+01 -0.16323321306E+02  0.60270108707E+02  0.62462130653E+02  0.10566000000E+00 0.  1.
        994    1    1    2    0    0  0.54088719175E+01  0.15532010403E+02  0.30595560255E+01  0.17201540665E+03  0.17120000000E+03 0.  0.
        998    1    1    2    0    0 -0.70119251486E+01  0.79131090339E+00  0.14366703315E+04  0.14367224627E+04  0.10000000000E+02 0.  1.
</event>
<event>
 5    1  0.1068111E-008  0.3736682E+03  0.7957747E-01  0.3479201E+00
         13   -1    0    0    0    0  0.00000000000E+00  0.00000000000E+00  0.14999999963E+04  0.15000000000E+04  0.10566000000E+00 0. -1.
        994   -1    0    0    0    0 -0.00000000000E+00 -0.00000000000E+00  0.11368683772E-12  0.17120000000E+03  0.17120000000E+03 0.  0.
         13    1    1    2    0    0  0.25080732326E+02 -0.26759195791E+02  0.88229481134E+02  0.95548679732E+02  0.10566000000E+00 0. -1.
        994    1    1    2    0    0 -0.21204637011E+02  0.13268503633E+02  0.95036284588E+01  0.17327852946E+03  0.17120000000E+03 0.  0.
        998    1    1    2    0    0 -0.38760953152E+01  0.13490692159E+02  0.14022668867E+04  0.14023727908E+04  0.10000000000E+02 0. -1.
</event>
<event>
 5    1  0.1068111E-008  0.3792421E+03  0.7957747E-01  0.3454465E+00
         13   -1    0    0    0    0  0.00000000000E+00  0.00000000000E+00  0.14999999963E+04  0.15000000000E+04  0.10566000000E+00 0. -1.
        994   -1    0    0    0    0 -0.00000000000E+00 -0.00000000000E+00  0.11368683772E-12  0.17120000000E+03  0.17120000000E+03 0.  0.
         13    1    1    2    0    0  0.32355841357E+02  0.97258969493E+01  0.11951881047E+03  0.12420245876E+03  0.10566000000E+00 0. -1.
        994    1    1    2    0    0 -0.29511365884E+02 -0.17026484717E+00  0.74405609993E+01  0.17388430537E+03  0.17120000000E+03 0.  0.
        998    1    1    2    0    0 -0.28444754737E+01 -0.95556321021E+01  0.13730406248E+04  0.13731132359E+04  0.10000000000E+02 0. -1.
</event>
<event>
 5    1  0.1068111E-008  0.3812157E+03  0.7957747E-01  0.3445882E+00
         13   -1    0    0    0    0  0.00000000000E+00  0.00000000000E+00  0.14999999963E+04  0.15000000000E+04  0.10566000000E+00 0. -1.
        994   -1    0    0    0    0 -0.00000000000E+00 -0.00000000000E+00  0.11368683772E-12  0.17120000000E+03  0.17120000000E+03 0.  0.
         13    1    1    2    0    0  0.10651168769E+02  0.20647156996E+01  0.15061802204E+02  0.18562852602E+02  0.10566000000E+00 0. -1.
        994    1    1    2    0    0 -0.12770571332E+02  0.17481740887E+01  0.40741153515E+01  0.17173287985E+03  0.17120000000E+03 0.  0.
        998    1    1    2    0    0  0.21194025628E+01 -0.38128897883E+01  0.14808640787E+04  0.14809042676E+04  0.10000000000E+02 0. -1.
</event>
<event>
 5    1  0.1068111E-008  0.3832738E+03  0.7957747E-01  0.3437026E+00
         13   -1    0    0    0    0  0.00000000000E+00  0.00000000000E+00  0.14999999963E+04  0.15000000000E+04  0.10566000000E+00 0. -1.
        994   -1    0    0    0    0 -0.00000000000E+00 -0.00000000000E+00  0.11368683772E-12  0.17120000000E+03  0.17120000000E+03 0.  0.
         13    1    1    2    0    0 -0.23115056852E+01 -0.11815609249E+02  0.27583244150E+02  0.30096481561E+02  0.10566000000E+00 0. -1.
        994    1    1    2    0    0  0.48387008925E+01  0.14651504495E+02  0.32773371392E+01  0.17192515973E+03  0.17120000000E+03 0.  0.
        998    1    1    2    0    0 -0.25271952073E+01 -0.28358952458E+01  0.14691394150E+04  0.14691783587E+04  0.10000000000E+02 0. -1.
</event>
<event>
 5    1  0.1068111E-008  0.3768759E+03  0.7957747E-01  0.3464875E+00
         13   -1    0    0    0    0  0.00000000000E+00  0.00000000000E+00  0.14999999963E+04  0.15000000000E+04  0.10566000000E+00 0. -1.
        994   -1    0    0    0    0 -0.00000000000E+00 -0.00000000000E+00  0.11368683772E-12  0.17120000000E+03  0.17120000000E+03 0.  0.
         13    1    1    2    0    0 -0.47838846479E+02  0.55716080846E+01  0.23331705737E+03  0.23823614015E+03  0.10566000000E+00 0. -1.
        994    1    1    2    0    0  0.59829082874E+01 -0.74819228143E+01  0.60285880882E+01  0.17157376908E+03  0.17120000000E+03 0.  0.
        998    1    1    2    0    0  0.41855938191E+02  0.19103147296E+01  0.12606543508E+04  0.12613900908E+04  0.10000000000E+02 0. -1.
</event>
<event>
 5    1  0.1068111E-008  0.3934140E+03  0.7957747E-01  0.3394753E+00
         13   -1    0    0    0    0  0.00000000000E+00  0.00000000000E+00  0.14999999963E+04  0.15000000000E+04  0.10566000000E+00 0. -1.
        994   -1    0    0    0    0 -0.00000000000E+00 -0.00000000000E+00  0.11368683772E-12  0.17120000000E+03  0.17120000000E+03 0.  0.
         13    1    1    2    0    0 -0.12373764232E+02 -0.44856322927E+02  0.34696863336E+02  0.58043804468E+02  0.10566000000E+00 0. -1.
        994    1    1    2    0    0  0.26450392850E+02  0.48880975666E+02  0.35772847356E+02  0.18351596571E+03  0.17120000000E+03 0.  0.
        998    1    1    2    0    0 -0.14076628618E+02 -0.40246527390E+01  0.14295302856E+04  0.14296402298E+04  0.10000000000E+02 0. -1.
</event>
<event>
 5    1  0.1068111E-008  0.3788729E+03  0.7957747E-01  0.3456081E+00
         13   -1    0    0    0    0  0.00000000000E+00  0.00000000000E+00  0.14999999963E+04  0.15000000000E+04  0.10566000000E+00 0. -1.
        994   -1    0    0    0    0 -0.00000000000E+00 -0.00000000000E+00  0.11368683772E-12  0.17120000000E+03  0.17120000000E+03 0.  0.
         13    1    1    2    0    0  0.11515731689E+01  0.17659805059E+02  0.28815525930E+01  0.17930681662E+02  0.10566000000E+00 0. -1.
        994    1    1    2    0    0 -0.14087599490E+01 -0.15841851733E+02  0.16622882418E+02  0.17273884650E+03  0.17120000000E+03 0.  0.
        998    1    1    2    0    0  0.25718678008E+00 -0.18179533260E+01  0.14804955613E+04  0.14805304718E+04  0.10000000000E+02 0. -1.
</event>
<event>
 5    1  0.1068111E-008  0.3819619E+03  0.7957747E-01  0.3442660E+00
         13   -1    0    0    0    0  0.00000000000E+00  0.00000000000E+00  0.14999999963E+04  0.15000000000E+04  0.10566000000E+00 0.  1.
        994   -1    0    0    0    0 -0.00000000000E+00 -0.00000000000E+00  0.11368683772E-12  0.17120000000E+03  0.17120000000E+03 0.  0.
         13    1    1    2    0    0 -0.52313622515E+02  0.30790929196E+02  0.98389791043E+02  0.11560864400E+03  0.10566000000E+00 0.  1.
        994    1    1    2    0    0  0.17214883456E+02 -0.60760309263E+02  0.32113332651E+02  0.18528052658E+03  0.17120000000E+03 0.  0.
        998    1    1    2    0    0  0.35098739059E+02  0.29969380066E+02  0.13694968726E+04  0.13703108294E+04  0.10000000000E+02 0.  1.
</event>
<event>
 5    1  0.1068111E-008  0.3742970E+03  0.7957747E-01  0.3476373E+00
         13   -1    0    0    0    0  0.00000000000E+00  0.00000000000E+00  0.14999999963E+04  0.15000000000E+04  0.10566000000E+00 0.  1.
        994   -1    0    0    0    0 -0.00000000000E+00 -0.00000000000E+00  0.11368683772E-12  0.17120000000E+03  0.17120000000E+03 0.  0.
         13    1    1    2    0    0  0.63227762009E+02 -0.48935837056E+02  0.22464363579E+03  0.23844756301E+03  0.10566000000E+00 0.  1.
        994    1    1    2    0    0 -0.36539960454E+02  0.50087607765E+02  0.27001639628E+02  0.18407190363E+03  0.17120000000E+03 0.  0.
        998    1    1    2    0    0 -0.26687801555E+02 -0.11517707087E+01  0.12483547209E+04  0.12486805334E+04  0.10000000000E+02 0.  1.
</event>
<event>
 5    1  0.1068111E-008  0.3027631E+03  0.7957747E-01  0.3876489E+00
         13   -1    0    0    0    0  0.00000000000E+00  0.00000000000E+00  0.14999999963E+04  0.15000000000E+04  0.10566000000E+00 0. -1.
        994   -1    0    0    0    0 -0.00000000000E+00 -0.00000000000E+00  0.11368683772E-12  0.17120000000E+03  0.17120000000E+03 0.  0.
         13    1    1    2    0    0  0.59589731506E+02 -0.18200458447E+03  0.64600242955E+03  0.67379207105E+03  0.10566000000E+00 0. -1.
        994    1    1    2    0    0 -0.63585282626E+02  0.18209297700E+03  0.16036019437E+03  0.30368696445E+03  0.17120000000E+03 0.  0.
        998    1    1    2    0    0  0.39955511203E+01 -0.88392528135E-01  0.69363737236E+03  0.69372096450E+03  0.10000000000E+02 0.  1.
</event>
<event>
 5    1  0.1068111E-008  0.3824520E+03  0.7957747E-01  0.3440551E+00
         13   -1    0    0    0    0  0.00000000000E+00  0.00000000000E+00  0.14999999963E+04  0.15000000000E+04  0.10566000000E+00 0.  1.
        994   -1    0    0    0    0 -0.00000000000E+00 -0.00000000000E+00  0.11368683772E-12  0.17120000000E+03  0.17120000000E+03 0.  0.
         13    1    1    2    0    0 -0.20312327238E+03 -0.20755948240E+03  0.11002021127E+04  0.11378860674E+04  0.10566000000E+00 0.  1.
        994    1    1    2    0    0  0.19994633443E+03  0.20814592048E+03  0.35999634798E+03  0.49214842418E+03  0.17120000000E+03 0.  0.
        998    1    1    2    0    0  0.31769379584E+01 -0.58643808072E+00  0.39801535616E+02  0.41165508400E+02  0.10000000000E+02 0.  0.
</event>
<event>
 5    1  0.1068111E-008  0.3764281E+03  0.7957747E-01  0.3466860E+00
         13   -1    0    0    0    0  0.00000000000E+00  0.00000000000E+00  0.14999999963E+04  0.15000000000E+04  0.10566000000E+00 0. -1.
        994   -1    0    0    0    0 -0.00000000000E+00 -0.00000000000E+00  0.11368683772E-12  0.17120000000E+03  0.17120000000E+03 0.  0.
         13    1    1    2    0    0  0.48249797211E+02  0.50503412525E+02  0.41453057709E+03  0.42037393843E+03  0.10566000000E+00 0. -1.
        994    1    1    2    0    0 -0.10144011036E+02 -0.44892102573E+02  0.13146703499E+02  0.17776523183E+03  0.17120000000E+03 0.  0.
        998    1    1    2    0    0 -0.38105786175E+02 -0.56113099519E+01  0.10723227157E+04  0.10730608297E+04  0.10000000000E+02 0. -1.
</event>
<event>
 5    1  0.1068111E-008  0.3711240E+03  0.7957747E-01  0.3490741E+00
         13   -1    0    0    0    0  0.00000000000E+00  0.00000000000E+00  0.14999999963E+04  0.15000000000E+04  0.10566000000E+00 0. -1.
        994   -1    0    0    0    0 -0.00000000000E+00 -0.00000000000E+00  0.11368683772E-12  0.17120000000E+03  0.17120000000E+03 0.  0.
         13    1    1    2    0    0  0.11077479350E+02 -0.10435638276E+02  0.46908073590E+01  0.15925700383E+02  0.10566000000E+00 0. -1.
        994    1    1    2    0    0 -0.15096830007E+02  0.11309179714E+02  0.12784153909E+02  0.17270983300E+03  0.17120000000E+03 0.  0.
        998    1    1    2    0    0  0.40193506561E+01 -0.87354143810E+00  0.14825250350E+04  0.14825644666E+04  0.10000000000E+02 0. -1.
</event>
<event>
 5    1  0.1068111E-008  0.3732156E+03  0.7957747E-01  0.3481242E+00
         13   -1    0    0    0    0  0.00000000000E+00  0.00000000000E+00  0.14999999963E+04  0.15000000000E+04  0.10566000000E+00 0. -1.
        994   -1    0    0    0    0 -0.00000000000E+00 -0.00000000000E+00  0.11368683772E-12  0.17120000000E+03  0.17120000000E+03 0.  0.
         13    1    1    2    0    0 -0.22875154104E+02 -0.27451654618E+02  0.79192320683E+02  0.86880957843E+02  0.10566000000E+00 0. -1.
        994    1    1    2    0    0 -0.21993859237E+02  0.57322379594E+02  0.20600847206E+02  0.18303939454E+03  0.17120000000E+03 0.  0.
        998    1    1    2    0    0  0.44869013341E+02 -0.29870724976E+02  0.14002068284E+04  0.14012796476E+04  0.10000000000E+02 0. -1.
</event>
<event>
 5    1  0.1068111E-008  0.3856223E+03  0.7957747E-01  0.3427037E+00
         13   -1    0    0    0    0  0.00000000000E+00  0.00000000000E+00  0.14999999963E+04  0.15000000000E+04  0.10566000000E+00 0. -1.
        994   -1    0    0    0    0 -0.00000000000E+00 -0.00000000000E+00  0.11368683772E-12  0.17120000000E+03  0.17120000000E+03 0.  0.
         13    1    1    2    0    0  0.11514228828E+02 -0.16748299792E+01  0.48431317855E+02  0.49809499437E+02  0.10566000000E+00 0. -1.
        994    1    1    2    0    0 -0.18558667794E+02 -0.12713392311E+01  0.24580058599E+01  0.17222520793E+03  0.17120000000E+03 0.  0.
        998    1    1    2    0    0  0.70444389655E+01  0.29461692103E+01  0.14491106726E+04  0.14491652926E+04  0.10000000000E+02 0. -1.
</event>
<event>
 5    1  0.1068111E-008  0.3858657E+03  0.7957747E-01  0.3426009E+00
         13   -1    0    0    0    0  0.00000000000E+00  0.00000000000E+00  0.14999999963E+04  0.15000000000E+04  0.10566000000E+00 0. -1.
        994   -1    0    0    0    0 -0.00000000000E+00 -0.00000000000E+00  0.11368683772E-12  0.17120000000E+03  0.17120000000E+03 0.  0.
         13    1    1    2    0    0 -0.88061336293E+01 -0.89803076000E+01  0.64929944740E+02  0.66137000250E+02  0.10566000000E+00 0. -1.
        994    1    1    2    0    0  0.95868125637E+01  0.69064619199E+01  0.16589079956E+01  0.17161526205E+03  0.17120000000E+03 0.  0.
        998    1    1    2    0    0 -0.78067893439E+00  0.20738456801E+01  0.14334111435E+04  0.14334477377E+04  0.10000000000E+02 0. -1.
</event>
<event>
 5    1  0.1068111E-008  0.3844533E+03  0.7957747E-01  0.3431994E+00
         13   -1    0    0    0    0  0.00000000000E+00  0.00000000000E+00  0.14999999963E+04  0.15000000000E+04  0.10566000000E+00 0. -1.
        994   -1    0    0    0    0 -0.00000000000E+00 -0.00000000000E+00  0.11368683772E-12  0.17120000000E+03  0.17120000000E+03 0.  0.
         13    1    1    2    0    0  0.51674752896E+01 -0.20215996874E+02  0.11904305750E+03  0.12085797464E+03  0.10566000000E+00 0. -1.
        994    1    1    2    0    0  0.19508426889E+01  0.86694048565E+01  0.21619935109E+01  0.17144409755E+03  0.17120000000E+03 0.  0.
        998    1    1    2    0    0 -0.71183179785E+01  0.11546592018E+02  0.13787949453E+04  0.13788979278E+04  0.10000000000E+02 0. -1.
</event>
<event>
 5    1  0.1068111E-008  0.3817115E+03  0.7957747E-01  0.3443740E+00
         13   -1    0    0    0    0  0.00000000000E+00  0.00000000000E+00  0.14999999963E+04  0.15000000000E+04  0.10566000000E+00 0. -1.
        994   -1    0    0    0    0 -0.00000000000E+00 -0.00000000000E+00  0.11368683772E-12  0.17120000000E+03  0.17120000000E+03 0.  0.
         13    1    1    2    0    0 -0.13122604300E+01 -0.17576002455E+02  0.48180508041E+02  0.51303122799E+02  0.10566000000E+00 0. -1.
        994    1    1    2    0    0  0.23817039538E+02  0.42379038722E+00  0.51601477078E+01  0.17292627936E+03  0.17120000000E+03 0.  0.
        998    1    1    2    0    0 -0.22504779108E+02  0.17152212068E+02  0.14466593405E+04  0.14469705978E+04  0.10000000000E+02 0. -1.
</event>
<event>
 5    1  0.1293836E-008  0.3837820E+03  0.7957747E-01  0.3434855E+00
         13   -1    0    0    0    0  0.00000000000E+00  0.00000000000E+00  0.14999999963E+04  0.15000000000E+04  0.10566000000E+00 0. -1.
        994   -1    0    0    0    0 -0.00000000000E+00 -0.00000000000E+00  0.11368683772E-12  0.17120000000E+03  0.17120000000E+03 0.  0.
         13    1    1    2    0    0 -0.73650262819E+01 -0.15252033915E+02  0.60947885188E+02  0.63257600520E+02  0.10566000000E+00 0. -1.
        994    1    1    2    0    0  0.96521802095E+01  0.16668450351E+02  0.34619672835E+01  0.17231490660E+03  0.17120000000E+03 0.  0.
        998    1    1    2    0    0 -0.22871539276E+01 -0.14164164352E+01  0.14355901438E+04  0.14356274929E+04  0.10000000000E+02 0. -1.
</event>
<event>
 5    1  0.1068111E-008  0.3849117E+03  0.7957747E-01  0.3430047E+00
         13   -1    0    0    0    0  0.00000000000E+00  0.00000000000E+00  0.14999999963E+04  0.15000000000E+04  0.10566000000E+00 0. -1.
        994   -1    0    0    0    0 -0.00000000000E+00 -0.00000000000E+00  0.11368683772E-12  0.17120000000E+03  0.17120000000E+03 0.  0.
         13    1    1    2    0    0  0.11506058737E+02  0.10299363633E+02  0.64840654099E+02  0.66654241178E+02  0.10566000000E+00 0. -1.
        994    1    1    2    0    0 -0.24303893191E+02 -0.10988664271E+02  0.40177993970E+01  0.17331189422E+03  0.17120000000E+03 0.  0.
        998    1    1    2    0    0  0.12797834453E+02  0.68930063765E+00  0.14311415428E+04  0.14312338646E+04  0.10000000000E+02 0. -1.
</event>
<event>
 5    1  0.1068111E-008  0.4094234E+03  0.7957747E-01  0.3332265E+00
         13   -1    0    0    0    0  0.00000000000E+00  0.00000000000E+00  0.14999999963E+04  0.15000000000E+04  0.10566000000E+00 0.  1.
        994   -1    0    0    0    0 -0.00000000000E+00 -0.00000000000E+00  0.11368683772E-12  0.17120000000E+03  0.17120000000E+03 0.  0.
         13    1    1    2    0    0  0.19212645615E+02 -0.59117660497E+02  0.39788746516E+02  0.73805006927E+02  0.10566000000E+00 0.  1.
        994    1    1    2    0    0  0.81015884673E+02  0.11237597798E+03  0.11703812590E+03  0.24939786870E+03  0.17120000000E+03 0.  0.
        998    1    1    2    0    0 -0.10022853029E+03 -0.53258317484E+02  0.13431731239E+04  0.13479971244E+04  0.10000000000E+02 0.  1.
</event>
<event>
 5    1  0.1068111E-008  0.3762990E+03  0.7957747E-01  0.3467434E+00
         13   -1    0    0    0    0  0.00000000000E+00  0.00000000000E+00  0.14999999963E+04  0.15000000000E+04  0.10566000000E+00 0. -1.
        994   -1    0    0    0    0 -0.00000000000E+00 -0.00000000000E+00  0.11368683772E-12  0.17120000000E+03  0.17120000000E+03 0.  0.
         13    1    1    2    0    0  0.92080828023E+01  0.12424194699E+02  0.16776336155E+02  0.22816792536E+02  0.10566000000E+00 0. -1.
        994    1    1    2    0    0 -0.13296815131E+02 -0.19040428121E+02  0.78406693156E+01  0.17294582762E+03  0.17120000000E+03 0.  0.
        998    1    1    2    0    0  0.40887323289E+01  0.66162334216E+01  0.14753829908E+04  0.14754373798E+04  0.10000000000E+02 0. -1.
</event>
<event>
 5    1  0.1068111E-008  0.3785121E+03  0.7957747E-01  0.3457663E+00
         13   -1    0    0    0    0  0.00000000000E+00  0.00000000000E+00  0.14999999963E+04  0.15000000000E+04  0.10566000000E+00 0.  1.
        994   -1    0    0    0    0 -0.00000000000E+00 -0.00000000000E+00  0.11368683772E-12  0.17120000000E+03  0.17120000000E+03 0.  0.
         13    1    1    2    0    0  0.98187188439E+01 -0.30058642755E+02  0.10541930514E+03  0.11005984874E+03  0.10566000000E+00 0.  1.
        994    1    1    2    0    0 -0.12814853018E+02  0.61277847928E+01  0.55642557594E+01  0.17187836148E+03  0.17120000000E+03 0.  0.
        998    1    1    2    0    0  0.29961341737E+01  0.23930857962E+02  0.13890164354E+04  0.13892617898E+04  0.10000000000E+02 0.  1.
</event>
<event>
 5    1  0.1068111E-008  0.3854762E+03  0.7957747E-01  0.3427655E+00
         13   -1    0    0    0    0  0.00000000000E+00  0.00000000000E+00  0.14999999963E+04  0.15000000000E+04  0.10566000000E+00 0. -1.
        994   -1    0    0    0    0 -0.00000000000E+00 -0.00000000000E+00  0.11368683772E-12  0.17120000000E+03  0.17120000000E+03 0.  0.
         13    1    1    2    0    0 -0.11844602771E+02 -0.18385628441E+00  0.50708339826E+02  0.52073748759E+02  0.10566000000E+00 0. -1.
        994    1    1    2    0    0  0.73598896567E+01  0.73309472165E+01  0.17483172405E+01  0.17152378079E+03  0.17120000000E+03 0.  0.
        998    1    1    2    0    0  0.44847131143E+01 -0.71470909321E+01  0.14475433392E+04  0.14476024705E+04  0.10000000000E+02 0. -1.
</event>
<event>
 5    1  0.1068111E-008  0.4016519E+03  0.7957747E-01  0.3361980E+00
         13   -1    0    0    0    0  0.00000000000E+00  0.00000000000E+00  0.14999999963E+04  0.15000000000E+04  0.10566000000E+00 0. -1.
        994   -1    0    0    0    0 -0.00000000000E+00 -0.00000000000E+00  0.11368683772E-12  0.17120000000E+03  0.17120000000E+03 0.  0.
         13    1    1    2    0    0  0.68348840516E+01  0.10094445191E+03  0.18995791457E+03  0.21522202137E+03  0.10566000000E+00 0. -1.
        994    1    1    2    0    0  0.53153679955E+01 -0.37313364333E+02  0.34387740239E+02  0.17864069238E+03  0.17120000000E+03 0.  0.
        998    1    1    2    0    0 -0.12150252047E+02 -0.63631087580E+02  0.12756543415E+04  0.12773372862E+04  0.10000000000E+02 0.  1.
</event>
<event>
 5    1  0.1068111E-008  0.3869072E+03  0.7957747E-01  0.3421624E+00
         13   -1    0    0    0    0  0.00000000000E+00  0.00000000000E+00  0.14999999963E+04  0.15000000000E+04  0.10566000000E+00 0. -1.
        994   -1    0    0    0    0 -0.00000000000E+00 -0.00000000000E+00  0.11368683772E-12  0.17120000000E+03  0.17120000000E+03 0.  0.
         13    1    1    2    0    0 -0.32843900163E+01 -0.19282770905E+02  0.51045639727E+00  0.19567427049E+02  0.10566000000E+00 0. -1.
        994    1    1    2    0    0  0.21108957885E+01  0.16381684885E+02  0.21189352869E+02  0.17329525139E+03  0.17120000000E+03 0.  0.
        998    1    1    2    0    0  0.11734942278E+01  0.29010860192E+01  0.14783001870E+04  0.14783373216E+04  0.10000000000E+02 0. -1.
</event>
<event>
 5    1  0.1068111E-008  0.3833534E+03  0.7957747E-01  0.3436686E+00
         13   -1    0    0    0    0  0.00000000000E+00  0.00000000000E+00  0.14999999963E+04  0.15000000000E+04  0.10566000000E+00 0. -1.
        994   -1    0    0    0    0 -0.00000000000E+00 -0.00000000000E+00  0.11368683772E-12  0.17120000000E+03  0.17120000000E+03 0.  0.
         13    1    1    2    0    0  0.32208230973E+01  0.31777913631E+02  0.17693216131E+03  0.17979213099E+03  0.10566000000E+00 0. -1.
        994    1    1    2    0    0 -0.11665456160E+01 -0.37569892428E+02  0.71352553783E+01  0.17542294467E+03  0.17120000000E+03 0.  0.
        998    1    1    2    0    0 -0.20542774813E+01  0.57919787976E+01  0.13159325796E+04  0.13159849243E+04  0.10000000000E+02 0. -1.
</event>
<event>
 5    1  0.1068111E-008  0.3773226E+03  0.7957747E-01  0.3462900E+00
         13   -1    0    0    0    0  0.00000000000E+00  0.00000000000E+00  0.14999999963E+04  0.15000000000E+04  0.10566000000E+00 0.  1.
        994   -1    0    0    0    0 -0.00000000000E+00 -0.00000000000E+00  0.11368683772E-12  0.17120000000E+03  0.17120000000E+03 0.  0.
         13    1    1    2    0    0 -0.12714692612E+02 -0.20836536191E+02  0.53416542342E+02  0.58729573543E+02  0.10566000000E+00 0.  1.
        994    1    1    2    0    0  0.11264453840E+02  0.36302174768E+01  0.59633785139E+01  0.17171216696E+03  0.17120000000E+03 0.  0.
        998    1    1    2    0    0  0.14502387719E+01  0.17206318714E+02  0.14406200754E+04  0.14407582595E+04  0.10000000000E+02 0.  1.
</event>
<event>
 5    1  0.1221016E-008  0.3843800E+03  0.7957747E-01  0.3432306E+00
         13   -1    0    0    0    0  0.00000000000E+00  0.00000000000E+00  0.14999999963E+04  0.15000000000E+04  0.10566000000E+00 0. -1.
        994   -1    0    0    0    0 -0.00000000000E+00 -0.00000000000E+00  0.11368683772E-12  0.17120000000E+03  0.17120000000E+03 0.  0.
         13    1    1    2    0    0  0.59463491638E+01  0.17551563604E+02  0.82485954747E+02  0.84542062595E+02  0.10566000000E+00 0. -1.
        994    1    1    2    0    0 -0.79053077849E+01 -0.20964093231E+02  0.35942066103E+01  0.17269726523E+03  0.17120000000E+03 0.  0.
        998    1    1    2    0    0  0.19589586211E+01  0.34125296266E+01  0.14139198349E+04  0.14139606722E+04  0.10000000000E+02 0. -1.
</event>
<event>
 5    1  0.1068111E-008  0.3753723E+03  0.7957747E-01  0.3471559E+00
         13   -1    0    0    0    0  0.00000000000E+00  0.00000000000E+00  0.14999999963E+04  0.15000000000E+04  0.10566000000E+00 0.  1.
        994   -1    0    0    0    0 -0.00000000000E+00 -0.00000000000E+00  0.11368683772E-12  0.17120000000E+03  0.17120000000E+03 0.  0.
         13    1    1    2    0    0  0.27458430378E+01  0.14707617320E+02  0.14483640472E+02  0.20824040592E+02  0.10566000000E+00 0.  1.
        994    1    1    2    0    0 -0.24086220561E+01 -0.80394281070E+01  0.67268085377E+01  0.17153752889E+03  0.17120000000E+03 0.  0.
        998    1    1    2    0    0 -0.33722098172E+00 -0.66681892130E+01  0.14787895473E+04  0.14788384305E+04  0.10000000000E+02 0.  1.
</event>
<event>
 5    1  0.1068111E-008  0.3808135E+03  0.7957747E-01  0.3447624E+00
         13   -1    0    0    0    0  0.00000000000E+00  0.00000000000E+00  0.14999999963E+04  0.15000000000E+04  0.10566000000E+00 0.  1.
        994   -1    0    0    0    0 -0.00000000000E+00 -0.00000000000E+00  0.11368683772E-12  0.17120000000E+03  0.17120000000E+03 0.  0.
         13    1    1    2    0    0 -0.30062084639E+02 -0.14297494137E+02  0.13981524903E+03  0.14372356208E+03  0.10566000000E+00 0.  1.
        994    1    1    2    0    0  0.22796808132E+02  0.17848770350E+02  0.65228476952E+01  0.17375344775E+03  0.17120000000E+03 0.  0.
        998    1    1    2    0    0  0.72652765066E+01 -0.35512762135E+01  0.13536618996E+04  0.13537229902E+04  0.10000000000E+02 0.  1.
</event>
<event>
 5    1  0.1068111E-008  0.3854187E+03  0.7957747E-01  0.3427898E+00
         13   -1    0    0    0    0  0.00000000000E+00  0.00000000000E+00  0.14999999963E+04  0.15000000000E+04  0.10566000000E+00 0. -1.
        994   -1    0    0    0    0 -0.00000000000E+00 -0.00000000000E+00  0.11368683772E-12  0.17120000000E+03  0.17120000000E+03 0.  0.
         13    1    1    2    0    0  0.12482643255E+02  0.56181917676E+01  0.66673766719E+02  0.68064548731E+02  0.10566000000E+00 0. -1.
        994    1    1    2    0    0 -0.50983609492E+01 -0.79916387052E+01  0.17175563355E+01  0.17147084176E+03  0.17120000000E+03 0.  0.
        998    1    1    2    0    0 -0.73842823062E+01  0.23734469376E+01  0.14316086732E+04  0.14316646095E+04  0.10000000000E+02 0. -1.
</event>
<event>
 5    1  0.1068111E-008  0.3822232E+03  0.7957747E-01  0.3441535E+00
         13   -1    0    0    0    0  0.00000000000E+00  0.00000000000E+00  0.14999999963E+04  0.15000000000E+04  0.10566000000E+00 0.  1.
        994   -1    0    0    0    0 -0.00000000000E+00 -0.00000000000E+00  0.11368683772E-12  0.17120000000E+03  0.17120000000E+03 0.  0.
         13    1    1    2    0    0  0.11275866248E+02  0.16469254097E+02  0.71429638137E+02  0.74165934623E+02  0.10566000000E+00 0.  1.
        994    1    1    2    0    0  0.24388445565E+01  0.50036436658E+01  0.31178970078E+01  0.17131884220E+03  0.17120000000E+03 0.  0.
        998    1    1    2    0    0 -0.13714710804E+02 -0.21472897763E+02  0.14254524611E+04  0.14257152232E+04  0.10000000000E+02 0.  1.
</event>
<event>
 5    1  0.1068111E-008  0.3694577E+03  0.7957747E-01  0.3498387E+00
         13   -1    0    0    0    0  0.00000000000E+00  0.00000000000E+00  0.14999999963E+04  0.15000000000E+04  0.10566000000E+00 0. -1.
        994   -1    0    0    0    0 -0.00000000000E+00 -0.00000000000E+00  0.11368683772E-12  0.17120000000E+03  0.17120000000E+03 0.  0.
         13    1    1    2    0    0 -0.23543167871E+01  0.42475945638E+02  0.86598647587E+02  0.96483603236E+02  0.10566000000E+00 0. -1.
        994    1    1    2    0    0 -0.21333453131E+01 -0.42372111908E+02  0.15813986263E+02  0.17708605024E+03  0.17120000000E+03 0.  0.
        998    1    1    2    0    0  0.44876621002E+01 -0.10383373086E+00  0.13975873624E+04  0.13976303465E+04  0.10000000000E+02 0. -1.
</event>
<event>
 5    1  0.1068111E-008  0.3841793E+03  0.7957747E-01  0.3433161E+00
         13   -1    0    0    0    0  0.00000000000E+00  0.00000000000E+00  0.14999999963E+04  0.15000000000E+04  0.10566000000E+00 0. -1.
        994   -1    0    0    0    0 -0.00000000000E+00 -0.00000000000E+00  0.11368683772E-12  0.17120000000E+03  0.17120000000E+03 0.  0.
         13    1    1    2    0    0  0.10382479700E+02  0.23491710008E+01  0.26349465810E+02  0.28418655873E+02  0.10566000000E+00 0. -1.
        994    1    1    2    0    0 -0.13684871913E+02 -0.12350445051E+02  0.31594630938E+01  0.17221855713E+03  0.17120000000E+03 0.  0.
        998    1    1    2    0    0  0.33023922128E+01  0.10001274050E+02  0.14704910674E+04  0.14705627870E+04  0.10000000000E+02 0. -1.
</event>
<event>
 5    1  0.1068111E-008  0.3731057E+03  0.7957747E-01  0.3481738E+00
         13   -1    0    0    0    0  0.00000000000E+00  0.00000000000E+00  0.14999999963E+04  0.15000000000E+04  0.10566000000E+00 0.  1.
        994   -1    0    0    0    0 -0.00000000000E+00 -0.00000000000E+00  0.11368683772E-12  0.17120000000E+03  0.17120000000E+03 0.  0.
         13    1    1    2    0    0  0.29192129208E+02 -0.23281605831E+02  0.83705141006E+02  0.91655743806E+02  0.10566000000E+00 0.  1.
        994    1    1    2    0    0 -0.28583859331E+02  0.24799865268E+02  0.12569731179E+02  0.17578256021E+03  0.17120000000E+03 0.  0.
        998    1    1    2    0    0 -0.60826987650E+00 -0.15182594364E+01  0.14037251241E+04  0.14037616960E+04  0.10000000000E+02 0.  1.
</event>
<event>
 5    1  0.1068111E-008  0.4395774E+03  0.7957747E-01  0.3226759E+00
         13   -1    0    0    0    0  0.00000000000E+00  0.00000000000E+00  0.14999999963E+04  0.15000000000E+04  0.10566000000E+00 0.  1.
        994   -1    0    0    0    0 -0.00000000000E+00 -0.00000000000E+00  0.11368683772E-12  0.17120000000E+03  0.17120000000E+03 0.  0.
         13    1    1    2    0    0 -0.21818510279E+02  0.23540892999E+02 -0.11989998069E+02  0.34263570329E+02  0.10566000000E+00 0.  1.
        994    1    1    2    0    0  0.24851878064E+02 -0.25806890172E+02  0.60009724546E+02  0.18491678794E+03  0.17120000000E+03 0.  0.
        998    1    1    2    0    0 -0.30333677853E+01  0.22659971723E+01  0.14519802698E+04  0.14520196417E+04  0.10000000000E+02 0.  1.
</event>
<event>
 5    1  0.1427752E-008  0.3857265E+03  0.7957747E-01  0.3426597E+00
         13   -1    0    0    0    0  0.00000000000E+00  0.00000000000E+00  0.14999999963E+04  0.15000000000E+04  0.10566000000E+00 0.  1.
        994   -1    0    0    0    0 -0.00000000000E+00 -0.00000000000E+00  0.11368683772E-12  0.17120000000E+03  0.17120000000E+03 0.  0.
         13    1    1    2    0    0 -0.12647063564E+02  0.10800136548E+00  0.61206689605E+02  0.62499839180E+02  0.10566000000E+00 0.  1.
        994    1    1    2    0    0  0.13723358546E+02  0.14725168781E+01  0.18951323836E+01  0.17176591746E+03  0.17120000000E+03 0.  0.
        998    1    1    2    0    0 -0.10762949821E+01 -0.15805182436E+01  0.14368981743E+04  0.14369342434E+04  0.10000000000E+02 0.  1.
</event>
<event>
 5    1  0.1068111E-008  0.3835016E+03  0.7957747E-01  0.3436052E+00
         13   -1    0    0    0    0  0.00000000000E+00  0.00000000000E+00  0.14999999963E+04  0.15000000000E+04  0.10566000000E+00 0. -1.
        994   -1    0    0    0    0 -0.00000000000E+00 -0.00000000000E+00  0.11368683772E-12  0.17120000000E+03  0.17120000000E+03 0.  0.
         13    1    1    2    0    0 -0.13627605901E+02 -0.28703728388E+01  0.38436871943E+02  0.40882208497E+02  0.10566000000E+00 0. -1.
        994    1    1    2    0    0  0.20735036428E+02 -0.26902392144E+01  0.38219880546E+01  0.17251442466E+03  0.17120000000E+03 0.  0.
        998    1    1    2    0    0 -0.71074305271E+01  0.55606120531E+01  0.14577411363E+04  0.14578033668E+04  0.10000000000E+02 0. -1.
</event>
<event>
 5    1  0.1068111E-008  0.3845437E+03  0.7957747E-01  0.3431610E+00
         13   -1    0    0    0    0  0.00000000000E+00  0.00000000000E+00  0.14999999963E+04  0.15000000000E+04  0.10566000000E+00 0.  1.
        994   -1    0    0    0    0 -0.00000000000E+00 -0.00000000000E+00  0.11368683772E-12  0.17120000000E+03  0.17120000000E+03 0.  0.
         13    1    1    2    0    0  0.99624318984E+01  0.31784412087E+01  0.28202080718E+02  0.30078581394E+02  0.10566000000E+00 0.  1.
        994    1    1    2    0    0 -0.15227867144E+02  0.75426103227E+00  0.26228018702E+01  0.17189757397E+03  0.17120000000E+03 0.  0.
        998    1    1    2    0    0  0.52654352452E+01 -0.39327022410E+01  0.14691751137E+04  0.14692238446E+04  0.10000000000E+02 0.  1.
</event>
<event>
 5    1  0.1068111E-008  0.3833125E+03  0.7957747E-01  0.3436861E+00
         13   -1    0    0    0    0  0.00000000000E+00  0.00000000000E+00  0.14999999963E+04  0.15000000000E+04  0.10566000000E+00 0.  1.
        994   -1    0    0    0    0 -0.00000000000E+00 -0.00000000000E+00  0.11368683772E-12  0.17120000000E+03  0.17120000000E+03 0.  0.
         13    1    1    2    0    0 -0.55414608226E+01  0.29101637961E+02  0.16173930265E+03  0.16443000428E+03  0.10566000000E+00 0.  1.
        994    1    1    2    0    0 -0.12101792986E+02 -0.31914867258E+02  0.63321940829E+01  0.17468414017E+03  0.17120000000E+03 0.  0.
        998    1    1    2    0    0  0.17643253809E+02  0.28132292967E+01  0.13319284995E+04  0.13320858555E+04  0.10000000000E+02 0.  1.
</event>
<event>
 5    1  0.1068111E-008  0.3833775E+03  0.7957747E-01  0.3436583E+00
         13   -1    0    0    0    0  0.00000000000E+00  0.00000000000E+00  0.14999999963E+04  0.15000000000E+04  0.10566000000E+00 0. -1.
        994   -1    0    0    0    0 -0.00000000000E+00 -0.00000000000E+00  0.11368683772E-12  0.17120000000E+03  0.17120000000E+03 0.  0.
         13    1    1    2    0    0  0.10956622998E+02 -0.83729092493E+01  0.39690542277E+02  0.42017895082E+02  0.10566000000E+00 0. -1.
        994    1    1    2    0    0 -0.30271923937E+01 -0.28376809355E+01  0.24947581329E+01  0.17126844469E+03  0.17120000000E+03 0.  0.
        998    1    1    2    0    0 -0.79294306046E+01  0.11210590185E+02  0.14578146959E+04  0.14579136602E+04  0.10000000000E+02 0. -1.
</event>
<event>
 5    1  0.1068111E-008  0.2851037E+03  0.7957747E-01  0.4008461E+00
         13   -1    0    0    0    0  0.00000000000E+00  0.00000000000E+00  0.14999999963E+04  0.15000000000E+04  0.10566000000E+00 0.  1.
        994   -1    0    0    0    0 -0.00000000000E+00 -0.00000000000E+00  0.11368683772E-12  0.17120000000E+03  0.17120000000E+03 0.  0.
         13    1    1    2    0    0 -0.12339981943E+03 -0.52466036705E+02  0.66812240037E+03  0.68144534152E+03  0.10566000000E+00 0.  1.
        994    1    1    2    0    0  0.69628194451E+02  0.33482428450E+02  0.35347201707E+02  0.19112305760E+03  0.17120000000E+03 0.  0.
        998    1    1    2    0    0  0.53771624977E+02  0.18983608254E+02  0.79653039420E+03  0.79863160088E+03  0.10000000000E+02 0.  1.
</event>
<event>
 5    1  0.1068111E-008  0.3773462E+03  0.7957747E-01  0.3462796E+00
         13   -1    0    0    0    0  0.00000000000E+00  0.00000000000E+00  0.14999999963E+04  0.15000000000E+04  0.10566000000E+00 0. -1.
        994   -1    0    0    0    0 -0.00000000000E+00 -0.00000000000E+00  0.11368683772E-12  0.17120000000E+03  0.17120000000E+03 0.  0.
         13    1    1    2    0    0 -0.20588190366E+02  0.25138098580E+02  0.10402998231E+03  0.10898644855E+03  0.10566000000E+00 0. -1.
        994    1    1    2    0    0 -0.47498522943E+01 -0.28550026363E+01  0.55824051160E+01  0.17138061554E+03  0.17120000000E+03 0.  0.
        998    1    1    2    0    0  0.25338042661E+02 -0.22283095944E+02  0.13903876088E+04  0.13908329359E+04  0.10000000000E+02 0. -1.
</event>
<event>
 5    1  0.1068111E-008  0.3842429E+03  0.7957747E-01  0.3432890E+00
         13   -1    0    0    0    0  0.00000000000E+00  0.00000000000E+00  0.14999999963E+04  0.15000000000E+04  0.10566000000E+00 0.  1.
        994   -1    0    0    0    0 -0.00000000000E+00 -0.00000000000E+00  0.11368683772E-12  0.17120000000E+03  0.17120000000E+03 0.  0.
         13    1    1    2    0    0  0.11139922312E+02  0.11900065029E+01  0.31539698589E+02  0.33470550275E+02  0.10566000000E+00 0.  1.
        994    1    1    2    0    0 -0.56504562331E+00 -0.11246780242E+02  0.24246700336E+01  0.17158708683E+03  0.17120000000E+03 0.  0.
        998    1    1    2    0    0 -0.10574876689E+02  0.10056773739E+02  0.14660356277E+04  0.14661423629E+04  0.10000000000E+02 0.  1.
</event>
<event>
 5    1  0.1068111E-008  0.3837320E+03  0.7957747E-01  0.3435068E+00
         13   -1    0    0    0    0  0.00000000000E+00  0.00000000000E+00  0.14999999963E+04  0.15000000000E+04  0.10566000000E+00 0. -1.
        994   -1    0    0    0    0 -0.00000000000E+00 -0.00000000000E+00  0.11368683772E-12  0.17120000000E+03  0.17120000000E+03 0.  0.
         13    1    1    2    0    0  0.36475400034E+01 -0.11204081379E+02  0.29396450177E+02  0.31670150531E+02  0.10566000000E+00 0. -1.
        994    1    1    2    0    0 -0.22850817079E+02  0.70037591916E+01  0.41495412996E+01  0.17291000890E+03  0.17120000000E+03 0.  0.
        998    1    1    2    0    0  0.19203277076E+02  0.42003221872E+01  0.14664540048E+04  0.14666198406E+04  0.10000000000E+02 0. -1.
</event>
<event>
 5    1  0.1068111E-008  0.3846929E+03  0.7957747E-01  0.3430976E+00
         13   -1    0    0    0    0  0.00000000000E+00  0.00000000000E+00  0.14999999963E+04  0.15000000000E+04  0.10566000000E+00 0.  1.
        994   -1    0    0    0    0 -0.00000000000E+00 -0.00000000000E+00  0.11368683772E-12  0.17120000000E+03  0.17120000000E+03 0.  0.
         13    1    1    2    0    0  0.55303423133E+00 -0.11682320376E+02  0.37449128352E+02  0.39233032442E+02  0.10566000000E+00 0.  1.
        994    1    1    2    0    0 -0.37984368242E-01  0.11529241934E+02  0.22203790772E+01  0.17160214144E+03  0.17120000000E+03 0.  0.
        998    1    1    2    0    0 -0.51504986308E+00  0.15307844204E+00  0.14603304888E+04  0.14603648261E+04  0.10000000000E+02 0.  1.
</event>
<event>
 5    1  0.1068111E-008  0.3842055E+03  0.7957747E-01  0.3433049E+00
         13   -1    0    0    0    0  0.00000000000E+00  0.00000000000E+00  0.14999999963E+04  0.15000000000E+04  0.10566000000E+00 0. -1.
        994   -1    0    0    0    0 -0.00000000000E+00 -0.00000000000E+00  0.11368683772E-12  0.17120000000E+03  0.17120000000E+03 0.  0.
         13    1    1    2    0    0  0.13326330441E+02  0.75263586332E+01  0.54545166653E+02  0.56651774257E+02  0.10566000000E+00 0. -1.
        994    1    1    2    0    0 -0.20840538345E+02 -0.39546926721E+01  0.35101404499E+01  0.17254486002E+03  0.17120000000E+03 0.  0.
        998    1    1    2    0    0  0.75142079036E+01 -0.35716659612E+01  0.14419446892E+04  0.14420033657E+04  0.10000000000E+02 0. -1.
</event>
<event>
 5    1  0.1203052E-008  0.3856239E+03  0.7957747E-01  0.3427031E+00
         13   -1    0    0    0    0  0.00000000000E+00  0.00000000000E+00  0.14999999963E+04  0.15000000000E+04  0.10566000000E+00 0. -1.
        994   -1    0    0    0    0 -0.00000000000E+00 -0.00000000000E+00  0.11368683772E-12  0.17120000000E+03  0.17120000000E+03 0.  0.
         13    1    1    2    0    0  0.83616522164E+01 -0.64547514192E+01  0.40631190922E+02  0.41981970933E+02  0.10566000000E+00 0. -1.
        994    1    1    2    0    0 -0.10684245042E+02  0.10836615643E+02  0.20811522705E+01  0.17188762761E+03  0.17120000000E+03 0.  0.
        998    1    1    2    0    0  0.23225928259E+01 -0.43818642239E+01  0.14572876531E+04  0.14573304015E+04  0.10000000000E+02 0. -1.
</event>
<event>
 5    1  0.1068111E-008  0.3846041E+03  0.7957747E-01  0.3431353E+00
         13   -1    0    0    0    0  0.00000000000E+00  0.00000000000E+00  0.14999999963E+04  0.15000000000E+04  0.10566000000E+00 0. -1.
        994   -1    0    0    0    0 -0.00000000000E+00 -0.00000000000E+00  0.11368683772E-12  0.17120000000E+03  0.17120000000E+03 0.  0.
         13    1    1    2    0    0  0.10897818526E+01 -0.11847284602E+02  0.39980842287E+02  0.41713603188E+02  0.10566000000E+00 0. -1.
        994    1    1    2    0    0  0.68833714912E+01  0.48224147528E+00  0.19836239300E+01  0.17135048329E+03  0.17120000000E+03 0.  0.
        998    1    1    2    0    0 -0.79731533437E+01  0.11365043126E+02  0.14580355301E+04  0.14581359135E+04  0.10000000000E+02 0. -1.
</event>
<event>
 5    1  0.1068111E-008  0.3817029E+03  0.7957747E-01  0.3443777E+00
         13   -1    0    0    0    0  0.00000000000E+00  0.00000000000E+00  0.14999999963E+04  0.15000000000E+04  0.10566000000E+00 0.  1.
        994   -1    0    0    0    0 -0.00000000000E+00 -0.00000000000E+00  0.11368683772E-12  0.17120000000E+03  0.17120000000E+03 0.  0.
         13    1    1    2    0    0  0.35963638493E+02 -0.37413618586E+01  0.20641337584E+03  0.20955637421E+03  0.10566000000E+00 0.  1.
        994    1    1    2    0    0 -0.17481706317E+02 -0.87851472515E+01  0.45495017972E+01  0.17237437987E+03  0.17120000000E+03 0.  0.
        998    1    1    2    0    0 -0.18481932176E+02  0.12526509110E+02  0.12890371186E+04  0.12892692459E+04  0.10000000000E+02 0.  1.
</event>
<event>
 5    1  0.1068111E-008  0.3841058E+03  0.7957747E-01  0.3433473E+00
         13   -1    0    0    0    0  0.00000000000E+00  0.00000000000E+00  0.14999999963E+04  0.15000000000E+04  0.10566000000E+00 0.  1.
        994   -1    0    0    0    0 -0.00000000000E+00 -0.00000000000E+00  0.11368683772E-12  0.17120000000E+03  0.17120000000E+03 0.  0.
         13    1    1    2    0    0  0.17058184919E+02 -0.34380931659E+01  0.69697485923E+02  0.71836988143E+02  0.10566000000E+00 0.  1.
        994    1    1    2    0    0 -0.20286936725E+02 -0.75999712609E+01  0.36241815265E+01  0.17260328518E+03  0.17120000000E+03 0.  0.
        998    1    1    2    0    0  0.32287518056E+01  0.11038064427E+02  0.14266783288E+04  0.14267597267E+04  0.10000000000E+02 0.  1.
</event>
<event>
 5    1  0.1068111E-008  0.3789589E+03  0.7957747E-01  0.3455704E+00
         13   -1    0    0    0    0  0.00000000000E+00  0.00000000000E+00  0.14999999963E+04  0.15000000000E+04  0.10566000000E+00 0. -1.
        994   -1    0    0    0    0 -0.00000000000E+00 -0.00000000000E+00  0.11368683772E-12  0.17120000000E+03  0.17120000000E+03 0.  0.
         13    1    1    2    0    0 -0.87831080959E+02  0.56087512116E+02  0.60508130064E+03  0.61398982023E+03  0.10566000000E+00 0. -1.
        994    1    1    2    0    0  0.91781917348E+02 -0.63747630345E+02  0.47759115608E+02  0.20994774076E+03  0.17120000000E+03 0.  0.
        998    1    1    2    0    0 -0.39508363886E+01  0.76601182289E+01  0.84715958003E+03  0.84726243901E+03  0.10000000000E+02 0. -1.
</event>
<event>
 5    1  0.1068111E-008  0.3759180E+03  0.7957747E-01  0.3469127E+00
         13   -1    0    0    0    0  0.00000000000E+00  0.00000000000E+00  0.14999999963E+04  0.15000000000E+04  0.10566000000E+00 0. -1.
        994   -1    0    0    0    0 -0.00000000000E+00 -0.00000000000E+00  0.11368683772E-12  0.17120000000E+03  0.17120000000E+03 0.  0.
         13    1    1    2    0    0  0.36018922203E+02  0.13372792110E+00  0.10444837349E+03  0.11048463481E+03  0.10566000000E+00 0. -1.
        994    1    1    2    0    0 -0.17255655149E+02 -0.67315445130E+00  0.72192768282E+01  0.17222011709E+03  0.17120000000E+03 0.  0.
        998    1    1    2    0    0 -0.18763267054E+02  0.53942653021E+00  0.13883323460E+04  0.13884952481E+04  0.10000000000E+02 0. -1.
</event>
<event>
 5    1  0.1068111E-008  0.3828959E+03  0.7957747E-01  0.3438645E+00
         13   -1    0    0    0    0  0.00000000000E+00  0.00000000000E+00  0.14999999963E+04  0.15000000000E+04  0.10566000000E+00 0.  1.
        994   -1    0    0    0    0 -0.00000000000E+00 -0.00000000000E+00  0.11368683772E-12  0.17120000000E+03  0.17120000000E+03 0.  0.
         13    1    1    2    0    0  0.20533876441E+02 -0.30571659527E+01  0.75869543726E+02  0.78658662426E+02  0.10566000000E+00 0.  1.
        994    1    1    2    0    0 -0.22709766720E+02 -0.15155985737E+01  0.43956045394E+01  0.17276224091E+03  0.17120000000E+03 0.  0.
        998    1    1    2    0    0  0.21758902785E+01  0.45727645264E+01  0.14197348480E+04  0.14197790967E+04  0.10000000000E+02 0.  1.
</event>
<event>
 5    1  0.1275021E-008  0.3859649E+03  0.7957747E-01  0.3425590E+00
         13   -1    0    0    0    0  0.00000000000E+00  0.00000000000E+00  0.14999999963E+04  0.15000000000E+04  0.10566000000E+00 0.  1.
        994   -1    0    0    0    0 -0.00000000000E+00 -0.00000000000E+00  0.11368683772E-12  0.17120000000E+03  0.17120000000E+03 0.  0.
         13    1    1    2    0    0 -0.78260553309E+01  0.11681648642E+02  0.82562815222E+02  0.83751642840E+02  0.10566000000E+00 0.  1.
        994    1    1    2    0    0  0.12367329459E+02 -0.99357376097E+01  0.19773245268E+01  0.17194481537E+03  0.17120000000E+03 0.  0.
        998    1    1    2    0    0 -0.45412741277E+01 -0.17459110325E+01  0.14154598565E+04  0.14155035418E+04  0.10000000000E+02 0.  1.
</event>
<event>
 5    1  0.1068111E-008  0.3816417E+03  0.7957747E-01  0.3444041E+00
         13   -1    0    0    0    0  0.00000000000E+00  0.00000000000E+00  0.14999999963E+04  0.15000000000E+04  0.10566000000E+00 0.  1.
        994   -1    0    0    0    0 -0.00000000000E+00 -0.00000000000E+00  0.11368683772E-12  0.17120000000E+03  0.17120000000E+03 0.  0.
         13    1    1    2    0    0 -0.78567212435E+01 -0.18968422008E+02  0.63756743893E+02  0.66981061935E+02  0.10566000000E+00 0.  1.
        994    1    1    2    0    0  0.31909917991E+01  0.86653869739E+01  0.35903048140E+01  0.17148644742E+03  0.17120000000E+03 0.  0.
        998    1    1    2    0    0  0.46657294444E+01  0.10303035034E+02  0.14326529476E+04  0.14327324906E+04  0.10000000000E+02 0.  1.
</event>
<event>
 5    1  0.1068111E-008  0.3821543E+03  0.7957747E-01  0.3441831E+00
         13   -1    0    0    0    0  0.00000000000E+00  0.00000000000E+00  0.14999999963E+04  0.15000000000E+04  0.10566000000E+00 0. -1.
        994   -1    0    0    0    0 -0.00000000000E+00 -0.00000000000E+00  0.11368683772E-12  0.17120000000E+03  0.17120000000E+03 0.  0.
         13    1    1    2    0    0  0.51753368246E+02  0.16587049167E+02  0.30552431305E+03  0.31032025128E+03  0.10566000000E+00 0. -1.
        994    1    1    2    0    0 -0.81282051087E+02 -0.19591179038E+01  0.25311583618E+02  0.19120859352E+03  0.17120000000E+03 0.  0.
        998    1    1    2    0    0  0.29528682841E+02 -0.14627931263E+02  0.11691640996E+04  0.11696711552E+04  0.10000000000E+02 0. -1.
</event>
<event>
 5    1  0.1068111E-008  0.3789913E+03  0.7957747E-01  0.3455563E+00
         13   -1    0    0    0    0  0.00000000000E+00  0.00000000000E+00  0.14999999963E+04  0.15000000000E+04  0.10566000000E+00 0.  1.
        994   -1    0    0    0    0 -0.00000000000E+00 -0.00000000000E+00  0.11368683772E-12  0.17120000000E+03  0.17120000000E+03 0.  0.
         13    1    1    2    0    0 -0.89638165875E+01 -0.26432411286E+02  0.85996410651E+02  0.90412478028E+02  0.10566000000E+00 0.  1.
        994    1    1    2    0    0 -0.33542232114E+01  0.90671566799E+01  0.49567614864E+01  0.17154437801E+03  0.17120000000E+03 0.  0.
        998    1    1    2    0    0  0.12318039799E+02  0.17365254607E+02  0.14090468241E+04  0.14092431440E+04  0.10000000000E+02 0.  1.
</event>
<event>
 5    1  0.1068111E-008  0.3713353E+03  0.7957747E-01  0.3489777E+00
         13   -1    0    0    0    0  0.00000000000E+00  0.00000000000E+00  0.14999999963E+04  0.15000000000E+04  0.10566000000E+00 0. -1.
        994   -1    0    0    0    0 -0.00000000000E+00 -0.00000000000E+00  0.11368683772E-12  0.17120000000E+03  0.17120000000E+03 0.  0.
         13    1    1    2    0    0  0.31607470142E+02 -0.15694420236E+03  0.56663151736E+03  0.58881389459E+03  0.10566000000E+00 0. -1.
        994    1    1    2    0    0 -0.27623930786E+02  0.16645932153E+03  0.11959351491E+03  0.26848433117E+03  0.17120000000E+03 0.  0.
        998    1    1    2    0    0 -0.39835393557E+01 -0.95151191623E+01  0.81377496400E+03  0.81390177424E+03  0.10000000000E+02 0. -1.
</event>
<event>
 5    1  0.1068111E-008  0.3845471E+03  0.7957747E-01  0.3431595E+00
         13   -1    0    0    0    0  0.00000000000E+00  0.00000000000E+00  0.14999999963E+04  0.15000000000E+04  0.10566000000E+00 0. -1.
        994   -1    0    0    0    0 -0.00000000000E+00 -0.00000000000E+00  0.11368683772E-12  0.17120000000E+03  0.17120000000E+03 0.  0.
         13    1    1    2    0    0  0.12961402509E+02 -0.68322603378E+01  0.59301854564E+02  0.61085177048E+02  0.10566000000E+00 0. -1.
        994    1    1    2    0    0 -0.72511568064E+01 -0.35954600807E+01  0.20709165880E+01  0.17140372022E+03  0.17120000000E+03 0.  0.
        998    1    1    2    0    0 -0.57102457024E+01  0.10427720419E+02  0.14386272251E+04  0.14387111027E+04  0.10000000000E+02 0. -1.
</event>
<event>
 5    1  0.1068111E-008  0.3830388E+03  0.7957747E-01  0.3438033E+00
         13   -1    0    0    0    0  0.00000000000E+00  0.00000000000E+00  0.14999999963E+04  0.15000000000E+04  0.10566000000E+00 0.  1.
        994   -1    0    0    0    0 -0.00000000000E+00 -0.00000000000E+00  0.11368683772E-12  0.17120000000E+03  0.17120000000E+03 0.  0.
         13    1    1    2    0    0  0.17917084158E+02 -0.13361667626E+02  0.98085015488E+02  0.10059939112E+03  0.10566000000E+00 0.  1.
        994    1    1    2    0    0 -0.24067253762E+01  0.11869547025E+02  0.30926071038E+01  0.17165570976E+03  0.17120000000E+03 0.  0.
        998    1    1    2    0    0 -0.15510358781E+02  0.14921206013E+01  0.13988223737E+04  0.13989448991E+04  0.10000000000E+02 0.  1.
</event>
<event>
 5    1  0.1068111E-008  0.3853787E+03  0.7957747E-01  0.3428068E+00
         13   -1    0    0    0    0  0.00000000000E+00  0.00000000000E+00  0.14999999963E+04  0.15000000000E+04  0.10566000000E+00 0.  1.
        994   -1    0    0    0    0 -0.00000000000E+00 -0.00000000000E+00  0.11368683772E-12  0.17120000000E+03  0.17120000000E+03 0.  0.
         13    1    1    2    0    0 -0.40295966053E+02 -0.12588943847E+03  0.52378456319E+03  0.54020569731E+03  0.10566000000E+00 0.  1.
        994    1    1    2    0    0 -0.76335539001E+01  0.63160534660E+02  0.34433405446E+02  0.18585645992E+03  0.17120000000E+03 0.  0.
        998    1    1    2    0    0  0.47929519953E+02  0.62728903810E+02  0.94178202764E+03  0.94513784277E+03  0.10000000000E+02 0.  1.
</event>
<event>
 5    1  0.1068111E-008  0.3772594E+03  0.7957747E-01  0.3463179E+00
         13   -1    0    0    0    0  0.00000000000E+00  0.00000000000E+00  0.14999999963E+04  0.15000000000E+04  0.10566000000E+00 0. -1.
        994   -1    0    0    0    0 -0.00000000000E+00 -0.00000000000E+00  0.11368683772E-12  0.17120000000E+03  0.17120000000E+03 0.  0.
         13    1    1    2    0    0 -0.12788657387E+02  0.21978514342E+01  0.12653523362E+02  0.18124655202E+02  0.10566000000E+00 0. -1.
        994    1    1    2    0    0  0.14754282935E+02  0.95512001049E+00  0.62608161222E+01  0.17195126908E+03  0.17120000000E+03 0.  0.
        998    1    1    2    0    0 -0.19656255473E+01 -0.31529714447E+01  0.14810856568E+04  0.14811240757E+04  0.10000000000E+02 0. -1.
</event>
<event>
 5    1  0.1068111E-008  0.3752925E+03  0.7957747E-01  0.3471916E+00
         13   -1    0    0    0    0  0.00000000000E+00  0.00000000000E+00  0.14999999963E+04  0.15000000000E+04  0.10566000000E+00 0.  1.
        994   -1    0    0    0    0 -0.00000000000E+00 -0.00000000000E+00  0.11368683772E-12  0.17120000000E+03  0.17120000000E+03 0.  0.
         13    1    1    2    0    0  0.79334516090E+01  0.25736695822E+02  0.52819211395E+02  0.59289100370E+02  0.10566000000E+00 0.  1.
        994    1    1    2    0    0 -0.41368102325E+01 -0.18418802259E+02  0.77396782742E+01  0.17241145001E+03  0.17120000000E+03 0.  0.
        998    1    1    2    0    0 -0.37966413766E+01 -0.73178935628E+01  0.14394411066E+04  0.14394994496E+04  0.10000000000E+02 0.  1.
</event>
<event>
 5    1  0.1068111E-008  0.3837817E+03  0.7957747E-01  0.3434856E+00
         13   -1    0    0    0    0  0.00000000000E+00  0.00000000000E+00  0.14999999963E+04  0.15000000000E+04  0.10566000000E+00 0.  1.
        994   -1    0    0    0    0 -0.00000000000E+00 -0.00000000000E+00  0.11368683772E-12  0.17120000000E+03  0.17120000000E+03 0.  0.
         13    1    1    2    0    0 -0.14103652554E+02 -0.18140053700E+01  0.47061175202E+02  0.49162678998E+02  0.10566000000E+00 0.  1.
        994    1    1    2    0    0  0.19642023426E+01 -0.24744782053E+02  0.42732460510E+01  0.17304295120E+03  0.17120000000E+03 0.  0.
        998    1    1    2    0    0  0.12139450211E+02  0.26558787423E+02  0.14486655750E+04  0.14489943698E+04  0.10000000000E+02 0.  1.
</event>
<event>
 5    1  0.1068111E-008  0.3831603E+03  0.7957747E-01  0.3437512E+00
         13   -1    0    0    0    0  0.00000000000E+00  0.00000000000E+00  0.14999999963E+04  0.15000000000E+04  0.10566000000E+00 0.  1.
        994   -1    0    0    0    0 -0.00000000000E+00 -0.00000000000E+00  0.11368683772E-12  0.17120000000E+03  0.17120000000E+03 0.  0.
         13    1    1    2    0    0 -0.90255650741E+01 -0.45475447859E+01  0.20063942221E+02  0.22465839178E+02  0.10566000000E+00 0.  1.
        994    1    1    2    0    0 -0.79777709880E+01 -0.26996681780E+01  0.27809715496E+01  0.17142959733E+03  0.17120000000E+03 0.  0.
        998    1    1    2    0    0  0.17003336062E+02  0.72472129639E+01  0.14771550825E+04  0.14773045635E+04  0.10000000000E+02 0.  1.
</event>
<event>
 5    1  0.1068111E-008  0.3788337E+03  0.7957747E-01  0.3456253E+00
         13   -1    0    0    0    0  0.00000000000E+00  0.00000000000E+00  0.14999999963E+04  0.15000000000E+04  0.10566000000E+00 0. -1.
        994   -1    0    0    0    0 -0.00000000000E+00 -0.00000000000E+00  0.11368683772E-12  0.17120000000E+03  0.17120000000E+03 0.  0.
         13    1    1    2    0    0  0.22969065637E+02  0.22026822764E+02  0.94455423010E+02  0.99672448537E+02  0.10566000000E+00 0. -1.
        994    1    1    2    0    0 -0.20327346009E+02 -0.41225854226E+02  0.11846130542E+02  0.17765850067E+03  0.17120000000E+03 0.  0.
        998    1    1    2    0    0 -0.26417196278E+01  0.19199031462E+02  0.13936984427E+04  0.13938690508E+04  0.10000000000E+02 0. -1.
</event>
<event>
 5    1  0.1068111E-008  0.3841040E+03  0.7957747E-01  0.3433481E+00
         13   -1    0    0    0    0  0.00000000000E+00  0.00000000000E+00  0.14999999963E+04  0.15000000000E+04  0.10566000000E+00 0. -1.
        994   -1    0    0    0    0 -0.00000000000E+00 -0.00000000000E+00  0.11368683772E-12  0.17120000000E+03  0.17120000000E+03 0.  0.
         13    1    1    2    0    0 -0.64643456306E+02  0.23067592479E+03  0.10911961094E+04  0.11171835655E+04  0.10566000000E+00 0. -1.
        994    1    1    2    0    0  0.71530125669E+02 -0.23718212223E+03  0.24113223547E+03  0.38577987631E+03  0.17120000000E+03 0.  0.
        998    1    1    2    0    0 -0.68866693627E+01  0.65061974358E+01  0.16767165141E+03  0.16823655817E+03  0.10000000000E+02 0.  0.
</event>
<event>
 5    1  0.1068111E-008  0.3851701E+03  0.7957747E-01  0.3428951E+00
         13   -1    0    0    0    0  0.00000000000E+00  0.00000000000E+00  0.14999999963E+04  0.15000000000E+04  0.10566000000E+00 0. -1.
        994   -1    0    0    0    0 -0.00000000000E+00 -0.00000000000E+00  0.11368683772E-12  0.17120000000E+03  0.17120000000E+03 0.  0.
         13    1    1    2    0    0  0.23096888915E+01 -0.13453335752E+02  0.57071478085E+02  0.58681271974E+02  0.10566000000E+00 0. -1.
        994    1    1    2    0    0  0.14950168325E+02  0.21560750080E+02  0.38115675635E+01  0.17324070401E+03  0.17120000000E+03 0.  0.
        998    1    1    2    0    0 -0.17259857217E+02 -0.81074143283E+01  0.14391169506E+04  0.14392780240E+04  0.10000000000E+02 0. -1.
</event>
<event>
 5    1  0.1068111E-008  0.3698281E+03  0.7957747E-01  0.3496681E+00
         13   -1    0    0    0    0  0.00000000000E+00  0.00000000000E+00  0.14999999963E+04  0.15000000000E+04  0.10566000000E+00 0.  1.
        994   -1    0    0    0    0 -0.00000000000E+00 -0.00000000000E+00  0.11368683772E-12  0.17120000000E+03  0.17120000000E+03 0.  0.
         13    1    1    2    0    0  0.15121430352E+02 -0.18747641812E+02  0.26489285205E+02  0.35802585439E+02  0.10566000000E+00 0.  1.
        994    1    1    2    0    0 -0.19098357354E+02  0.18396649035E+02  0.11795574721E+02  0.17364262015E+03  0.17120000000E+03 0.  0.
        998    1    1    2    0    0  0.39769270018E+01  0.35099277731E+00  0.14617151364E+04  0.14617547944E+04  0.10000000000E+02 0.  1.
</event>
<event>
 5    1  0.1068111E-008  0.3783889E+03  0.7957747E-01  0.3458204E+00
         13   -1    0    0    0    0  0.00000000000E+00  0.00000000000E+00  0.14999999963E+04  0.15000000000E+04  0.10566000000E+00 0. -1.
        994   -1    0    0    0    0 -0.00000000000E+00 -0.00000000000E+00  0.11368683772E-12  0.17120000000E+03  0.17120000000E+03 0.  0.
         13    1    1    2    0    0 -0.60839267697E+01  0.24997924099E+02  0.61936834038E+02  0.67067823499E+02  0.10566000000E+00 0. -1.
        994    1    1    2    0    0  0.54053215166E+01 -0.28674298077E+02  0.78154568225E+01  0.17384462671E+03  0.17120000000E+03 0.  0.
        998    1    1    2    0    0  0.67860525307E+00  0.36763739775E+01  0.14302477054E+04  0.14302875498E+04  0.10000000000E+02 0. -1.
</event>
<event>
 5    1  0.1207541E-008  0.3865111E+03  0.7957747E-01  0.3423289E+00
         13   -1    0    0    0    0  0.00000000000E+00  0.00000000000E+00  0.14999999963E+04  0.15000000000E+04  0.10566000000E+00 0.  1.
        994   -1    0    0    0    0 -0.00000000000E+00 -0.00000000000E+00  0.11368683772E-12  0.17120000000E+03  0.17120000000E+03 0.  0.
         13    1    1    2    0    0 -0.98827107141E+01  0.41639514964E+01  0.62930895143E+02  0.63838195391E+02  0.10566000000E+00 0.  1.
        994    1    1    2    0    0  0.15113406743E+02 -0.55716820894E+00  0.16306337365E+01  0.17187444390E+03  0.17120000000E+03 0.  0.
        998    1    1    2    0    0 -0.52306960289E+01 -0.36067832874E+01  0.14354384674E+04  0.14354873607E+04  0.10000000000E+02 0.  1.
</event>
<event>
 5    1  0.1068111E-008  0.3733023E+03  0.7957747E-01  0.3480850E+00
         13   -1    0    0    0    0  0.00000000000E+00  0.00000000000E+00  0.14999999963E+04  0.15000000000E+04  0.10566000000E+00 0. -1.
        994   -1    0    0    0    0 -0.00000000000E+00 -0.00000000000E+00  0.11368683772E-12  0.17120000000E+03  0.17120000000E+03 0.  0.
         13    1    1    2    0    0 -0.25071158505E+02 -0.47586447142E+02  0.18112291343E+03  0.18894060938E+03  0.10566000000E+00 0. -1.
        994    1    1    2    0    0  0.15344774723E+02  0.36549241231E+02  0.12944110218E+02  0.17620527556E+03  0.17120000000E+03 0.  0.
        998    1    1    2    0    0  0.97263837812E+01  0.11037205911E+02  0.13059329726E+04  0.13060541151E+04  0.10000000000E+02 0. -1.
</event>
<event>
 5    1  0.1068111E-008  0.3695925E+03  0.7957747E-01  0.3497766E+00
         13   -1    0    0    0    0  0.00000000000E+00  0.00000000000E+00  0.14999999963E+04  0.15000000000E+04  0.10566000000E+00 0.  1.
        994   -1    0    0    0    0 -0.00000000000E+00 -0.00000000000E+00  0.11368683772E-12  0.17120000000E+03  0.17120000000E+03 0.  0.
         13    1    1    2    0    0  0.58595475586E+02  0.37122136448E+02  0.21727810580E+03  0.22808171605E+03  0.10566000000E+00 0.  1.
        994    1    1    2    0    0 -0.75414217042E+02  0.30689446282E+02  0.34238795918E+02  0.19264184746E+03  0.17120000000E+03 0.  0.
        998    1    1    2    0    0  0.16818741456E+02 -0.67811582730E+02  0.12484830946E+04  0.12504764365E+04  0.10000000000E+02 0.  1.
</event>
<event>
 5    1  0.1068111E-008  0.3832656E+03  0.7957747E-01  0.3437062E+00
         13   -1    0    0    0    0  0.00000000000E+00  0.00000000000E+00  0.14999999963E+04  0.15000000000E+04  0.10566000000E+00 0.  1.
        994   -1    0    0    0    0 -0.00000000000E+00 -0.00000000000E+00  0.11368683772E-12  0.17120000000E+03  0.17120000000E+03 0.  0.
         13    1    1    2    0    0  0.78099675018E+01  0.21265040880E+02  0.10555684479E+03  0.10796043814E+03  0.10566000000E+00 0.  1.
        994    1    1    2    0    0 -0.20692723959E+02 -0.26949964778E+01  0.39351716284E+01  0.17251196308E+03  0.17120000000E+03 0.  0.
        998    1    1    2    0    0  0.12882756457E+02 -0.18570044403E+02  0.13905079799E+04  0.13907275988E+04  0.10000000000E+02 0.  1.
</event>
<event>
 5    1  0.1068111E-008  0.3816702E+03  0.7957747E-01  0.3443918E+00
         13   -1    0    0    0    0  0.00000000000E+00  0.00000000000E+00  0.14999999963E+04  0.15000000000E+04  0.10566000000E+00 0. -1.
        994   -1    0    0    0    0 -0.00000000000E+00 -0.00000000000E+00  0.11368683772E-12  0.17120000000E+03  0.17120000000E+03 0.  0.
         13    1    1    2    0    0  0.19365407832E+02 -0.28483865984E+01  0.58945485974E+02  0.62110496758E+02  0.10566000000E+00 0. -1.
        994    1    1    2    0    0 -0.43410843342E+01  0.72235466229E+01  0.35285774052E+01  0.17144362192E+03  0.17120000000E+03 0.  0.
        998    1    1    2    0    0 -0.15024323497E+02 -0.43751600245E+01  0.14375259329E+04  0.14376458813E+04  0.10000000000E+02 0. -1.
</event>
<event>
 5    1  0.1068111E-008  0.3717332E+03  0.7957747E-01  0.3487963E+00
         13   -1    0    0    0    0  0.00000000000E+00  0.00000000000E+00  0.14999999963E+04  0.15000000000E+04  0.10566000000E+00 0. -1.
        994   -1    0    0    0    0 -0.00000000000E+00 -0.00000000000E+00  0.11368683772E-12  0.17120000000E+03  0.17120000000E+03 0.  0.
         13    1    1    2    0    0  0.34182846690E+02 -0.38331043493E+02  0.15024465590E+03  0.15878036306E+03  0.10566000000E+00 0. -1.
        994    1    1    2    0    0 -0.23544931916E+02  0.28763422342E+02  0.13129879516E+02  0.17568019814E+03  0.17120000000E+03 0.  0.
        998    1    1    2    0    0 -0.10637914774E+02  0.95676211511E+01  0.13366254609E+04  0.13367394388E+04  0.10000000000E+02 0. -1.
</event>
<event>
 5    1  0.1068111E-008  0.3818573E+03  0.7957747E-01  0.3443111E+00
         13   -1    0    0    0    0  0.00000000000E+00  0.00000000000E+00  0.14999999963E+04  0.15000000000E+04  0.10566000000E+00 0.  1.
        994   -1    0    0    0    0 -0.00000000000E+00 -0.00000000000E+00  0.11368683772E-12  0.17120000000E+03  0.17120000000E+03 0.  0.
         13    1    1    2    0    0 -0.11564392515E+02 -0.30331537415E+01  0.20861050776E+02  0.24044329880E+02  0.10566000000E+00 0.  1.
        994    1    1    2    0    0  0.12073783576E+02  0.10103875390E+01  0.36864176953E+01  0.17166778034E+03  0.17120000000E+03 0.  0.
        998    1    1    2    0    0 -0.50939106055E+00  0.20227662025E+01  0.14754525278E+04  0.14754878898E+04  0.10000000000E+02 0.  1.
</event>
<event>
 5    1  0.1068111E-008  0.3839946E+03  0.7957747E-01  0.3433947E+00
         13   -1    0    0    0    0  0.00000000000E+00  0.00000000000E+00  0.14999999963E+04  0.15000000000E+04  0.10566000000E+00 0.  1.
        994   -1    0    0    0    0 -0.00000000000E+00 -0.00000000000E+00  0.11368683772E-12  0.17120000000E+03  0.17120000000E+03 0.  0.
         13    1    1    2    0    0 -0.72067812285E+01  0.80863853127E+01  0.26553882772E+02  0.28678339865E+02  0.10566000000E+00 0.  1.
        994    1    1    2    0    0  0.89372318705E+01 -0.68963063861E+01  0.25506765948E+01  0.17159073141E+03  0.17120000000E+03 0.  0.
        998    1    1    2    0    0 -0.17304506420E+01 -0.11900789266E+01  0.14708954369E+04  0.14709309287E+04  0.10000000000E+02 0.  1.
</event>
<event>
 5    1  0.1068111E-008  0.3858648E+03  0.7957747E-01  0.3426013E+00
         13   -1    0    0    0    0  0.00000000000E+00  0.00000000000E+00  0.14999999963E+04  0.15000000000E+04  0.10566000000E+00 0. -1.
        994   -1    0    0    0    0 -0.00000000000E+00 -0.00000000000E+00  0.11368683772E-12  0.17120000000E+03  0.17120000000E+03 0.  0.
         13    1    1    2    0    0 -0.11758248841E+02  0.42100740609E+01  0.65300478712E+02  0.66484169721E+02  0.10566000000E+00 0. -1.
        994    1    1    2    0    0  0.76779629653E+01 -0.47163794679E+01  0.14677250950E+01  0.17144325466E+03  0.17120000000E+03 0.  0.
        998    1    1    2    0    0  0.40802858759E+01  0.50630540695E+00  0.14332317925E+04  0.14332725756E+04  0.10000000000E+02 0. -1.
</event>
<event>
 5    1  0.1068111E-008  0.3849743E+03  0.7957747E-01  0.3429781E+00
         13   -1    0    0    0    0  0.00000000000E+00  0.00000000000E+00  0.14999999963E+04  0.15000000000E+04  0.10566000000E+00 0. -1.
        994   -1    0    0    0    0 -0.00000000000E+00 -0.00000000000E+00  0.11368683772E-12  0.17120000000E+03  0.17120000000E+03 0.  0.
         13    1    1    2    0    0 -0.13770086359E+02  0.57310838646E+01  0.68959827632E+02  0.70554444167E+02  0.10566000000E+00 0. -1.
        994    1    1    2    0    0  0.33139358653E+01 -0.10480007357E+02  0.20403564487E+01  0.17156461109E+03  0.17120000000E+03 0.  0.
        998    1    1    2    0    0  0.10456150494E+02  0.47489234927E+01  0.14289998122E+04  0.14290809447E+04  0.10000000000E+02 0. -1.
</event>
<event>
 5    1  0.1068111E-008  0.3795724E+03  0.7957747E-01  0.3453022E+00
         13   -1    0    0    0    0  0.00000000000E+00  0.00000000000E+00  0.14999999963E+04  0.15000000000E+04  0.10566000000E+00 0. -1.
        994   -1    0    0    0    0 -0.00000000000E+00 -0.00000000000E+00  0.11368683772E-12  0.17120000000E+03  0.17120000000E+03 0.  0.
         13    1    1    2    0    0 -0.31561189153E+02 -0.19447701110E+02  0.18569086985E+03  0.18935530637E+03  0.10566000000E+00 0. -1.
        994    1    1    2    0    0  0.84255786461E+01 -0.17186180099E+02  0.55765154877E+01  0.17235687595E+03  0.17120000000E+03 0.  0.
        998    1    1    2    0    0  0.23135610506E+02  0.36633881209E+02  0.13087326109E+04  0.13094878177E+04  0.10000000000E+02 0. -1.
</event>
<event>
 5    1  0.1068111E-008  0.3823877E+03  0.7957747E-01  0.3440827E+00
         13   -1    0    0    0    0  0.00000000000E+00  0.00000000000E+00  0.14999999963E+04  0.15000000000E+04  0.10566000000E+00 0.  1.
        994   -1    0    0    0    0 -0.00000000000E+00 -0.00000000000E+00  0.11368683772E-12  0.17120000000E+03  0.17120000000E+03 0.  0.
         13    1    1    2    0    0  0.15085406970E+01  0.14736171161E+02  0.35255812995E+02  0.38241521276E+02  0.10566000000E+00 0.  1.
        994    1    1    2    0    0  0.50053223680E+01 -0.19186501438E+02  0.42378049872E+01  0.17239656052E+03  0.17120000000E+03 0.  0.
        998    1    1    2    0    0 -0.65138630651E+01  0.44503302775E+01  0.14605063783E+04  0.14605619182E+04  0.10000000000E+02 0.  1.
</event>
<event>
 5    1  0.1068111E-008  0.3721337E+03  0.7957747E-01  0.3486142E+00
         13   -1    0    0    0    0  0.00000000000E+00  0.00000000000E+00  0.14999999963E+04  0.15000000000E+04  0.10566000000E+00 0.  1.
        994   -1    0    0    0    0 -0.00000000000E+00 -0.00000000000E+00  0.11368683772E-12  0.17120000000E+03  0.17120000000E+03 0.  0.
         13    1    1    2    0    0 -0.21730725471E+02  0.62480783342E+02  0.25921204323E+03  0.26752003146E+03  0.10566000000E+00 0.  1.
        994    1    1    2    0    0  0.20766407943E+02 -0.37307241715E+02  0.14441571802E+02  0.17703410118E+03  0.17120000000E+03 0.  0.
        998    1    1    2    0    0  0.96431752849E+00 -0.25173541627E+02  0.12263463813E+04  0.12266458674E+04  0.10000000000E+02 0.  1.
</event>
<event>
 5    1  0.1068111E-008  0.3825171E+03  0.7957747E-01  0.3440271E+00
         13   -1    0    0    0    0  0.00000000000E+00  0.00000000000E+00  0.14999999963E+04  0.15000000000E+04  0.10566000000E+00 0.  1.
        994   -1    0    0    0    0 -0.00000000000E+00 -0.00000000000E+00  0.11368683772E-12  0.17120000000E+03  0.17120000000E+03 0.  0.
         13    1    1    2    0    0 -0.11305507855E+02  0.26326565121E+02  0.16995223553E+03  0.17235044550E+03  0.10566000000E+00 0.  1.
        994    1    1    2    0    0 -0.37268103683E+02 -0.14083742717E+02  0.81481170578E+01  0.17596333474E+03  0.17120000000E+03 0.  0.
        998    1    1    2    0    0  0.48573611538E+02 -0.12242822404E+02  0.13218996437E+04  0.13228862198E+04  0.10000000000E+02 0.  1.
</event>
<event>
 5    1  0.1068111E-008  0.3833207E+03  0.7957747E-01  0.3436826E+00
         13   -1    0    0    0    0  0.00000000000E+00  0.00000000000E+00  0.14999999963E+04  0.15000000000E+04  0.10566000000E+00 0.  1.
        994   -1    0    0    0    0 -0.00000000000E+00 -0.00000000000E+00  0.11368683772E-12  0.17120000000E+03  0.17120000000E+03 0.  0.
         13    1    1    2    0    0 -0.43745021536E+01  0.19083040237E+02  0.77337132927E+02  0.79776826129E+02  0.10566000000E+00 0.  1.
        994    1    1    2    0    0  0.49937785316E+00 -0.12044297392E+02  0.29468155802E+01  0.17164917186E+03  0.17120000000E+03 0.  0.
        998    1    1    2    0    0  0.38751243004E+01 -0.70387428454E+01  0.14197160478E+04  0.14197740020E+04  0.10000000000E+02 0.  1.
</event>
<event>
 5    1  0.1068111E-008  0.3811535E+03  0.7957747E-01  0.3446151E+00
         13   -1    0    0    0    0  0.00000000000E+00  0.00000000000E+00  0.14999999963E+04  0.15000000000E+04  0.10566000000E+00 0. -1.
        994   -1    0    0    0    0 -0.00000000000E+00 -0.00000000000E+00  0.11368683772E-12  0.17120000000E+03  0.17120000000E+03 0.  0.
         13    1    1    2    0    0  0.13506544811E+02  0.12213421931E+02  0.46342514874E+02  0.49791909753E+02  0.10566000000E+00 0. -1.
        994    1    1    2    0    0 -0.11827426974E+02  0.31497775811E+01  0.40510312975E+01  0.17168476922E+03  0.17120000000E+03 0.  0.
        998    1    1    2    0    0 -0.16791178367E+01 -0.15363199512E+02  0.14496064501E+04  0.14497233210E+04  0.10000000000E+02 0. -1.
</event>
<event>
 5    1  0.1068111E-008  0.3812493E+03  0.7957747E-01  0.3445737E+00
         13   -1    0    0    0    0  0.00000000000E+00  0.00000000000E+00  0.14999999963E+04  0.15000000000E+04  0.10566000000E+00 0. -1.
        994   -1    0    0    0    0 -0.00000000000E+00 -0.00000000000E+00  0.11368683772E-12  0.17120000000E+03  0.17120000000E+03 0.  0.
         13    1    1    2    0    0  0.21450904985E+02  0.16973060595E+01  0.68657024598E+02  0.71950124137E+02  0.10566000000E+00 0. -1.
        994    1    1    2    0    0 -0.11425711820E+01 -0.44301519542E+01  0.35735507283E+01  0.17129840040E+03  0.17120000000E+03 0.  0.
        998    1    1    2    0    0 -0.20308333803E+02  0.27328458947E+01  0.14277694210E+04  0.14279514755E+04  0.10000000000E+02 0. -1.
</event>
<event>
 5    1  0.1068111E-008  0.3734607E+03  0.7957747E-01  0.3480136E+00
         13   -1    0    0    0    0  0.00000000000E+00  0.00000000000E+00  0.14999999963E+04  0.15000000000E+04  0.10566000000E+00 0. -1.
        994   -1    0    0    0    0 -0.00000000000E+00 -0.00000000000E+00  0.11368683772E-12  0.17120000000E+03  0.17120000000E+03 0.  0.
         13    1    1    2    0    0 -0.36479719902E+01 -0.15424040248E+02  0.42446522851E+01  0.16408441555E+02  0.10566000000E+00 0. -1.
        994    1    1    2    0    0 -0.14934794605E+02  0.87665664534E+00  0.13572976529E+02  0.17238759326E+03  0.17120000000E+03 0.  0.
        998    1    1    2    0    0  0.18582766596E+02  0.14547383603E+02  0.14821823675E+04  0.14824039652E+04  0.10000000000E+02 0. -1.
</event>
<event>
 5    1  0.1068111E-008  0.3702011E+03  0.7957747E-01  0.3494967E+00
         13   -1    0    0    0    0  0.00000000000E+00  0.00000000000E+00  0.14999999963E+04  0.15000000000E+04  0.10566000000E+00 0. -1.
        994   -1    0    0    0    0 -0.00000000000E+00 -0.00000000000E+00  0.11368683772E-12  0.17120000000E+03  0.17120000000E+03 0.  0.
         13    1    1    2    0    0  0.71385950767E+02 -0.66765873949E+02  0.32192329451E+03  0.33643462159E+03  0.10566000000E+00 0. -1.
        994    1    1    2    0    0 -0.92770316185E+02  0.88445194294E+02  0.68272191764E+02  0.22449814281E+03  0.17120000000E+03 0.  0.
        998    1    1    2    0    0  0.21384365418E+02 -0.21679320345E+02  0.11098045100E+04  0.11102672356E+04  0.10000000000E+02 0. -1.
</event>
<event>
 5    1  0.1068111E-008  0.3860592E+03  0.7957747E-01  0.3425193E+00
         13   -1    0    0    0    0  0.00000000000E+00  0.00000000000E+00  0.14999999963E+04  0.15000000000E+04  0.10566000000E+00 0.  1.
        994   -1    0    0    0    0 -0.00000000000E+00 -0.00000000000E+00  0.11368683772E-12  0.17120000000E+03  0.17120000000E+03 0.  0.
         13    1    1    2    0    0 -0.14523067725E+01  0.10171093683E+02  0.50405520942E+02  0.51442084397E+02  0.10566000000E+00 0.  1.
        994    1    1    2    0    0  0.52157448797E+01 -0.13098742054E+00  0.11944134709E+01  0.17128364714E+03  0.17120000000E+03 0.  0.
        998    1    1    2    0    0 -0.37634381072E+01 -0.10040106262E+02  0.14484000619E+04  0.14484742685E+04  0.10000000000E+02 0.  1.
</event>
<event>
 5    1  0.1068111E-008  0.3777828E+03  0.7957747E-01  0.3460870E+00
         13   -1    0    0    0    0  0.00000000000E+00  0.00000000000E+00  0.14999999963E+04  0.15000000000E+04  0.10566000000E+00 0. -1.
        994   -1    0    0    0    0 -0.00000000000E+00 -0.00000000000E+00  0.11368683772E-12  0.17120000000E+03  0.17120000000E+03 0.  0.
         13    1    1    2    0    0 -0.21632034471E+02 -0.10589946384E+01  0.41503875591E+02  0.46815053542E+02  0.10566000000E+00 0. -1.
        994    1    1    2    0    0  0.21884493553E+02  0.64202462110E+01  0.70102045010E+01  0.17285466030E+03  0.17120000000E+03 0.  0.
        998    1    1    2    0    0 -0.25245908201E+00 -0.53612515726E+01  0.14514859162E+04  0.14515302862E+04  0.10000000000E+02 0. -1.
</event>
<event>
 5    1  0.1068111E-008  0.3836248E+03  0.7957747E-01  0.3435526E+00
         13   -1    0    0    0    0  0.00000000000E+00  0.00000000000E+00  0.14999999963E+04  0.15000000000E+04  0.10566000000E+00 0. -1.
        994   -1    0    0    0    0 -0.00000000000E+00 -0.00000000000E+00  0.11368683772E-12  0.17120000000E+03  0.17120000000E+03 0.  0.
         13    1    1    2    0    0  0.21224239619E+02 -0.93243747832E+01  0.12353883638E+03  0.12569513742E+03  0.10566000000E+00 0. -1.
        994    1    1    2    0    0 -0.18433483823E-01  0.13865618847E+02  0.29497961395E+01  0.17178590461E+03  0.17120000000E+03 0.  0.
        998    1    1    2    0    0 -0.21205806135E+02 -0.45412440642E+01  0.13735113638E+04  0.13737189580E+04  0.10000000000E+02 0. -1.
</event>
<event>
 5    1  0.1068111E-008  0.3849368E+03  0.7957747E-01  0.3429940E+00
         13   -1    0    0    0    0  0.00000000000E+00  0.00000000000E+00  0.14999999963E+04  0.15000000000E+04  0.10566000000E+00 0. -1.
        994   -1    0    0    0    0 -0.00000000000E+00 -0.00000000000E+00  0.11368683772E-12  0.17120000000E+03  0.17120000000E+03 0.  0.
         13    1    1    2    0    0  0.64728594102E+01 -0.16682302741E+02  0.98918076989E+02  0.10052360048E+03  0.10566000000E+00 0. -1.
        994    1    1    2    0    0 -0.14214605255E+01  0.81376192159E+01  0.18860252445E+01  0.17140956358E+03  0.17120000000E+03 0.  0.
        998    1    1    2    0    0 -0.50513988848E+01  0.85446835255E+01  0.13991958940E+04  0.13992668359E+04  0.10000000000E+02 0. -1.
</event>
<event>
 5    1  0.1068111E-008  0.3818588E+03  0.7957747E-01  0.3443104E+00
         13   -1    0    0    0    0  0.00000000000E+00  0.00000000000E+00  0.14999999963E+04  0.15000000000E+04  0.10566000000E+00 0.  1.
        994   -1    0    0    0    0 -0.00000000000E+00 -0.00000000000E+00  0.11368683772E-12  0.17120000000E+03  0.17120000000E+03 0.  0.
         13    1    1    2    0    0  0.86989069071E+01  0.11626950550E+02  0.31515460559E+02  0.34700034276E+02  0.10566000000E+00 0.  1.
        994    1    1    2    0    0 -0.99748562660E+01 -0.80246982502E+01  0.37424711001E+01  0.17171878065E+03  0.17120000000E+03 0.  0.
        998    1    1    2    0    0  0.12759493589E+01 -0.36022522995E+01  0.14647420646E+04  0.14647811851E+04  0.10000000000E+02 0.  1.
</event>
<event>
 5    1  0.1068111E-008  0.3839531E+03  0.7957747E-01  0.3434124E+00
         13   -1    0    0    0    0  0.00000000000E+00  0.00000000000E+00  0.14999999963E+04  0.15000000000E+04  0.10566000000E+00 0. -1.
        994   -1    0    0    0    0 -0.00000000000E+00 -0.00000000000E+00  0.11368683772E-12  0.17120000000E+03  0.17120000000E+03 0.  0.
         13    1    1    2    0    0 -0.66770433784E+01 -0.10205234730E+02  0.34249950698E+02  0.36356567647E+02  0.10566000000E+00 0. -1.
        994    1    1    2    0    0  0.46201150978E+01  0.47872198756E+01  0.22968724346E+01  0.17134461929E+03  0.17120000000E+03 0.  0.
        998    1    1    2    0    0  0.20569282806E+01  0.54180148547E+01  0.14634531731E+04  0.14634988131E+04  0.10000000000E+02 0. -1.
</event>
<event>
 5    1  0.1068111E-008  0.3863525E+03  0.7957747E-01  0.3423956E+00
         13   -1    0    0    0    0  0.00000000000E+00  0.00000000000E+00  0.14999999963E+04  0.15000000000E+04  0.10566000000E+00 0.  1.
        994   -1    0    0    0    0 -0.00000000000E+00 -0.00000000000E+00  0.11368683772E-12  0.17120000000E+03  0.17120000000E+03 0.  0.
         13    1    1    2    0    0  0.98262222091E+01 -0.77266691801E+01  0.63861466479E+02  0.65073451764E+02  0.10566000000E+00 0.  1.
        994    1    1    2    0    0 -0.20250816414E+02  0.43441008677E+02  0.85182640851E+01  0.17798656585E+03  0.17120000000E+03 0.  0.
        998    1    1    2    0    0  0.10424594205E+02 -0.35714339497E+02  0.14276202657E+04  0.14281399824E+04  0.10000000000E+02 0.  1.
</event>
<event>
 5    1  0.1068111E-008  0.3864299E+03  0.7957747E-01  0.3423630E+00
         13   -1    0    0    0    0  0.00000000000E+00  0.00000000000E+00  0.14999999963E+04  0.15000000000E+04  0.10566000000E+00 0.  1.
        994   -1    0    0    0    0 -0.00000000000E+00 -0.00000000000E+00  0.11368683772E-12  0.17120000000E+03  0.17120000000E+03 0.  0.
         13    1    1    2    0    0 -0.10066711991E+02 -0.73441452183E+00  0.59687658274E+02  0.60535161430E+02  0.10566000000E+00 0.  1.
        994    1    1    2    0    0  0.16987898132E+01 -0.18499102463E+02  0.20523704072E+01  0.17221717366E+03  0.17120000000E+03 0.  0.
        998    1    1    2    0    0  0.83679221773E+01  0.19233516985E+02  0.14382599676E+04  0.14384476649E+04  0.10000000000E+02 0.  1.
</event>
<event>
 5    1  0.1068111E-008  0.3734525E+03  0.7957747E-01  0.3480173E+00
         13   -1    0    0    0    0  0.00000000000E+00  0.00000000000E+00  0.14999999963E+04  0.15000000000E+04  0.10566000000E+00 0. -1.
        994   -1    0    0    0    0 -0.00000000000E+00 -0.00000000000E+00  0.11368683772E-12  0.17120000000E+03  0.17120000000E+03 0.  0.
         13    1    1    2    0    0 -0.19458639590E+02  0.99426346746E+01  0.12862391450E+02  0.25356397946E+02  0.10566000000E+00 0. -1.
        994    1    1    2    0    0  0.26617273498E+02 -0.31576152091E+01  0.15322729306E+02  0.17396170790E+03  0.17120000000E+03 0.  0.
        998    1    1    2    0    0 -0.71586339086E+01 -0.67850194655E+01  0.14718148755E+04  0.14718818942E+04  0.10000000000E+02 0. -1.
</event>
<event>
 5    1  0.1068111E-008  0.3707344E+03  0.7957747E-01  0.3492523E+00
         13   -1    0    0    0    0  0.00000000000E+00  0.00000000000E+00  0.14999999963E+04  0.15000000000E+04  0.10566000000E+00 0.  1.
        994   -1    0    0    0    0 -0.00000000000E+00 -0.00000000000E+00  0.11368683772E-12  0.17120000000E+03  0.17120000000E+03 0.  0.
         13    1    1    2    0    0 -0.25088921682E+02  0.43461801385E+01  0.33286576403E+02  0.41908836845E+02  0.10566000000E+00 0.  1.
        994    1    1    2    0    0  0.76173756754E+01 -0.28119943001E+02  0.11818575373E+02  0.17406284592E+03  0.17120000000E+03 0.  0.
        998    1    1    2    0    0  0.17471546007E+02  0.23773762863E+02  0.14548948445E+04  0.14552283172E+04  0.10000000000E+02 0.  1.
</event>
<event>
 5    1  0.1068111E-008  0.3720636E+03  0.7957747E-01  0.3486461E+00
         13   -1    0    0    0    0  0.00000000000E+00  0.00000000000E+00  0.14999999963E+04  0.15000000000E+04  0.10566000000E+00 0.  1.
        994   -1    0    0    0    0 -0.00000000000E+00 -0.00000000000E+00  0.11368683772E-12  0.17120000000E+03  0.17120000000E+03 0.  0.
         13    1    1    2    0    0 -0.47707298393E+02 -0.48833181470E+02  0.25967353823E+03  0.26849771610E+03  0.10566000000E+00 0.  1.
        994    1    1    2    0    0  0.63324500409E+02  0.13258055442E+02  0.22704862240E+02  0.18441995325E+03  0.17120000000E+03 0.  0.
        998    1    1    2    0    0 -0.15617202016E+02  0.35575126028E+02  0.12176215958E+04  0.12182823307E+04  0.10000000000E+02 0.  1.
</event>
<event>
 5    1  0.1068111E-008  0.3852729E+03  0.7957747E-01  0.3428516E+00
         13   -1    0    0    0    0  0.00000000000E+00  0.00000000000E+00  0.14999999963E+04  0.15000000000E+04  0.10566000000E+00 0.  1.
        994   -1    0    0    0    0 -0.00000000000E+00 -0.00000000000E+00  0.11368683772E-12  0.17120000000E+03  0.17120000000E+03 0.  0.
         13    1    1    2    0    0  0.14279688386E+02  0.48002771686E+01  0.79110353310E+02  0.80532051545E+02  0.10566000000E+00 0.  1.
        994    1    1    2    0    0 -0.46977266726E+01 -0.51822225573E+00  0.15681279735E+01  0.17127240354E+03  0.17120000000E+03 0.  0.
        998    1    1    2    0    0 -0.95819617135E+01 -0.42820549128E+01  0.14193215150E+04  0.14193955449E+04  0.10000000000E+02 0.  1.
</event>
<event>
 5    1  0.1068111E-008  0.3777390E+03  0.7957747E-01  0.3461063E+00
         13   -1    0    0    0    0  0.00000000000E+00  0.00000000000E+00  0.14999999963E+04  0.15000000000E+04  0.10566000000E+00 0. -1.
        994   -1    0    0    0    0 -0.00000000000E+00 -0.00000000000E+00  0.11368683772E-12  0.17120000000E+03  0.17120000000E+03 0.  0.
         13    1    1    2    0    0 -0.58633750046E+01  0.11922926132E+02  0.14979901280E+02  0.20023584604E+02  0.10566000000E+00 0. -1.
        994    1    1    2    0    0 -0.58285209687E+01  0.46756726530E+01  0.54669375178E+01  0.17145017054E+03  0.17120000000E+03 0.  0.
        998    1    1    2    0    0  0.11691895973E+02 -0.16598598785E+02  0.14795531575E+04  0.14797262449E+04  0.10000000000E+02 0. -1.
</event>
<event>
 5    1  0.1068111E-008  0.3689533E+03  0.7957747E-01  0.3500715E+00
         13   -1    0    0    0    0  0.00000000000E+00  0.00000000000E+00  0.14999999963E+04  0.15000000000E+04  0.10566000000E+00 0. -1.
        994   -1    0    0    0    0 -0.00000000000E+00 -0.00000000000E+00  0.11368683772E-12  0.17120000000E+03  0.17120000000E+03 0.  0.
         13    1    1    2    0    0  0.20864981866E+02 -0.98080507680E+01  0.22622573658E+02  0.32300732671E+02  0.10566000000E+00 0. -1.
        994    1    1    2    0    0 -0.19059873446E+02  0.11785037083E+02  0.11561756066E+02  0.17304704585E+03  0.17120000000E+03 0.  0.
        998    1    1    2    0    0 -0.18051084206E+01 -0.19769863148E+01  0.14658156666E+04  0.14658522215E+04  0.10000000000E+02 0. -1.
</event>
<event>
 5    1  0.1068111E-008  0.3695654E+03  0.7957747E-01  0.3497891E+00
         13   -1    0    0    0    0  0.00000000000E+00  0.00000000000E+00  0.14999999963E+04  0.15000000000E+04  0.10566000000E+00 0. -1.
        994   -1    0    0    0    0 -0.00000000000E+00 -0.00000000000E+00  0.11368683772E-12  0.17120000000E+03  0.17120000000E+03 0.  0.
         13    1    1    2    0    0 -0.15821808088E+02 -0.23935405102E+02  0.34898223139E+02  0.45178870846E+02  0.10566000000E+00 0. -1.
        994    1    1    2    0    0  0.16295842095E+02  0.25811246971E+01  0.11659947287E+02  0.17238796665E+03  0.17120000000E+03 0.  0.
        998    1    1    2    0    0 -0.47403400710E+00  0.21354280405E+02  0.14534418259E+04  0.14536331625E+04  0.10000000000E+02 0. -1.
</event>
<event>
 5    1  0.1068111E-008  0.3805529E+03  0.7957747E-01  0.3448754E+00
         13   -1    0    0    0    0  0.00000000000E+00  0.00000000000E+00  0.14999999963E+04  0.15000000000E+04  0.10566000000E+00 0. -1.
        994   -1    0    0    0    0 -0.00000000000E+00 -0.00000000000E+00  0.11368683772E-12  0.17120000000E+03  0.17120000000E+03 0.  0.
         13    1    1    2    0    0  0.20296935301E+02  0.21230449530E+01  0.54472842571E+02  0.58170221284E+02  0.10566000000E+00 0. -1.
        994    1    1    2    0    0 -0.46525063118E+01 -0.12572332075E+00  0.39265841102E+01  0.17130825924E+03  0.17120000000E+03 0.  0.
        998    1    1    2    0    0 -0.15644428990E+02 -0.19973216322E+01  0.14416005696E+04  0.14417215195E+04  0.10000000000E+02 0. -1.
</event>
<event>
 5    1  0.1068111E-008  0.3845354E+03  0.7957747E-01  0.3431645E+00
         13   -1    0    0    0    0  0.00000000000E+00  0.00000000000E+00  0.14999999963E+04  0.15000000000E+04  0.10566000000E+00 0.  1.
        994   -1    0    0    0    0 -0.00000000000E+00 -0.00000000000E+00  0.11368683772E-12  0.17120000000E+03  0.17120000000E+03 0.  0.
         13    1    1    2    0    0 -0.57098242099E+01  0.15945849109E+02  0.78630383787E+02  0.80433951879E+02  0.10566000000E+00 0.  1.
        994    1    1    2    0    0  0.12385834585E+01 -0.75561517683E+01  0.20540853798E+01  0.17138345540E+03  0.17120000000E+03 0.  0.
        998    1    1    2    0    0  0.44712407513E+01 -0.83896973410E+01  0.14193155271E+04  0.14193825927E+04  0.10000000000E+02 0.  1.
</event>
<event>
 5    1  0.1068111E-008  0.3758031E+03  0.7957747E-01  0.3469639E+00
         13   -1    0    0    0    0  0.00000000000E+00  0.00000000000E+00  0.14999999963E+04  0.15000000000E+04  0.10566000000E+00 0.  1.
        994   -1    0    0    0    0 -0.00000000000E+00 -0.00000000000E+00  0.11368683772E-12  0.17120000000E+03  0.17120000000E+03 0.  0.
         13    1    1    2    0    0  0.25987505087E+02 -0.13649288771E+02  0.65079509261E+02  0.71393327379E+02  0.10566000000E+00 0.  1.
        994    1    1    2    0    0 -0.20037674002E+02  0.14134404783E+02  0.83079717795E+01  0.17314662045E+03  0.17120000000E+03 0.  0.
        998    1    1    2    0    0 -0.59498310853E+01 -0.48511601205E+00  0.14266125152E+04  0.14266600522E+04  0.10000000000E+02 0.  1.
</event>
<event>
 5    1  0.1068111E-008  0.3851550E+03  0.7957747E-01  0.3429015E+00
         13   -1    0    0    0    0  0.00000000000E+00  0.00000000000E+00  0.14999999963E+04  0.15000000000E+04  0.10566000000E+00 0.  1.
        994   -1    0    0    0    0 -0.00000000000E+00 -0.00000000000E+00  0.11368683772E-12  0.17120000000E+03  0.17120000000E+03 0.  0.
         13    1    1    2    0    0  0.14114050492E+02  0.72489864701E+01  0.77559522675E+02  0.79165933000E+02  0.10566000000E+00 0.  1.
        994    1    1    2    0    0 -0.15096484654E+02 -0.75193176331E+01  0.24887153417E+01  0.17204673112E+03  0.17120000000E+03 0.  0.
        998    1    1    2    0    0  0.98243416246E+00  0.27033116303E+00  0.14199517583E+04  0.14199873359E+04  0.10000000000E+02 0.  1.
</event>
<event>
 5    1  0.1068111E-008  0.3785889E+03  0.7957747E-01  0.3457326E+00
         13   -1    0    0    0    0  0.00000000000E+00  0.00000000000E+00  0.14999999963E+04  0.15000000000E+04  0.10566000000E+00 0.  1.
        994   -1    0    0    0    0 -0.00000000000E+00 -0.00000000000E+00  0.11368683772E-12  0.17120000000E+03  0.17120000000E+03 0.  0.
         13    1    1    2    0    0 -0.85238876636E+01 -0.83493619254E+01  0.12466338066E+02  0.17256571336E+02  0.10566000000E+00 0.  1.
        994    1    1    2    0    0  0.68104224207E+01  0.94718347397E+01  0.53043621420E+01  0.17167898463E+03  0.17120000000E+03 0.  0.
        998    1    1    2    0    0  0.17134652429E+01 -0.11224728143E+01  0.14822292961E+04  0.14822644440E+04  0.10000000000E+02 0.  1.
</event>
<event>
 5    1  0.1142580E-008  0.3864010E+03  0.7957747E-01  0.3423752E+00
         13   -1    0    0    0    0  0.00000000000E+00  0.00000000000E+00  0.14999999963E+04  0.15000000000E+04  0.10566000000E+00 0.  1.
        994   -1    0    0    0    0 -0.00000000000E+00 -0.00000000000E+00  0.11368683772E-12  0.17120000000E+03  0.17120000000E+03 0.  0.
         13    1    1    2    0    0  0.66134549149E+01  0.78570280954E+01  0.56284274768E+02  0.57213647206E+02  0.10566000000E+00 0.  1.
        994    1    1    2    0    0 -0.10337633088E+02 -0.38518206766E+01  0.13346665681E+01  0.17156026497E+03  0.17120000000E+03 0.  0.
        998    1    1    2    0    0  0.37241781734E+01 -0.40052074188E+01  0.14423810549E+04  0.14424260878E+04  0.10000000000E+02 0.  1.
</event>
<event>
 5    1  0.1452048E-008  0.3856720E+03  0.7957747E-01  0.3426827E+00
         13   -1    0    0    0    0  0.00000000000E+00  0.00000000000E+00  0.14999999963E+04  0.15000000000E+04  0.10566000000E+00 0. -1.
        994   -1    0    0    0    0 -0.00000000000E+00 -0.00000000000E+00  0.11368683772E-12  0.17120000000E+03  0.17120000000E+03 0.  0.
         13    1    1    2    0    0  0.33718930459E+01  0.13414676919E+02  0.70825769040E+02  0.72163868686E+02  0.10566000000E+00 0. -1.
        994    1    1    2    0    0 -0.28114741634E+01 -0.15429753596E+02  0.21044483075E+01  0.17192978330E+03  0.17120000000E+03 0.  0.
        998    1    1    2    0    0 -0.56041888245E+00  0.20150766765E+01  0.14270697789E+04  0.14271063480E+04  0.10000000000E+02 0. -1.
</event>
<event>
 5    1  0.1068111E-008  0.3766869E+03  0.7957747E-01  0.3465713E+00
         13   -1    0    0    0    0  0.00000000000E+00  0.00000000000E+00  0.14999999963E+04  0.15000000000E+04  0.10566000000E+00 0.  1.
        994   -1    0    0    0    0 -0.00000000000E+00 -0.00000000000E+00  0.11368683772E-12  0.17120000000E+03  0.17120000000E+03 0.  0.
         13    1    1    2    0    0  0.20244654493E+02  0.32441305206E+01  0.33588389221E+02  0.39351765816E+02  0.10566000000E+00 0.  1.
        994    1    1    2    0    0 -0.16416598778E+02  0.15368620268E+01  0.67344407183E+01  0.17212396507E+03  0.17120000000E+03 0.  0.
        998    1    1    2    0    0 -0.38280557152E+01 -0.47809925474E+01  0.14596771663E+04  0.14597242691E+04  0.10000000000E+02 0.  1.
</event>
<event>
 5    1  0.1068111E-008  0.3829266E+03  0.7957747E-01  0.3438513E+00
         13   -1    0    0    0    0  0.00000000000E+00  0.00000000000E+00  0.14999999963E+04  0.15000000000E+04  0.10566000000E+00 0. -1.
        994   -1    0    0    0    0 -0.00000000000E+00 -0.00000000000E+00  0.11368683772E-12  0.17120000000E+03  0.17120000000E+03 0.  0.
         13    1    1    2    0    0 -0.17983272695E+02  0.22458233617E+02  0.13704539747E+03  0.14003293357E+03  0.10566000000E+00 0. -1.
        994    1    1    2    0    0  0.24755131079E+02 -0.23712041845E+02  0.65633563633E+01  0.17472147862E+03  0.17120000000E+03 0.  0.
        998    1    1    2    0    0 -0.67718583841E+01  0.12538082283E+01  0.13563912424E+04  0.13564455878E+04  0.10000000000E+02 0. -1.
</event>
<event>
 5    1  0.1068111E-008  0.3858607E+03  0.7957747E-01  0.3426030E+00
         13   -1    0    0    0    0  0.00000000000E+00  0.00000000000E+00  0.14999999963E+04  0.15000000000E+04  0.10566000000E+00 0. -1.
        994   -1    0    0    0    0 -0.00000000000E+00 -0.00000000000E+00  0.11368683772E-12  0.17120000000E+03  0.17120000000E+03 0.  0.
         13    1    1    2    0    0  0.43650452890E+01  0.10755512122E+02  0.57934761355E+02  0.59086228503E+02  0.10566000000E+00 0. -1.
        994    1    1    2    0    0  0.51438783482E+01 -0.67157623788E+01  0.14381183123E+01  0.17141490347E+03  0.17120000000E+03 0.  0.
        998    1    1    2    0    0 -0.95089236372E+01 -0.40397497436E+01  0.14406271166E+04  0.14406988680E+04  0.10000000000E+02 0. -1.
</event>
<event>
 5    1  0.1068111E-008  0.3839256E+03  0.7957747E-01  0.3434241E+00
         13   -1    0    0    0    0  0.00000000000E+00  0.00000000000E+00  0.14999999963E+04  0.15000000000E+04  0.10566000000E+00 0. -1.
        994   -1    0    0    0    0 -0.00000000000E+00 -0.00000000000E+00  0.11368683772E-12  0.17120000000E+03  0.17120000000E+03 0.  0.
         13    1    1    2    0    0 -0.23317504482E+02 -0.45102561269E+01  0.13452335097E+03  0.13660377574E+03  0.10566000000E+00 0. -1.
        994    1    1    2    0    0  0.12969624787E+02 -0.11988444359E+02  0.31945788500E+01  0.17213825635E+03  0.17120000000E+03 0.  0.
        998    1    1    2    0    0  0.10347879695E+02  0.16498700486E+02  0.13622820665E+04  0.13624579679E+04  0.10000000000E+02 0. -1.
</event>
<event>
 5    1  0.1068111E-008  0.3800729E+03  0.7957747E-01  0.3450841E+00
         13   -1    0    0    0    0  0.00000000000E+00  0.00000000000E+00  0.14999999963E+04  0.15000000000E+04  0.10566000000E+00 0.  1.
        994   -1    0    0    0    0 -0.00000000000E+00 -0.00000000000E+00  0.11368683772E-12  0.17120000000E+03  0.17120000000E+03 0.  0.
         13    1    1    2    0    0 -0.37229052889E+01  0.13103861705E+02  0.20673920136E+02  0.24758702575E+02  0.10566000000E+00 0.  1.
        994    1    1    2    0    0  0.58880552340E+01 -0.13351441765E+02  0.48083141908E+01  0.17188801609E+03  0.17120000000E+03 0.  0.
        998    1    1    2    0    0 -0.21651499451E+01  0.24758005989E+00  0.14745177620E+04  0.14745532813E+04  0.10000000000E+02 0.  1.
</event>
<event>
 5    1  0.1068111E-008  0.3863267E+03  0.7957747E-01  0.3424065E+00
         13   -1    0    0    0    0  0.00000000000E+00  0.00000000000E+00  0.14999999963E+04  0.15000000000E+04  0.10566000000E+00 0. -1.
        994   -1    0    0    0    0 -0.00000000000E+00 -0.00000000000E+00  0.11368683772E-12  0.17120000000E+03  0.17120000000E+03 0.  0.
         13    1    1    2    0    0 -0.69960240870E+01  0.78390098042E+01  0.56176823722E+02  0.57151037744E+02  0.10566000000E+00 0. -1.
        994    1    1    2    0    0  0.21202578065E+02  0.38031492124E+01  0.24938028671E+01  0.17256787741E+03  0.17120000000E+03 0.  0.
        998    1    1    2    0    0 -0.14206553978E+02 -0.11642159017E+02  0.14413293697E+04  0.14414810848E+04  0.10000000000E+02 0. -1.
</event>
<event>
 5    1  0.1068111E-008  0.3692612E+03  0.7957747E-01  0.3499293E+00
         13   -1    0    0    0    0  0.00000000000E+00  0.00000000000E+00  0.14999999963E+04  0.15000000000E+04  0.10566000000E+00 0. -1.
        994   -1    0    0    0    0 -0.00000000000E+00 -0.00000000000E+00  0.11368683772E-12  0.17120000000E+03  0.17120000000E+03 0.  0.
         13    1    1    2    0    0  0.17128575916E+02  0.62919775162E+02  0.23150800646E+03  0.24051664067E+03  0.10566000000E+00 0. -1.
        994    1    1    2    0    0  0.46102752663E+01 -0.29084493042E+02  0.12667623084E+02  0.17417540311E+03  0.17120000000E+03 0.  0.
        998    1    1    2    0    0 -0.21738851182E+02 -0.33835282121E+02  0.12558243667E+04  0.12565079562E+04  0.10000000000E+02 0. -1.
</event>
<event>
 5    1  0.1068111E-008  0.3766111E+03  0.7957747E-01  0.3466048E+00
         13   -1    0    0    0    0  0.00000000000E+00  0.00000000000E+00  0.14999999963E+04  0.15000000000E+04  0.10566000000E+00 0.  1.
        994   -1    0    0    0    0 -0.00000000000E+00 -0.00000000000E+00  0.11368683772E-12  0.17120000000E+03  0.17120000000E+03 0.  0.
         13    1    1    2    0    0 -0.51750735177E+02  0.18636450943E+01  0.25551983933E+03  0.26071442465E+03  0.10566000000E+00 0.  1.
        994    1    1    2    0    0  0.14999218452E+02  0.18996145867E+02  0.78368140307E+01  0.17307999817E+03  0.17120000000E+03 0.  0.
        998    1    1    2    0    0  0.36751516725E+02 -0.20859790961E+02  0.12366433429E+04  0.12374055772E+04  0.10000000000E+02 0.  1.
</event>
<event>
 5    1  0.1068111E-008  0.3735475E+03  0.7957747E-01  0.3479744E+00
         13   -1    0    0    0    0  0.00000000000E+00  0.00000000000E+00  0.14999999963E+04  0.15000000000E+04  0.10566000000E+00 0. -1.
        994   -1    0    0    0    0 -0.00000000000E+00 -0.00000000000E+00  0.11368683772E-12  0.17120000000E+03  0.17120000000E+03 0.  0.
         13    1    1    2    0    0 -0.20840455743E+02 -0.96014696869E+02  0.43846589904E+03  0.44933896158E+03  0.10566000000E+00 0. -1.
        994    1    1    2    0    0  0.15450741393E+01  0.10382546273E+03  0.45203242368E+02  0.20526784231E+03  0.17120000000E+03 0.  0.
        998    1    1    2    0    0  0.19295381604E+02 -0.78107658612E+01  0.10163308549E+04  0.10165931961E+04  0.10000000000E+02 0. -1.
</event>
<event>
 5    1  0.1068111E-008  0.3860167E+03  0.7957747E-01  0.3425372E+00
         13   -1    0    0    0    0  0.00000000000E+00  0.00000000000E+00  0.14999999963E+04  0.15000000000E+04  0.10566000000E+00 0.  1.
        994   -1    0    0    0    0 -0.00000000000E+00 -0.00000000000E+00  0.11368683772E-12  0.17120000000E+03  0.17120000000E+03 0.  0.
         13    1    1    2    0    0 -0.57426173815E+01 -0.87590983093E+01  0.52903996994E+02  0.53930914322E+02  0.10566000000E+00 0.  1.
        994    1    1    2    0    0 -0.92310606403E+01  0.23992001287E+01  0.14244192594E+01  0.17147139007E+03  0.17120000000E+03 0.  0.
        998    1    1    2    0    0  0.14973678022E+02  0.63598981806E+01  0.14456715800E+04  0.14457976956E+04  0.10000000000E+02 0.  1.
</event>
<event>
 5    1  0.1068111E-008  0.3851701E+03  0.7957747E-01  0.3428951E+00
         13   -1    0    0    0    0  0.00000000000E+00  0.00000000000E+00  0.14999999963E+04  0.15000000000E+04  0.10566000000E+00 0. -1.
        994   -1    0    0    0    0 -0.00000000000E+00 -0.00000000000E+00  0.11368683772E-12  0.17120000000E+03  0.17120000000E+03 0.  0.
         13    1    1    2    0    0  0.10366347187E+02  0.73009189899E+01  0.49220151823E+02  0.50827149061E+02  0.10566000000E+00 0. -1.
        994    1    1    2    0    0 -0.20321712895E+02 -0.32450688364E+01  0.29389052202E+01  0.17245747201E+03  0.17120000000E+03 0.  0.
        998    1    1    2    0    0  0.99553657085E+01 -0.40558501535E+01  0.14478409392E+04  0.14479153789E+04  0.10000000000E+02 0. -1.
</event>
<event>
 5    1  0.1068111E-008  0.3689668E+03  0.7957747E-01  0.3500653E+00
         13   -1    0    0    0    0  0.00000000000E+00  0.00000000000E+00  0.14999999963E+04  0.15000000000E+04  0.10566000000E+00 0. -1.
        994   -1    0    0    0    0 -0.00000000000E+00 -0.00000000000E+00  0.11368683772E-12  0.17120000000E+03  0.17120000000E+03 0.  0.
         13    1    1    2    0    0  0.32203228066E+02  0.29086869014E+01  0.50504509564E+02  0.59968533480E+02  0.10566000000E+00 0. -1.
        994    1    1    2    0    0 -0.16157310327E+02  0.16397134900E+02  0.11651140297E+02  0.17313322552E+03  0.17120000000E+03 0.  0.
        998    1    1    2    0    0 -0.16045917740E+02 -0.19305821802E+02  0.14378443464E+04  0.14380982410E+04  0.10000000000E+02 0. -1.
</event>
<event>
 5    1  0.1068111E-008  0.3820625E+03  0.7957747E-01  0.3442227E+00
         13   -1    0    0    0    0  0.00000000000E+00  0.00000000000E+00  0.14999999963E+04  0.15000000000E+04  0.10566000000E+00 0.  1.
        994   -1    0    0    0    0 -0.00000000000E+00 -0.00000000000E+00  0.11368683772E-12  0.17120000000E+03  0.17120000000E+03 0.  0.
         13    1    1    2    0    0  0.14380722541E+02 -0.18886795727E+02  0.87764669735E+02  0.90918450556E+02  0.10566000000E+00 0.  1.
        994    1    1    2    0    0 -0.22751895393E+02  0.72858450977E+01  0.49929355413E+01  0.17293091594E+03  0.17120000000E+03 0.  0.
        998    1    1    2    0    0  0.83711728520E+01  0.11600950629E+02  0.14072423910E+04  0.14073506335E+04  0.10000000000E+02 0.  1.
</event>
<event>
 5    1  0.1068111E-008  0.3695038E+03  0.7957747E-01  0.3498174E+00
         13   -1    0    0    0    0  0.00000000000E+00  0.00000000000E+00  0.14999999963E+04  0.15000000000E+04  0.10566000000E+00 0. -1.
        994   -1    0    0    0    0 -0.00000000000E+00 -0.00000000000E+00  0.11368683772E-12  0.17120000000E+03  0.17120000000E+03 0.  0.
         13    1    1    2    0    0 -0.40663349409E+02 -0.53669267682E+02  0.19323255754E+03  0.20462827453E+03  0.10566000000E+00 0. -1.
        994    1    1    2    0    0  0.37036298846E+02  0.42486086845E+02  0.21846887438E+02  0.18155847956E+03  0.17120000000E+03 0.  0.
        998    1    1    2    0    0  0.36270505628E+01  0.11183180837E+02  0.12849205513E+04  0.12850132459E+04  0.10000000000E+02 0. -1.
</event>
<event>
 5    1  0.1068111E-008  0.3801086E+03  0.7957747E-01  0.3450686E+00
         13   -1    0    0    0    0  0.00000000000E+00  0.00000000000E+00  0.14999999963E+04  0.15000000000E+04  0.10566000000E+00 0.  1.
        994   -1    0    0    0    0 -0.00000000000E+00 -0.00000000000E+00  0.11368683772E-12  0.17120000000E+03  0.17120000000E+03 0.  0.
         13    1    1    2    0    0 -0.15884633215E+01 -0.11121214000E+02  0.13742884762E+02  0.17750567940E+02  0.10566000000E+00 0.  1.
        994    1    1    2    0    0  0.45898704044E+01  0.65277310697E+01  0.42911638969E+01  0.17143958782E+03  0.17120000000E+03 0.  0.
        998    1    1    2    0    0 -0.30014070829E+01  0.45934829307E+01  0.14819659476E+04  0.14820098442E+04  0.10000000000E+02 0.  1.
</event>
<event>
 5    1  0.1068111E-008  0.3798230E+03  0.7957747E-01  0.3451930E+00
         13   -1    0    0    0    0  0.00000000000E+00  0.00000000000E+00  0.14999999963E+04  0.15000000000E+04  0.10566000000E+00 0.  1.
        994   -1    0    0    0    0 -0.00000000000E+00 -0.00000000000E+00  0.11368683772E-12  0.17120000000E+03  0.17120000000E+03 0.  0.
         13    1    1    2    0    0  0.26930021975E+01  0.15158429759E+02  0.26252757225E+02  0.30434333894E+02  0.10566000000E+00 0.  1.
        994    1    1    2    0    0 -0.19496508945E+01 -0.11814616484E+02  0.47022672657E+01  0.17168266546E+03  0.17120000000E+03 0.  0.
        998    1    1    2    0    0 -0.74335130295E+00 -0.33438132756E+01  0.14690449718E+04  0.14690830006E+04  0.10000000000E+02 0.  1.
</event>
<event>
 5    1  0.1068111E-008  0.3776722E+03  0.7957747E-01  0.3461357E+00
         13   -1    0    0    0    0  0.00000000000E+00  0.00000000000E+00  0.14999999963E+04  0.15000000000E+04  0.10566000000E+00 0. -1.
        994   -1    0    0    0    0 -0.00000000000E+00 -0.00000000000E+00  0.11368683772E-12  0.17120000000E+03  0.17120000000E+03 0.  0.
         13    1    1    2    0    0  0.47409391160E+02  0.86427030406E+02  0.49675007925E+03  0.50643650575E+03  0.10566000000E+00 0. -1.
        994    1    1    2    0    0 -0.49018822740E+02 -0.10346040666E+03  0.50822998364E+02  0.21213042661E+03  0.17120000000E+03 0.  0.
        998    1    1    2    0    0  0.16094315795E+01  0.17033376255E+02  0.95242691867E+03  0.95263306765E+03  0.10000000000E+02 0. -1.
</event>
<event>
 5    1  0.1068111E-008  0.3716729E+03  0.7957747E-01  0.3488238E+00
         13   -1    0    0    0    0  0.00000000000E+00  0.00000000000E+00  0.14999999963E+04  0.15000000000E+04  0.10566000000E+00 0.  1.
        994   -1    0    0    0    0 -0.00000000000E+00 -0.00000000000E+00  0.11368683772E-12  0.17120000000E+03  0.17120000000E+03 0.  0.
         13    1    1    2    0    0  0.15843288251E+01  0.35507316551E+02  0.47255912251E+02  0.59130466201E+02  0.10566000000E+00 0.  1.
        994    1    1    2    0    0 -0.23285395060E+02 -0.35626552570E+02  0.18223464304E+02  0.17734992394E+03  0.17120000000E+03 0.  0.
        998    1    1    2    0    0  0.21701066235E+02  0.11923601963E+00  0.14345206197E+04  0.14347196099E+04  0.10000000000E+02 0.  1.
</event>
<event>
 5    1  0.1068111E-008  0.3833878E+03  0.7957747E-01  0.3436539E+00
         13   -1    0    0    0    0  0.00000000000E+00  0.00000000000E+00  0.14999999963E+04  0.15000000000E+04  0.10566000000E+00 0. -1.
        994   -1    0    0    0    0 -0.00000000000E+00 -0.00000000000E+00  0.11368683772E-12  0.17120000000E+03  0.17120000000E+03 0.  0.
         13    1    1    2    0    0 -0.27371286167E+02 -0.14730586316E+00  0.13917406079E+03  0.14184018953E+03  0.10566000000E+00 0. -1.
        994    1    1    2    0    0  0.29172653153E+02  0.10649742019E+01  0.52550073448E+01  0.17375049054E+03  0.17120000000E+03 0.  0.
        998    1    1    2    0    0 -0.18013669862E+01 -0.91766833873E+00  0.13555709281E+04  0.13556093199E+04  0.10000000000E+02 0. -1.
</event>
<event>
 5    1  0.1068111E-008  0.3732429E+03  0.7957747E-01  0.3481119E+00
         13   -1    0    0    0    0  0.00000000000E+00  0.00000000000E+00  0.14999999963E+04  0.15000000000E+04  0.10566000000E+00 0.  1.
        994   -1    0    0    0    0 -0.00000000000E+00 -0.00000000000E+00  0.11368683772E-12  0.17120000000E+03  0.17120000000E+03 0.  0.
         13    1    1    2    0    0  0.87943159288E+02  0.49980404627E+02  0.29314567924E+03  0.31010714364E+03  0.10566000000E+00 0.  1.
        994    1    1    2    0    0 -0.11064668285E+03 -0.37069760410E+02  0.62516079544E+02  0.21641292883E+03  0.17120000000E+03 0.  0.
        998    1    1    2    0    0  0.22703523560E+02 -0.12910644217E+02  0.11443382375E+04  0.11446799275E+04  0.10000000000E+02 0.  1.
</event>
<event>
 5    1  0.1068111E-008  0.3733964E+03  0.7957747E-01  0.3480426E+00
         13   -1    0    0    0    0  0.00000000000E+00  0.00000000000E+00  0.14999999963E+04  0.15000000000E+04  0.10566000000E+00 0.  1.
        994   -1    0    0    0    0 -0.00000000000E+00 -0.00000000000E+00  0.11368683772E-12  0.17120000000E+03  0.17120000000E+03 0.  0.
         13    1    1    2    0    0 -0.34611513319E+02  0.28026509074E+02  0.69238582384E+02  0.82325175491E+02  0.10566000000E+00 0.  1.
        994    1    1    2    0    0  0.37563582432E+02 -0.30580658082E+02  0.21093836365E+02  0.17916637326E+03  0.17120000000E+03 0.  0.
        998    1    1    2    0    0 -0.29520691128E+01  0.25541490088E+01  0.14096675775E+04  0.14097084513E+04  0.10000000000E+02 0.  1.
</event>
<event>
 5    1  0.1068111E-008  0.3795795E+03  0.7957747E-01  0.3452991E+00
         13   -1    0    0    0    0  0.00000000000E+00  0.00000000000E+00  0.14999999963E+04  0.15000000000E+04  0.10566000000E+00 0.  1.
        994   -1    0    0    0    0 -0.00000000000E+00 -0.00000000000E+00  0.11368683772E-12  0.17120000000E+03  0.17120000000E+03 0.  0.
         13    1    1    2    0    0 -0.15660425719E+03  0.10654189816E+03  0.11145756519E+04  0.11305551576E+04  0.10566000000E+00 0.  1.
        994    1    1    2    0    0  0.16192321194E+03 -0.87567737423E+02  0.12768084886E+03  0.28195580215E+03  0.17120000000E+03 0.  0.
        998    1    1    2    0    0 -0.53189547480E+01 -0.18974160740E+02  0.25774349551E+03  0.25868904023E+03  0.10000000000E+02 0. -1.
</event>
<event>
 5    1  0.1068111E-008  0.3847300E+03  0.7957747E-01  0.3430818E+00
         13   -1    0    0    0    0  0.00000000000E+00  0.00000000000E+00  0.14999999963E+04  0.15000000000E+04  0.10566000000E+00 0. -1.
        994   -1    0    0    0    0 -0.00000000000E+00 -0.00000000000E+00  0.11368683772E-12  0.17120000000E+03  0.17120000000E+03 0.  0.
         13    1    1    2    0    0 -0.48656837808E-01  0.11847681217E+02  0.45610616692E+02  0.47124403834E+02  0.10566000000E+00 0. -1.
        994    1    1    2    0    0 -0.48477031867E+01  0.19073273482E+02  0.30400352535E+01  0.17235420448E+03  0.17120000000E+03 0.  0.
        998    1    1    2    0    0  0.48963600245E+01 -0.30920954700E+02  0.14513493443E+04  0.14517213917E+04  0.10000000000E+02 0. -1.
</event>
<event>
 5    1  0.1068111E-008  0.3850017E+03  0.7957747E-01  0.3429665E+00
         13   -1    0    0    0    0  0.00000000000E+00  0.00000000000E+00  0.14999999963E+04  0.15000000000E+04  0.10566000000E+00 0.  1.
        994   -1    0    0    0    0 -0.00000000000E+00 -0.00000000000E+00  0.11368683772E-12  0.17120000000E+03  0.17120000000E+03 0.  0.
         13    1    1    2    0    0 -0.10672198718E+00 -0.14652149283E+02  0.66218168380E+02  0.67820010733E+02  0.10566000000E+00 0.  1.
        994    1    1    2    0    0 -0.20270509066E+01  0.89280859017E+01  0.19049970669E+01  0.17145520892E+03  0.17120000000E+03 0.  0.
        998    1    1    2    0    0  0.21337728938E+01  0.57240633812E+01  0.14318768308E+04  0.14319247803E+04  0.10000000000E+02 0.  1.
</event>
<event>
 5    1  0.1829632E-008  0.3859766E+03  0.7957747E-01  0.3425541E+00
         13   -1    0    0    0    0  0.00000000000E+00  0.00000000000E+00  0.14999999963E+04  0.15000000000E+04  0.10566000000E+00 0.  1.
        994   -1    0    0    0    0 -0.00000000000E+00 -0.00000000000E+00  0.11368683772E-12  0.17120000000E+03  0.17120000000E+03 0.  0.
         13    1    1    2    0    0 -0.32167076214E+01 -0.10067875039E+02  0.47729726491E+02  0.48886064176E+02  0.10566000000E+00 0.  1.
        994    1    1    2    0    0  0.31997050385E+01  0.11711143123E+02  0.16293847559E+01  0.17163765286E+03  0.17120000000E+03 0.  0.
        998    1    1    2    0    0  0.17002582974E-01 -0.16432680840E+01  0.14506408850E+04  0.14506762830E+04  0.10000000000E+02 0.  1.
</event>
<event>
 5    1  0.1068111E-008  0.3778045E+03  0.7957747E-01  0.3460774E+00
         13   -1    0    0    0    0  0.00000000000E+00  0.00000000000E+00  0.14999999963E+04  0.15000000000E+04  0.10566000000E+00 0. -1.
        994   -1    0    0    0    0 -0.00000000000E+00 -0.00000000000E+00  0.11368683772E-12  0.17120000000E+03  0.17120000000E+03 0.  0.
         13    1    1    2    0    0  0.11418680047E+03 -0.18134266323E+03  0.10734110785E+04  0.10945935965E+04  0.10566000000E+00 0. -1.
        994    1    1    2    0    0 -0.10827532575E+03  0.17525250212E+03  0.16480690706E+03  0.31449601314E+03  0.17120000000E+03 0.  0.
        998    1    1    2    0    0 -0.59114747258E+01  0.60901611122E+01  0.26178201074E+03  0.26211039038E+03  0.10000000000E+02 0.  0.
</event>
<event>
 5    1  0.1068111E-008  0.3837145E+03  0.7957747E-01  0.3435143E+00
         13   -1    0    0    0    0  0.00000000000E+00  0.00000000000E+00  0.14999999963E+04  0.15000000000E+04  0.10566000000E+00 0.  1.
        994   -1    0    0    0    0 -0.00000000000E+00 -0.00000000000E+00  0.11368683772E-12  0.17120000000E+03  0.17120000000E+03 0.  0.
         13    1    1    2    0    0  0.66416054286E+02  0.54571924987E+02  0.44995175435E+03  0.45808927042E+03  0.10566000000E+00 0.  1.
        994    1    1    2    0    0 -0.11339763641E+03 -0.99555191398E+02  0.81495100655E+02  0.24232447567E+03  0.17120000000E+03 0.  0.
        998    1    1    2    0    0  0.46981582127E+02  0.44983266411E+02  0.96855314127E+03  0.97078625391E+03  0.10000000000E+02 0.  1.
</event>
<event>
 5    1  0.1068111E-008  0.3835862E+03  0.7957747E-01  0.3435690E+00
         13   -1    0    0    0    0  0.00000000000E+00  0.00000000000E+00  0.14999999963E+04  0.15000000000E+04  0.10566000000E+00 0. -1.
        994   -1    0    0    0    0 -0.00000000000E+00 -0.00000000000E+00  0.11368683772E-12  0.17120000000E+03  0.17120000000E+03 0.  0.
         13    1    1    2    0    0 -0.19434236828E+02 -0.12137867848E+02  0.97987435466E+02  0.10063084055E+03  0.10566000000E+00 0. -1.
        994    1    1    2    0    0  0.24432797782E+02  0.26937998151E+02  0.67156346232E+01  0.17514895689E+03  0.17120000000E+03 0.  0.
        998    1    1    2    0    0 -0.49985609536E+01 -0.14800130303E+02  0.13952969262E+04  0.13954202026E+04  0.10000000000E+02 0. -1.
</event>
<event>
 5    1  0.1068111E-008  0.3840691E+03  0.7957747E-01  0.3433630E+00
         13   -1    0    0    0    0  0.00000000000E+00  0.00000000000E+00  0.14999999963E+04  0.15000000000E+04  0.10566000000E+00 0. -1.
        994   -1    0    0    0    0 -0.00000000000E+00 -0.00000000000E+00  0.11368683772E-12  0.17120000000E+03  0.17120000000E+03 0.  0.
         13    1    1    2    0    0  0.22056181304E+02  0.13640260448E+02  0.13252939881E+03  0.13504289894E+03  0.10566000000E+00 0. -1.
        994    1    1    2    0    0 -0.37274068158E+02 -0.15924230069E+02  0.75313236182E+01  0.17609400358E+03  0.17120000000E+03 0.  0.
        998    1    1    2    0    0  0.15217886854E+02  0.22839696208E+01  0.13599392738E+04  0.13600630975E+04  0.10000000000E+02 0. -1.
</event>
<event>
 5    1  0.1068111E-008  0.3792794E+03  0.7957747E-01  0.3454302E+00
         13   -1    0    0    0    0  0.00000000000E+00  0.00000000000E+00  0.14999999963E+04  0.15000000000E+04  0.10566000000E+00 0. -1.
        994   -1    0    0    0    0 -0.00000000000E+00 -0.00000000000E+00  0.11368683772E-12  0.17120000000E+03  0.17120000000E+03 0.  0.
         13    1    1    2    0    0  0.28900101418E+02 -0.55074507410E+02  0.36213597633E+03  0.36743828563E+03  0.10566000000E+00 0. -1.
        994    1    1    2    0    0 -0.18711950255E+02  0.49532369155E+02  0.13949867391E+02  0.17974323764E+03  0.17120000000E+03 0.  0.
        998    1    1    2    0    0 -0.10188151164E+02  0.55421382551E+01  0.11239141526E+04  0.11240184767E+04  0.10000000000E+02 0.  1.
</event>
<event>
 5    1  0.1068111E-008  0.3813031E+03  0.7957747E-01  0.3445504E+00
         13   -1    0    0    0    0  0.00000000000E+00  0.00000000000E+00  0.14999999963E+04  0.15000000000E+04  0.10566000000E+00 0. -1.
        994   -1    0    0    0    0 -0.00000000000E+00 -0.00000000000E+00  0.11368683772E-12  0.17120000000E+03  0.17120000000E+03 0.  0.
         13    1    1    2    0    0 -0.22272675874E+02 -0.73141976536E+01  0.75201631550E+02  0.78770972635E+02  0.10566000000E+00 0. -1.
        994    1    1    2    0    0  0.22662355933E+02  0.12925793254E+01  0.51937348335E+01  0.17277635260E+03  0.17120000000E+03 0.  0.
        998    1    1    2    0    0 -0.38968005877E+00  0.60216183282E+01  0.14196046299E+04  0.14196526748E+04  0.10000000000E+02 0. -1.
</event>
<event>
 5    1  0.1068111E-008  0.3754269E+03  0.7957747E-01  0.3471316E+00
         13   -1    0    0    0    0  0.00000000000E+00  0.00000000000E+00  0.14999999963E+04  0.15000000000E+04  0.10566000000E+00 0.  1.
        994   -1    0    0    0    0 -0.00000000000E+00 -0.00000000000E+00  0.11368683772E-12  0.17120000000E+03  0.17120000000E+03 0.  0.
         13    1    1    2    0    0  0.31567749541E+02 -0.20411883218E+03  0.97744934156E+03  0.99903365656E+03  0.10566000000E+00 0.  1.
        994    1    1    2    0    0 -0.28591383067E+02  0.19796264963E+03  0.15725112788E+03  0.30666599918E+03  0.17120000000E+03 0.  0.
        998    1    1    2    0    0 -0.29763664740E+01  0.61561825517E+01  0.36529952684E+03  0.36550034426E+03  0.10000000000E+02 0.  0.
</event>
<event>
 5    1  0.1068111E-008  0.3843542E+03  0.7957747E-01  0.3432416E+00
         13   -1    0    0    0    0  0.00000000000E+00  0.00000000000E+00  0.14999999963E+04  0.15000000000E+04  0.10566000000E+00 0.  1.
        994   -1    0    0    0    0 -0.00000000000E+00 -0.00000000000E+00  0.11368683772E-12  0.17120000000E+03  0.17120000000E+03 0.  0.
         13    1    1    2    0    0  0.71783293154E+01  0.84131196721E+01  0.30058011111E+02  0.32028178068E+02  0.10566000000E+00 0.  1.
        994    1    1    2    0    0 -0.75122598483E+01 -0.12171247902E+02  0.26255814657E+01  0.17181649223E+03  0.17120000000E+03 0.  0.
        998    1    1    2    0    0  0.33393053282E+00  0.37581282298E+01  0.14673164037E+04  0.14673553297E+04  0.10000000000E+02 0.  1.
</event>
<event>
 5    1  0.1068111E-008  0.3844335E+03  0.7957747E-01  0.3432079E+00
         13   -1    0    0    0    0  0.00000000000E+00  0.00000000000E+00  0.14999999963E+04  0.15000000000E+04  0.10566000000E+00 0. -1.
        994   -1    0    0    0    0 -0.00000000000E+00 -0.00000000000E+00  0.11368683772E-12  0.17120000000E+03  0.17120000000E+03 0.  0.
         13    1    1    2    0    0 -0.51591745768E+01  0.17252669299E+02  0.82833329444E+02  0.84768173928E+02  0.10566000000E+00 0. -1.
        994    1    1    2    0    0 -0.11596793530E+01 -0.15738982342E+02  0.27326875131E+01  0.17194757341E+03  0.17120000000E+03 0.  0.
        998    1    1    2    0    0  0.63188539298E+01 -0.15136869572E+01  0.14144339793E+04  0.14144842527E+04  0.10000000000E+02 0. -1.
</event>
<event>
 5    1  0.1068111E-008  0.3854006E+03  0.7957747E-01  0.3427975E+00
         13   -1    0    0    0    0  0.00000000000E+00  0.00000000000E+00  0.14999999963E+04  0.15000000000E+04  0.10566000000E+00 0. -1.
        994   -1    0    0    0    0 -0.00000000000E+00 -0.00000000000E+00  0.11368683772E-12  0.17120000000E+03  0.17120000000E+03 0.  0.
         13    1    1    2    0    0  0.13089219487E+02  0.20153864237E+01  0.60553104462E+02  0.61984506719E+02  0.10566000000E+00 0. -1.
        994    1    1    2    0    0 -0.11106594130E+02 -0.14930555558E+01  0.18439374030E+01  0.17157629718E+03  0.17120000000E+03 0.  0.
        998    1    1    2    0    0 -0.19826253564E+01 -0.52233086788E+00  0.14376029544E+04  0.14376391961E+04  0.10000000000E+02 0. -1.
</event>
<event>
 5    1  0.1068111E-008  0.3741077E+03  0.7957747E-01  0.3477223E+00
         13   -1    0    0    0    0  0.00000000000E+00  0.00000000000E+00  0.14999999963E+04  0.15000000000E+04  0.10566000000E+00 0.  1.
        994   -1    0    0    0    0 -0.00000000000E+00 -0.00000000000E+00  0.11368683772E-12  0.17120000000E+03  0.17120000000E+03 0.  0.
         13    1    1    2    0    0 -0.23143369682E+02  0.93331828083E+01  0.19042242590E+02  0.31390158146E+02  0.10566000000E+00 0.  1.
        994    1    1    2    0    0 -0.10692351825E+02 -0.19874546687E+02  0.14936164898E+02  0.17332585790E+03  0.17120000000E+03 0.  0.
        998    1    1    2    0    0  0.33835721506E+02  0.10541363879E+02  0.14660215888E+04  0.14664839840E+04  0.10000000000E+02 0.  1.
</event>
<event>
 5    1  0.1068111E-008  0.3797878E+03  0.7957747E-01  0.3452083E+00
         13   -1    0    0    0    0  0.00000000000E+00  0.00000000000E+00  0.14999999963E+04  0.15000000000E+04  0.10566000000E+00 0.  1.
        994   -1    0    0    0    0 -0.00000000000E+00 -0.00000000000E+00  0.11368683772E-12  0.17120000000E+03  0.17120000000E+03 0.  0.
         13    1    1    2    0    0  0.10194106782E+02  0.99364872272E+01  0.21873499052E+02  0.26098174579E+02  0.10566000000E+00 0.  1.
        994    1    1    2    0    0 -0.11702878727E+02 -0.85845689288E+01  0.49452801296E+01  0.17188527566E+03  0.17120000000E+03 0.  0.
        998    1    1    2    0    0  0.15087719446E+01 -0.13519182985E+01  0.14731812171E+04  0.14732165498E+04  0.10000000000E+02 0.  1.
</event>
<event>
 5    1  0.1068111E-008  0.3829391E+03  0.7957747E-01  0.3438460E+00
         13   -1    0    0    0    0  0.00000000000E+00  0.00000000000E+00  0.14999999963E+04  0.15000000000E+04  0.10566000000E+00 0.  1.
        994   -1    0    0    0    0 -0.00000000000E+00 -0.00000000000E+00  0.11368683772E-12  0.17120000000E+03  0.17120000000E+03 0.  0.
         13    1    1    2    0    0 -0.18831197143E+01 -0.18195909807E+02  0.54525799791E+02  0.57512705383E+02  0.10566000000E+00 0.  1.
        994    1    1    2    0    0 -0.29494578791E+02  0.44309087115E+02  0.12094175449E+02  0.17969121976E+03  0.17120000000E+03 0.  0.
        998    1    1    2    0    0  0.31377698505E+02 -0.26113177308E+02  0.14333800210E+04  0.14339960749E+04  0.10000000000E+02 0.  1.
</event>
<event>
 5    1  0.1068111E-008  0.3838194E+03  0.7957747E-01  0.3434695E+00
         13   -1    0    0    0    0  0.00000000000E+00  0.00000000000E+00  0.14999999963E+04  0.15000000000E+04  0.10566000000E+00 0.  1.
        994   -1    0    0    0    0 -0.00000000000E+00 -0.00000000000E+00  0.11368683772E-12  0.17120000000E+03  0.17120000000E+03 0.  0.
         13    1    1    2    0    0 -0.18132495248E+01 -0.13703624341E+02  0.41464598884E+02  0.43708137899E+02  0.10566000000E+00 0.  1.
        994    1    1    2    0    0  0.54913893114E+01  0.14323599846E+02  0.29946453291E+01  0.17191197972E+03  0.17120000000E+03 0.  0.
        998    1    1    2    0    0 -0.36781397866E+01 -0.61997550485E+00  0.14555407521E+04  0.14555798824E+04  0.10000000000E+02 0.  1.
</event>
<event>
 5    1  0.1296854E-008  0.3849082E+03  0.7957747E-01  0.3430062E+00
         13   -1    0    0    0    0  0.00000000000E+00  0.00000000000E+00  0.14999999963E+04  0.15000000000E+04  0.10566000000E+00 0. -1.
        994   -1    0    0    0    0 -0.00000000000E+00 -0.00000000000E+00  0.11368683772E-12  0.17120000000E+03  0.17120000000E+03 0.  0.
         13    1    1    2    0    0 -0.17433793115E+02  0.43003896473E+01  0.89930584031E+02  0.91705788267E+02  0.10566000000E+00 0. -1.
        994    1    1    2    0    0  0.20329945832E+02 -0.44912395467E+01  0.31029960836E+01  0.17248926493E+03  0.17120000000E+03 0.  0.
        998    1    1    2    0    0 -0.28961527177E+01  0.19084989940E+00  0.14069664162E+04  0.14070049468E+04  0.10000000000E+02 0.  0.
</event>
<event>
 5    1  0.1068111E-008  0.3852749E+03  0.7957747E-01  0.3428507E+00
         13   -1    0    0    0    0  0.00000000000E+00  0.00000000000E+00  0.14999999963E+04  0.15000000000E+04  0.10566000000E+00 0.  1.
        994   -1    0    0    0    0 -0.00000000000E+00 -0.00000000000E+00  0.11368683772E-12  0.17120000000E+03  0.17120000000E+03 0.  0.
         13    1    1    2    0    0 -0.83846390621E+01  0.84241177264E+01  0.48496829218E+02  0.49932169389E+02  0.10566000000E+00 0.  1.
        994    1    1    2    0    0 -0.37538235597E+01 -0.92710632964E+01  0.18225096390E+01  0.17150161908E+03  0.17120000000E+03 0.  0.
        998    1    1    2    0    0  0.12138462622E+02  0.84694557002E+00  0.14496806574E+04  0.14497662115E+04  0.10000000000E+02 0.  1.
</event>
<event>
 5    1  0.1068111E-008  0.3852043E+03  0.7957747E-01  0.3428806E+00
         13   -1    0    0    0    0  0.00000000000E+00  0.00000000000E+00  0.14999999963E+04  0.15000000000E+04  0.10566000000E+00 0. -1.
        994   -1    0    0    0    0 -0.00000000000E+00 -0.00000000000E+00  0.11368683772E-12  0.17120000000E+03  0.17120000000E+03 0.  0.
         13    1    1    2    0    0 -0.35080355148E+01 -0.15893874528E+02  0.91208307161E+02  0.92649274255E+02  0.10566000000E+00 0. -1.
        994    1    1    2    0    0 -0.19063132284E+02  0.92692589173E+01  0.30068046583E+01  0.17253348384E+03  0.17120000000E+03 0.  0.
        998    1    1    2    0    0  0.22571167799E+02  0.66246156103E+01  0.14057848845E+04  0.14060172419E+04  0.10000000000E+02 0. -1.
</event>
<event>
 5    1  0.1068111E-008  0.3763437E+03  0.7957747E-01  0.3467235E+00
         13   -1    0    0    0    0  0.00000000000E+00  0.00000000000E+00  0.14999999963E+04  0.15000000000E+04  0.10566000000E+00 0.  1.
        994   -1    0    0    0    0 -0.00000000000E+00 -0.00000000000E+00  0.11368683772E-12  0.17120000000E+03  0.17120000000E+03 0.  0.
         13    1    1    2    0    0  0.45607658324E+02 -0.13091387066E+02  0.16363046895E+03  0.17037131345E+03  0.10566000000E+00 0.  1.
        994    1    1    2    0    0 -0.49985108535E+02  0.97821172410E+01  0.14819709747E+02  0.17922964233E+03  0.17120000000E+03 0.  0.
        998    1    1    2    0    0  0.43774502110E+01  0.33092698248E+01  0.13215498176E+04  0.13215990442E+04  0.10000000000E+02 0.  0.
</event>
<event>
 5    1  0.1068111E-008  0.3818413E+03  0.7957747E-01  0.3443180E+00
         13   -1    0    0    0    0  0.00000000000E+00  0.00000000000E+00  0.14999999963E+04  0.15000000000E+04  0.10566000000E+00 0. -1.
        994   -1    0    0    0    0 -0.00000000000E+00 -0.00000000000E+00  0.11368683772E-12  0.17120000000E+03  0.17120000000E+03 0.  0.
         13    1    1    2    0    0 -0.16697680761E+02  0.17374311111E+01  0.41055067855E+02  0.44354943020E+02  0.10566000000E+00 0. -1.
        994    1    1    2    0    0  0.22289207295E+02 -0.21455215504E+00  0.48591694799E+01  0.17271336463E+03  0.17120000000E+03 0.  0.
        998    1    1    2    0    0 -0.55915265343E+01 -0.15228789561E+01  0.14540857589E+04  0.14541316923E+04  0.10000000000E+02 0. -1.
</event>
<event>
 5    1  0.1068111E-008  0.3828021E+03  0.7957747E-01  0.3439048E+00
         13   -1    0    0    0    0  0.00000000000E+00  0.00000000000E+00  0.14999999963E+04  0.15000000000E+04  0.10566000000E+00 0. -1.
        994   -1    0    0    0    0 -0.00000000000E+00 -0.00000000000E+00  0.11368683772E-12  0.17120000000E+03  0.17120000000E+03 0.  0.
         13    1    1    2    0    0 -0.19825706866E+02  0.96892885254E+01  0.89284463540E+02  0.91971014774E+02  0.10566000000E+00 0. -1.
        994    1    1    2    0    0  0.13570205651E+02 -0.46359732083E+00  0.33362210878E+01  0.17177000837E+03  0.17120000000E+03 0.  0.
        998    1    1    2    0    0  0.62555012145E+01 -0.92256912046E+01  0.14073793117E+04  0.14074589769E+04  0.10000000000E+02 0. -1.
</event>
<event>
 5    1  0.1068111E-008  0.3684841E+03  0.7957747E-01  0.3502887E+00
         13   -1    0    0    0    0  0.00000000000E+00  0.00000000000E+00  0.14999999963E+04  0.15000000000E+04  0.10566000000E+00 0. -1.
        994   -1    0    0    0    0 -0.00000000000E+00 -0.00000000000E+00  0.11368683772E-12  0.17120000000E+03  0.17120000000E+03 0.  0.
         13    1    1    2    0    0  0.10915395335E+02  0.59925257494E+01  0.30346665168E+01  0.12817042759E+02  0.10566000000E+00 0. -1.
        994    1    1    2    0    0 -0.10784838211E+02 -0.45128258096E+01  0.10538781646E+02  0.17192202957E+03  0.17120000000E+03 0.  0.
        998    1    1    2    0    0 -0.13055712402E+00 -0.14796999398E+01  0.14864265481E+04  0.14864609277E+04  0.10000000000E+02 0. -1.
</event>
<event>
 5    1  0.1068111E-008  0.3750581E+03  0.7957747E-01  0.3472963E+00
         13   -1    0    0    0    0  0.00000000000E+00  0.00000000000E+00  0.14999999963E+04  0.15000000000E+04  0.10566000000E+00 0.  1.
        994   -1    0    0    0    0 -0.00000000000E+00 -0.00000000000E+00  0.11368683772E-12  0.17120000000E+03  0.17120000000E+03 0.  0.
         13    1    1    2    0    0 -0.60121319461E+02 -0.17828546812E+02  0.21965089364E+03  0.22842713582E+03  0.10566000000E+00 0.  1.
        994    1    1    2    0    0  0.70964867882E+02  0.59082617184E+02  0.36203088584E+02  0.19785568415E+03  0.17120000000E+03 0.  0.
        998    1    1    2    0    0 -0.10843548421E+02 -0.41254070372E+02  0.12441460141E+04  0.12449171800E+04  0.10000000000E+02 0.  1.
</event>
<event>
 5    1  0.1068111E-008  0.3810368E+03  0.7957747E-01  0.3446657E+00
         13   -1    0    0    0    0  0.00000000000E+00  0.00000000000E+00  0.14999999963E+04  0.15000000000E+04  0.10566000000E+00 0. -1.
        994   -1    0    0    0    0 -0.00000000000E+00 -0.00000000000E+00  0.11368683772E-12  0.17120000000E+03  0.17120000000E+03 0.  0.
         13    1    1    2    0    0  0.23869239437E+02  0.50930485049E+01  0.85333509546E+02  0.88755274490E+02  0.10566000000E+00 0. -1.
        994    1    1    2    0    0 -0.62710163907E+01  0.27227749461E+01  0.37664330181E+01  0.17137784328E+03  0.17120000000E+03 0.  0.
        998    1    1    2    0    0 -0.17598223047E+02 -0.78158234510E+01  0.14109000537E+04  0.14110668822E+04  0.10000000000E+02 0. -1.
</event>
<event>
 5    1  0.1068111E-008  0.3751097E+03  0.7957747E-01  0.3472732E+00
         13   -1    0    0    0    0  0.00000000000E+00  0.00000000000E+00  0.14999999963E+04  0.15000000000E+04  0.10566000000E+00 0. -1.
        994   -1    0    0    0    0 -0.00000000000E+00 -0.00000000000E+00  0.11368683772E-12  0.17120000000E+03  0.17120000000E+03 0.  0.
         13    1    1    2    0    0  0.14536808302E+02  0.10014970539E+01  0.13016550026E+02  0.19538769935E+02  0.10566000000E+00 0. -1.
        994    1    1    2    0    0 -0.13920043874E+02  0.92934955853E+01  0.75748736935E+01  0.17218291260E+03  0.17120000000E+03 0.  0.
        998    1    1    2    0    0 -0.61676442876E+00 -0.10294992639E+02  0.14794085726E+04  0.14794783175E+04  0.10000000000E+02 0. -1.
</event>
<event>
 5    1  0.1068111E-008  0.3767248E+03  0.7957747E-01  0.3465545E+00
         13   -1    0    0    0    0  0.00000000000E+00  0.00000000000E+00  0.14999999963E+04  0.15000000000E+04  0.10566000000E+00 0. -1.
        994   -1    0    0    0    0 -0.00000000000E+00 -0.00000000000E+00  0.11368683772E-12  0.17120000000E+03  0.17120000000E+03 0.  0.
         13    1    1    2    0    0 -0.50572655207E+02  0.98508762379E+02  0.56518376357E+03  0.57592904727E+03  0.10566000000E+00 0. -1.
        994    1    1    2    0    0  0.52862725726E+02 -0.10773326200E+03  0.56126569811E+02  0.21647298989E+03  0.17120000000E+03 0.  0.
        998    1    1    2    0    0 -0.22900705188E+01  0.92244996191E+01  0.87868966290E+03  0.87879796284E+03  0.10000000000E+02 0.  0.
</event>
<event>
 5    1  0.1068111E-008  0.3809552E+03  0.7957747E-01  0.3447010E+00
         13   -1    0    0    0    0  0.00000000000E+00  0.00000000000E+00  0.14999999963E+04  0.15000000000E+04  0.10566000000E+00 0. -1.
        994   -1    0    0    0    0 -0.00000000000E+00 -0.00000000000E+00  0.11368683772E-12  0.17120000000E+03  0.17120000000E+03 0.  0.
         13    1    1    2    0    0 -0.26188151385E+02  0.26735434719E+02  0.17055497705E+03  0.17461275470E+03  0.10566000000E+00 0. -1.
        994    1    1    2    0    0  0.36497094509E+02 -0.17191755740E+02  0.90946095260E+01  0.17612423540E+03  0.17120000000E+03 0.  0.
        998    1    1    2    0    0 -0.10308943124E+02 -0.95436789789E+01  0.13203504097E+04  0.13204630099E+04  0.10000000000E+02 0. -1.
</event>
<event>
 5    1  0.1068111E-008  0.3843567E+03  0.7957747E-01  0.3432405E+00
         13   -1    0    0    0    0  0.00000000000E+00  0.00000000000E+00  0.14999999963E+04  0.15000000000E+04  0.10566000000E+00 0.  1.
        994   -1    0    0    0    0 -0.00000000000E+00 -0.00000000000E+00  0.11368683772E-12  0.17120000000E+03  0.17120000000E+03 0.  0.
         13    1    1    2    0    0  0.16153896509E+02 -0.49546322499E+01  0.76467110044E+02  0.78311728596E+02  0.10566000000E+00 0.  1.
        994    1    1    2    0    0 -0.41328063766E+01 -0.15010846680E+01  0.20135640103E+01  0.17126829182E+03  0.17120000000E+03 0.  0.
        998    1    1    2    0    0 -0.12021090132E+02  0.64557169178E+01  0.14215193222E+04  0.14216199796E+04  0.10000000000E+02 0.  1.
</event>
<event>
 5    1  0.1068111E-008  0.3721115E+03  0.7957747E-01  0.3486243E+00
         13   -1    0    0    0    0  0.00000000000E+00  0.00000000000E+00  0.14999999963E+04  0.15000000000E+04  0.10566000000E+00 0. -1.
        994   -1    0    0    0    0 -0.00000000000E+00 -0.00000000000E+00  0.11368683772E-12  0.17120000000E+03  0.17120000000E+03 0.  0.
         13    1    1    2    0    0 -0.41921808112E+02  0.29125923381E+02  0.19629544760E+03  0.20282423751E+03  0.10566000000E+00 0. -1.
        994    1    1    2    0    0 -0.87513988006E+01  0.51349384476E+01  0.85230412787E+01  0.17171207531E+03  0.17120000000E+03 0.  0.
        998    1    1    2    0    0  0.50673206913E+02 -0.34260861828E+02  0.12951815074E+04  0.12966636872E+04  0.10000000000E+02 0. -1.
</event>
<event>
 5    1  0.1068111E-008  0.3823410E+03  0.7957747E-01  0.3441028E+00
         13   -1    0    0    0    0  0.00000000000E+00  0.00000000000E+00  0.14999999963E+04  0.15000000000E+04  0.10566000000E+00 0.  1.
        994   -1    0    0    0    0 -0.00000000000E+00 -0.00000000000E+00  0.11368683772E-12  0.17120000000E+03  0.17120000000E+03 0.  0.
         13    1    1    2    0    0  0.41489934108E+01  0.36714076700E+02  0.20257476421E+03  0.20591669148E+03  0.10566000000E+00 0.  1.
        994    1    1    2    0    0 -0.12783212954E+02 -0.35275506382E+02  0.76400998056E+01  0.17542970960E+03  0.17120000000E+03 0.  0.
        998    1    1    2    0    0  0.86342195433E+01 -0.14385703178E+01  0.12897851323E+04  0.12898535989E+04  0.10000000000E+02 0.  1.
</event>
<event>
 5    1  0.1068111E-008  0.3840965E+03  0.7957747E-01  0.3433513E+00
         13   -1    0    0    0    0  0.00000000000E+00  0.00000000000E+00  0.14999999963E+04  0.15000000000E+04  0.10566000000E+00 0. -1.
        994   -1    0    0    0    0 -0.00000000000E+00 -0.00000000000E+00  0.11368683772E-12  0.17120000000E+03  0.17120000000E+03 0.  0.
         13    1    1    2    0    0 -0.21536727124E+01 -0.12951207974E+02  0.44370107225E+02  0.46271910198E+02  0.10566000000E+00 0. -1.
        994    1    1    2    0    0 -0.11007652062E+01 -0.77717765686E+01  0.22826251967E+01  0.17139504827E+03  0.17120000000E+03 0.  0.
        998    1    1    2    0    0  0.32544379186E+01  0.20722984542E+02  0.14533472639E+04  0.14535330415E+04  0.10000000000E+02 0. -1.
</event>
<event>
 5    1  0.1068111E-008  0.3759953E+03  0.7957747E-01  0.3468783E+00
         13   -1    0    0    0    0  0.00000000000E+00  0.00000000000E+00  0.14999999963E+04  0.15000000000E+04  0.10566000000E+00 0. -1.
        994   -1    0    0    0    0 -0.00000000000E+00 -0.00000000000E+00  0.11368683772E-12  0.17120000000E+03  0.17120000000E+03 0.  0.
         13    1    1    2    0    0 -0.33424822448E+02  0.19788114833E+01  0.83887147425E+02  0.90322749724E+02  0.10566000000E+00 0. -1.
        994    1    1    2    0    0  0.34859427039E+02  0.48552354631E+01  0.10376683763E+02  0.17508817359E+03  0.17120000000E+03 0.  0.
        998    1    1    2    0    0 -0.14346045912E+01 -0.68340469464E+01  0.14057361651E+04  0.14057890767E+04  0.10000000000E+02 0. -1.
</event>
<event>
 5    1  0.1068111E-008  0.3849768E+03  0.7957747E-01  0.3429771E+00
         13   -1    0    0    0    0  0.00000000000E+00  0.00000000000E+00  0.14999999963E+04  0.15000000000E+04  0.10566000000E+00 0.  1.
        994   -1    0    0    0    0 -0.00000000000E+00 -0.00000000000E+00  0.11368683772E-12  0.17120000000E+03  0.17120000000E+03 0.  0.
         13    1    1    2    0    0 -0.10614499423E+02 -0.17417381871E+02  0.11465183146E+03  0.11645207774E+03  0.10566000000E+00 0.  1.
        994    1    1    2    0    0  0.12959607622E+02  0.21330403958E+02  0.36931362020E+01  0.17304917457E+03  0.17120000000E+03 0.  0.
        998    1    1    2    0    0 -0.23451081995E+01 -0.39130220866E+01  0.13816550286E+04  0.13816987477E+04  0.10000000000E+02 0.  1.
</event>
<event>
 5    1  0.1068111E-008  0.3690378E+03  0.7957747E-01  0.3500324E+00
         13   -1    0    0    0    0  0.00000000000E+00  0.00000000000E+00  0.14999999963E+04  0.15000000000E+04  0.10566000000E+00 0.  1.
        994   -1    0    0    0    0 -0.00000000000E+00 -0.00000000000E+00  0.11368683772E-12  0.17120000000E+03  0.17120000000E+03 0.  0.
         13    1    1    2    0    0  0.22340062093E+02  0.99434505422E+01  0.24026265264E+02  0.34281528110E+02  0.10566000000E+00 0.  1.
        994    1    1    2    0    0 -0.16510110756E+02 -0.17524275285E+02  0.12453322284E+02  0.17333265479E+03  0.17120000000E+03 0.  0.
        998    1    1    2    0    0 -0.58299513373E+01  0.75808247427E+01  0.14635204087E+04  0.14635858171E+04  0.10000000000E+02 0.  1.
</event>
<event>
 5    1  0.1068111E-008  0.3820151E+03  0.7957747E-01  0.3442431E+00
         13   -1    0    0    0    0  0.00000000000E+00  0.00000000000E+00  0.14999999963E+04  0.15000000000E+04  0.10566000000E+00 0.  1.
        994   -1    0    0    0    0 -0.00000000000E+00 -0.00000000000E+00  0.11368683772E-12  0.17120000000E+03  0.17120000000E+03 0.  0.
         13    1    1    2    0    0 -0.70094921298E+01  0.18793948013E+02  0.61732583030E+02  0.64909694449E+02  0.10566000000E+00 0.  1.
        994    1    1    2    0    0  0.83208698965E+01 -0.17061019408E+02  0.43168152204E+01  0.17230319252E+03  0.17120000000E+03 0.  0.
        998    1    1    2    0    0 -0.13113777667E+01 -0.17329286055E+01  0.14339505980E+04  0.14339871130E+04  0.10000000000E+02 0.  1.
</event>
<event>
 5    1  0.1068111E-008  0.3826996E+03  0.7957747E-01  0.3439488E+00
         13   -1    0    0    0    0  0.00000000000E+00  0.00000000000E+00  0.14999999963E+04  0.15000000000E+04  0.10566000000E+00 0.  1.
        994   -1    0    0    0    0 -0.00000000000E+00 -0.00000000000E+00  0.11368683772E-12  0.17120000000E+03  0.17120000000E+03 0.  0.
         13    1    1    2    0    0  0.97026575779E+01 -0.26664755987E+01  0.18100214320E+02  0.20709432118E+02  0.10566000000E+00 0.  1.
        994    1    1    2    0    0  0.11599524932E+02 -0.49163682630E+00  0.32233151356E+01  0.17162348454E+03  0.17120000000E+03 0.  0.
        998    1    1    2    0    0 -0.21302182510E+02  0.31581124250E+01  0.14786764668E+04  0.14788670833E+04  0.10000000000E+02 0.  1.
</event>
<event>
 5    1  0.1068111E-008  0.3827995E+03  0.7957747E-01  0.3439059E+00
         13   -1    0    0    0    0  0.00000000000E+00  0.00000000000E+00  0.14999999963E+04  0.15000000000E+04  0.10566000000E+00 0. -1.
        994   -1    0    0    0    0 -0.00000000000E+00 -0.00000000000E+00  0.11368683772E-12  0.17120000000E+03  0.17120000000E+03 0.  0.
         13    1    1    2    0    0 -0.16571576886E+02  0.20168147852E+02  0.11107130105E+03  0.11409739887E+03  0.10566000000E+00 0. -1.
        994    1    1    2    0    0  0.18283652925E+02 -0.28020563595E+02  0.64433490976E+01  0.17455772884E+03  0.17120000000E+03 0.  0.
        998    1    1    2    0    0 -0.17120760384E+01  0.78524157426E+01  0.13824853461E+04  0.13825448723E+04  0.10000000000E+02 0.  0.
</event>
<event>
 5    1  0.1068111E-008  0.3857926E+03  0.7957747E-01  0.3426318E+00
         13   -1    0    0    0    0  0.00000000000E+00  0.00000000000E+00  0.14999999963E+04  0.15000000000E+04  0.10566000000E+00 0.  1.
        994   -1    0    0    0    0 -0.00000000000E+00 -0.00000000000E+00  0.11368683772E-12  0.17120000000E+03  0.17120000000E+03 0.  0.
         13    1    1    2    0    0  0.12762047917E+01 -0.13578484277E+02  0.79014384416E+02  0.80182841323E+02  0.10566000000E+00 0.  1.
        994    1    1    2    0    0 -0.10226210885E+02  0.30474854577E+01  0.16107437115E+01  0.17153978271E+03  0.17120000000E+03 0.  0.
        998    1    1    2    0    0  0.89500060932E+01  0.10530998819E+02  0.14193748682E+04  0.14194773760E+04  0.10000000000E+02 0.  1.
</event>
<event>
 5    1  0.1068111E-008  0.3753715E+03  0.7957747E-01  0.3471563E+00
         13   -1    0    0    0    0  0.00000000000E+00  0.00000000000E+00  0.14999999963E+04  0.15000000000E+04  0.10566000000E+00 0. -1.
        994   -1    0    0    0    0 -0.00000000000E+00 -0.00000000000E+00  0.11368683772E-12  0.17120000000E+03  0.17120000000E+03 0.  0.
         13    1    1    2    0    0 -0.44013291448E+02 -0.52646131298E+01  0.17877647531E+03  0.18418991629E+03  0.10566000000E+00 0. -1.
        994    1    1    2    0    0 -0.34129838430E+01 -0.11808163266E+02  0.70011293557E+01  0.17178340138E+03  0.17120000000E+03 0.  0.
        998    1    1    2    0    0  0.47426275291E+02  0.17072776396E+02  0.13142223916E+04  0.13152266823E+04  0.10000000000E+02 0. -1.
</event>
<event>
 5    1  0.1068111E-008  0.3816623E+03  0.7957747E-01  0.3443952E+00
         13   -1    0    0    0    0  0.00000000000E+00  0.00000000000E+00  0.14999999963E+04  0.15000000000E+04  0.10566000000E+00 0.  1.
        994   -1    0    0    0    0 -0.00000000000E+00 -0.00000000000E+00  0.11368683772E-12  0.17120000000E+03  0.17120000000E+03 0.  0.
         13    1    1    2    0    0  0.68283256884E+01  0.78943825717E+01  0.15192064040E+02  0.18432506116E+02  0.10566000000E+00 0.  1.
        994    1    1    2    0    0 -0.62019891715E+01 -0.32944464566E+01  0.34603795180E+01  0.17137891432E+03  0.17120000000E+03 0.  0.
        998    1    1    2    0    0 -0.62633651692E+00 -0.45999361151E+01  0.14813475527E+04  0.14813885796E+04  0.10000000000E+02 0.  1.
</event>
<event>
 5    1  0.1068111E-008  0.3830035E+03  0.7957747E-01  0.3438184E+00
         13   -1    0    0    0    0  0.00000000000E+00  0.00000000000E+00  0.14999999963E+04  0.15000000000E+04  0.10566000000E+00 0. -1.
        994   -1    0    0    0    0 -0.00000000000E+00 -0.00000000000E+00  0.11368683772E-12  0.17120000000E+03  0.17120000000E+03 0.  0.
         13    1    1    2    0    0 -0.32757542948E+01  0.15082537895E+02  0.45858440028E+02  0.48386167460E+02  0.10566000000E+00 0. -1.
        994    1    1    2    0    0  0.23713925904E+01 -0.33175306868E+01  0.26796571663E+01  0.17126952465E+03  0.17120000000E+03 0.  0.
        998    1    1    2    0    0  0.90436170440E+00 -0.11765007208E+02  0.14514618991E+04  0.14515443079E+04  0.10000000000E+02 0. -1.
</event>
<event>
 5    1  0.1068111E-008  0.2620913E+03  0.7957747E-01  0.4210344E+00
         13   -1    0    0    0    0  0.00000000000E+00  0.00000000000E+00  0.14999999963E+04  0.15000000000E+04  0.10566000000E+00 0. -1.
        994   -1    0    0    0    0 -0.00000000000E+00 -0.00000000000E+00  0.11368683772E-12  0.17120000000E+03  0.17120000000E+03 0.  0.
         13    1    1    2    0    0  0.13773945783E+03 -0.13000134236E+03  0.28871981211E+03  0.34529936045E+03  0.10566000000E+00 0. -1.
        994    1    1    2    0    0 -0.15279441742E+03  0.12986502231E+03  0.24648688305E+03  0.36093805775E+03  0.17120000000E+03 0.  0.
        998    1    1    2    0    0  0.15054959594E+02  0.13632005151E+00  0.96479330112E+03  0.96496258180E+03  0.10000000000E+02 0. -1.
</event>
<event>
 5    1  0.1068111E-008  0.3845429E+03  0.7957747E-01  0.3431613E+00
         13   -1    0    0    0    0  0.00000000000E+00  0.00000000000E+00  0.14999999963E+04  0.15000000000E+04  0.10566000000E+00 0. -1.
        994   -1    0    0    0    0 -0.00000000000E+00 -0.00000000000E+00  0.11368683772E-12  0.17120000000E+03  0.17120000000E+03 0.  0.
         13    1    1    2    0    0  0.96370878081E+01  0.46839747688E+01  0.30818347412E+02  0.32628128698E+02  0.10566000000E+00 0. -1.
        994    1    1    2    0    0 -0.48891135162E+01 -0.11756898139E+01  0.19405563590E+01  0.17128482547E+03  0.17120000000E+03 0.  0.
        998    1    1    2    0    0 -0.47479742920E+01 -0.35082849550E+01  0.14672410925E+04  0.14672870458E+04  0.10000000000E+02 0. -1.
</event>
<event>
 5    1  0.1068111E-008  0.3714902E+03  0.7957747E-01  0.3489070E+00
         13   -1    0    0    0    0  0.00000000000E+00  0.00000000000E+00  0.14999999963E+04  0.15000000000E+04  0.10566000000E+00 0.  1.
        994   -1    0    0    0    0 -0.00000000000E+00 -0.00000000000E+00  0.11368683772E-12  0.17120000000E+03  0.17120000000E+03 0.  0.
         13    1    1    2    0    0 -0.10988426575E+02 -0.80065073268E+01  0.69402995828E+01  0.15265274335E+02  0.10566000000E+00 0.  1.
        994    1    1    2    0    0  0.12072495658E+02  0.85950576698E+01  0.92480731685E+01  0.17208889280E+03  0.17120000000E+03 0.  0.
        998    1    1    2    0    0 -0.10840690829E+01 -0.58855034291E+00  0.14838116235E+04  0.14838458329E+04  0.10000000000E+02 0.  1.
</event>
<event>
 5    1  0.1068111E-008  0.3810808E+03  0.7957747E-01  0.3446466E+00
         13   -1    0    0    0    0  0.00000000000E+00  0.00000000000E+00  0.14999999963E+04  0.15000000000E+04  0.10566000000E+00 0. -1.
        994   -1    0    0    0    0 -0.00000000000E+00 -0.00000000000E+00  0.11368683772E-12  0.17120000000E+03  0.17120000000E+03 0.  0.
         13    1    1    2    0    0  0.16301796812E+02 -0.15343807526E+02  0.65579686891E+02  0.69295652861E+02  0.10566000000E+00 0. -1.
        994    1    1    2    0    0 -0.16918438013E+02  0.17437746299E+02  0.55573403392E+01  0.17300471835E+03  0.17120000000E+03 0.  0.
        998    1    1    2    0    0  0.61664120049E+00 -0.20939387738E+01  0.14288629690E+04  0.14288996288E+04  0.10000000000E+02 0. -1.
</event>
<event>
 5    1  0.1068111E-008  0.3687390E+03  0.7957747E-01  0.3501706E+00
         13   -1    0    0    0    0  0.00000000000E+00  0.00000000000E+00  0.14999999963E+04  0.15000000000E+04  0.10566000000E+00 0. -1.
        994   -1    0    0    0    0 -0.00000000000E+00 -0.00000000000E+00  0.11368683772E-12  0.17120000000E+03  0.17120000000E+03 0.  0.
         13    1    1    2    0    0  0.48893074924E+02  0.11779920345E+03  0.47158508173E+03  0.48852808065E+03  0.10566000000E+00 0. -1.
        994    1    1    2    0    0 -0.70785331324E+02 -0.12017672796E+03  0.81398763848E+02  0.23534699452E+03  0.17120000000E+03 0.  0.
        998    1    1    2    0    0  0.21892256400E+02  0.23775245181E+01  0.94701615070E+03  0.94732492482E+03  0.10000000000E+02 0. -1.
</event>
<event>
 5    1  0.1068111E-008  0.3812162E+03  0.7957747E-01  0.3445880E+00
         13   -1    0    0    0    0  0.00000000000E+00  0.00000000000E+00  0.14999999963E+04  0.15000000000E+04  0.10566000000E+00 0. -1.
        994   -1    0    0    0    0 -0.00000000000E+00 -0.00000000000E+00  0.11368683772E-12  0.17120000000E+03  0.17120000000E+03 0.  0.
         13    1    1    2    0    0  0.14110085347E+02  0.11782073934E+02  0.50601864797E+02  0.53837455917E+02  0.10566000000E+00 0. -1.
        994    1    1    2    0    0  0.62832083335E+01  0.43789261263E+01  0.37158119118E+01  0.17141149599E+03  0.17120000000E+03 0.  0.
        998    1    1    2    0    0 -0.20393293680E+02 -0.16161000060E+02  0.14456823196E+04  0.14459510481E+04  0.10000000000E+02 0. -1.
</event>
<event>
 5    1  0.1068111E-008  0.3828994E+03  0.7957747E-01  0.3438630E+00
         13   -1    0    0    0    0  0.00000000000E+00  0.00000000000E+00  0.14999999963E+04  0.15000000000E+04  0.10566000000E+00 0.  1.
        994   -1    0    0    0    0 -0.00000000000E+00 -0.00000000000E+00  0.11368683772E-12  0.17120000000E+03  0.17120000000E+03 0.  0.
         13    1    1    2    0    0 -0.15256321532E+02 -0.33134275716E+02  0.21259612905E+03  0.21570294580E+03  0.10566000000E+00 0.  1.
        994    1    1    2    0    0  0.38580944483E+02  0.25376541058E+02  0.97699637594E+01  0.17758758488E+03  0.17120000000E+03 0.  0.
        998    1    1    2    0    0 -0.23324622950E+02  0.77577346584E+01  0.12776339035E+04  0.12779094693E+04  0.10000000000E+02 0.  1.
</event>
<event>
 5    1  0.1068111E-008  0.3397387E+03  0.7957747E-01  0.3647682E+00
         13   -1    0    0    0    0  0.00000000000E+00  0.00000000000E+00  0.14999999963E+04  0.15000000000E+04  0.10566000000E+00 0. -1.
        994   -1    0    0    0    0 -0.00000000000E+00 -0.00000000000E+00  0.11368683772E-12  0.17120000000E+03  0.17120000000E+03 0.  0.
         13    1    1    2    0    0  0.10255653181E+01  0.20289281657E+03  0.10810143786E+04  0.10998902876E+04  0.10566000000E+00 0. -1.
        994    1    1    2    0    0 -0.52662860793E+01 -0.12804298620E+03  0.87088561062E+02  0.23090387080E+03  0.17120000000E+03 0.  0.
        998    1    1    2    0    0  0.42407207612E+01 -0.74849830366E+02  0.33189705664E+03  0.34040584164E+03  0.10000000000E+02 0.  1.
</event>
<event>
 5    1  0.1068111E-008  0.3850406E+03  0.7957747E-01  0.3429500E+00
         13   -1    0    0    0    0  0.00000000000E+00  0.00000000000E+00  0.14999999963E+04  0.15000000000E+04  0.10566000000E+00 0. -1.
        994   -1    0    0    0    0 -0.00000000000E+00 -0.00000000000E+00  0.11368683772E-12  0.17120000000E+03  0.17120000000E+03 0.  0.
         13    1    1    2    0    0  0.19255132602E+02  0.12967213783E+02  0.13862601835E+03  0.14055636909E+03  0.10566000000E+00 0. -1.
        994    1    1    2    0    0 -0.26186403099E+02 -0.24160809481E+02  0.57954442763E+01  0.17496428092E+03  0.17120000000E+03 0.  0.
        998    1    1    2    0    0  0.69312704971E+01  0.11193595698E+02  0.13555785337E+04  0.13556793500E+04  0.10000000000E+02 0. -1.
</event>
<event>
 5    1  0.1068111E-008  0.3706734E+03  0.7957747E-01  0.3492802E+00
         13   -1    0    0    0    0  0.00000000000E+00  0.00000000000E+00  0.14999999963E+04  0.15000000000E+04  0.10566000000E+00 0.  1.
        994   -1    0    0    0    0 -0.00000000000E+00 -0.00000000000E+00  0.11368683772E-12  0.17120000000E+03  0.17120000000E+03 0.  0.
         13    1    1    2    0    0 -0.10808777902E+02  0.10245950147E+02  0.85543767683E+01  0.17175497084E+02  0.10566000000E+00 0.  1.
        994    1    1    2    0    0 -0.88947982118E+01 -0.15072311259E+02  0.99748040840E+01  0.17238105673E+03  0.17120000000E+03 0.  0.
        998    1    1    2    0    0  0.19703576114E+02  0.48263611119E+01  0.14814708154E+04  0.14816434462E+04  0.10000000000E+02 0.  1.
</event>
<event>
 5    1  0.1068111E-008  0.3813057E+03  0.7957747E-01  0.3445493E+00
         13   -1    0    0    0    0  0.00000000000E+00  0.00000000000E+00  0.14999999963E+04  0.15000000000E+04  0.10566000000E+00 0.  1.
        994   -1    0    0    0    0 -0.00000000000E+00 -0.00000000000E+00  0.11368683772E-12  0.17120000000E+03  0.17120000000E+03 0.  0.
         13    1    1    2    0    0 -0.13472889825E+02  0.26360944243E+02  0.11901400154E+03  0.12264078387E+03  0.10566000000E+00 0.  1.
        994    1    1    2    0    0  0.13026708539E+02 -0.22367243629E+02  0.57087781189E+01  0.17323977277E+03  0.17120000000E+03 0.  0.
        998    1    1    2    0    0  0.44618128538E+00 -0.39937006134E+01  0.13752772166E+04  0.13753194434E+04  0.10000000000E+02 0.  1.
</event>
<event>
 5    1  0.1068111E-008  0.3840408E+03  0.7957747E-01  0.3433750E+00
         13   -1    0    0    0    0  0.00000000000E+00  0.00000000000E+00  0.14999999963E+04  0.15000000000E+04  0.10566000000E+00 0. -1.
        994   -1    0    0    0    0 -0.00000000000E+00 -0.00000000000E+00  0.11368683772E-12  0.17120000000E+03  0.17120000000E+03 0.  0.
         13    1    1    2    0    0  0.91241028353E+01 -0.12010467112E+02  0.56578799379E+02  0.58554865520E+02  0.10566000000E+00 0. -1.
        994    1    1    2    0    0  0.56813089382E+01  0.38328999687E+01  0.22620521203E+01  0.17135205068E+03  0.17120000000E+03 0.  0.
        998    1    1    2    0    0 -0.14805411773E+02  0.81775671430E+01  0.14411591448E+04  0.14412930838E+04  0.10000000000E+02 0. -1.
</event>
<event>
 5    1  0.1068111E-008  0.3807634E+03  0.7957747E-01  0.3447841E+00
         13   -1    0    0    0    0  0.00000000000E+00  0.00000000000E+00  0.14999999963E+04  0.15000000000E+04  0.10566000000E+00 0.  1.
        994   -1    0    0    0    0 -0.00000000000E+00 -0.00000000000E+00  0.11368683772E-12  0.17120000000E+03  0.17120000000E+03 0.  0.
         13    1    1    2    0    0  0.24526726692E+02 -0.18477205757E+01  0.77793533792E+02  0.81589334213E+02  0.10566000000E+00 0.  1.
        994    1    1    2    0    0 -0.19860426424E+02 -0.16353612883E+01  0.50735845128E+01  0.17243054313E+03  0.17120000000E+03 0.  0.
        998    1    1    2    0    0 -0.46663002680E+01  0.34830818640E+01  0.14171328780E+04  0.14171801227E+04  0.10000000000E+02 0.  1.
</event>
<event>
 5    1  0.1068111E-008  0.3839615E+03  0.7957747E-01  0.3434089E+00
         13   -1    0    0    0    0  0.00000000000E+00  0.00000000000E+00  0.14999999963E+04  0.15000000000E+04  0.10566000000E+00 0. -1.
        994   -1    0    0    0    0 -0.00000000000E+00 -0.00000000000E+00  0.11368683772E-12  0.17120000000E+03  0.17120000000E+03 0.  0.
         13    1    1    2    0    0  0.20446125465E+01 -0.15521582118E+02  0.57178971957E+02  0.59283606081E+02  0.10566000000E+00 0. -1.
        994    1    1    2    0    0  0.52416229402E+01  0.92547193571E+01  0.25199859900E+01  0.17154857846E+03  0.17120000000E+03 0.  0.
        998    1    1    2    0    0 -0.72862354866E+01  0.62668627614E+01  0.14403010383E+04  0.14403678155E+04  0.10000000000E+02 0. -1.
</event>
<event>
 5    1  0.1068111E-008  0.3722148E+03  0.7957747E-01  0.3485774E+00
         13   -1    0    0    0    0  0.00000000000E+00  0.00000000000E+00  0.14999999963E+04  0.15000000000E+04  0.10566000000E+00 0.  1.
        994   -1    0    0    0    0 -0.00000000000E+00 -0.00000000000E+00  0.11368683772E-12  0.17120000000E+03  0.17120000000E+03 0.  0.
         13    1    1    2    0    0 -0.35354936692E+02 -0.20973224372E+02  0.10285868231E+03  0.11076898203E+03  0.10566000000E+00 0.  1.
        994    1    1    2    0    0  0.17307266935E+02  0.12867091250E+02  0.97135906931E+01  0.17282620568E+03  0.17120000000E+03 0.  0.
        998    1    1    2    0    0  0.18047669757E+02  0.81061331223E+01  0.13874277233E+04  0.13876048123E+04  0.10000000000E+02 0.  1.
</event>
<event>
 5    1  0.1068111E-008  0.3880197E+03  0.7957747E-01  0.3416965E+00
         13   -1    0    0    0    0  0.00000000000E+00  0.00000000000E+00  0.14999999963E+04  0.15000000000E+04  0.10566000000E+00 0. -1.
        994   -1    0    0    0    0 -0.00000000000E+00 -0.00000000000E+00  0.11368683772E-12  0.17120000000E+03  0.17120000000E+03 0.  0.
         13    1    1    2    0    0 -0.35108081629E+01  0.46131099707E+02  0.42774348228E+02  0.63008413442E+02  0.10566000000E+00 0. -1.
        994    1    1    2    0    0 -0.90070893696E+01 -0.44138694726E+02  0.28419638140E+02  0.17929436093E+03  0.17120000000E+03 0.  0.
        998    1    1    2    0    0  0.12517897532E+02 -0.19924049811E+01  0.14288060099E+04  0.14288972256E+04  0.10000000000E+02 0. -1.
</event>
<event>
 5    1  0.1068111E-008  0.3892635E+03  0.7957747E-01  0.3411789E+00
         13   -1    0    0    0    0  0.00000000000E+00  0.00000000000E+00  0.14999999963E+04  0.15000000000E+04  0.10566000000E+00 0. -1.
        994   -1    0    0    0    0 -0.00000000000E+00 -0.00000000000E+00  0.11368683772E-12  0.17120000000E+03  0.17120000000E+03 0.  0.
         13    1    1    2    0    0 -0.10387849027E+03  0.35587426236E+02  0.13095070275E+03  0.17089559199E+03  0.10566000000E+00 0. -1.
        994    1    1    2    0    0  0.23036408354E+03 -0.70706570153E+02  0.29290344560E+03  0.41613567318E+03  0.17120000000E+03 0.  0.
        998    1    1    2    0    0 -0.12648559326E+03  0.35119143917E+02  0.10761458479E+04  0.10841687348E+04  0.10000000000E+02 0. -1.
</event>
<event>
 5    1  0.1068111E-008  0.3754975E+03  0.7957747E-01  0.3471001E+00
         13   -1    0    0    0    0  0.00000000000E+00  0.00000000000E+00  0.14999999963E+04  0.15000000000E+04  0.10566000000E+00 0. -1.
        994   -1    0    0    0    0 -0.00000000000E+00 -0.00000000000E+00  0.11368683772E-12  0.17120000000E+03  0.17120000000E+03 0.  0.
         13    1    1    2    0    0  0.33040195267E+02  0.80159668490E+02  0.25123139010E+03  0.26577142339E+03  0.10566000000E+00 0. -1.
        994    1    1    2    0    0 -0.19579562028E+02 -0.60627233084E+02  0.28490303470E+02  0.18487876577E+03  0.17120000000E+03 0.  0.
        998    1    1    2    0    0 -0.13460633239E+02 -0.19532435406E+02  0.12202783027E+04  0.12205498108E+04  0.10000000000E+02 0. -1.
</event>
<event>
 5    1  0.1068111E-008  0.3806732E+03  0.7957747E-01  0.3448233E+00
         13   -1    0    0    0    0  0.00000000000E+00  0.00000000000E+00  0.14999999963E+04  0.15000000000E+04  0.10566000000E+00 0. -1.
        994   -1    0    0    0    0 -0.00000000000E+00 -0.00000000000E+00  0.11368683772E-12  0.17120000000E+03  0.17120000000E+03 0.  0.
         13    1    1    2    0    0  0.33682840557E+02 -0.15099637362E+02  0.17911551741E+03  0.18287950278E+03  0.10566000000E+00 0. -1.
        994    1    1    2    0    0 -0.18892801318E+02  0.87939658676E+01  0.52435701584E+01  0.17254334761E+03  0.17120000000E+03 0.  0.
        998    1    1    2    0    0 -0.14790039239E+02  0.63056714943E+01  0.13156409087E+04  0.13157771496E+04  0.10000000000E+02 0. -1.
</event>
<event>
 5    1  0.1068111E-008  0.3823927E+03  0.7957747E-01  0.3440806E+00
         13   -1    0    0    0    0  0.00000000000E+00  0.00000000000E+00  0.14999999963E+04  0.15000000000E+04  0.10566000000E+00 0.  1.
        994   -1    0    0    0    0 -0.00000000000E+00 -0.00000000000E+00  0.11368683772E-12  0.17120000000E+03  0.17120000000E+03 0.  0.
         13    1    1    2    0    0  0.55399635115E+01  0.11833790389E+02  0.27250267478E+02  0.30221152068E+02  0.10566000000E+00 0.  1.
        994    1    1    2    0    0  0.60261101480E+01 -0.22448656270E+02  0.47240944633E+01  0.17283521991E+03  0.17120000000E+03 0.  0.
        998    1    1    2    0    0 -0.11566073660E+02  0.10614865882E+02  0.14680256343E+04  0.14681436280E+04  0.10000000000E+02 0.  1.
</event>
<event>
 5    1  0.1068111E-008  0.3796814E+03  0.7957747E-01  0.3452547E+00
         13   -1    0    0    0    0  0.00000000000E+00  0.00000000000E+00  0.14999999963E+04  0.15000000000E+04  0.10566000000E+00 0. -1.
        994   -1    0    0    0    0 -0.00000000000E+00 -0.00000000000E+00  0.11368683772E-12  0.17120000000E+03  0.17120000000E+03 0.  0.
         13    1    1    2    0    0  0.20463233692E+02  0.82214711649E+01  0.55038462177E+02  0.59292326688E+02  0.10566000000E+00 0. -1.
        994    1    1    2    0    0 -0.93359970150E+01 -0.15047982655E+02  0.53441853892E+01  0.17219640803E+03  0.17120000000E+03 0.  0.
        998    1    1    2    0    0 -0.11127236677E+02  0.68265114899E+01  0.14396173487E+04  0.14397112653E+04  0.10000000000E+02 0. -1.
</event>
<event>
 5    1  0.1068111E-008  0.3818400E+03  0.7957747E-01  0.3443186E+00
         13   -1    0    0    0    0  0.00000000000E+00  0.00000000000E+00  0.14999999963E+04  0.15000000000E+04  0.10566000000E+00 0.  1.
        994   -1    0    0    0    0 -0.00000000000E+00 -0.00000000000E+00  0.11368683772E-12  0.17120000000E+03  0.17120000000E+03 0.  0.
         13    1    1    2    0    0 -0.22429307714E+02  0.59980063289E+00  0.75335549425E+02  0.78605914386E+02  0.10566000000E+00 0.  1.
        994    1    1    2    0    0  0.19507999411E+02 -0.51891162564E+01  0.45623404127E+01  0.17244635084E+03  0.17120000000E+03 0.  0.
        998    1    1    2    0    0  0.29213083030E+01  0.45893156235E+01  0.14201021064E+04  0.14201477348E+04  0.10000000000E+02 0.  1.
</event>
<event>
 5    1  0.1068111E-008  0.3700186E+03  0.7957747E-01  0.3495805E+00
         13   -1    0    0    0    0  0.00000000000E+00  0.00000000000E+00  0.14999999963E+04  0.15000000000E+04  0.10566000000E+00 0. -1.
        994   -1    0    0    0    0 -0.00000000000E+00 -0.00000000000E+00  0.11368683772E-12  0.17120000000E+03  0.17120000000E+03 0.  0.
         13    1    1    2    0    0 -0.65046600372E+01  0.29968348634E+02  0.48121655619E+02  0.57062399403E+02  0.10566000000E+00 0. -1.
        994    1    1    2    0    0 -0.60591789288E+00 -0.14125155461E+02  0.99507335809E+01  0.17207075362E+03  0.17120000000E+03 0.  0.
        998    1    1    2    0    0  0.71105779301E+01 -0.15843193173E+02  0.14419276071E+04  0.14420668470E+04  0.10000000000E+02 0. -1.
</event>
<event>
 5    1  0.1068111E-008  0.3745887E+03  0.7957747E-01  0.3475064E+00
         13   -1    0    0    0    0  0.00000000000E+00  0.00000000000E+00  0.14999999963E+04  0.15000000000E+04  0.10566000000E+00 0.  1.
        994   -1    0    0    0    0 -0.00000000000E+00 -0.00000000000E+00  0.11368683772E-12  0.17120000000E+03  0.17120000000E+03 0.  0.
         13    1    1    2    0    0  0.16663445748E+02 -0.25758084422E+02  0.67919241066E+02  0.74526396721E+02  0.10566000000E+00 0.  1.
        994    1    1    2    0    0 -0.22594095042E+01  0.10778048973E+02  0.73029792193E+01  0.17170918664E+03  0.17120000000E+03 0.  0.
        998    1    1    2    0    0 -0.14404036243E+02  0.14980035449E+02  0.14247777760E+04  0.14249644166E+04  0.10000000000E+02 0.  1.
</event>
<event>
 5    1  0.1068111E-008  0.3698180E+03  0.7957747E-01  0.3496728E+00
         13   -1    0    0    0    0  0.00000000000E+00  0.00000000000E+00  0.14999999963E+04  0.15000000000E+04  0.10566000000E+00 0.  1.
        994   -1    0    0    0    0 -0.00000000000E+00 -0.00000000000E+00  0.11368683772E-12  0.17120000000E+03  0.17120000000E+03 0.  0.
         13    1    1    2    0    0 -0.30623052941E+02 -0.18134620476E+02  0.61707712406E+02  0.71235445992E+02  0.10566000000E+00 0.  1.
        994    1    1    2    0    0  0.31355123978E+02  0.17228171420E+02  0.13805568639E+02  0.17544226234E+03  0.17120000000E+03 0.  0.
        998    1    1    2    0    0 -0.73207103743E+00  0.90644905582E+00  0.14244867152E+04  0.14245222917E+04  0.10000000000E+02 0.  1.
</event>
<event>
 5    1  0.1068111E-008  0.3812683E+03  0.7957747E-01  0.3445655E+00
         13   -1    0    0    0    0  0.00000000000E+00  0.00000000000E+00  0.14999999963E+04  0.15000000000E+04  0.10566000000E+00 0.  1.
        994   -1    0    0    0    0 -0.00000000000E+00 -0.00000000000E+00  0.11368683772E-12  0.17120000000E+03  0.17120000000E+03 0.  0.
         13    1    1    2    0    0 -0.25136426624E+02 -0.27484270107E+02  0.18326038510E+03  0.18700696500E+03  0.10566000000E+00 0.  1.
        994    1    1    2    0    0  0.21058391055E+02  0.23406858890E+02  0.68014469712E+01  0.17420400844E+03  0.17120000000E+03 0.  0.
        998    1    1    2    0    0  0.40780355691E+01  0.40774112170E+01  0.13099381642E+04  0.13099890266E+04  0.10000000000E+02 0.  1.
</event>
<event>
 5    1  0.1068111E-008  0.3770739E+03  0.7957747E-01  0.3463999E+00
         13   -1    0    0    0    0  0.00000000000E+00  0.00000000000E+00  0.14999999963E+04  0.15000000000E+04  0.10566000000E+00 0.  1.
        994   -1    0    0    0    0 -0.00000000000E+00 -0.00000000000E+00  0.11368683772E-12  0.17120000000E+03  0.17120000000E+03 0.  0.
         13    1    1    2    0    0 -0.11091430236E+02 -0.75275721112E+02  0.16809517885E+03  0.18451410334E+03  0.10566000000E+00 0.  1.
        994    1    1    2    0    0  0.34960291222E+02  0.75394108073E+02  0.39926088418E+02  0.19444800341E+03  0.17120000000E+03 0.  0.
        998    1    1    2    0    0 -0.23868860985E+02 -0.11838696195E+00  0.12919787290E+04  0.12922378932E+04  0.10000000000E+02 0.  1.
</event>
<event>
 5    1  0.1068111E-008  0.3812156E+03  0.7957747E-01  0.3445882E+00
         13   -1    0    0    0    0  0.00000000000E+00  0.00000000000E+00  0.14999999963E+04  0.15000000000E+04  0.10566000000E+00 0.  1.
        994   -1    0    0    0    0 -0.00000000000E+00 -0.00000000000E+00  0.11368683772E-12  0.17120000000E+03  0.17120000000E+03 0.  0.
         13    1    1    2    0    0  0.43842527527E+01 -0.21978196131E+02  0.65363587097E+02  0.69099004765E+02  0.10566000000E+00 0.  1.
        994    1    1    2    0    0  0.12077279090E+01  0.30755395001E+02  0.66814237464E+01  0.17407307187E+03  0.17120000000E+03 0.  0.
        998    1    1    2    0    0 -0.55919806617E+01 -0.87771988698E+01  0.14279549854E+04  0.14280279234E+04  0.10000000000E+02 0.  1.
</event>
<event>
 5    1  0.1068111E-008  0.3843109E+03  0.7957747E-01  0.3432600E+00
         13   -1    0    0    0    0  0.00000000000E+00  0.00000000000E+00  0.14999999963E+04  0.15000000000E+04  0.10566000000E+00 0. -1.
        994   -1    0    0    0    0 -0.00000000000E+00 -0.00000000000E+00  0.11368683772E-12  0.17120000000E+03  0.17120000000E+03 0.  0.
         13    1    1    2    0    0 -0.92156381947E+01  0.31487547412E+02  0.18980603831E+03  0.19262070754E+03  0.10566000000E+00 0. -1.
        994    1    1    2    0    0  0.69093407456E+01 -0.58236405891E+02  0.13391843575E+02  0.18146073800E+03  0.17120000000E+03 0.  0.
        998    1    1    2    0    0  0.23062974491E+01  0.26748858479E+02  0.12968021144E+04  0.12971185545E+04  0.10000000000E+02 0. -1.
</event>
<event>
 5    1  0.1068111E-008  0.3686723E+03  0.7957747E-01  0.3502015E+00
         13   -1    0    0    0    0  0.00000000000E+00  0.00000000000E+00  0.14999999963E+04  0.15000000000E+04  0.10566000000E+00 0.  1.
        994   -1    0    0    0    0 -0.00000000000E+00 -0.00000000000E+00  0.11368683772E-12  0.17120000000E+03  0.17120000000E+03 0.  0.
         13    1    1    2    0    0  0.46034177403E+02 -0.21364481716E+02  0.11544542633E+03  0.12610806554E+03  0.10566000000E+00 0.  1.
        994    1    1    2    0    0 -0.55017530382E+02  0.87408201305E+01  0.20822975547E+02  0.18123566673E+03  0.17120000000E+03 0.  0.
        998    1    1    2    0    0  0.89833529784E+01  0.12623661586E+02  0.13637315944E+04  0.13638562677E+04  0.10000000000E+02 0.  1.
</event>
<event>
 5    1  0.1068111E-008  0.3784966E+03  0.7957747E-01  0.3457731E+00
         13   -1    0    0    0    0  0.00000000000E+00  0.00000000000E+00  0.14999999963E+04  0.15000000000E+04  0.10566000000E+00 0. -1.
        994   -1    0    0    0    0 -0.00000000000E+00 -0.00000000000E+00  0.11368683772E-12  0.17120000000E+03  0.17120000000E+03 0.  0.
         13    1    1    2    0    0 -0.11153011984E+02 -0.59057265889E+01  0.14382190216E+02  0.19134415128E+02  0.10566000000E+00 0. -1.
        994    1    1    2    0    0 -0.79040519064E+00  0.53873043548E+01  0.49935908237E+01  0.17135934097E+03  0.17120000000E+03 0.  0.
        998    1    1    2    0    0  0.11943417175E+02  0.51842223416E+00  0.14806242152E+04  0.14807062439E+04  0.10000000000E+02 0. -1.
</event>
<event>
 5    1  0.1068111E-008  0.3699910E+03  0.7957747E-01  0.3495932E+00
         13   -1    0    0    0    0  0.00000000000E+00  0.00000000000E+00  0.14999999963E+04  0.15000000000E+04  0.10566000000E+00 0. -1.
        994   -1    0    0    0    0 -0.00000000000E+00 -0.00000000000E+00  0.11368683772E-12  0.17120000000E+03  0.17120000000E+03 0.  0.
         13    1    1    2    0    0  0.82826175192E+01  0.85123596124E+02  0.27451467967E+03  0.28752904008E+03  0.10566000000E+00 0. -1.
        994    1    1    2    0    0 -0.41084921255E+02 -0.79715662396E+02  0.39605421803E+02  0.19728301250E+03  0.17120000000E+03 0.  0.
        998    1    1    2    0    0  0.32802303736E+02 -0.54079337280E+01  0.11858798948E+04  0.11863879474E+04  0.10000000000E+02 0. -1.
</event>
<event>
 5    1  0.1068111E-008  0.3702941E+03  0.7957747E-01  0.3494541E+00
         13   -1    0    0    0    0  0.00000000000E+00  0.00000000000E+00  0.14999999963E+04  0.15000000000E+04  0.10566000000E+00 0. -1.
        994   -1    0    0    0    0 -0.00000000000E+00 -0.00000000000E+00  0.11368683772E-12  0.17120000000E+03  0.17120000000E+03 0.  0.
         13    1    1    2    0    0 -0.10229332987E+02 -0.28434498338E+02  0.45554084113E+02  0.54665763441E+02  0.10566000000E+00 0. -1.
        994    1    1    2    0    0  0.25979069368E+02  0.20140548148E+02  0.12856977354E+02  0.17480073110E+03  0.17120000000E+03 0.  0.
        998    1    1    2    0    0 -0.15749736381E+02  0.82939501909E+01  0.14415889348E+04  0.14417335055E+04  0.10000000000E+02 0. -1.
</event>
<event>
 5    1  0.1068111E-008  0.3690897E+03  0.7957747E-01  0.3500085E+00
         13   -1    0    0    0    0  0.00000000000E+00  0.00000000000E+00  0.14999999963E+04  0.15000000000E+04  0.10566000000E+00 0. -1.
        994   -1    0    0    0    0 -0.00000000000E+00 -0.00000000000E+00  0.11368683772E-12  0.17120000000E+03  0.17120000000E+03 0.  0.
         13    1    1    2    0    0  0.14475908862E+02 -0.35322028136E+02  0.62640911091E+02  0.73355930335E+02  0.10566000000E+00 0. -1.
        994    1    1    2    0    0 -0.10261840119E+02  0.40540641264E+02  0.16577641945E+02  0.17701160179E+03  0.17120000000E+03 0.  0.
        998    1    1    2    0    0 -0.42140687425E+01 -0.52186131284E+01  0.14207814432E+04  0.14208324679E+04  0.10000000000E+02 0. -1.
</event>
<event>
 5    1  0.1068111E-008  0.3712369E+03  0.7957747E-01  0.3490226E+00
         13   -1    0    0    0    0  0.00000000000E+00  0.00000000000E+00  0.14999999963E+04  0.15000000000E+04  0.10566000000E+00 0. -1.
        994   -1    0    0    0    0 -0.00000000000E+00 -0.00000000000E+00  0.11368683772E-12  0.17120000000E+03  0.17120000000E+03 0.  0.
         13    1    1    2    0    0  0.90795090077E+02  0.96403036524E+02  0.62916354872E+03  0.64294951282E+03  0.10566000000E+00 0. -1.
        994    1    1    2    0    0 -0.76182300979E+02 -0.97075924516E+02  0.63029238874E+02  0.22024895699E+03  0.17120000000E+03 0.  0.
        998    1    1    2    0    0 -0.14612789099E+02  0.67288799210E+00  0.80780720868E+03  0.80800153019E+03  0.10000000000E+02 0. -1.
</event>
<event>
 5    1  0.1068111E-008  0.2524837E+03  0.7957747E-01  0.4307105E+00
         13   -1    0    0    0    0  0.00000000000E+00  0.00000000000E+00  0.14999999963E+04  0.15000000000E+04  0.10566000000E+00 0. -1.
        994   -1    0    0    0    0 -0.00000000000E+00 -0.00000000000E+00  0.11368683772E-12  0.17120000000E+03  0.17120000000E+03 0.  0.
         13    1    1    2    0    0 -0.17072813025E+03  0.15676039672E+02  0.20769130180E+03  0.26931305331E+03  0.10566000000E+00 0. -1.
        994    1    1    2    0    0  0.18058459523E+03 -0.13302352608E+03  0.33803048157E+03  0.44031818154E+03  0.17120000000E+03 0.  0.
        998    1    1    2    0    0 -0.98564649871E+01  0.11734748641E+03  0.95427821292E+03  0.96156876515E+03  0.10000000000E+02 0. -1.
</event>
<event>
 5    1  0.1068111E-008  0.3863914E+03  0.7957747E-01  0.3423792E+00
         13   -1    0    0    0    0  0.00000000000E+00  0.00000000000E+00  0.14999999963E+04  0.15000000000E+04  0.10566000000E+00 0.  1.
        994   -1    0    0    0    0 -0.00000000000E+00 -0.00000000000E+00  0.11368683772E-12  0.17120000000E+03  0.17120000000E+03 0.  0.
         13    1    1    2    0    0  0.72704947951E+01 -0.78695655273E+01  0.61061748363E+02  0.61994664555E+02  0.10566000000E+00 0.  1.
        994    1    1    2    0    0  0.76689891756E+00  0.13804319704E+02  0.15669174861E+01  0.17176449752E+03  0.17120000000E+03 0.  0.
        998    1    1    2    0    0 -0.80373937127E+01 -0.59347541764E+01  0.14373713304E+04  0.14374408379E+04  0.10000000000E+02 0.  1.
</event>
<event>
 5    1  0.1068111E-008  0.3860935E+03  0.7957747E-01  0.3425048E+00
         13   -1    0    0    0    0  0.00000000000E+00  0.00000000000E+00  0.14999999963E+04  0.15000000000E+04  0.10566000000E+00 0. -1.
        994   -1    0    0    0    0 -0.00000000000E+00 -0.00000000000E+00  0.11368683772E-12  0.17120000000E+03  0.17120000000E+03 0.  0.
         13    1    1    2    0    0  0.92652774749E+01 -0.60654912822E+01  0.59368701387E+02  0.60392792779E+02  0.10566000000E+00 0. -1.
        994    1    1    2    0    0 -0.68579520309E+01 -0.62824871010E+01  0.13717404208E+01  0.17145793310E+03  0.17120000000E+03 0.  0.
        998    1    1    2    0    0 -0.24073254440E+01  0.12347978383E+02  0.14392595545E+04  0.14393492741E+04  0.10000000000E+02 0. -1.
</event>
<event>
 5    1  0.2241306E-008  0.3864552E+03  0.7957747E-01  0.3423524E+00
         13   -1    0    0    0    0  0.00000000000E+00  0.00000000000E+00  0.14999999963E+04  0.15000000000E+04  0.10566000000E+00 0. -1.
        994   -1    0    0    0    0 -0.00000000000E+00 -0.00000000000E+00  0.11368683772E-12  0.17120000000E+03  0.17120000000E+03 0.  0.
         13    1    1    2    0    0  0.93165913450E+01 -0.50100362872E+01  0.60749545826E+02  0.61663748021E+02  0.10566000000E+00 0. -1.
        994    1    1    2    0    0 -0.10496524604E+02  0.41566466259E+01  0.13266723996E+01  0.17157696465E+03  0.17120000000E+03 0.  0.
        998    1    1    2    0    0  0.11799332594E+01  0.85338966137E+00  0.14379237781E+04  0.14379592873E+04  0.10000000000E+02 0. -1.
</event>
<event>
 5    1  0.1068111E-008  0.3833916E+03  0.7957747E-01  0.3436522E+00
         13   -1    0    0    0    0  0.00000000000E+00  0.00000000000E+00  0.14999999963E+04  0.15000000000E+04  0.10566000000E+00 0. -1.
        994   -1    0    0    0    0 -0.00000000000E+00 -0.00000000000E+00  0.11368683772E-12  0.17120000000E+03  0.17120000000E+03 0.  0.
         13    1    1    2    0    0  0.15581293009E+02  0.70205090317E+01  0.64547689461E+02  0.66771847494E+02  0.10566000000E+00 0. -1.
        994    1    1    2    0    0  0.61058376346E+01 -0.29132279731E+01  0.25821161220E+01  0.17135307256E+03  0.17120000000E+03 0.  0.
        998    1    1    2    0    0 -0.21687130644E+02 -0.41072810586E+01  0.14328701907E+04  0.14330750800E+04  0.10000000000E+02 0. -1.
</event>
<event>
 5    1  0.1068111E-008  0.3833863E+03  0.7957747E-01  0.3436545E+00
         13   -1    0    0    0    0  0.00000000000E+00  0.00000000000E+00  0.14999999963E+04  0.15000000000E+04  0.10566000000E+00 0. -1.
        994   -1    0    0    0    0 -0.00000000000E+00 -0.00000000000E+00  0.11368683772E-12  0.17120000000E+03  0.17120000000E+03 0.  0.
         13    1    1    2    0    0  0.29747913779E+02  0.34041258650E+01  0.17200857854E+03  0.17459521386E+03  0.10566000000E+00 0. -1.
        994    1    1    2    0    0 -0.24645889861E+02 -0.71792989360E+01  0.46149776593E+01  0.17317534536E+03  0.17120000000E+03 0.  0.
        998    1    1    2    0    0 -0.51020239176E+01  0.37751730709E+01  0.13233764401E+04  0.13234294408E+04  0.10000000000E+02 0. -1.
</event>
<event>
 5    1  0.1068111E-008  0.3837397E+03  0.7957747E-01  0.3435035E+00
         13   -1    0    0    0    0  0.00000000000E+00  0.00000000000E+00  0.14999999963E+04  0.15000000000E+04  0.10566000000E+00 0. -1.
        994   -1    0    0    0    0 -0.00000000000E+00 -0.00000000000E+00  0.11368683772E-12  0.17120000000E+03  0.17120000000E+03 0.  0.
         13    1    1    2    0    0  0.19223987037E+02 -0.10487644978E+02  0.12190855439E+03  0.12385983680E+03  0.10566000000E+00 0. -1.
        994    1    1    2    0    0  0.10258853160E+02  0.88762234030E+01  0.28651011237E+01  0.17176053160E+03  0.17120000000E+03 0.  0.
        998    1    1    2    0    0 -0.29482840196E+02  0.16114215751E+01  0.13752263408E+04  0.13755796316E+04  0.10000000000E+02 0. -1.
</event>
<event>
 5    1  0.1068111E-008  0.3701121E+03  0.7957747E-01  0.3495376E+00
         13   -1    0    0    0    0  0.00000000000E+00  0.00000000000E+00  0.14999999963E+04  0.15000000000E+04  0.10566000000E+00 0.  1.
        994   -1    0    0    0    0 -0.00000000000E+00 -0.00000000000E+00  0.11368683772E-12  0.17120000000E+03  0.17120000000E+03 0.  0.
         13    1    1    2    0    0  0.35448700977E+02  0.57149543172E+02  0.21560198035E+03  0.22584708495E+03  0.10566000000E+00 0.  1.
        994    1    1    2    0    0 -0.36375387938E+02 -0.49438738314E+02  0.22346625983E+02  0.18323801294E+03  0.17120000000E+03 0.  0.
        998    1    1    2    0    0  0.92668696102E+00 -0.77108048586E+01  0.12620513900E+04  0.12621149021E+04  0.10000000000E+02 0.  1.
</event>
<event>
 5    1  0.1068111E-008  0.3847370E+03  0.7957747E-01  0.3430789E+00
         13   -1    0    0    0    0  0.00000000000E+00  0.00000000000E+00  0.14999999963E+04  0.15000000000E+04  0.10566000000E+00 0.  1.
        994   -1    0    0    0    0 -0.00000000000E+00 -0.00000000000E+00  0.11368683772E-12  0.17120000000E+03  0.17120000000E+03 0.  0.
         13    1    1    2    0    0 -0.85564830536E+01 -0.10850147158E+02  0.61179342630E+02  0.62720508801E+02  0.10566000000E+00 0.  1.
        994    1    1    2    0    0 -0.12453668043E+02 -0.44048443207E+01  0.23353455753E+01  0.17172475168E+03  0.17120000000E+03 0.  0.
        998    1    1    2    0    0  0.21010151097E+02  0.15254991479E+02  0.14364853081E+04  0.14367547395E+04  0.10000000000E+02 0.  1.
</event>
<event>
 5    1  0.1068111E-008  0.3823773E+03  0.7957747E-01  0.3440872E+00
         13   -1    0    0    0    0  0.00000000000E+00  0.00000000000E+00  0.14999999963E+04  0.15000000000E+04  0.10566000000E+00 0.  1.
        994   -1    0    0    0    0 -0.00000000000E+00 -0.00000000000E+00  0.11368683772E-12  0.17120000000E+03  0.17120000000E+03 0.  0.
         13    1    1    2    0    0  0.17907228219E+02 -0.13749320013E+02  0.81602895241E+02  0.84668508308E+02  0.10566000000E+00 0.  1.
        994    1    1    2    0    0 -0.31721505426E+02 -0.20294703974E+01  0.62963859810E+01  0.17423965431E+03  0.17120000000E+03 0.  0.
        998    1    1    2    0    0  0.13814277207E+02  0.15778790411E+02  0.14121007151E+04  0.14122918374E+04  0.10000000000E+02 0.  1.
</event>
<event>
 5    1  0.1068111E-008  0.3804323E+03  0.7957747E-01  0.3449278E+00
         13   -1    0    0    0    0  0.00000000000E+00  0.00000000000E+00  0.14999999963E+04  0.15000000000E+04  0.10566000000E+00 0. -1.
        994   -1    0    0    0    0 -0.00000000000E+00 -0.00000000000E+00  0.11368683772E-12  0.17120000000E+03  0.17120000000E+03 0.  0.
         13    1    1    2    0    0 -0.91812646711E+01 -0.54138031384E+02  0.31808307853E+03  0.32278797697E+03  0.10566000000E+00 0. -1.
        994    1    1    2    0    0  0.16079834208E+02  0.48848591209E+02  0.12794620846E+02  0.17921464297E+03  0.17120000000E+03 0.  0.
        998    1    1    2    0    0 -0.68985695371E+01  0.52894401747E+01  0.11691222969E+04  0.11691973801E+04  0.10000000000E+02 0.  0.
</event>
<event>
 5    1  0.1068111E-008  0.3802612E+03  0.7957747E-01  0.3450022E+00
         13   -1    0    0    0    0  0.00000000000E+00  0.00000000000E+00  0.14999999963E+04  0.15000000000E+04  0.10566000000E+00 0. -1.
        994   -1    0    0    0    0 -0.00000000000E+00 -0.00000000000E+00  0.11368683772E-12  0.17120000000E+03  0.17120000000E+03 0.  0.
         13    1    1    2    0    0 -0.17054870811E+02 -0.19111260112E+02  0.85901244454E+02  0.89638963873E+02  0.10566000000E+00 0. -1.
        994    1    1    2    0    0  0.52334845284E+01 -0.86621119565E+00  0.40953544474E+01  0.17133111688E+03  0.17120000000E+03 0.  0.
        998    1    1    2    0    0  0.11821386282E+02  0.19977471308E+02  0.14100033974E+04  0.14102299193E+04  0.10000000000E+02 0. -1.
</event>
<event>
 5    1  0.1068111E-008  0.3841191E+03  0.7957747E-01  0.3433417E+00
         13   -1    0    0    0    0  0.00000000000E+00  0.00000000000E+00  0.14999999963E+04  0.15000000000E+04  0.10566000000E+00 0. -1.
        994   -1    0    0    0    0 -0.00000000000E+00 -0.00000000000E+00  0.11368683772E-12  0.17120000000E+03  0.17120000000E+03 0.  0.
         13    1    1    2    0    0  0.17578100043E+02  0.12172794884E+02  0.10923174230E+03  0.11130476731E+03  0.10566000000E+00 0. -1.
        994    1    1    2    0    0 -0.16083130715E+02 -0.23122443899E+01  0.29393389374E+01  0.17199445712E+03  0.17120000000E+03 0.  0.
        998    1    1    2    0    0 -0.14949693287E+01 -0.98605504942E+01  0.13878289150E+04  0.13879007756E+04  0.10000000000E+02 0. -1.
</event>
<event>
 5    1  0.1068111E-008  0.3748238E+03  0.7957747E-01  0.3474011E+00
         13   -1    0    0    0    0  0.00000000000E+00  0.00000000000E+00  0.14999999963E+04  0.15000000000E+04  0.10566000000E+00 0.  1.
        994   -1    0    0    0    0 -0.00000000000E+00 -0.00000000000E+00  0.11368683772E-12  0.17120000000E+03  0.17120000000E+03 0.  0.
         13    1    1    2    0    0 -0.75322743209E+02 -0.42773583011E+02  0.34237167831E+03  0.35315927331E+03  0.10566000000E+00 0.  1.
        994    1    1    2    0    0  0.15890887045E+02  0.27380700853E+01  0.14437697026E+02  0.17256275500E+03  0.17120000000E+03 0.  0.
        998    1    1    2    0    0  0.59431856164E+02  0.40035512926E+02  0.11431906209E+04  0.11454779717E+04  0.10000000000E+02 0.  1.
</event>
<event>
 5    1  0.1068111E-008  0.3779445E+03  0.7957747E-01  0.3460158E+00
         13   -1    0    0    0    0  0.00000000000E+00  0.00000000000E+00  0.14999999963E+04  0.15000000000E+04  0.10566000000E+00 0.  1.
        994   -1    0    0    0    0 -0.00000000000E+00 -0.00000000000E+00  0.11368683772E-12  0.17120000000E+03  0.17120000000E+03 0.  0.
         13    1    1    2    0    0 -0.39523300467E+02 -0.39585313225E+02  0.26400249383E+03  0.26986369933E+03  0.10566000000E+00 0.  1.
        994    1    1    2    0    0  0.26829119501E+02  0.42479674208E+02  0.13718242148E+02  0.17894679249E+03  0.17120000000E+03 0.  0.
        998    1    1    2    0    0  0.12694180966E+02 -0.28943609827E+01  0.12222792603E+04  0.12223895082E+04  0.10000000000E+02 0.  1.
</event>
<event>
 5    1  0.1068111E-008  0.3831529E+03  0.7957747E-01  0.3437544E+00
         13   -1    0    0    0    0  0.00000000000E+00  0.00000000000E+00  0.14999999963E+04  0.15000000000E+04  0.10566000000E+00 0. -1.
        994   -1    0    0    0    0 -0.00000000000E+00 -0.00000000000E+00  0.11368683772E-12  0.17120000000E+03  0.17120000000E+03 0.  0.
         13    1    1    2    0    0 -0.49499383967E+01  0.11669353307E+02  0.30278389813E+02  0.32824803890E+02  0.10566000000E+00 0. -1.
        994    1    1    2    0    0  0.42988798470E+01 -0.11316823824E+02  0.30349970803E+01  0.17165430981E+03  0.17120000000E+03 0.  0.
        998    1    1    2    0    0  0.65105854971E+00 -0.35252948309E+00  0.14666866094E+04  0.14667208863E+04  0.10000000000E+02 0. -1.
</event>
<event>
 5    1  0.1068111E-008  0.3820766E+03  0.7957747E-01  0.3442166E+00
         13   -1    0    0    0    0  0.00000000000E+00  0.00000000000E+00  0.14999999963E+04  0.15000000000E+04  0.10566000000E+00 0.  1.
        994   -1    0    0    0    0 -0.00000000000E+00 -0.00000000000E+00  0.11368683772E-12  0.17120000000E+03  0.17120000000E+03 0.  0.
         13    1    1    2    0    0 -0.20473413710E+02  0.53800593814E+01  0.71114922410E+02  0.74198713340E+02  0.10566000000E+00 0.  1.
        994    1    1    2    0    0  0.21238847163E+02  0.21244724918E+02  0.60905069085E+01  0.17392228506E+03  0.17120000000E+03 0.  0.
        998    1    1    2    0    0 -0.76543345305E+00 -0.26624784300E+02  0.14227945670E+04  0.14230790016E+04  0.10000000000E+02 0.  1.
</event>
<event>
 5    1  0.1068111E-008  0.3847095E+03  0.7957747E-01  0.3430905E+00
         13   -1    0    0    0    0  0.00000000000E+00  0.00000000000E+00  0.14999999963E+04  0.15000000000E+04  0.10566000000E+00 0. -1.
        994   -1    0    0    0    0 -0.00000000000E+00 -0.00000000000E+00  0.11368683772E-12  0.17120000000E+03  0.17120000000E+03 0.  0.
         13    1    1    2    0    0  0.17489896211E+02  0.13145464396E+02  0.12232882569E+03  0.12427007871E+03  0.10566000000E+00 0. -1.
        994    1    1    2    0    0 -0.22102824825E+02 -0.12787233605E+02  0.39237753962E+01  0.17313833839E+03  0.17120000000E+03 0.  0.
        998    1    1    2    0    0  0.46129286148E+01 -0.35823079108E+00  0.13737473952E+04  0.13737915829E+04  0.10000000000E+02 0. -1.
</event>
<event>
 5    1  0.1068111E-008  0.3784115E+03  0.7957747E-01  0.3458104E+00
         13   -1    0    0    0    0  0.00000000000E+00  0.00000000000E+00  0.14999999963E+04  0.15000000000E+04  0.10566000000E+00 0. -1.
        994   -1    0    0    0    0 -0.00000000000E+00 -0.00000000000E+00  0.11368683772E-12  0.17120000000E+03  0.17120000000E+03 0.  0.
         13    1    1    2    0    0  0.18658184223E+02 -0.36159423421E+01  0.36759318679E+02  0.41381898836E+02  0.10566000000E+00 0. -1.
        994    1    1    2    0    0  0.74447735316E+01  0.39927210560E+01  0.51770121392E+01  0.17148646573E+03  0.17120000000E+03 0.  0.
        998    1    1    2    0    0 -0.26102957755E+02 -0.37677871395E+00  0.14580636655E+04  0.14583316354E+04  0.10000000000E+02 0. -1.
</event>
<event>
 5    1  0.1068111E-008  0.3838154E+03  0.7957747E-01  0.3434712E+00
         13   -1    0    0    0    0  0.00000000000E+00  0.00000000000E+00  0.14999999963E+04  0.15000000000E+04  0.10566000000E+00 0. -1.
        994   -1    0    0    0    0 -0.00000000000E+00 -0.00000000000E+00  0.11368683772E-12  0.17120000000E+03  0.17120000000E+03 0.  0.
         13    1    1    2    0    0 -0.29005041162E+01 -0.11923418789E+02  0.32983205593E+02  0.35192099326E+02  0.10566000000E+00 0. -1.
        994    1    1    2    0    0 -0.18110845233E+01  0.11471843313E+02  0.26648575635E+01  0.17161417390E+03  0.17120000000E+03 0.  0.
        998    1    1    2    0    0  0.47115886395E+01  0.45157547631E+00  0.14643519331E+04  0.14643937268E+04  0.10000000000E+02 0. -1.
</event>
<event>
 5    1  0.1068111E-008  0.3834418E+03  0.7957747E-01  0.3436308E+00
         13   -1    0    0    0    0  0.00000000000E+00  0.00000000000E+00  0.14999999963E+04  0.15000000000E+04  0.10566000000E+00 0.  1.
        994   -1    0    0    0    0 -0.00000000000E+00 -0.00000000000E+00  0.11368683772E-12  0.17120000000E+03  0.17120000000E+03 0.  0.
         13    1    1    2    0    0 -0.12473313486E+02 -0.16484483112E+02  0.95758686196E+02  0.97964579715E+02  0.10566000000E+00 0.  1.
        994    1    1    2    0    0  0.35785694221E+01 -0.22423985332E+01  0.24646697818E+01  0.17126981377E+03  0.17120000000E+03 0.  0.
        998    1    1    2    0    0  0.88947440639E+01  0.18726881645E+02  0.14017766403E+04  0.14019656065E+04  0.10000000000E+02 0.  1.
</event>
<event>
 5    1  0.1068111E-008  0.3856123E+03  0.7957747E-01  0.3427079E+00
         13   -1    0    0    0    0  0.00000000000E+00  0.00000000000E+00  0.14999999963E+04  0.15000000000E+04  0.10566000000E+00 0. -1.
        994   -1    0    0    0    0 -0.00000000000E+00 -0.00000000000E+00  0.11368683772E-12  0.17120000000E+03  0.17120000000E+03 0.  0.
         13    1    1    2    0    0  0.16063321792E+02 -0.11437710486E+01  0.95765807129E+02  0.97110449996E+02  0.10566000000E+00 0. -1.
        994    1    1    2    0    0 -0.13727985839E+02 -0.22938422004E+01  0.19625013160E+01  0.17177604815E+03  0.17120000000E+03 0.  0.
        998    1    1    2    0    0 -0.23353359527E+01  0.34376132490E+01  0.14022716878E+04  0.14023135019E+04  0.10000000000E+02 0. -1.
</event>
<event>
 5    1  0.1068111E-008  0.3825669E+03  0.7957747E-01  0.3440057E+00
         13   -1    0    0    0    0  0.00000000000E+00  0.00000000000E+00  0.14999999963E+04  0.15000000000E+04  0.10566000000E+00 0.  1.
        994   -1    0    0    0    0 -0.00000000000E+00 -0.00000000000E+00  0.11368683772E-12  0.17120000000E+03  0.17120000000E+03 0.  0.
         13    1    1    2    0    0 -0.15297757247E+01 -0.11214243495E+02  0.21570226956E+02  0.24359501758E+02  0.10566000000E+00 0.  1.
        994    1    1    2    0    0  0.18674113914E+01  0.59527500617E+01  0.29719933321E+01  0.17133941521E+03  0.17120000000E+03 0.  0.
        998    1    1    2    0    0 -0.33763566677E+00  0.52614934332E+01  0.14754577760E+04  0.14755010830E+04  0.10000000000E+02 0.  1.
</event>
<event>
 5    1  0.1068111E-008  0.3853020E+03  0.7957747E-01  0.3428392E+00
         13   -1    0    0    0    0  0.00000000000E+00  0.00000000000E+00  0.14999999963E+04  0.15000000000E+04  0.10566000000E+00 0.  1.
        994   -1    0    0    0    0 -0.00000000000E+00 -0.00000000000E+00  0.11368683772E-12  0.17120000000E+03  0.17120000000E+03 0.  0.
         13    1    1    2    0    0 -0.97601935790E+01  0.66795546101E+01  0.46535217688E+02  0.48014742297E+02  0.10566000000E+00 0.  1.
        994    1    1    2    0    0  0.11889024386E+02 -0.20602769498E+01  0.19587440151E+01  0.17163586548E+03  0.17120000000E+03 0.  0.
        998    1    1    2    0    0 -0.21288308071E+01 -0.46192776604E+01  0.14515060346E+04  0.14515493922E+04  0.10000000000E+02 0.  1.
</event>
<event>
 5    1  0.1068111E-008  0.3768489E+03  0.7957747E-01  0.3464995E+00
         13   -1    0    0    0    0  0.00000000000E+00  0.00000000000E+00  0.14999999963E+04  0.15000000000E+04  0.10566000000E+00 0. -1.
        994   -1    0    0    0    0 -0.00000000000E+00 -0.00000000000E+00  0.11368683772E-12  0.17120000000E+03  0.17120000000E+03 0.  0.
         13    1    1    2    0    0  0.85185910030E+01 -0.18559520293E+02  0.33889262325E+02  0.39566595142E+02  0.10566000000E+00 0. -1.
        994    1    1    2    0    0 -0.23919470724E+01  0.15974686620E+02  0.66142119673E+01  0.17208747724E+03  0.17120000000E+03 0.  0.
        998    1    1    2    0    0 -0.61266439306E+01  0.25848336729E+01  0.14594965220E+04  0.14595459276E+04  0.10000000000E+02 0. -1.
</event>
<event>
 5    1  0.1068111E-008  0.3858016E+03  0.7957747E-01  0.3426280E+00
         13   -1    0    0    0    0  0.00000000000E+00  0.00000000000E+00  0.14999999963E+04  0.15000000000E+04  0.10566000000E+00 0.  1.
        994   -1    0    0    0    0 -0.00000000000E+00 -0.00000000000E+00  0.11368683772E-12  0.17120000000E+03  0.17120000000E+03 0.  0.
         13    1    1    2    0    0 -0.56263357176E+01  0.13141031441E+02  0.85216293385E+02  0.86407003092E+02  0.10566000000E+00 0.  1.
        994    1    1    2    0    0  0.46814362292E+01 -0.56417877876E+01  0.14089802388E+01  0.17136268800E+03  0.17120000000E+03 0.  0.
        998    1    1    2    0    0  0.94489948843E+00 -0.74992436533E+01  0.14133747227E+04  0.14134303089E+04  0.10000000000E+02 0.  1.
</event>
<event>
 5    1  0.1068111E-008  0.3849848E+03  0.7957747E-01  0.3429737E+00
         13   -1    0    0    0    0  0.00000000000E+00  0.00000000000E+00  0.14999999963E+04  0.15000000000E+04  0.10566000000E+00 0.  1.
        994   -1    0    0    0    0 -0.00000000000E+00 -0.00000000000E+00  0.11368683772E-12  0.17120000000E+03  0.17120000000E+03 0.  0.
         13    1    1    2    0    0  0.11304965642E+02  0.31871529188E+01  0.40782561653E+02  0.42440413416E+02  0.10566000000E+00 0.  1.
        994    1    1    2    0    0 -0.12105318831E+02 -0.77602826537E+01  0.23179969198E+01  0.17181843277E+03  0.17120000000E+03 0.  0.
        998    1    1    2    0    0  0.80035318912E+00  0.45731297349E+01  0.14568994377E+04  0.14569411538E+04  0.10000000000E+02 0.  1.
</event>
<event>
 5    1  0.1068111E-008  0.3866194E+03  0.7957747E-01  0.3422833E+00
         13   -1    0    0    0    0  0.00000000000E+00  0.00000000000E+00  0.14999999963E+04  0.15000000000E+04  0.10566000000E+00 0.  1.
        994   -1    0    0    0    0 -0.00000000000E+00 -0.00000000000E+00  0.11368683772E-12  0.17120000000E+03  0.17120000000E+03 0.  0.
         13    1    1    2    0    0 -0.59916082339E+02  0.34321256603E+02  0.12759240587E+03  0.14507831946E+03  0.10566000000E+00 0.  1.
        994    1    1    2    0    0  0.41688272470E+02  0.56937901176E+02  0.38751171784E+02  0.18918490946E+03  0.17120000000E+03 0.  0.
        998    1    1    2    0    0  0.18227809869E+02 -0.91259157779E+02  0.13336564186E+04  0.13369367711E+04  0.10000000000E+02 0.  1.
</event>
<event>
 5    1  0.1068111E-008  0.3827020E+03  0.7957747E-01  0.3439477E+00
         13   -1    0    0    0    0  0.00000000000E+00  0.00000000000E+00  0.14999999963E+04  0.15000000000E+04  0.10566000000E+00 0.  1.
        994   -1    0    0    0    0 -0.00000000000E+00 -0.00000000000E+00  0.11368683772E-12  0.17120000000E+03  0.17120000000E+03 0.  0.
         13    1    1    2    0    0 -0.11440040255E+02  0.17336310041E+01  0.22830471877E+02  0.25595343476E+02  0.10566000000E+00 0.  1.
        994    1    1    2    0    0  0.10857084217E+02 -0.59869836255E+01  0.32848340230E+01  0.17167979026E+03  0.17120000000E+03 0.  0.
        998    1    1    2    0    0  0.58295603774E+00  0.42533526214E+01  0.14738846904E+04  0.14739248663E+04  0.10000000000E+02 0.  1.
</event>
<event>
 5    1  0.1068111E-008  0.3750254E+03  0.7957747E-01  0.3473109E+00
         13   -1    0    0    0    0  0.00000000000E+00  0.00000000000E+00  0.14999999963E+04  0.15000000000E+04  0.10566000000E+00 0. -1.
        994   -1    0    0    0    0 -0.00000000000E+00 -0.00000000000E+00  0.11368683772E-12  0.17120000000E+03  0.17120000000E+03 0.  0.
         13    1    1    2    0    0  0.35995716416E+02 -0.18557288185E+02  0.13409627242E+03  0.14007814243E+03  0.10566000000E+00 0. -1.
        994    1    1    2    0    0 -0.41197457564E+01 -0.16732098621E+01  0.67329183557E+01  0.17139003508E+03  0.17120000000E+03 0.  0.
        998    1    1    2    0    0 -0.31875970659E+02  0.20230498047E+02  0.13591708055E+04  0.13597318225E+04  0.10000000000E+02 0. -1.
</event>
<event>
 5    1  0.1068111E-008  0.3734826E+03  0.7957747E-01  0.3480037E+00
         13   -1    0    0    0    0  0.00000000000E+00  0.00000000000E+00  0.14999999963E+04  0.15000000000E+04  0.10566000000E+00 0.  1.
        994   -1    0    0    0    0 -0.00000000000E+00 -0.00000000000E+00  0.11368683772E-12  0.17120000000E+03  0.17120000000E+03 0.  0.
         13    1    1    2    0    0  0.74522377215E+02  0.15916892261E+03  0.76722099385E+03  0.78709363814E+03  0.10566000000E+00 0.  1.
        994    1    1    2    0    0 -0.78739595475E+02 -0.16459925171E+03  0.13140891068E+03  0.28261383435E+03  0.17120000000E+03 0.  0.
        998    1    1    2    0    0  0.42172182598E+01  0.54303290944E+01  0.60137009175E+03  0.60149252751E+03  0.10000000000E+02 0.  1.
</event>
<event>
 5    1  0.1068111E-008  0.3858272E+03  0.7957747E-01  0.3426172E+00
         13   -1    0    0    0    0  0.00000000000E+00  0.00000000000E+00  0.14999999963E+04  0.15000000000E+04  0.10566000000E+00 0. -1.
        994   -1    0    0    0    0 -0.00000000000E+00 -0.00000000000E+00  0.11368683772E-12  0.17120000000E+03  0.17120000000E+03 0.  0.
         13    1    1    2    0    0  0.51745847802E+01 -0.98355900812E+01  0.53320322049E+02  0.54466348027E+02  0.10566000000E+00 0. -1.
        994    1    1    2    0    0 -0.47161754353E+01 -0.13195941136E+01  0.12986876992E+01  0.17127495506E+03  0.17120000000E+03 0.  0.
        998    1    1    2    0    0 -0.45840934487E+00  0.11155184195E+02  0.14453809865E+04  0.14454586969E+04  0.10000000000E+02 0. -1.
</event>
<event>
 5    1  0.1068111E-008  0.3822837E+03  0.7957747E-01  0.3441275E+00
         13   -1    0    0    0    0  0.00000000000E+00  0.00000000000E+00  0.14999999963E+04  0.15000000000E+04  0.10566000000E+00 0. -1.
        994   -1    0    0    0    0 -0.00000000000E+00 -0.00000000000E+00  0.11368683772E-12  0.17120000000E+03  0.17120000000E+03 0.  0.
         13    1    1    2    0    0 -0.14153036346E+02  0.10173324688E+02  0.47030309015E+02  0.50156416370E+02  0.10566000000E+00 0. -1.
        994    1    1    2    0    0 -0.10451179474E+01 -0.46582661744E+02  0.10221689220E+02  0.17772157882E+03  0.17120000000E+03 0.  0.
        998    1    1    2    0    0  0.15198154293E+02  0.36409337056E+02  0.14427479980E+04  0.14433220048E+04  0.10000000000E+02 0. -1.
</event>
<event>
 5    1  0.1068111E-008  0.3687025E+03  0.7957747E-01  0.3501875E+00
         13   -1    0    0    0    0  0.00000000000E+00  0.00000000000E+00  0.14999999963E+04  0.15000000000E+04  0.10566000000E+00 0. -1.
        994   -1    0    0    0    0 -0.00000000000E+00 -0.00000000000E+00  0.11368683772E-12  0.17120000000E+03  0.17120000000E+03 0.  0.
         13    1    1    2    0    0 -0.10819025722E+02  0.80328833105E+01  0.45197139268E+01  0.14213286386E+02  0.10566000000E+00 0. -1.
        994    1    1    2    0    0  0.12333582187E+02 -0.64284087859E+01  0.10620968567E+02  0.17209208774E+03  0.17120000000E+03 0.  0.
        998    1    1    2    0    0 -0.15145564646E+01 -0.16044745246E+01  0.14848593138E+04  0.14848946259E+04  0.10000000000E+02 0. -1.
</event>
<event>
 5    1  0.1068111E-008  0.3849848E+03  0.7957747E-01  0.3429737E+00
         13   -1    0    0    0    0  0.00000000000E+00  0.00000000000E+00  0.14999999963E+04  0.15000000000E+04  0.10566000000E+00 0. -1.
        994   -1    0    0    0    0 -0.00000000000E+00 -0.00000000000E+00  0.11368683772E-12  0.17120000000E+03  0.17120000000E+03 0.  0.
         13    1    1    2    0    0 -0.10608632710E+03  0.80047592852E+01  0.45550761088E+03  0.46776658678E+03  0.10566000000E+00 0. -1.
        994    1    1    2    0    0 -0.32351354196E+01 -0.24931195026E+02  0.21428965138E+02  0.17435788234E+03  0.17120000000E+03 0.  0.
        998    1    1    2    0    0  0.10932146252E+03  0.16926435741E+02  0.10230634203E+04  0.10290755309E+04  0.10000000000E+02 0. -1.
</event>
<event>
 5    1  0.1068111E-008  0.3767186E+03  0.7957747E-01  0.3465572E+00
         13   -1    0    0    0    0  0.00000000000E+00  0.00000000000E+00  0.14999999963E+04  0.15000000000E+04  0.10566000000E+00 0. -1.
        994   -1    0    0    0    0 -0.00000000000E+00 -0.00000000000E+00  0.11368683772E-12  0.17120000000E+03  0.17120000000E+03 0.  0.
         13    1    1    2    0    0 -0.39618479026E+01  0.33328155699E+02  0.11553097660E+03  0.12030743917E+03  0.10566000000E+00 0. -1.
        994    1    1    2    0    0  0.75746353991E+02  0.23948933779E+02  0.27434538820E+02  0.19071747558E+03  0.17120000000E+03 0.  0.
        998    1    1    2    0    0 -0.71784506088E+02 -0.57277089478E+02  0.13570344809E+04  0.13601750853E+04  0.10000000000E+02 0. -1.
</event>
<event>
 5    1  0.1068111E-008  0.3849399E+03  0.7957747E-01  0.3429927E+00
         13   -1    0    0    0    0  0.00000000000E+00  0.00000000000E+00  0.14999999963E+04  0.15000000000E+04  0.10566000000E+00 0. -1.
        994   -1    0    0    0    0 -0.00000000000E+00 -0.00000000000E+00  0.11368683772E-12  0.17120000000E+03  0.17120000000E+03 0.  0.
         13    1    1    2    0    0  0.31631451771E+01 -0.10851667839E+02  0.37913011835E+02  0.39562252372E+02  0.10566000000E+00 0. -1.
        994    1    1    2    0    0 -0.66347658509E+01  0.82784551934E+01  0.20302943823E+01  0.17154041808E+03  0.17120000000E+03 0.  0.
        998    1    1    2    0    0  0.34716206738E+01  0.25732126456E+01  0.14600566901E+04  0.14600973296E+04  0.10000000000E+02 0. -1.
</event>
<event>
 5    1  0.1068111E-008  0.3831933E+03  0.7957747E-01  0.3437371E+00
         13   -1    0    0    0    0  0.00000000000E+00  0.00000000000E+00  0.14999999963E+04  0.15000000000E+04  0.10566000000E+00 0. -1.
        994   -1    0    0    0    0 -0.00000000000E+00 -0.00000000000E+00  0.11368683772E-12  0.17120000000E+03  0.17120000000E+03 0.  0.
         13    1    1    2    0    0 -0.93860883464E+01  0.11586554059E+02  0.44770599314E+02  0.47188606849E+02  0.10566000000E+00 0. -1.
        994    1    1    2    0    0 -0.64420661094E+01 -0.75227075628E+01  0.28543545712E+01  0.17150999587E+03  0.17120000000E+03 0.  0.
        998    1    1    2    0    0  0.15828154456E+02 -0.40638464964E+01  0.14523750424E+04  0.14525013973E+04  0.10000000000E+02 0. -1.
</event>
<event>
 5    1  0.1068111E-008  0.3829987E+03  0.7957747E-01  0.3438205E+00
         13   -1    0    0    0    0  0.00000000000E+00  0.00000000000E+00  0.14999999963E+04  0.15000000000E+04  0.10566000000E+00 0.  1.
        994   -1    0    0    0    0 -0.00000000000E+00 -0.00000000000E+00  0.11368683772E-12  0.17120000000E+03  0.17120000000E+03 0.  0.
         13    1    1    2    0    0 -0.14717875274E+02  0.17019289035E+02  0.10292150616E+03  0.10535235947E+03  0.10566000000E+00 0.  1.
        994    1    1    2    0    0  0.74755803270E+01  0.29720750895E+01  0.28412881689E+01  0.17141245710E+03  0.17120000000E+03 0.  0.
        998    1    1    2    0    0  0.72422949472E+01 -0.19991364125E+02  0.13942372020E+04  0.13944351834E+04  0.10000000000E+02 0.  1.
</event>
<event>
 5    1  0.1068111E-008  0.3869984E+03  0.7957747E-01  0.3421241E+00
         13   -1    0    0    0    0  0.00000000000E+00  0.00000000000E+00  0.14999999963E+04  0.15000000000E+04  0.10566000000E+00 0. -1.
        994   -1    0    0    0    0 -0.00000000000E+00 -0.00000000000E+00  0.11368683772E-12  0.17120000000E+03  0.17120000000E+03 0.  0.
         13    1    1    2    0    0 -0.46235461236E+02  0.39815693473E+02  0.80800478427E+02  0.10125085580E+03  0.10566000000E+00 0. -1.
        994    1    1    2    0    0  0.47752021237E+02 -0.38652482459E+02  0.34401800713E+02  0.18511400224E+03  0.17120000000E+03 0.  0.
        998    1    1    2    0    0 -0.15165600009E+01 -0.11632110137E+01  0.13847977171E+04  0.13848351420E+04  0.10000000000E+02 0. -1.
</event>
<event>
 5    1  0.1068111E-008  0.3768752E+03  0.7957747E-01  0.3464878E+00
         13   -1    0    0    0    0  0.00000000000E+00  0.00000000000E+00  0.14999999963E+04  0.15000000000E+04  0.10566000000E+00 0.  1.
        994   -1    0    0    0    0 -0.00000000000E+00 -0.00000000000E+00  0.11368683772E-12  0.17120000000E+03  0.17120000000E+03 0.  0.
         13    1    1    2    0    0  0.12937046945E+02 -0.20824508409E+02  0.50567372626E+02  0.56196954299E+02  0.10566000000E+00 0.  1.
        994    1    1    2    0    0 -0.10871333263E+02  0.10509966740E+02  0.64916010107E+01  0.17198902922E+03  0.17120000000E+03 0.  0.
        998    1    1    2    0    0 -0.20657136823E+01  0.10314541669E+02  0.14429410226E+04  0.14430140165E+04  0.10000000000E+02 0.  1.
</event>
<event>
 5    1  0.1068111E-008  0.3805631E+03  0.7957747E-01  0.3448710E+00
         13   -1    0    0    0    0  0.00000000000E+00  0.00000000000E+00  0.14999999963E+04  0.15000000000E+04  0.10566000000E+00 0. -1.
        994   -1    0    0    0    0 -0.00000000000E+00 -0.00000000000E+00  0.11368683772E-12  0.17120000000E+03  0.17120000000E+03 0.  0.
         13    1    1    2    0    0 -0.29690786311E+01  0.15525964517E+02  0.30789489297E+02  0.34610328189E+02  0.10566000000E+00 0. -1.
        994    1    1    2    0    0 -0.14294299205E+02 -0.15384097222E+02  0.53220212647E+01  0.17256523795E+03  0.17120000000E+03 0.  0.
        998    1    1    2    0    0  0.17263377836E+02 -0.14186729453E+00  0.14638884857E+04  0.14640244339E+04  0.10000000000E+02 0. -1.
</event>
<event>
 5    1  0.1068111E-008  0.3851844E+03  0.7957747E-01  0.3428891E+00
         13   -1    0    0    0    0  0.00000000000E+00  0.00000000000E+00  0.14999999963E+04  0.15000000000E+04  0.10566000000E+00 0. -1.
        994   -1    0    0    0    0 -0.00000000000E+00 -0.00000000000E+00  0.11368683772E-12  0.17120000000E+03  0.17120000000E+03 0.  0.
         13    1    1    2    0    0 -0.97472699264E+01 -0.47478408729E+01  0.40404104895E+02  0.41833648184E+02  0.10566000000E+00 0. -1.
        994    1    1    2    0    0 -0.23677871598E+00 -0.78589981452E+01  0.17418331296E+01  0.17138930509E+03  0.17120000000E+03 0.  0.
        998    1    1    2    0    0  0.99840486423E+01  0.12606839018E+02  0.14578540583E+04  0.14579770467E+04  0.10000000000E+02 0. -1.
</event>
<event>
 5    1  0.1068111E-008  0.3807607E+03  0.7957747E-01  0.3447853E+00
         13   -1    0    0    0    0  0.00000000000E+00  0.00000000000E+00  0.14999999963E+04  0.15000000000E+04  0.10566000000E+00 0.  1.
        994   -1    0    0    0    0 -0.00000000000E+00 -0.00000000000E+00  0.11368683772E-12  0.17120000000E+03  0.17120000000E+03 0.  0.
         13    1    1    2    0    0 -0.91986542572E+01 -0.91058793264E+01  0.20660586897E+02  0.24380387475E+02  0.10566000000E+00 0.  1.
        994    1    1    2    0    0  0.91403775016E+01  0.72128384548E+01  0.42018326188E+01  0.17164692522E+03  0.17120000000E+03 0.  0.
        998    1    1    2    0    0  0.58276755585E-01  0.18930408717E+01  0.14751375768E+04  0.14751726873E+04  0.10000000000E+02 0.  1.
</event>
<event>
 5    1  0.1068111E-008  0.3687193E+03  0.7957747E-01  0.3501798E+00
         13   -1    0    0    0    0  0.00000000000E+00  0.00000000000E+00  0.14999999963E+04  0.15000000000E+04  0.10566000000E+00 0. -1.
        994   -1    0    0    0    0 -0.00000000000E+00 -0.00000000000E+00  0.11368683772E-12  0.17120000000E+03  0.17120000000E+03 0.  0.
         13    1    1    2    0    0  0.40384283602E+02 -0.72185509753E+02  0.28740333704E+03  0.29906910152E+03  0.10566000000E+00 0. -1.
        994    1    1    2    0    0 -0.12640565517E+02  0.74808332020E+02  0.30573883147E+02  0.18973737841E+03  0.17120000000E+03 0.  0.
        998    1    1    2    0    0 -0.27743718085E+02 -0.26228222669E+01  0.11820227761E+04  0.11823935201E+04  0.10000000000E+02 0. -1.
</event>
<event>
 5    1  0.1068111E-008  0.3721676E+03  0.7957747E-01  0.3485988E+00
         13   -1    0    0    0    0  0.00000000000E+00  0.00000000000E+00  0.14999999963E+04  0.15000000000E+04  0.10566000000E+00 0.  1.
        994   -1    0    0    0    0 -0.00000000000E+00 -0.00000000000E+00  0.11368683772E-12  0.17120000000E+03  0.17120000000E+03 0.  0.
         13    1    1    2    0    0  0.85193334420E+02  0.35442725336E+02  0.41634149301E+03  0.42644383097E+03  0.10566000000E+00 0.  1.
        994    1    1    2    0    0 -0.72301853510E+02 -0.34177474318E+02  0.30420413482E+02  0.19139095937E+03  0.17120000000E+03 0.  0.
        998    1    1    2    0    0 -0.12891480909E+02 -0.12652510182E+01  0.10532380898E+04  0.10533652097E+04  0.10000000000E+02 0.  1.
</event>
<event>
 5    1  0.1068111E-008  0.3845853E+03  0.7957747E-01  0.3431433E+00
         13   -1    0    0    0    0  0.00000000000E+00  0.00000000000E+00  0.14999999963E+04  0.15000000000E+04  0.10566000000E+00 0. -1.
        994   -1    0    0    0    0 -0.00000000000E+00 -0.00000000000E+00  0.11368683772E-12  0.17120000000E+03  0.17120000000E+03 0.  0.
         13    1    1    2    0    0  0.59043510114E+01  0.17819955861E+02  0.10376788820E+03  0.10545234931E+03  0.10566000000E+00 0. -1.
        994    1    1    2    0    0  0.57205982626E+01 -0.35631270811E+01  0.19857760071E+01  0.17134411115E+03  0.17120000000E+03 0.  0.
        998    1    1    2    0    0 -0.11624949274E+02 -0.14256828780E+02  0.13942463321E+04  0.13944035395E+04  0.10000000000E+02 0. -1.
</event>
<event>
 5    1  0.1068111E-008  0.3791929E+03  0.7957747E-01  0.3454680E+00
         13   -1    0    0    0    0  0.00000000000E+00  0.00000000000E+00  0.14999999963E+04  0.15000000000E+04  0.10566000000E+00 0. -1.
        994   -1    0    0    0    0 -0.00000000000E+00 -0.00000000000E+00  0.11368683772E-12  0.17120000000E+03  0.17120000000E+03 0.  0.
         13    1    1    2    0    0  0.31963672383E+02  0.52525884079E+02  0.29198604254E+03  0.29838985414E+03  0.10566000000E+00 0. -1.
        994    1    1    2    0    0 -0.44584787502E+02 -0.63173409783E+02  0.24849002432E+02  0.18948771966E+03  0.17120000000E+03 0.  0.
        998    1    1    2    0    0  0.12621115119E+02  0.10647525704E+02  0.11831649513E+04  0.11833224262E+04  0.10000000000E+02 0. -1.
</event>
<event>
 5    1  0.1068111E-008  0.3825774E+03  0.7957747E-01  0.3440012E+00
         13   -1    0    0    0    0  0.00000000000E+00  0.00000000000E+00  0.14999999963E+04  0.15000000000E+04  0.10566000000E+00 0.  1.
        994   -1    0    0    0    0 -0.00000000000E+00 -0.00000000000E+00  0.11368683772E-12  0.17120000000E+03  0.17120000000E+03 0.  0.
         13    1    1    2    0    0 -0.49733490239E+01 -0.27887248303E+02  0.14219347734E+03  0.14498768561E+03  0.10566000000E+00 0.  1.
        994    1    1    2    0    0  0.13969061754E+02  0.13249349717E+02  0.40673579506E+01  0.17232719853E+03  0.17120000000E+03 0.  0.
        998    1    1    2    0    0 -0.89957127298E+01  0.14637898586E+02  0.13537391610E+04  0.13538851159E+04  0.10000000000E+02 0.  1.
</event>
<event>
 5    1  0.1068111E-008  0.3799414E+03  0.7957747E-01  0.3451414E+00
         13   -1    0    0    0    0  0.00000000000E+00  0.00000000000E+00  0.14999999963E+04  0.15000000000E+04  0.10566000000E+00 0. -1.
        994   -1    0    0    0    0 -0.00000000000E+00 -0.00000000000E+00  0.11368683772E-12  0.17120000000E+03  0.17120000000E+03 0.  0.
         13    1    1    2    0    0  0.19245104260E+02 -0.14299733918E+02  0.64515988995E+02  0.68827177976E+02  0.10566000000E+00 0. -1.
        994    1    1    2    0    0  0.11479677130E+02  0.61496275027E+02  0.17360928069E+02  0.18309674124E+03  0.17120000000E+03 0.  0.
        998    1    1    2    0    0 -0.30724781390E+02 -0.47196541109E+02  0.14181230792E+04  0.14192760808E+04  0.10000000000E+02 0. -1.
</event>
<event>
 5    1  0.1068111E-008  0.3797194E+03  0.7957747E-01  0.3452381E+00
         13   -1    0    0    0    0  0.00000000000E+00  0.00000000000E+00  0.14999999963E+04  0.15000000000E+04  0.10566000000E+00 0. -1.
        994   -1    0    0    0    0 -0.00000000000E+00 -0.00000000000E+00  0.11368683772E-12  0.17120000000E+03  0.17120000000E+03 0.  0.
         13    1    1    2    0    0  0.18582271177E+02  0.11328470796E+02  0.54449717734E+02  0.58638025018E+02  0.10566000000E+00 0. -1.
        994    1    1    2    0    0 -0.10405051476E+02 -0.40926365949E+01  0.46932826682E+01  0.17162890687E+03  0.17120000000E+03 0.  0.
        998    1    1    2    0    0 -0.81772197008E+01 -0.72358342008E+01  0.14408569959E+04  0.14409330681E+04  0.10000000000E+02 0. -1.
</event>
<event>
 5    1  0.1068111E-008  0.3727602E+03  0.7957747E-01  0.3483301E+00
         13   -1    0    0    0    0  0.00000000000E+00  0.00000000000E+00  0.14999999963E+04  0.15000000000E+04  0.10566000000E+00 0. -1.
        994   -1    0    0    0    0 -0.00000000000E+00 -0.00000000000E+00  0.11368683772E-12  0.17120000000E+03  0.17120000000E+03 0.  0.
         13    1    1    2    0    0  0.65650205620E+02 -0.82764611915E+02  0.50006740229E+03  0.51110404858E+03  0.10566000000E+00 0. -1.
        994    1    1    2    0    0 -0.49822420987E+02  0.86388261956E+02  0.42704430207E+02  0.20267785719E+03  0.17120000000E+03 0.  0.
        998    1    1    2    0    0 -0.15827784633E+02 -0.36236500404E+01  0.95722816379E+03  0.95741809423E+03  0.10000000000E+02 0. -1.
</event>
<event>
 5    1  0.1068111E-008  0.3844343E+03  0.7957747E-01  0.3432075E+00
         13   -1    0    0    0    0  0.00000000000E+00  0.00000000000E+00  0.14999999963E+04  0.15000000000E+04  0.10566000000E+00 0.  1.
        994   -1    0    0    0    0 -0.00000000000E+00 -0.00000000000E+00  0.11368683772E-12  0.17120000000E+03  0.17120000000E+03 0.  0.
         13    1    1    2    0    0 -0.73505991253E+01  0.17390693761E+02  0.10121159161E+03  0.10295758825E+03  0.10566000000E+00 0.  1.
        994    1    1    2    0    0  0.99598533216E+01  0.33187541305E+01  0.22744353831E+01  0.17153666041E+03  0.17120000000E+03 0.  0.
        998    1    1    2    0    0 -0.26092541963E+01 -0.20709447891E+02  0.13965139693E+04  0.13967057513E+04  0.10000000000E+02 0.  1.
</event>
<event>
 5    1  0.1068111E-008  0.3839722E+03  0.7957747E-01  0.3434043E+00
         13   -1    0    0    0    0  0.00000000000E+00  0.00000000000E+00  0.14999999963E+04  0.15000000000E+04  0.10566000000E+00 0. -1.
        994   -1    0    0    0    0 -0.00000000000E+00 -0.00000000000E+00  0.11368683772E-12  0.17120000000E+03  0.17120000000E+03 0.  0.
         13    1    1    2    0    0  0.24016979714E+02 -0.82357043732E+01  0.13929370228E+03  0.14158880182E+03  0.10566000000E+00 0. -1.
        994    1    1    2    0    0 -0.24894387206E+02  0.32818092597E+01  0.42244637892E+01  0.17308317908E+03  0.17120000000E+03 0.  0.
        998    1    1    2    0    0  0.87740749139E+00  0.49538951135E+01  0.13564818302E+04  0.13565280191E+04  0.10000000000E+02 0. -1.
</event>
<event>
 5    1  0.1772659E-008  0.3851873E+03  0.7957747E-01  0.3428878E+00
         13   -1    0    0    0    0  0.00000000000E+00  0.00000000000E+00  0.14999999963E+04  0.15000000000E+04  0.10566000000E+00 0. -1.
        994   -1    0    0    0    0 -0.00000000000E+00 -0.00000000000E+00  0.11368683772E-12  0.17120000000E+03  0.17120000000E+03 0.  0.
         13    1    1    2    0    0 -0.12429712667E+02  0.45686924682E+01  0.54771286817E+02  0.56349585016E+02  0.10566000000E+00 0. -1.
        994    1    1    2    0    0  0.14459283112E+02 -0.67425109911E+01  0.23741731629E+01  0.17195816067E+03  0.17120000000E+03 0.  0.
        998    1    1    2    0    0 -0.20295704451E+01  0.21738185229E+01  0.14428545363E+04  0.14428922543E+04  0.10000000000E+02 0. -1.
</event>
<event>
 5    1  0.1068111E-008  0.3823575E+03  0.7957747E-01  0.3440957E+00
         13   -1    0    0    0    0  0.00000000000E+00  0.00000000000E+00  0.14999999963E+04  0.15000000000E+04  0.10566000000E+00 0.  1.
        994   -1    0    0    0    0 -0.00000000000E+00 -0.00000000000E+00  0.11368683772E-12  0.17120000000E+03  0.17120000000E+03 0.  0.
         13    1    1    2    0    0  0.20500180589E+01 -0.51694701101E+02  0.78665577215E+02  0.94153220331E+02  0.10566000000E+00 0.  1.
        994    1    1    2    0    0  0.87066204472E+01 -0.64180140826E+01  0.18056222573E+02  0.17248902376E+03  0.17120000000E+03 0.  0.
        998    1    1    2    0    0 -0.10756638506E+02  0.58112715184E+02  0.14032781965E+04  0.14045577559E+04  0.10000000000E+02 0.  1.
</event>
<event>
 5    1  0.1068111E-008  0.3739042E+03  0.7957747E-01  0.3478138E+00
         13   -1    0    0    0    0  0.00000000000E+00  0.00000000000E+00  0.14999999963E+04  0.15000000000E+04  0.10566000000E+00 0.  1.
        994   -1    0    0    0    0 -0.00000000000E+00 -0.00000000000E+00  0.11368683772E-12  0.17120000000E+03  0.17120000000E+03 0.  0.
         13    1    1    2    0    0 -0.16144261563E+02 -0.50279871371E+02  0.10495562036E+03  0.11749211061E+03  0.10566000000E+00 0.  1.
        994    1    1    2    0    0  0.57055746180E+01  0.27207092743E+02  0.15762211739E+02  0.17415701765E+03  0.17120000000E+03 0.  0.
        998    1    1    2    0    0  0.10438686945E+02  0.23072778628E+02  0.13792821642E+04  0.13795508717E+04  0.10000000000E+02 0.  1.
</event>
<event>
 5    1  0.1068111E-008  0.3850901E+03  0.7957747E-01  0.3429290E+00
         13   -1    0    0    0    0  0.00000000000E+00  0.00000000000E+00  0.14999999963E+04  0.15000000000E+04  0.10566000000E+00 0.  1.
        994   -1    0    0    0    0 -0.00000000000E+00 -0.00000000000E+00  0.11368683772E-12  0.17120000000E+03  0.17120000000E+03 0.  0.
         13    1    1    2    0    0 -0.12043642163E+02  0.96290310683E+00  0.46833770550E+02  0.48367238156E+02  0.10566000000E+00 0.  1.
        994    1    1    2    0    0  0.49660756226E+01  0.13295528024E+01  0.16723115527E+01  0.17128533575E+03  0.17120000000E+03 0.  0.
        998    1    1    2    0    0  0.70775665405E+01 -0.22924559092E+01  0.14514939142E+04  0.14515474261E+04  0.10000000000E+02 0.  1.
</event>
<event>
 5    1  0.1068111E-008  0.3734137E+03  0.7957747E-01  0.3480348E+00
         13   -1    0    0    0    0  0.00000000000E+00  0.00000000000E+00  0.14999999963E+04  0.15000000000E+04  0.10566000000E+00 0.  1.
        994   -1    0    0    0    0 -0.00000000000E+00 -0.00000000000E+00  0.11368683772E-12  0.17120000000E+03  0.17120000000E+03 0.  0.
         13    1    1    2    0    0 -0.13447518338E+02  0.26659013664E+02  0.55305930700E+02  0.62851379409E+02  0.10566000000E+00 0.  1.
        994    1    1    2    0    0  0.14571902137E+02 -0.22671326625E+02  0.99818002730E+01  0.17359552333E+03  0.17120000000E+03 0.  0.
        998    1    1    2    0    0 -0.11243837987E+01 -0.39876870389E+01  0.14347122653E+04  0.14347530973E+04  0.10000000000E+02 0.  1.
</event>
<event>
 5    1  0.1068111E-008  0.3807726E+03  0.7957747E-01  0.3447801E+00
         13   -1    0    0    0    0  0.00000000000E+00  0.00000000000E+00  0.14999999963E+04  0.15000000000E+04  0.10566000000E+00 0.  1.
        994   -1    0    0    0    0 -0.00000000000E+00 -0.00000000000E+00  0.11368683772E-12  0.17120000000E+03  0.17120000000E+03 0.  0.
         13    1    1    2    0    0 -0.40728289218E+00 -0.18629709138E+02  0.44313925212E+02  0.48072518902E+02  0.10566000000E+00 0.  1.
        994    1    1    2    0    0 -0.36498550812E+01  0.16497286124E+02  0.46961197776E+01  0.17209583212E+03  0.17120000000E+03 0.  0.
        998    1    1    2    0    0  0.40571379734E+01  0.21324230140E+01  0.14509899513E+04  0.14510316490E+04  0.10000000000E+02 0.  1.
</event>
<event>
 5    1  0.1068111E-008  0.3896527E+03  0.7957747E-01  0.3410176E+00
         13   -1    0    0    0    0  0.00000000000E+00  0.00000000000E+00  0.14999999963E+04  0.15000000000E+04  0.10566000000E+00 0. -1.
        994   -1    0    0    0    0 -0.00000000000E+00 -0.00000000000E+00  0.11368683772E-12  0.17120000000E+03  0.17120000000E+03 0.  0.
         13    1    1    2    0    0 -0.14297863050E+02 -0.53984731714E+02  0.61392514227E+02  0.82992964239E+02  0.10566000000E+00 0. -1.
        994    1    1    2    0    0  0.17483904332E+02  0.54681518840E+02  0.34223526697E+02  0.18378369131E+03  0.17120000000E+03 0.  0.
        998    1    1    2    0    0 -0.31860412818E+01 -0.69678712643E+00  0.14043839554E+04  0.14044233444E+04  0.10000000000E+02 0. -1.
</event>
<event>
 5    1  0.1068111E-008  0.3825680E+03  0.7957747E-01  0.3440053E+00
         13   -1    0    0    0    0  0.00000000000E+00  0.00000000000E+00  0.14999999963E+04  0.15000000000E+04  0.10566000000E+00 0.  1.
        994   -1    0    0    0    0 -0.00000000000E+00 -0.00000000000E+00  0.11368683772E-12  0.17120000000E+03  0.17120000000E+03 0.  0.
         13    1    1    2    0    0 -0.11752386863E+02 -0.64482236998E+01  0.30685268630E+02  0.33485744143E+02  0.10566000000E+00 0.  1.
        994    1    1    2    0    0  0.67946309542E+01  0.51497780417E+01  0.30834154046E+01  0.17143988647E+03  0.17120000000E+03 0.  0.
        998    1    1    2    0    0  0.49577559092E+01  0.12984456581E+01  0.14662313122E+04  0.14662743694E+04  0.10000000000E+02 0.  1.
</event>
<event>
 5    1  0.1068111E-008  0.3721305E+03  0.7957747E-01  0.3486156E+00
         13   -1    0    0    0    0  0.00000000000E+00  0.00000000000E+00  0.14999999963E+04  0.15000000000E+04  0.10566000000E+00 0. -1.
        994   -1    0    0    0    0 -0.00000000000E+00 -0.00000000000E+00  0.11368683772E-12  0.17120000000E+03  0.17120000000E+03 0.  0.
         13    1    1    2    0    0 -0.18014500484E+02  0.66190156863E+02  0.34655004167E+03  0.35327411685E+03  0.10566000000E+00 0. -1.
        994    1    1    2    0    0 -0.12413896889E+02 -0.18977343505E+02  0.99268134709E+01  0.17298042094E+03  0.17120000000E+03 0.  0.
        998    1    1    2    0    0  0.30428397373E+02 -0.47212813358E+02  0.11435231411E+04  0.11449454622E+04  0.10000000000E+02 0. -1.
</event>
<event>
 5    1  0.1068111E-008  0.3791424E+03  0.7957747E-01  0.3454901E+00
         13   -1    0    0    0    0  0.00000000000E+00  0.00000000000E+00  0.14999999963E+04  0.15000000000E+04  0.10566000000E+00 0. -1.
        994   -1    0    0    0    0 -0.00000000000E+00 -0.00000000000E+00  0.11368683772E-12  0.17120000000E+03  0.17120000000E+03 0.  0.
         13    1    1    2    0    0  0.28630617872E+02  0.19209423046E+02  0.12115561985E+03  0.12596590649E+03  0.10566000000E+00 0. -1.
        994    1    1    2    0    0 -0.27445238710E+02 -0.15842095227E+02  0.79405456490E+01  0.17428914302E+03  0.17120000000E+03 0.  0.
        998    1    1    2    0    0 -0.11853791620E+01 -0.33673278191E+01  0.13709038308E+04  0.13709449505E+04  0.10000000000E+02 0. -1.
</event>
<event>
 5    1  0.1068111E-008  0.3839818E+03  0.7957747E-01  0.3434002E+00
         13   -1    0    0    0    0  0.00000000000E+00  0.00000000000E+00  0.14999999963E+04  0.15000000000E+04  0.10566000000E+00 0. -1.
        994   -1    0    0    0    0 -0.00000000000E+00 -0.00000000000E+00  0.11368683772E-12  0.17120000000E+03  0.17120000000E+03 0.  0.
         13    1    1    2    0    0 -0.22000551330E+02 -0.10097835362E+02  0.10653407783E+03  0.10924976632E+03  0.10566000000E+00 0. -1.
        994    1    1    2    0    0  0.43038185579E+02  0.29382961374E+02  0.11148917725E+02  0.17930248800E+03  0.17120000000E+03 0.  0.
        998    1    1    2    0    0 -0.21037634249E+02 -0.19285126013E+02  0.13823170007E+04  0.13826477457E+04  0.10000000000E+02 0. -1.
</event>
<event>
 5    1  0.1068111E-008  0.3806416E+03  0.7957747E-01  0.3448369E+00
         13   -1    0    0    0    0  0.00000000000E+00  0.00000000000E+00  0.14999999963E+04  0.15000000000E+04  0.10566000000E+00 0. -1.
        994   -1    0    0    0    0 -0.00000000000E+00 -0.00000000000E+00  0.11368683772E-12  0.17120000000E+03  0.17120000000E+03 0.  0.
         13    1    1    2    0    0  0.27867773286E+02  0.71323302189E+01  0.11057985783E+03  0.11426022511E+03  0.10566000000E+00 0. -1.
        994    1    1    2    0    0 -0.11180088692E+02 -0.50227579908E+01  0.43108883720E+01  0.17169230105E+03  0.17120000000E+03 0.  0.
        998    1    1    2    0    0 -0.16687684594E+02 -0.21095722281E+01  0.13851092501E+04  0.13852474738E+04  0.10000000000E+02 0. -1.
</event>
<event>
 5    1  0.1068111E-008  0.3808605E+03  0.7957747E-01  0.3447420E+00
         13   -1    0    0    0    0  0.00000000000E+00  0.00000000000E+00  0.14999999963E+04  0.15000000000E+04  0.10566000000E+00 0. -1.
        994   -1    0    0    0    0 -0.00000000000E+00 -0.00000000000E+00  0.11368683772E-12  0.17120000000E+03  0.17120000000E+03 0.  0.
         13    1    1    2    0    0 -0.12247681230E+02  0.32336365218E+01  0.20200522067E+02  0.23843958490E+02  0.10566000000E+00 0. -1.
        994    1    1    2    0    0  0.73917443032E+01 -0.48651206031E+01  0.39604935327E+01  0.17147429193E+03  0.17120000000E+03 0.  0.
        998    1    1    2    0    0  0.48559369272E+01  0.16314840813E+01  0.14758389807E+04  0.14758817496E+04  0.10000000000E+02 0. -1.
</event>
<event>
 5    1  0.1068111E-008  0.3838147E+03  0.7957747E-01  0.3434715E+00
         13   -1    0    0    0    0  0.00000000000E+00  0.00000000000E+00  0.14999999963E+04  0.15000000000E+04  0.10566000000E+00 0.  1.
        994   -1    0    0    0    0 -0.00000000000E+00 -0.00000000000E+00  0.11368683772E-12  0.17120000000E+03  0.17120000000E+03 0.  0.
         13    1    1    2    0    0  0.58112621473E+01 -0.22721721951E+02  0.13442919809E+03  0.13645976653E+03  0.10566000000E+00 0.  1.
        994    1    1    2    0    0 -0.71502676066E+01  0.20820132989E+01  0.24028878114E+01  0.17137874715E+03  0.17120000000E+03 0.  0.
        998    1    1    2    0    0  0.13390054592E+01  0.20639708652E+02  0.13631679104E+04  0.13633614863E+04  0.10000000000E+02 0. -1.
</event>
<event>
 5    1  0.1068111E-008  0.3773562E+03  0.7957747E-01  0.3462752E+00
         13   -1    0    0    0    0  0.00000000000E+00  0.00000000000E+00  0.14999999963E+04  0.15000000000E+04  0.10566000000E+00 0. -1.
        994   -1    0    0    0    0 -0.00000000000E+00 -0.00000000000E+00  0.11368683772E-12  0.17120000000E+03  0.17120000000E+03 0.  0.
         13    1    1    2    0    0 -0.11662363287E+02  0.17729043782E+02  0.38138286608E+02  0.43644813900E+02  0.10566000000E+00 0. -1.
        994    1    1    2    0    0  0.96190449073E+01 -0.18985443663E+02  0.70028006800E+01  0.17265993257E+03  0.17120000000E+03 0.  0.
        998    1    1    2    0    0  0.20433183802E+01  0.12563998804E+01  0.14548589090E+04  0.14548952535E+04  0.10000000000E+02 0. -1.
</event>
<event>
 5    1  0.1068111E-008  0.3718774E+03  0.7957747E-01  0.3487307E+00
         13   -1    0    0    0    0  0.00000000000E+00  0.00000000000E+00  0.14999999963E+04  0.15000000000E+04  0.10566000000E+00 0.  1.
        994   -1    0    0    0    0 -0.00000000000E+00 -0.00000000000E+00  0.11368683772E-12  0.17120000000E+03  0.17120000000E+03 0.  0.
         13    1    1    2    0    0  0.11485813641E+01  0.22382155228E+02  0.29118856169E+02  0.36745054911E+02  0.10566000000E+00 0.  1.
        994    1    1    2    0    0 -0.11347619207E+02  0.17730713125E+02  0.98149199341E+01  0.17276839787E+03  0.17120000000E+03 0.  0.
        998    1    1    2    0    0  0.10199037843E+02 -0.40112868353E+02  0.14610662202E+04  0.14616865472E+04  0.10000000000E+02 0.  1.
</event>
<event>
 5    1  0.1068111E-008  0.3828263E+03  0.7957747E-01  0.3438944E+00
         13   -1    0    0    0    0  0.00000000000E+00  0.00000000000E+00  0.14999999963E+04  0.15000000000E+04  0.10566000000E+00 0.  1.
        994   -1    0    0    0    0 -0.00000000000E+00 -0.00000000000E+00  0.11368683772E-12  0.17120000000E+03  0.17120000000E+03 0.  0.
         13    1    1    2    0    0  0.68183647091E+01 -0.27333623506E+02  0.13894355197E+03  0.14177072642E+03  0.10566000000E+00 0.  1.
        994    1    1    2    0    0 -0.54337400420E+01  0.22481464992E+02  0.44869367466E+01  0.17281352493E+03  0.17120000000E+03 0.  0.
        998    1    1    2    0    0 -0.13846246671E+01  0.48521585137E+01  0.13565695076E+04  0.13566157486E+04  0.10000000000E+02 0.  1.
</event>
<event>
 5    1  0.1068111E-008  0.3761793E+03  0.7957747E-01  0.3467965E+00
         13   -1    0    0    0    0  0.00000000000E+00  0.00000000000E+00  0.14999999963E+04  0.15000000000E+04  0.10566000000E+00 0.  1.
        994   -1    0    0    0    0 -0.00000000000E+00 -0.00000000000E+00  0.11368683772E-12  0.17120000000E+03  0.17120000000E+03 0.  0.
         13    1    1    2    0    0 -0.39485280100E+02  0.31647280826E+02  0.18238672447E+03  0.18927642789E+03  0.10566000000E+00 0.  1.
        994    1    1    2    0    0  0.39513563334E+02 -0.34696199829E+02  0.15494474631E+02  0.17976280682E+03  0.17120000000E+03 0.  0.
        998    1    1    2    0    0 -0.28283234639E-01  0.30489190027E+01  0.13021187972E+04  0.13021607653E+04  0.10000000000E+02 0.  0.
</event>
<event>
 5    1  0.1068111E-008  0.3745061E+03  0.7957747E-01  0.3475434E+00
         13   -1    0    0    0    0  0.00000000000E+00  0.00000000000E+00  0.14999999963E+04  0.15000000000E+04  0.10566000000E+00 0.  1.
        994   -1    0    0    0    0 -0.00000000000E+00 -0.00000000000E+00  0.11368683772E-12  0.17120000000E+03  0.17120000000E+03 0.  0.
         13    1    1    2    0    0 -0.67453778863E+01 -0.81894766395E+01  0.49131833836E+01  0.11692655193E+02  0.10566000000E+00 0.  1.
        994    1    1    2    0    0  0.51156350385E+01  0.62867836182E+01  0.71562705055E+01  0.17154109006E+03  0.17120000000E+03 0.  0.
        998    1    1    2    0    0  0.16297428478E+01  0.19026930213E+01  0.14879305424E+04  0.14879662548E+04  0.10000000000E+02 0.  1.
</event>
<event>
 5    1  0.1068111E-008  0.3604724E+03  0.7957747E-01  0.3540858E+00
         13   -1    0    0    0    0  0.00000000000E+00  0.00000000000E+00  0.14999999963E+04  0.15000000000E+04  0.10566000000E+00 0.  1.
        994   -1    0    0    0    0 -0.00000000000E+00 -0.00000000000E+00  0.11368683772E-12  0.17120000000E+03  0.17120000000E+03 0.  0.
         13    1    1    2    0    0  0.41979667926E+02  0.30797282104E+03  0.67809866879E+03  0.74594059200E+03  0.10566000000E+00 0.  1.
        994    1    1    2    0    0 -0.62193272937E+02 -0.31235820662E+03  0.58834473665E+03  0.69057557268E+03  0.17120000000E+03 0.  0.
        998    1    1    2    0    0  0.20213605011E+02  0.43853855872E+01  0.23355659084E+03  0.23468383532E+03  0.10000000000E+02 0.  1.
</event>
<event>
 5    1  0.1068111E-008  0.3781271E+03  0.7957747E-01  0.3459354E+00
         13   -1    0    0    0    0  0.00000000000E+00  0.00000000000E+00  0.14999999963E+04  0.15000000000E+04  0.10566000000E+00 0.  1.
        994   -1    0    0    0    0 -0.00000000000E+00 -0.00000000000E+00  0.11368683772E-12  0.17120000000E+03  0.17120000000E+03 0.  0.
         13    1    1    2    0    0 -0.23728626554E+02 -0.48427110218E+01  0.53965277756E+02  0.59150333350E+02  0.10566000000E+00 0.  1.
        994    1    1    2    0    0  0.24215968102E+02  0.58293891476E+01  0.71711993638E+01  0.17315097744E+03  0.17120000000E+03 0.  0.
        998    1    1    2    0    0 -0.48734154826E+00 -0.98667812579E+00  0.14388635192E+04  0.14388986892E+04  0.10000000000E+02 0.  1.
</event>
<event>
 5    1  0.1068111E-008  0.4093019E+03  0.7957747E-01  0.3332720E+00
         13   -1    0    0    0    0  0.00000000000E+00  0.00000000000E+00  0.14999999963E+04  0.15000000000E+04  0.10566000000E+00 0.  1.
        994   -1    0    0    0    0 -0.00000000000E+00 -0.00000000000E+00  0.11368683772E-12  0.17120000000E+03  0.17120000000E+03 0.  0.
         13    1    1    2    0    0 -0.91784882113E+02 -0.72683229626E+02  0.16781577685E+03  0.20462028877E+03  0.10566000000E+00 0.  1.
        994    1    1    2    0    0  0.10194387950E+03  0.69322225410E+02  0.98537195503E+02  0.23284575238E+03  0.17120000000E+03 0.  0.
        998    1    1    2    0    0 -0.10158997385E+02  0.33610042159E+01  0.12336470239E+04  0.12337339588E+04  0.10000000000E+02 0.  1.
</event>
<event>
 5    1  0.1068111E-008  0.3708382E+03  0.7957747E-01  0.3492048E+00
         13   -1    0    0    0    0  0.00000000000E+00  0.00000000000E+00  0.14999999963E+04  0.15000000000E+04  0.10566000000E+00 0. -1.
        994   -1    0    0    0    0 -0.00000000000E+00 -0.00000000000E+00  0.11368683772E-12  0.17120000000E+03  0.17120000000E+03 0.  0.
         13    1    1    2    0    0  0.19609944458E+01 -0.72999849985E+02  0.28171975596E+03  0.29103067821E+03  0.10566000000E+00 0. -1.
        994    1    1    2    0    0 -0.17161566080E+02  0.51313124054E+02  0.18993436052E+02  0.18054846071E+03  0.17120000000E+03 0.  0.
        998    1    1    2    0    0  0.15200571634E+02  0.21686725931E+02  0.11992868043E+04  0.11996208611E+04  0.10000000000E+02 0. -1.
</event>
<event>
 5    1  0.1068111E-008  0.3840386E+03  0.7957747E-01  0.3433760E+00
         13   -1    0    0    0    0  0.00000000000E+00  0.00000000000E+00  0.14999999963E+04  0.15000000000E+04  0.10566000000E+00 0.  1.
        994   -1    0    0    0    0 -0.00000000000E+00 -0.00000000000E+00  0.11368683772E-12  0.17120000000E+03  0.17120000000E+03 0.  0.
         13    1    1    2    0    0  0.39058513137E+01  0.17600426220E+02  0.78838343988E+02  0.80873520539E+02  0.10566000000E+00 0.  1.
        994    1    1    2    0    0  0.50432344184E+01 -0.84655354664E+01  0.24285925802E+01  0.17150054684E+03  0.17120000000E+03 0.  0.
        998    1    1    2    0    0 -0.89490857321E+01 -0.91348907539E+01  0.14187330597E+04  0.14188259326E+04  0.10000000000E+02 0.  1.
</event>
<event>
 5    1  0.1068111E-008  0.3852114E+03  0.7957747E-01  0.3428776E+00
         13   -1    0    0    0    0  0.00000000000E+00  0.00000000000E+00  0.14999999963E+04  0.15000000000E+04  0.10566000000E+00 0.  1.
        994   -1    0    0    0    0 -0.00000000000E+00 -0.00000000000E+00  0.11368683772E-12  0.17120000000E+03  0.17120000000E+03 0.  0.
         13    1    1    2    0    0 -0.90722154142E+01  0.12067027854E+02  0.75533652154E+02  0.77027670519E+02  0.10566000000E+00 0.  1.
        994    1    1    2    0    0  0.16089351628E+02  0.93273896895E+00  0.23792646816E+01  0.17197336462E+03  0.17120000000E+03 0.  0.
        998    1    1    2    0    0 -0.70171362141E+01 -0.12999766823E+02  0.14220870794E+04  0.14221989649E+04  0.10000000000E+02 0.  1.
</event>
<event>
 5    1  0.1068111E-008  0.2974400E+03  0.7957747E-01  0.3914466E+00
         13   -1    0    0    0    0  0.00000000000E+00  0.00000000000E+00  0.14999999963E+04  0.15000000000E+04  0.10566000000E+00 0.  1.
        994   -1    0    0    0    0 -0.00000000000E+00 -0.00000000000E+00  0.11368683772E-12  0.17120000000E+03  0.17120000000E+03 0.  0.
         13    1    1    2    0    0 -0.17230005454E+03 -0.96965375312E+02  0.70249831400E+03  0.72979002812E+03  0.10566000000E+00 0.  1.
        994    1    1    2    0    0  0.10946004102E+03  0.75568388695E+02  0.96676850690E+02  0.23737720069E+03  0.17120000000E+03 0.  0.
        998    1    1    2    0    0  0.62840013519E+02  0.21396986617E+02  0.70082483159E+03  0.70403277119E+03  0.10000000000E+02 0.  1.
</event>
<event>
 5    1  0.1068111E-008  0.3836899E+03  0.7957747E-01  0.3435248E+00
         13   -1    0    0    0    0  0.00000000000E+00  0.00000000000E+00  0.14999999963E+04  0.15000000000E+04  0.10566000000E+00 0.  1.
        994   -1    0    0    0    0 -0.00000000000E+00 -0.00000000000E+00  0.11368683772E-12  0.17120000000E+03  0.17120000000E+03 0.  0.
         13    1    1    2    0    0 -0.47379691462E+01  0.10383890087E+02  0.26977483399E+02  0.29292819931E+02  0.10566000000E+00 0.  1.
        994    1    1    2    0    0  0.94391043308E+01 -0.13719334845E+02  0.31984000631E+01  0.17203774761E+03  0.17120000000E+03 0.  0.
        998    1    1    2    0    0 -0.47011351846E+01  0.33354447584E+01  0.14698241128E+04  0.14698694325E+04  0.10000000000E+02 0.  1.
</event>
<event>
 5    1  0.1068111E-008  0.3723011E+03  0.7957747E-01  0.3485382E+00
         13   -1    0    0    0    0  0.00000000000E+00  0.00000000000E+00  0.14999999963E+04  0.15000000000E+04  0.10566000000E+00 0. -1.
        994   -1    0    0    0    0 -0.00000000000E+00 -0.00000000000E+00  0.11368683772E-12  0.17120000000E+03  0.17120000000E+03 0.  0.
         13    1    1    2    0    0  0.24237649376E+02  0.32460680884E+02  0.11869508673E+03  0.12541807776E+03  0.10566000000E+00 0. -1.
        994    1    1    2    0    0  0.21218562642E+02  0.60347755808E+01  0.97424144373E+01  0.17289014014E+03  0.17120000000E+03 0.  0.
        998    1    1    2    0    0 -0.45456212018E+02 -0.38495456465E+02  0.13715624951E+04  0.13728917821E+04  0.10000000000E+02 0. -1.
</event>
<event>
 5    1  0.1068111E-008  0.3817202E+03  0.7957747E-01  0.3443702E+00
         13   -1    0    0    0    0  0.00000000000E+00  0.00000000000E+00  0.14999999963E+04  0.15000000000E+04  0.10566000000E+00 0.  1.
        994   -1    0    0    0    0 -0.00000000000E+00 -0.00000000000E+00  0.11368683772E-12  0.17120000000E+03  0.17120000000E+03 0.  0.
         13    1    1    2    0    0  0.11861754088E+02  0.18641028926E+02  0.71389209567E+02  0.74730312298E+02  0.10566000000E+00 0.  1.
        994    1    1    2    0    0 -0.23104982353E+02 -0.95816941258E+01  0.53497520630E+01  0.17310028573E+03  0.17120000000E+03 0.  0.
        998    1    1    2    0    0  0.11243228265E+02 -0.90593348004E+01  0.14232610346E+04  0.14233694020E+04  0.10000000000E+02 0.  1.
</event>
<event>
 5    1  0.1068111E-008  0.3077119E+03  0.7957747E-01  0.3842456E+00
         13   -1    0    0    0    0  0.00000000000E+00  0.00000000000E+00  0.14999999963E+04  0.15000000000E+04  0.10566000000E+00 0. -1.
        994   -1    0    0    0    0 -0.00000000000E+00 -0.00000000000E+00  0.11368683772E-12  0.17120000000E+03  0.17120000000E+03 0.  0.
         13    1    1    2    0    0  0.18075279758E+03 -0.71819874991E+02  0.73462124723E+03  0.75993292883E+03  0.10566000000E+00 0. -1.
        994    1    1    2    0    0 -0.15053690405E+03  0.53203783573E+02  0.11675719809E+03  0.26159832831E+03  0.17120000000E+03 0.  0.
        998    1    1    2    0    0 -0.30215893531E+02  0.18616091418E+02  0.64862155095E+03  0.64966874286E+03  0.10000000000E+02 0. -1.
</event>
<event>
 5    1  0.1068111E-008  0.3741800E+03  0.7957747E-01  0.3476898E+00
         13   -1    0    0    0    0  0.00000000000E+00  0.00000000000E+00  0.14999999963E+04  0.15000000000E+04  0.10566000000E+00 0.  1.
        994   -1    0    0    0    0 -0.00000000000E+00 -0.00000000000E+00  0.11368683772E-12  0.17120000000E+03  0.17120000000E+03 0.  0.
         13    1    1    2    0    0 -0.46814189518E+02 -0.53541479376E+02  0.29005323098E+03  0.29864551951E+03  0.10566000000E+00 0.  1.
        994    1    1    2    0    0  0.54570947574E+02  0.44244567004E+02  0.24114964086E+02  0.18661870625E+03  0.17120000000E+03 0.  0.
        998    1    1    2    0    0 -0.77567580564E+01  0.92969123721E+01  0.11858318012E+04  0.11859357742E+04  0.10000000000E+02 0.  1.
</event>
<event>
 5    1  0.1068111E-008  0.3815393E+03  0.7957747E-01  0.3444483E+00
         13   -1    0    0    0    0  0.00000000000E+00  0.00000000000E+00  0.14999999963E+04  0.15000000000E+04  0.10566000000E+00 0.  1.
        994   -1    0    0    0    0 -0.00000000000E+00 -0.00000000000E+00  0.11368683772E-12  0.17120000000E+03  0.17120000000E+03 0.  0.
         13    1    1    2    0    0  0.13448679926E+02 -0.62425403447E-01  0.26023353624E+02  0.29293292519E+02  0.10566000000E+00 0.  1.
        994    1    1    2    0    0 -0.43606889124E+01  0.75160039228E+01  0.36092858810E+01  0.17145837065E+03  0.17120000000E+03 0.  0.
        998    1    1    2    0    0 -0.90879910141E+01 -0.74535785193E+01  0.14703673568E+04  0.14704483368E+04  0.10000000000E+02 0.  1.
</event>
<event>
 5    1  0.1068111E-008  0.3758642E+03  0.7957747E-01  0.3469367E+00
         13   -1    0    0    0    0  0.00000000000E+00  0.00000000000E+00  0.14999999963E+04  0.15000000000E+04  0.10566000000E+00 0.  1.
        994   -1    0    0    0    0 -0.00000000000E+00 -0.00000000000E+00  0.11368683772E-12  0.17120000000E+03  0.17120000000E+03 0.  0.
         13    1    1    2    0    0 -0.17617251401E+02  0.42610701314E+01  0.23805186643E+02  0.29920266388E+02  0.10566000000E+00 0.  1.
        994    1    1    2    0    0  0.10897580499E+02 -0.24934997581E+01  0.66593272973E+01  0.17169380141E+03  0.17120000000E+03 0.  0.
        998    1    1    2    0    0  0.67196709012E+01 -0.17675703734E+01  0.14695354823E+04  0.14695859322E+04  0.10000000000E+02 0.  1.
</event>
<event>
 5    1  0.1068111E-008  0.3768611E+03  0.7957747E-01  0.3464941E+00
         13   -1    0    0    0    0  0.00000000000E+00  0.00000000000E+00  0.14999999963E+04  0.15000000000E+04  0.10566000000E+00 0. -1.
        994   -1    0    0    0    0 -0.00000000000E+00 -0.00000000000E+00  0.11368683772E-12  0.17120000000E+03  0.17120000000E+03 0.  0.
         13    1    1    2    0    0 -0.23974121186E+02  0.14649862381E+01  0.45391309647E+02  0.51354520997E+02  0.10566000000E+00 0. -1.
        994    1    1    2    0    0  0.34831422896E+02  0.12037632742E+02  0.10327607272E+02  0.17542585925E+03  0.17120000000E+03 0.  0.
        998    1    1    2    0    0 -0.10857301710E+02 -0.13502618980E+02  0.14442810794E+04  0.14444196197E+04  0.10000000000E+02 0. -1.
</event>
<event>
 5    1  0.1068111E-008  0.3848784E+03  0.7957747E-01  0.3430188E+00
         13   -1    0    0    0    0  0.00000000000E+00  0.00000000000E+00  0.14999999963E+04  0.15000000000E+04  0.10566000000E+00 0.  1.
        994   -1    0    0    0    0 -0.00000000000E+00 -0.00000000000E+00  0.11368683772E-12  0.17120000000E+03  0.17120000000E+03 0.  0.
         13    1    1    2    0    0 -0.23293028297E+01 -0.11683249733E+02  0.40675602260E+02  0.42384428264E+02  0.10566000000E+00 0.  1.
        994    1    1    2    0    0  0.39777243949E+01  0.13023467470E+02  0.23008130064E+01  0.17175612576E+03  0.17120000000E+03 0.  0.
        998    1    1    2    0    0 -0.16484215652E+01 -0.13402177373E+01  0.14570235810E+04  0.14570594460E+04  0.10000000000E+02 0.  1.
</event>
<event>
 5    1  0.1068111E-008  0.4020890E+03  0.7957747E-01  0.3360279E+00
         13   -1    0    0    0    0  0.00000000000E+00  0.00000000000E+00  0.14999999963E+04  0.15000000000E+04  0.10566000000E+00 0. -1.
        994   -1    0    0    0    0 -0.00000000000E+00 -0.00000000000E+00  0.11368683772E-12  0.17120000000E+03  0.17120000000E+03 0.  0.
         13    1    1    2    0    0  0.42157563757E+01 -0.21933528795E+02 -0.39153019776E+01  0.22675825031E+02  0.10566000000E+00 0. -1.
        994    1    1    2    0    0  0.16254203935E+02  0.14655052641E+02  0.30927579993E+02  0.17534230784E+03  0.17120000000E+03 0.  0.
        998    1    1    2    0    0 -0.20469960310E+02  0.72784761544E+01  0.14729877183E+04  0.14731818671E+04  0.10000000000E+02 0. -1.
</event>
<event>
 5    1  0.1068111E-008  0.3845154E+03  0.7957747E-01  0.3431730E+00
         13   -1    0    0    0    0  0.00000000000E+00  0.00000000000E+00  0.14999999963E+04  0.15000000000E+04  0.10566000000E+00 0.  1.
        994   -1    0    0    0    0 -0.00000000000E+00 -0.00000000000E+00  0.11368683772E-12  0.17120000000E+03  0.17120000000E+03 0.  0.
         13    1    1    2    0    0  0.54878409046E+01 -0.17008985799E+02  0.10228424631E+03  0.10383400311E+03  0.10566000000E+00 0.  1.
        994    1    1    2    0    0  0.11931219625E+02 -0.89511470826E+01  0.26040748772E+01  0.17186825839E+03  0.17120000000E+03 0.  0.
        998    1    1    2    0    0 -0.17419060529E+02  0.25960132882E+02  0.13951116751E+04  0.13954977385E+04  0.10000000000E+02 0.  1.
</event>
<event>
 5    1  0.1068111E-008  0.3827235E+03  0.7957747E-01  0.3439385E+00
         13   -1    0    0    0    0  0.00000000000E+00  0.00000000000E+00  0.14999999963E+04  0.15000000000E+04  0.10566000000E+00 0. -1.
        994   -1    0    0    0    0 -0.00000000000E+00 -0.00000000000E+00  0.11368683772E-12  0.17120000000E+03  0.17120000000E+03 0.  0.
         13    1    1    2    0    0  0.11088599932E+02 -0.10797924933E+02  0.41084158373E+02  0.43902977855E+02  0.10566000000E+00 0. -1.
        994    1    1    2    0    0 -0.13603330036E+02  0.12243687446E+02  0.38751610582E+01  0.17221909111E+03  0.17120000000E+03 0.  0.
        998    1    1    2    0    0  0.25147301046E+01 -0.14457625132E+01  0.14550406768E+04  0.14550779310E+04  0.10000000000E+02 0. -1.
</event>
<event>
 5    1  0.1068111E-008  0.3843599E+03  0.7957747E-01  0.3432391E+00
         13   -1    0    0    0    0  0.00000000000E+00  0.00000000000E+00  0.14999999963E+04  0.15000000000E+04  0.10566000000E+00 0.  1.
        994   -1    0    0    0    0 -0.00000000000E+00 -0.00000000000E+00  0.11368683772E-12  0.17120000000E+03  0.17120000000E+03 0.  0.
         13    1    1    2    0    0  0.13793149189E+02  0.10092614155E+02  0.80685099161E+02  0.82475500700E+02  0.10566000000E+00 0.  1.
        994    1    1    2    0    0  0.34026014639E+01 -0.35129917213E+01  0.20270951230E+01  0.17128183769E+03  0.17120000000E+03 0.  0.
        998    1    1    2    0    0 -0.17195750653E+02 -0.65796224335E+01  0.14172878020E+04  0.14174426616E+04  0.10000000000E+02 0.  1.
</event>
<event>
 5    1  0.1068111E-008  0.3803801E+03  0.7957747E-01  0.3449505E+00
         13   -1    0    0    0    0  0.00000000000E+00  0.00000000000E+00  0.14999999963E+04  0.15000000000E+04  0.10566000000E+00 0. -1.
        994   -1    0    0    0    0 -0.00000000000E+00 -0.00000000000E+00  0.11368683772E-12  0.17120000000E+03  0.17120000000E+03 0.  0.
         13    1    1    2    0    0  0.24470034336E+02  0.25608202495E+02  0.15472571875E+03  0.15872813809E+03  0.10566000000E+00 0. -1.
        994    1    1    2    0    0 -0.32970518001E+02 -0.22640105145E+01  0.75964762145E+01  0.17452600738E+03  0.17120000000E+03 0.  0.
        998    1    1    2    0    0  0.85004836647E+01 -0.23344191981E+02  0.13376778013E+04  0.13379458545E+04  0.10000000000E+02 0. -1.
</event>
<event>
 5    1  0.1068111E-008  0.3855692E+03  0.7957747E-01  0.3427262E+00
         13   -1    0    0    0    0  0.00000000000E+00  0.00000000000E+00  0.14999999963E+04  0.15000000000E+04  0.10566000000E+00 0.  1.
        994   -1    0    0    0    0 -0.00000000000E+00 -0.00000000000E+00  0.11368683772E-12  0.17120000000E+03  0.17120000000E+03 0.  0.
         13    1    1    2    0    0 -0.11263428321E+02  0.96859592840E+01  0.86596890184E+02  0.87861909713E+02  0.10566000000E+00 0.  1.
        994    1    1    2    0    0 -0.68858516816E+01 -0.13899679583E+02  0.21380219471E+01  0.17191459270E+03  0.17120000000E+03 0.  0.
        998    1    1    2    0    0  0.18149280002E+02  0.42137202985E+01  0.14112650841E+04  0.14114234976E+04  0.10000000000E+02 0.  1.
</event>
<event>
 5    1  0.1068111E-008  0.3725985E+03  0.7957747E-01  0.3484033E+00
         13   -1    0    0    0    0  0.00000000000E+00  0.00000000000E+00  0.14999999963E+04  0.15000000000E+04  0.10566000000E+00 0.  1.
        994   -1    0    0    0    0 -0.00000000000E+00 -0.00000000000E+00  0.11368683772E-12  0.17120000000E+03  0.17120000000E+03 0.  0.
         13    1    1    2    0    0 -0.11312737119E+02 -0.47481840978E+02  0.15398221565E+03  0.16153339328E+03  0.10566000000E+00 0.  1.
        994    1    1    2    0    0  0.26863070093E+02  0.15202630888E+02  0.11189171759E+02  0.17431976963E+03  0.17120000000E+03 0.  0.
        998    1    1    2    0    0 -0.15550332974E+02  0.32279210090E+02  0.13348286089E+04  0.13353468371E+04  0.10000000000E+02 0.  1.
</event>
<event>
 5    1  0.1068111E-008  0.3755717E+03  0.7957747E-01  0.3470670E+00
         13   -1    0    0    0    0  0.00000000000E+00  0.00000000000E+00  0.14999999963E+04  0.15000000000E+04  0.10566000000E+00 0. -1.
        994   -1    0    0    0    0 -0.00000000000E+00 -0.00000000000E+00  0.11368683772E-12  0.17120000000E+03  0.17120000000E+03 0.  0.
         13    1    1    2    0    0  0.47428206129E+02  0.53048329601E+01  0.16849273870E+03  0.17512107283E+03  0.10566000000E+00 0. -1.
        994    1    1    2    0    0 -0.34050629608E+02 -0.21990611141E+02  0.11980080440E+02  0.17634056448E+03  0.17120000000E+03 0.  0.
        998    1    1    2    0    0 -0.13377576521E+02  0.16685778181E+02  0.13195271771E+04  0.13197383627E+04  0.10000000000E+02 0. -1.
</event>
<event>
 5    1  0.1068111E-008  0.3816940E+03  0.7957747E-01  0.3443816E+00
         13   -1    0    0    0    0  0.00000000000E+00  0.00000000000E+00  0.14999999963E+04  0.15000000000E+04  0.10566000000E+00 0.  1.
        994   -1    0    0    0    0 -0.00000000000E+00 -0.00000000000E+00  0.11368683772E-12  0.17120000000E+03  0.17120000000E+03 0.  0.
         13    1    1    2    0    0  0.29185104240E+02 -0.18593096245E+02  0.16077435996E+03  0.16445631494E+03  0.10566000000E+00 0.  1.
        994    1    1    2    0    0 -0.35967126982E+02  0.12986925302E+02  0.81568804132E+01  0.17560828326E+03  0.17120000000E+03 0.  0.
        998    1    1    2    0    0  0.67820227415E+01  0.56061709429E+01  0.13310687559E+04  0.13311354018E+04  0.10000000000E+02 0.  1.
</event>
<event>
 5    1  0.1068111E-008  0.3860714E+03  0.7957747E-01  0.3425141E+00
         13   -1    0    0    0    0  0.00000000000E+00  0.00000000000E+00  0.14999999963E+04  0.15000000000E+04  0.10566000000E+00 0.  1.
        994   -1    0    0    0    0 -0.00000000000E+00 -0.00000000000E+00  0.11368683772E-12  0.17120000000E+03  0.17120000000E+03 0.  0.
         13    1    1    2    0    0 -0.25465052254E+01 -0.10619615673E+02  0.55488776373E+02  0.56553305769E+02  0.10566000000E+00 0.  1.
        994    1    1    2    0    0  0.98048558051E+01  0.39127425146E+01  0.14644368259E+01  0.17153142373E+03  0.17120000000E+03 0.  0.
        998    1    1    2    0    0 -0.72583505798E+01  0.67068731588E+01  0.14430467831E+04  0.14431152705E+04  0.10000000000E+02 0.  1.
</event>
<event>
 5    1  0.1068111E-008  0.3825554E+03  0.7957747E-01  0.3440107E+00
         13   -1    0    0    0    0  0.00000000000E+00  0.00000000000E+00  0.14999999963E+04  0.15000000000E+04  0.10566000000E+00 0.  1.
        994   -1    0    0    0    0 -0.00000000000E+00 -0.00000000000E+00  0.11368683772E-12  0.17120000000E+03  0.17120000000E+03 0.  0.
         13    1    1    2    0    0  0.77209073164E+01  0.69540877930E+01  0.18164660845E+02  0.20926963814E+02  0.10566000000E+00 0.  1.
        994    1    1    2    0    0  0.27265382884E+01 -0.46273967443E+01  0.29443723227E+01  0.17130953313E+03  0.17120000000E+03 0.  0.
        998    1    1    2    0    0 -0.10447445605E+02 -0.23266910487E+01  0.14788909631E+04  0.14789635031E+04  0.10000000000E+02 0.  1.
</event>
<event>
 5    1  0.1068111E-008  0.3864624E+03  0.7957747E-01  0.3423494E+00
         13   -1    0    0    0    0  0.00000000000E+00  0.00000000000E+00  0.14999999963E+04  0.15000000000E+04  0.10566000000E+00 0. -1.
        994   -1    0    0    0    0 -0.00000000000E+00 -0.00000000000E+00  0.11368683772E-12  0.17120000000E+03  0.17120000000E+03 0.  0.
         13    1    1    2    0    0  0.20120701542E+03  0.70150269271E+02  0.12503007911E+04  0.12683285862E+04  0.10566000000E+00 0. -1.
        994    1    1    2    0    0 -0.20872004696E+03 -0.68404847777E+02  0.17899170896E+03  0.33104494118E+03  0.17120000000E+03 0.  0.
        998    1    1    2    0    0  0.75130315387E+01 -0.17454214942E+01  0.70707496263E+02  0.71826472605E+02  0.10000000000E+02 0. -1.
</event>
<event>
 5    1  0.1068111E-008  0.3815563E+03  0.7957747E-01  0.3444410E+00
         13   -1    0    0    0    0  0.00000000000E+00  0.00000000000E+00  0.14999999963E+04  0.15000000000E+04  0.10566000000E+00 0. -1.
        994   -1    0    0    0    0 -0.00000000000E+00 -0.00000000000E+00  0.11368683772E-12  0.17120000000E+03  0.17120000000E+03 0.  0.
         13    1    1    2    0    0 -0.35377908076E+01  0.18616688701E+02  0.55009473409E+02  0.58182045260E+02  0.10566000000E+00 0. -1.
        994    1    1    2    0    0 -0.10229510304E+02 -0.31590542374E+01  0.37308994137E+01  0.17157500434E+03  0.17120000000E+03 0.  0.
        998    1    1    2    0    0  0.13767301112E+02 -0.15457634463E+02  0.14412596235E+04  0.14414429504E+04  0.10000000000E+02 0. -1.
</event>
<event>
 5    1  0.1068111E-008  0.3849299E+03  0.7957747E-01  0.3429970E+00
         13   -1    0    0    0    0  0.00000000000E+00  0.00000000000E+00  0.14999999963E+04  0.15000000000E+04  0.10566000000E+00 0.  1.
        994   -1    0    0    0    0 -0.00000000000E+00 -0.00000000000E+00  0.11368683772E-12  0.17120000000E+03  0.17120000000E+03 0.  0.
         13    1    1    2    0    0  0.10698655626E+02 -0.98354534456E+01  0.66774534971E+02  0.68337742583E+02  0.10566000000E+00 0.  1.
        994    1    1    2    0    0 -0.44646419238E+01 -0.26178964192E+01  0.17530584521E+01  0.17128718464E+03  0.17120000000E+03 0.  0.
        998    1    1    2    0    0 -0.62340137026E+01  0.12453349865E+02  0.14314724029E+04  0.14315750728E+04  0.10000000000E+02 0.  1.
</event>
<event>
 5    1  0.1068111E-008  0.3849814E+03  0.7957747E-01  0.3429751E+00
         13   -1    0    0    0    0  0.00000000000E+00  0.00000000000E+00  0.14999999963E+04  0.15000000000E+04  0.10566000000E+00 0.  1.
        994   -1    0    0    0    0 -0.00000000000E+00 -0.00000000000E+00  0.11368683772E-12  0.17120000000E+03  0.17120000000E+03 0.  0.
         13    1    1    2    0    0 -0.15009541161E+02  0.38870012575E+01  0.73722339420E+02  0.75335181676E+02  0.10566000000E+00 0.  1.
        994    1    1    2    0    0  0.75710258921E+01 -0.83605334807E+01  0.20578845412E+01  0.17158348942E+03  0.17120000000E+03 0.  0.
        998    1    1    2    0    0  0.74385152687E+01  0.44735322232E+01  0.14242197723E+04  0.14242813289E+04  0.10000000000E+02 0.  1.
</event>
<event>
 5    1  0.1068111E-008  0.3829389E+03  0.7957747E-01  0.3438461E+00
         13   -1    0    0    0    0  0.00000000000E+00  0.00000000000E+00  0.14999999963E+04  0.15000000000E+04  0.10566000000E+00 0. -1.
        994   -1    0    0    0    0 -0.00000000000E+00 -0.00000000000E+00  0.11368683772E-12  0.17120000000E+03  0.17120000000E+03 0.  0.
         13    1    1    2    0    0  0.13035350064E+02 -0.68637644281E+01  0.39448785948E+02  0.42109969012E+02  0.10566000000E+00 0. -1.
        994    1    1    2    0    0 -0.17507612166E+02 -0.46030982276E+01  0.37425907994E+01  0.17219509860E+03  0.17120000000E+03 0.  0.
        998    1    1    2    0    0  0.44722621022E+01  0.11466862656E+02  0.14568086195E+04  0.14568949324E+04  0.10000000000E+02 0. -1.
</event>
<event>
 5    1  0.1068111E-008  0.3797459E+03  0.7957747E-01  0.3452266E+00
         13   -1    0    0    0    0  0.00000000000E+00  0.00000000000E+00  0.14999999963E+04  0.15000000000E+04  0.10566000000E+00 0.  1.
        994   -1    0    0    0    0 -0.00000000000E+00 -0.00000000000E+00  0.11368683772E-12  0.17120000000E+03  0.17120000000E+03 0.  0.
         13    1    1    2    0    0  0.18039081725E+02 -0.18763800648E+02  0.76973726113E+02  0.81255488184E+02  0.10566000000E+00 0.  1.
        994    1    1    2    0    0 -0.70481272131E+01  0.19802330051E+02  0.57410512431E+01  0.17258101878E+03  0.17120000000E+03 0.  0.
        998    1    1    2    0    0 -0.10990954512E+02 -0.10385294037E+01  0.14172852189E+04  0.14173634930E+04  0.10000000000E+02 0.  1.
</event>
<event>
 5    1  0.1068111E-008  0.3843294E+03  0.7957747E-01  0.3432521E+00
         13   -1    0    0    0    0  0.00000000000E+00  0.00000000000E+00  0.14999999963E+04  0.15000000000E+04  0.10566000000E+00 0. -1.
        994   -1    0    0    0    0 -0.00000000000E+00 -0.00000000000E+00  0.11368683772E-12  0.17120000000E+03  0.17120000000E+03 0.  0.
         13    1    1    2    0    0 -0.24952976112E+02  0.12821800035E+01  0.13726350196E+03  0.13951908521E+03  0.10566000000E+00 0. -1.
        994    1    1    2    0    0  0.33649447228E+02 -0.43386589668E+02  0.11963293429E+02  0.18018668611E+03  0.17120000000E+03 0.  0.
        998    1    1    2    0    0 -0.86964711165E+01  0.42104409665E+02  0.13507732009E+04  0.13514942287E+04  0.10000000000E+02 0. -1.
</event>
<event>
 5    1  0.1068111E-008  0.3809946E+03  0.7957747E-01  0.3446839E+00
         13   -1    0    0    0    0  0.00000000000E+00  0.00000000000E+00  0.14999999963E+04  0.15000000000E+04  0.10566000000E+00 0.  1.
        994   -1    0    0    0    0 -0.00000000000E+00 -0.00000000000E+00  0.11368683772E-12  0.17120000000E+03  0.17120000000E+03 0.  0.
         13    1    1    2    0    0  0.38241897841E+02 -0.31101519187E+02  0.26921683759E+03  0.27369227985E+03  0.10566000000E+00 0.  1.
        994    1    1    2    0    0 -0.35809813541E+02  0.38436140042E+02  0.12882290176E+02  0.17954128497E+03  0.17120000000E+03 0.  0.
        998    1    1    2    0    0 -0.24320843001E+01 -0.73346208554E+01  0.12179008685E+04  0.12179664352E+04  0.10000000000E+02 0.  1.
</event>
<event>
 5    1  0.1068111E-008  0.3796920E+03  0.7957747E-01  0.3452501E+00
         13   -1    0    0    0    0  0.00000000000E+00  0.00000000000E+00  0.14999999963E+04  0.15000000000E+04  0.10566000000E+00 0.  1.
        994   -1    0    0    0    0 -0.00000000000E+00 -0.00000000000E+00  0.11368683772E-12  0.17120000000E+03  0.17120000000E+03 0.  0.
         13    1    1    2    0    0  0.10037769518E+02  0.90973418908E+01  0.19499878126E+02  0.23743943593E+02  0.10566000000E+00 0.  1.
        994    1    1    2    0    0 -0.74929391413E+01 -0.86951085006E+01  0.47297153777E+01  0.17164952449E+03  0.17120000000E+03 0.  0.
        998    1    1    2    0    0 -0.25448303770E+01 -0.40223339021E+00  0.14757704028E+04  0.14758065319E+04  0.10000000000E+02 0.  1.
</event>
<event>
 5    1  0.1068111E-008  0.3824068E+03  0.7957747E-01  0.3440745E+00
         13   -1    0    0    0    0  0.00000000000E+00  0.00000000000E+00  0.14999999963E+04  0.15000000000E+04  0.10566000000E+00 0. -1.
        994   -1    0    0    0    0 -0.00000000000E+00 -0.00000000000E+00  0.11368683772E-12  0.17120000000E+03  0.17120000000E+03 0.  0.
         13    1    1    2    0    0 -0.15436972307E+01 -0.20664645760E+02  0.76851165598E+02  0.79596001176E+02  0.10566000000E+00 0. -1.
        994    1    1    2    0    0  0.57723257501E+01  0.18715761195E+01  0.30452500812E+01  0.17133457354E+03  0.17120000000E+03 0.  0.
        998    1    1    2    0    0 -0.42286285195E+01  0.18793069640E+02  0.14201035806E+04  0.14202694253E+04  0.10000000000E+02 0. -1.
</event>
<event>
 5    1  0.1068111E-008  0.3845509E+03  0.7957747E-01  0.3431579E+00
         13   -1    0    0    0    0  0.00000000000E+00  0.00000000000E+00  0.14999999963E+04  0.15000000000E+04  0.10566000000E+00 0.  1.
        994   -1    0    0    0    0 -0.00000000000E+00 -0.00000000000E+00  0.11368683772E-12  0.17120000000E+03  0.17120000000E+03 0.  0.
         13    1    1    2    0    0 -0.23655411223E+02  0.64527765923E+01  0.11027513612E+03  0.11296828589E+03  0.10566000000E+00 0.  1.
        994    1    1    2    0    0  0.62705495961E+02 -0.29073649520E+02  0.17748561353E+02  0.18547697364E+03  0.17120000000E+03 0.  0.
        998    1    1    2    0    0 -0.39050084738E+02  0.22620872928E+02  0.13719762988E+04  0.13727547405E+04  0.10000000000E+02 0.  1.
</event>
<event>
 5    1  0.1068111E-008  0.3858902E+03  0.7957747E-01  0.3425906E+00
         13   -1    0    0    0    0  0.00000000000E+00  0.00000000000E+00  0.14999999963E+04  0.15000000000E+04  0.10566000000E+00 0. -1.
        994   -1    0    0    0    0 -0.00000000000E+00 -0.00000000000E+00  0.11368683772E-12  0.17120000000E+03  0.17120000000E+03 0.  0.
         13    1    1    2    0    0 -0.10341085923E+02  0.23690263358E+01  0.48073517266E+02  0.49230321655E+02  0.10566000000E+00 0. -1.
        994    1    1    2    0    0  0.49937724012E+01 -0.63313004175E+01  0.14020717485E+01  0.17139553359E+03  0.17120000000E+03 0.  0.
        998    1    1    2    0    0  0.53473135220E+01  0.39622740817E+01  0.14505244073E+04  0.14505741448E+04  0.10000000000E+02 0. -1.
</event>
<event>
 5    1  0.1068111E-008  0.3824337E+03  0.7957747E-01  0.3440630E+00
         13   -1    0    0    0    0  0.00000000000E+00  0.00000000000E+00  0.14999999963E+04  0.15000000000E+04  0.10566000000E+00 0.  1.
        994   -1    0    0    0    0 -0.00000000000E+00 -0.00000000000E+00  0.11368683772E-12  0.17120000000E+03  0.17120000000E+03 0.  0.
         13    1    1    2    0    0  0.14633316389E+02  0.24080057328E+02  0.13373986203E+03  0.13667605851E+03  0.10566000000E+00 0.  1.
        994    1    1    2    0    0  0.10421162932E+02 -0.29271369366E+02  0.61178156859E+01  0.17410422560E+03  0.17120000000E+03 0.  0.
        998    1    1    2    0    0 -0.25054479321E+02  0.51913120378E+01  0.13601423186E+04  0.13604197159E+04  0.10000000000E+02 0.  1.
</event>
<event>
 5    1  0.1068111E-008  0.3834346E+03  0.7957747E-01  0.3436338E+00
         13   -1    0    0    0    0  0.00000000000E+00  0.00000000000E+00  0.14999999963E+04  0.15000000000E+04  0.10566000000E+00 0. -1.
        994   -1    0    0    0    0 -0.00000000000E+00 -0.00000000000E+00  0.11368683772E-12  0.17120000000E+03  0.17120000000E+03 0.  0.
         13    1    1    2    0    0 -0.10119531154E+02 -0.26867087053E+01  0.22688595036E+02  0.24988133647E+02  0.10566000000E+00 0. -1.
        994    1    1    2    0    0 -0.18508266911E+01 -0.49745349581E+01  0.25024486000E+01  0.17130053650E+03  0.17120000000E+03 0.  0.
        998    1    1    2    0    0  0.11970357845E+02  0.76612436635E+01  0.14748089526E+04  0.14749113298E+04  0.10000000000E+02 0. -1.
</event>
<event>
 5    1  0.1068111E-008  0.3834622E+03  0.7957747E-01  0.3436220E+00
         13   -1    0    0    0    0  0.00000000000E+00  0.00000000000E+00  0.14999999963E+04  0.15000000000E+04  0.10566000000E+00 0.  1.
        994   -1    0    0    0    0 -0.00000000000E+00 -0.00000000000E+00  0.11368683772E-12  0.17120000000E+03  0.17120000000E+03 0.  0.
         13    1    1    2    0    0 -0.18506901366E+02  0.95904488769E+01  0.84208542994E+02  0.86750054669E+02  0.10566000000E+00 0.  1.
        994    1    1    2    0    0  0.21466545520E+02 -0.11731836704E+02  0.43759893060E+01  0.17299432896E+03  0.17120000000E+03 0.  0.
        998    1    1    2    0    0 -0.29596441548E+01  0.21413878270E+01  0.14114154640E+04  0.14114556164E+04  0.10000000000E+02 0.  1.
</event>
<event>
 5    1  0.1068111E-008  0.3828196E+03  0.7957747E-01  0.3438972E+00
         13   -1    0    0    0    0  0.00000000000E+00  0.00000000000E+00  0.14999999963E+04  0.15000000000E+04  0.10566000000E+00 0. -1.
        994   -1    0    0    0    0 -0.00000000000E+00 -0.00000000000E+00  0.11368683772E-12  0.17120000000E+03  0.17120000000E+03 0.  0.
         13    1    1    2    0    0  0.10457845252E+02 -0.17399965121E+01  0.19507712501E+02  0.22202615302E+02  0.10566000000E+00 0. -1.
        994    1    1    2    0    0 -0.94951588032E+01  0.38131750718E+01  0.30633709804E+01  0.17153286154E+03  0.17120000000E+03 0.  0.
        998    1    1    2    0    0 -0.96268644920E+00 -0.20731785598E+01  0.14774289128E+04  0.14774645232E+04  0.10000000000E+02 0. -1.
</event>
<event>
 5    1  0.1068111E-008  0.3816900E+03  0.7957747E-01  0.3443833E+00
         13   -1    0    0    0    0  0.00000000000E+00  0.00000000000E+00  0.14999999963E+04  0.15000000000E+04  0.10566000000E+00 0.  1.
        994   -1    0    0    0    0 -0.00000000000E+00 -0.00000000000E+00  0.11368683772E-12  0.17120000000E+03  0.17120000000E+03 0.  0.
         13    1    1    2    0    0  0.17911780456E+02  0.93490417731E+01  0.63195487328E+02  0.66346946002E+02  0.10566000000E+00 0.  1.
        994    1    1    2    0    0 -0.51921641033E+01 -0.20078780629E+01  0.33855036678E+01  0.17132393813E+03  0.17120000000E+03 0.  0.
        998    1    1    2    0    0 -0.12719616353E+02 -0.73411637102E+01  0.14334190053E+04  0.14335291159E+04  0.10000000000E+02 0.  1.
</event>
<event>
 5    1  0.1068111E-008  0.3819545E+03  0.7957747E-01  0.3442692E+00
         13   -1    0    0    0    0  0.00000000000E+00  0.00000000000E+00  0.14999999963E+04  0.15000000000E+04  0.10566000000E+00 0. -1.
        994   -1    0    0    0    0 -0.00000000000E+00 -0.00000000000E+00  0.11368683772E-12  0.17120000000E+03  0.17120000000E+03 0.  0.
         13    1    1    2    0    0  0.27426921421E+02 -0.31704202055E+02  0.24467197563E+03  0.24823734463E+03  0.10566000000E+00 0. -1.
        994    1    1    2    0    0 -0.25015735208E+02  0.28512739894E+02  0.79433400412E+01  0.17553147864E+03  0.17120000000E+03 0.  0.
        998    1    1    2    0    0 -0.24111862132E+01  0.31914621608E+01  0.12473846806E+04  0.12474311767E+04  0.10000000000E+02 0.  0.
</event>
<event>
 5    1  0.1068111E-008  0.3842802E+03  0.7957747E-01  0.3432731E+00
         13   -1    0    0    0    0  0.00000000000E+00  0.00000000000E+00  0.14999999963E+04  0.15000000000E+04  0.10566000000E+00 0. -1.
        994   -1    0    0    0    0 -0.00000000000E+00 -0.00000000000E+00  0.11368683772E-12  0.17120000000E+03  0.17120000000E+03 0.  0.
         13    1    1    2    0    0  0.24767310585E+01  0.10016214810E+02  0.26248838580E+02  0.28204103366E+02  0.10566000000E+00 0. -1.
        994    1    1    2    0    0  0.13642780075E+01 -0.75556905452E+01  0.21822816320E+01  0.17138597395E+03  0.17120000000E+03 0.  0.
        998    1    1    2    0    0 -0.38410090660E+01 -0.24605242644E+01  0.14715688761E+04  0.14716099227E+04  0.10000000000E+02 0. -1.
</event>
<event>
 5    1  0.1068111E-008  0.3837746E+03  0.7957747E-01  0.3434886E+00
         13   -1    0    0    0    0  0.00000000000E+00  0.00000000000E+00  0.14999999963E+04  0.15000000000E+04  0.10566000000E+00 0.  1.
        994   -1    0    0    0    0 -0.00000000000E+00 -0.00000000000E+00  0.11368683772E-12  0.17120000000E+03  0.17120000000E+03 0.  0.
         13    1    1    2    0    0 -0.10839986243E+02  0.95355280109E+01  0.46701497776E+02  0.48882232506E+02  0.10566000000E+00 0.  1.
        994    1    1    2    0    0  0.13092710015E+02  0.52665434757E+01  0.28975780658E+01  0.17180509741E+03  0.17120000000E+03 0.  0.
        998    1    1    2    0    0 -0.22527237720E+01 -0.14802071487E+02  0.14504009204E+04  0.14505126701E+04  0.10000000000E+02 0.  1.
</event>
<event>
 5    1  0.1068111E-008  0.3747343E+03  0.7957747E-01  0.3474412E+00
         13   -1    0    0    0    0  0.00000000000E+00  0.00000000000E+00  0.14999999963E+04  0.15000000000E+04  0.10566000000E+00 0. -1.
        994   -1    0    0    0    0 -0.00000000000E+00 -0.00000000000E+00  0.11368683772E-12  0.17120000000E+03  0.17120000000E+03 0.  0.
         13    1    1    2    0    0 -0.56678009499E+02 -0.19209910672E+01  0.32871868021E+03  0.33357468257E+03  0.10566000000E+00 0. -1.
        994    1    1    2    0    0 -0.80741899863E+01 -0.14777028285E+01  0.70444939749E+01  0.17154136832E+03  0.17120000000E+03 0.  0.
        998    1    1    2    0    0  0.64752199485E+02  0.33986938957E+01  0.11642368221E+04  0.11660839491E+04  0.10000000000E+02 0. -1.
</event>
<event>
 5    1  0.1068111E-008  0.3776019E+03  0.7957747E-01  0.3461667E+00
         13   -1    0    0    0    0  0.00000000000E+00  0.00000000000E+00  0.14999999963E+04  0.15000000000E+04  0.10566000000E+00 0.  1.
        994   -1    0    0    0    0 -0.00000000000E+00 -0.00000000000E+00  0.11368683772E-12  0.17120000000E+03  0.17120000000E+03 0.  0.
         13    1    1    2    0    0  0.12998615883E+02 -0.57664557022E+01  0.17198470228E+02  0.22316240016E+02  0.10566000000E+00 0.  1.
        994    1    1    2    0    0  0.15026023086E+02  0.21206235279E+02  0.76281049571E+01  0.17332949481E+03  0.17120000000E+03 0.  0.
        998    1    1    2    0    0 -0.28024638969E+02 -0.15439779577E+02  0.14751734211E+04  0.14755542652E+04  0.10000000000E+02 0.  1.
</event>
<event>
 5    1  0.1068111E-008  0.3798160E+03  0.7957747E-01  0.3451960E+00
         13   -1    0    0    0    0  0.00000000000E+00  0.00000000000E+00  0.14999999963E+04  0.15000000000E+04  0.10566000000E+00 0.  1.
        994   -1    0    0    0    0 -0.00000000000E+00 -0.00000000000E+00  0.11368683772E-12  0.17120000000E+03  0.17120000000E+03 0.  0.
         13    1    1    2    0    0 -0.92288537020E+01 -0.80559429932E+01  0.16495281955E+02  0.20546908502E+02  0.10566000000E+00 0.  1.
        994    1    1    2    0    0 -0.10926029460E+02  0.54567414263E+01  0.47251488957E+01  0.17170009079E+03  0.17120000000E+03 0.  0.
        998    1    1    2    0    0  0.20154883162E+02  0.25992015669E+01  0.14787795654E+04  0.14789530007E+04  0.10000000000E+02 0.  1.
</event>
<event>
 5    1  0.1068111E-008  0.3820489E+03  0.7957747E-01  0.3442285E+00
         13   -1    0    0    0    0  0.00000000000E+00  0.00000000000E+00  0.14999999963E+04  0.15000000000E+04  0.10566000000E+00 0.  1.
        994   -1    0    0    0    0 -0.00000000000E+00 -0.00000000000E+00  0.11368683772E-12  0.17120000000E+03  0.17120000000E+03 0.  0.
         13    1    1    2    0    0  0.13917278070E+02 -0.49947790159E+01  0.35939498411E+02  0.38862541816E+02  0.10566000000E+00 0.  1.
        994    1    1    2    0    0  0.17632413089E+01 -0.74071640411E+01  0.32949756792E+01  0.17140091004E+03  0.17120000000E+03 0.  0.
        998    1    1    2    0    0 -0.15680519379E+02  0.12401943057E+02  0.14607655222E+04  0.14609365481E+04  0.10000000000E+02 0.  1.
</event>
<event>
 5    1  0.1068111E-008  0.3840980E+03  0.7957747E-01  0.3433507E+00
         13   -1    0    0    0    0  0.00000000000E+00  0.00000000000E+00  0.14999999963E+04  0.15000000000E+04  0.10566000000E+00 0. -1.
        994   -1    0    0    0    0 -0.00000000000E+00 -0.00000000000E+00  0.11368683772E-12  0.17120000000E+03  0.17120000000E+03 0.  0.
         13    1    1    2    0    0  0.22316628266E+02 -0.45842887012E+01  0.13724441639E+03  0.13912256680E+03  0.10566000000E+00 0. -1.
        994    1    1    2    0    0 -0.15605363684E+01  0.43482716487E+01  0.21490228940E+01  0.17127580401E+03  0.17120000000E+03 0.  0.
        998    1    1    2    0    0 -0.20756091897E+02  0.23601705246E+00  0.13606065570E+04  0.13608016292E+04  0.10000000000E+02 0. -1.
</event>
<event>
 5    1  0.1068111E-008  0.3862975E+03  0.7957747E-01  0.3424188E+00
         13   -1    0    0    0    0  0.00000000000E+00  0.00000000000E+00  0.14999999963E+04  0.15000000000E+04  0.10566000000E+00 0.  1.
        994   -1    0    0    0    0 -0.00000000000E+00 -0.00000000000E+00  0.11368683772E-12  0.17120000000E+03  0.17120000000E+03 0.  0.
         13    1    1    2    0    0 -0.76969887205E+01 -0.66530098468E+01  0.58159244119E+02  0.59042484838E+02  0.10566000000E+00 0.  1.
        994    1    1    2    0    0 -0.59579932648E+01  0.35368134482E+00  0.11039819173E+01  0.17130756419E+03  0.17120000000E+03 0.  0.
        998    1    1    2    0    0  0.13654981985E+02  0.62993285020E+01  0.14407367702E+04  0.14408499510E+04  0.10000000000E+02 0.  1.
</event>
<event>
 5    1  0.1068111E-008  0.3843812E+03  0.7957747E-01  0.3432301E+00
         13   -1    0    0    0    0  0.00000000000E+00  0.00000000000E+00  0.14999999963E+04  0.15000000000E+04  0.10566000000E+00 0.  1.
        994   -1    0    0    0    0 -0.00000000000E+00 -0.00000000000E+00  0.11368683772E-12  0.17120000000E+03  0.17120000000E+03 0.  0.
         13    1    1    2    0    0 -0.16733762910E+02 -0.21070477263E+01  0.70494379868E+02  0.72483979114E+02  0.10566000000E+00 0.  1.
        994    1    1    2    0    0  0.18382116829E+02 -0.86287347618E+01  0.32976547132E+01  0.17243164387E+03  0.17120000000E+03 0.  0.
        998    1    1    2    0    0 -0.16483539190E+01  0.10735782488E+02  0.14262079617E+04  0.14262843770E+04  0.10000000000E+02 0.  1.
</event>
<event>
 5    1  0.1068111E-008  0.3696479E+03  0.7957747E-01  0.3497511E+00
         13   -1    0    0    0    0  0.00000000000E+00  0.00000000000E+00  0.14999999963E+04  0.15000000000E+04  0.10566000000E+00 0.  1.
        994   -1    0    0    0    0 -0.00000000000E+00 -0.00000000000E+00  0.11368683772E-12  0.17120000000E+03  0.17120000000E+03 0.  0.
         13    1    1    2    0    0  0.20203778315E+02 -0.25402993439E+01  0.15175350284E+02  0.25395830351E+02  0.10566000000E+00 0.  1.
        994    1    1    2    0    0  0.44406967232E+01  0.19353126943E+02  0.12130560232E+02  0.17277399631E+03  0.17120000000E+03 0.  0.
        998    1    1    2    0    0 -0.24644475038E+02 -0.16812827599E+02  0.14726940858E+04  0.14730301733E+04  0.10000000000E+02 0.  1.
</event>
<event>
 5    1  0.1068111E-008  0.3817174E+03  0.7957747E-01  0.3443714E+00
         13   -1    0    0    0    0  0.00000000000E+00  0.00000000000E+00  0.14999999963E+04  0.15000000000E+04  0.10566000000E+00 0.  1.
        994   -1    0    0    0    0 -0.00000000000E+00 -0.00000000000E+00  0.11368683772E-12  0.17120000000E+03  0.17120000000E+03 0.  0.
         13    1    1    2    0    0  0.18943001224E+02  0.12506231407E+02  0.78437837314E+02  0.81656283322E+02  0.10566000000E+00 0.  1.
        994    1    1    2    0    0 -0.87438172179E+01 -0.94158395571E+01  0.38177486129E+01  0.17172398661E+03  0.17120000000E+03 0.  0.
        998    1    1    2    0    0 -0.10199184006E+02 -0.30903918499E+01  0.14177444104E+04  0.14178197301E+04  0.10000000000E+02 0.  1.
</event>
<event>
 5    1  0.1068111E-008  0.3860453E+03  0.7957747E-01  0.3425251E+00
         13   -1    0    0    0    0  0.00000000000E+00  0.00000000000E+00  0.14999999963E+04  0.15000000000E+04  0.10566000000E+00 0.  1.
        994   -1    0    0    0    0 -0.00000000000E+00 -0.00000000000E+00  0.11368683772E-12  0.17120000000E+03  0.17120000000E+03 0.  0.
         13    1    1    2    0    0  0.83916644988E+01  0.79539068540E+01  0.61788622918E+02  0.62861194337E+02  0.10566000000E+00 0.  1.
        994    1    1    2    0    0  0.32395132368E+01 -0.11963239615E+02  0.16157047589E+01  0.17165565546E+03  0.17120000000E+03 0.  0.
        998    1    1    2    0    0 -0.11631177736E+02  0.40093327607E+01  0.14365956686E+04  0.14366831502E+04  0.10000000000E+02 0.  1.
</event>
<event>
 5    1  0.1068111E-008  0.3856569E+03  0.7957747E-01  0.3426891E+00
         13   -1    0    0    0    0  0.00000000000E+00  0.00000000000E+00  0.14999999963E+04  0.15000000000E+04  0.10566000000E+00 0.  1.
        994   -1    0    0    0    0 -0.00000000000E+00 -0.00000000000E+00  0.11368683772E-12  0.17120000000E+03  0.17120000000E+03 0.  0.
         13    1    1    2    0    0 -0.99651237557E+01  0.46002075437E+01  0.43389521388E+02  0.44756310519E+02  0.10566000000E+00 0.  1.
        994    1    1    2    0    0  0.23890516028E+02  0.50989200702E+01  0.32651619847E+01  0.17296490114E+03  0.17120000000E+03 0.  0.
        998    1    1    2    0    0 -0.13925392273E+02 -0.96991276140E+01  0.14533453129E+04  0.14534787883E+04  0.10000000000E+02 0.  1.
</event>
<event>
 5    1  0.1068111E-008  0.3774057E+03  0.7957747E-01  0.3462533E+00
         13   -1    0    0    0    0  0.00000000000E+00  0.00000000000E+00  0.14999999963E+04  0.15000000000E+04  0.10566000000E+00 0. -1.
        994   -1    0    0    0    0 -0.00000000000E+00 -0.00000000000E+00  0.11368683772E-12  0.17120000000E+03  0.17120000000E+03 0.  0.
         13    1    1    2    0    0  0.11954967294E+02 -0.36003984164E+02  0.12085769467E+03  0.12667202392E+03  0.10566000000E+00 0. -1.
        994    1    1    2    0    0 -0.60551468576E+01  0.37602202921E+02  0.10355317932E+02  0.17569081671E+03  0.17120000000E+03 0.  0.
        998    1    1    2    0    0 -0.58998204363E+01 -0.15982187571E+01  0.13687869837E+04  0.13688371594E+04  0.10000000000E+02 0. -1.
</event>
<event>
 5    1  0.1068111E-008  0.3857323E+03  0.7957747E-01  0.3426572E+00
         13   -1    0    0    0    0  0.00000000000E+00  0.00000000000E+00  0.14999999963E+04  0.15000000000E+04  0.10566000000E+00 0. -1.
        994   -1    0    0    0    0 -0.00000000000E+00 -0.00000000000E+00  0.11368683772E-12  0.17120000000E+03  0.17120000000E+03 0.  0.
         13    1    1    2    0    0 -0.56948131215E+01 -0.10129247125E+02  0.54505431435E+02  0.55730474283E+02  0.10566000000E+00 0. -1.
        994    1    1    2    0    0  0.17460468822E+02 -0.30707764514E+01  0.22988323267E+01  0.17213082893E+03  0.17120000000E+03 0.  0.
        998    1    1    2    0    0 -0.11765655701E+02  0.13200023577E+02  0.14431957325E+04  0.14433386968E+04  0.10000000000E+02 0. -1.
</event>
<event>
 5    1  0.1068111E-008  0.3813093E+03  0.7957747E-01  0.3445477E+00
         13   -1    0    0    0    0  0.00000000000E+00  0.00000000000E+00  0.14999999963E+04  0.15000000000E+04  0.10566000000E+00 0.  1.
        994   -1    0    0    0    0 -0.00000000000E+00 -0.00000000000E+00  0.11368683772E-12  0.17120000000E+03  0.17120000000E+03 0.  0.
         13    1    1    2    0    0 -0.70784251273E+01  0.14718584019E+02  0.38126120570E+02  0.41477138903E+02  0.10566000000E+00 0.  1.
        994    1    1    2    0    0 -0.85266180654E+01 -0.79226189208E+01  0.39247288198E+01  0.17164007283E+03  0.17120000000E+03 0.  0.
        998    1    1    2    0    0  0.15605043193E+02 -0.67959650986E+01  0.14579491469E+04  0.14580827883E+04  0.10000000000E+02 0.  1.
</event>
<event>
 5    1  0.1068111E-008  0.3954635E+03  0.7957747E-01  0.3386472E+00
         13   -1    0    0    0    0  0.00000000000E+00  0.00000000000E+00  0.14999999963E+04  0.15000000000E+04  0.10566000000E+00 0.  1.
        994   -1    0    0    0    0 -0.00000000000E+00 -0.00000000000E+00  0.11368683772E-12  0.17120000000E+03  0.17120000000E+03 0.  0.
         13    1    1    2    0    0  0.10380053228E+03  0.66203589694E+01  0.19298439908E+03  0.21922903345E+03  0.10566000000E+00 0.  1.
        994    1    1    2    0    0 -0.89791431878E+02  0.27133907160E+02  0.59781865051E+02  0.20416185135E+03  0.17120000000E+03 0.  0.
        998    1    1    2    0    0 -0.14009100405E+02 -0.33754266130E+02  0.12472337322E+04  0.12478091152E+04  0.10000000000E+02 0.  1.
</event>
<event>
 5    1  0.1068111E-008  0.3811267E+03  0.7957747E-01  0.3446267E+00
         13   -1    0    0    0    0  0.00000000000E+00  0.00000000000E+00  0.14999999963E+04  0.15000000000E+04  0.10566000000E+00 0.  1.
        994   -1    0    0    0    0 -0.00000000000E+00 -0.00000000000E+00  0.11368683772E-12  0.17120000000E+03  0.17120000000E+03 0.  0.
         13    1    1    2    0    0  0.35385761336E+02  0.28942521990E+01  0.20881458784E+03  0.21181140683E+03  0.10566000000E+00 0.  1.
        994    1    1    2    0    0 -0.51598826867E+00  0.67958645373E+01  0.37201984586E+01  0.17137598984E+03  0.17120000000E+03 0.  0.
        998    1    1    2    0    0 -0.34869773067E+02 -0.96901167363E+01  0.12874652100E+04  0.12880126033E+04  0.10000000000E+02 0.  1.
</event>
<event>
 5    1  0.1068111E-008  0.3809562E+03  0.7957747E-01  0.3447005E+00
         13   -1    0    0    0    0  0.00000000000E+00  0.00000000000E+00  0.14999999963E+04  0.15000000000E+04  0.10566000000E+00 0.  1.
        994   -1    0    0    0    0 -0.00000000000E+00 -0.00000000000E+00  0.11368683772E-12  0.17120000000E+03  0.17120000000E+03 0.  0.
         13    1    1    2    0    0  0.12782381628E+02 -0.43307680776E+01  0.23216267825E+02  0.26854256422E+02  0.10566000000E+00 0. -1.
        994    1    1    2    0    0 -0.12519799198E+02  0.42422038300E+01  0.42337368930E+01  0.17176177163E+03  0.17120000000E+03 0.  0.
        998    1    1    2    0    0 -0.26258243070E+00  0.88564247609E-01  0.14725499916E+04  0.14725839719E+04  0.10000000000E+02 0.  1.
</event>
<event>
 5    1  0.1068111E-008  0.3770145E+03  0.7957747E-01  0.3464262E+00
         13   -1    0    0    0    0  0.00000000000E+00  0.00000000000E+00  0.14999999963E+04  0.15000000000E+04  0.10566000000E+00 0.  1.
        994   -1    0    0    0    0 -0.00000000000E+00 -0.00000000000E+00  0.11368683772E-12  0.17120000000E+03  0.17120000000E+03 0.  0.
         13    1    1    2    0    0  0.13929466551E+03  0.22521269868E+02  0.78704795145E+03  0.79959658608E+03  0.10566000000E+00 0.  1.
        994    1    1    2    0    0 -0.14058139509E+03 -0.98037503788E+01  0.75938091205E+02  0.23438275505E+03  0.17120000000E+03 0.  0.
        998    1    1    2    0    0  0.12867295878E+01 -0.12717519489E+02  0.63701395363E+03  0.63722065887E+03  0.10000000000E+02 0. -1.
</event>
<event>
 5    1  0.1068111E-008  0.3850707E+03  0.7957747E-01  0.3429372E+00
         13   -1    0    0    0    0  0.00000000000E+00  0.00000000000E+00  0.14999999963E+04  0.15000000000E+04  0.10566000000E+00 0.  1.
        994   -1    0    0    0    0 -0.00000000000E+00 -0.00000000000E+00  0.11368683772E-12  0.17120000000E+03  0.17120000000E+03 0.  0.
         13    1    1    2    0    0  0.72805899311E+01 -0.19451647462E+02  0.11749640877E+03  0.11931802385E+03  0.10566000000E+00 0.  1.
        994    1    1    2    0    0 -0.46388895651E+01  0.30175281345E+02  0.46655898980E+01  0.17396342900E+03  0.17120000000E+03 0.  0.
        998    1    1    2    0    0 -0.26417003661E+01 -0.10723633883E+02  0.13778379976E+04  0.13779185471E+04  0.10000000000E+02 0.  1.
</event>
<event>
 5    1  0.1068111E-008  0.3848377E+03  0.7957747E-01  0.3430361E+00
         13   -1    0    0    0    0  0.00000000000E+00  0.00000000000E+00  0.14999999963E+04  0.15000000000E+04  0.10566000000E+00 0.  1.
        994   -1    0    0    0    0 -0.00000000000E+00 -0.00000000000E+00  0.11368683772E-12  0.17120000000E+03  0.17120000000E+03 0.  0.
         13    1    1    2    0    0 -0.14119281883E+02 -0.25163862058E+01  0.59324851029E+02  0.61033887587E+02  0.10566000000E+00 0.  1.
        994    1    1    2    0    0  0.12355278413E+02 -0.36904946506E+01  0.22580367244E+01  0.17169977107E+03  0.17120000000E+03 0.  0.
        998    1    1    2    0    0  0.17640034697E+01  0.62068808564E+01  0.14384171085E+04  0.14384663413E+04  0.10000000000E+02 0.  1.
</event>
<event>
 5    1  0.1068111E-008  0.3778341E+03  0.7957747E-01  0.3460644E+00
         13   -1    0    0    0    0  0.00000000000E+00  0.00000000000E+00  0.14999999963E+04  0.15000000000E+04  0.10566000000E+00 0.  1.
        994   -1    0    0    0    0 -0.00000000000E+00 -0.00000000000E+00  0.11368683772E-12  0.17120000000E+03  0.17120000000E+03 0.  0.
         13    1    1    2    0    0  0.66835390563E+01 -0.18077426734E+02  0.32636154776E+02  0.37902411720E+02  0.10566000000E+00 0.  1.
        994    1    1    2    0    0 -0.10988659890E+02  0.18212313150E+02  0.67553629798E+01  0.17264852715E+03  0.17120000000E+03 0.  0.
        998    1    1    2    0    0  0.43051208341E+01 -0.13488641615E+00  0.14606084785E+04  0.14606490611E+04  0.10000000000E+02 0.  1.
</event>
<event>
 5    1  0.1068111E-008  0.3716636E+03  0.7957747E-01  0.3488280E+00
         13   -1    0    0    0    0  0.00000000000E+00  0.00000000000E+00  0.14999999963E+04  0.15000000000E+04  0.10566000000E+00 0.  1.
        994   -1    0    0    0    0 -0.00000000000E+00 -0.00000000000E+00  0.11368683772E-12  0.17120000000E+03  0.17120000000E+03 0.  0.
         13    1    1    2    0    0 -0.22834145974E+02 -0.61149864852E+01  0.28243154367E+02  0.36830397972E+02  0.10566000000E+00 0.  1.
        994    1    1    2    0    0  0.38220426445E+02  0.77318800391E+00  0.13443007817E+02  0.17593053537E+03  0.17120000000E+03 0.  0.
        998    1    1    2    0    0 -0.15386280471E+02  0.53417984813E+01  0.14583138341E+04  0.14584390667E+04  0.10000000000E+02 0.  1.
</event>
<event>
 5    1  0.1068111E-008  0.3839072E+03  0.7957747E-01  0.3434320E+00
         13   -1    0    0    0    0  0.00000000000E+00  0.00000000000E+00  0.14999999963E+04  0.15000000000E+04  0.10566000000E+00 0. -1.
        994   -1    0    0    0    0 -0.00000000000E+00 -0.00000000000E+00  0.11368683772E-12  0.17120000000E+03  0.17120000000E+03 0.  0.
         13    1    1    2    0    0  0.14688755079E+02 -0.54702909613E+01  0.56102118230E+02  0.58250686201E+02  0.10566000000E+00 0. -1.
        994    1    1    2    0    0 -0.10151960682E+02  0.15979121177E+01  0.25223201763E+01  0.17152672599E+03  0.17120000000E+03 0.  0.
        998    1    1    2    0    0 -0.45367943971E+01  0.38723788436E+01  0.14413755579E+04  0.14414225878E+04  0.10000000000E+02 0. -1.
</event>
<event>
 5    1  0.1068111E-008  0.3743962E+03  0.7957747E-01  0.3475928E+00
         13   -1    0    0    0    0  0.00000000000E+00  0.00000000000E+00  0.14999999963E+04  0.15000000000E+04  0.10566000000E+00 0.  1.
        994   -1    0    0    0    0 -0.00000000000E+00 -0.00000000000E+00  0.11368683772E-12  0.17120000000E+03  0.17120000000E+03 0.  0.
         13    1    1    2    0    0  0.20293093743E+02 -0.38755362226E+02  0.16472804519E+03  0.17043804679E+03  0.10566000000E+00 0.  1.
        994    1    1    2    0    0  0.70080922665E+01 -0.91814506921E+01  0.74436692495E+01  0.17175057673E+03  0.17120000000E+03 0.  0.
        998    1    1    2    0    0 -0.27301186009E+02  0.47936812918E+02  0.13278282818E+04  0.13290113765E+04  0.10000000000E+02 0.  1.
</event>
<event>
 5    1  0.1068111E-008  0.3852176E+03  0.7957747E-01  0.3428750E+00
         13   -1    0    0    0    0  0.00000000000E+00  0.00000000000E+00  0.14999999963E+04  0.15000000000E+04  0.10566000000E+00 0. -1.
        994   -1    0    0    0    0 -0.00000000000E+00 -0.00000000000E+00  0.11368683772E-12  0.17120000000E+03  0.17120000000E+03 0.  0.
         13    1    1    2    0    0  0.12027228349E+02 -0.11143356698E+02  0.80136690860E+02  0.81796876507E+02  0.10566000000E+00 0. -1.
        994    1    1    2    0    0 -0.20991404271E+02  0.13564827289E+02  0.35775994797E+01  0.17305167671E+03  0.17120000000E+03 0.  0.
        998    1    1    2    0    0  0.89641759216E+01 -0.24214705911E+01  0.14162857059E+04  0.14163514468E+04  0.10000000000E+02 0. -1.
</event>
<event>
 5    1  0.1068111E-008  0.3923861E+03  0.7957747E-01  0.3398939E+00
         13   -1    0    0    0    0  0.00000000000E+00  0.00000000000E+00  0.14999999963E+04  0.15000000000E+04  0.10566000000E+00 0. -1.
        994   -1    0    0    0    0 -0.00000000000E+00 -0.00000000000E+00  0.11368683772E-12  0.17120000000E+03  0.17120000000E+03 0.  0.
         13    1    1    2    0    0  0.39419049622E+02 -0.71955769105E+02  0.15204342231E+03  0.17276778522E+03  0.10566000000E+00 0. -1.
        994    1    1    2    0    0  0.38036128080E+02  0.49227200982E+02  0.38152603013E+02  0.18610514628E+03  0.17120000000E+03 0.  0.
        998    1    1    2    0    0 -0.77455177702E+02  0.22728568123E+02  0.13098039710E+04  0.13123270685E+04  0.10000000000E+02 0. -1.
</event>
<event>
 5    1  0.1068111E-008  0.3698356E+03  0.7957747E-01  0.3496647E+00
         13   -1    0    0    0    0  0.00000000000E+00  0.00000000000E+00  0.14999999963E+04  0.15000000000E+04  0.10566000000E+00 0. -1.
        994   -1    0    0    0    0 -0.00000000000E+00 -0.00000000000E+00  0.11368683772E-12  0.17120000000E+03  0.17120000000E+03 0.  0.
         13    1    1    2    0    0  0.17957037941E+02  0.64466116556E+02  0.36190478074E+03  0.36803996642E+03  0.10566000000E+00 0. -1.
        994    1    1    2    0    0 -0.92106481992E+01  0.18315874351E+02  0.10810431373E+02  0.17276172238E+03  0.17120000000E+03 0.  0.
        998    1    1    2    0    0 -0.87463897421E+01 -0.82781990907E+02  0.11272847842E+04  0.11303983112E+04  0.10000000000E+02 0. -1.
</event>
<event>
 5    1  0.1068111E-008  0.3850553E+03  0.7957747E-01  0.3429438E+00
         13   -1    0    0    0    0  0.00000000000E+00  0.00000000000E+00  0.14999999963E+04  0.15000000000E+04  0.10566000000E+00 0. -1.
        994   -1    0    0    0    0 -0.00000000000E+00 -0.00000000000E+00  0.11368683772E-12  0.17120000000E+03  0.17120000000E+03 0.  0.
         13    1    1    2    0    0  0.80728755969E+01  0.16726084735E+02  0.10144762546E+03  0.10313372439E+03  0.10566000000E+00 0. -1.
        994    1    1    2    0    0 -0.83363089495E+01 -0.17527061671E+02  0.28422545909E+01  0.17232008110E+03  0.17120000000E+03 0.  0.
        998    1    1    2    0    0  0.26343335261E+00  0.80097693604E+00  0.13957101162E+04  0.13957461945E+04  0.10000000000E+02 0. -1.
</event>
<event>
 5    1  0.1068111E-008  0.3875727E+03  0.7957747E-01  0.3418834E+00
         13   -1    0    0    0    0  0.00000000000E+00  0.00000000000E+00  0.14999999963E+04  0.15000000000E+04  0.10566000000E+00 0. -1.
        994   -1    0    0    0    0 -0.00000000000E+00 -0.00000000000E+00  0.11368683772E-12  0.17120000000E+03  0.17120000000E+03 0.  0.
         13    1    1    2    0    0  0.70614317302E+02 -0.87477433243E+01  0.14419379297E+03  0.16079417252E+03  0.10566000000E+00 0. -1.
        994    1    1    2    0    0  0.16252175558E+02  0.10395811804E+02  0.21939261107E+02  0.17367491843E+03  0.17120000000E+03 0.  0.
        998    1    1    2    0    0 -0.86866492861E+02 -0.16480684800E+01  0.13338669422E+04  0.13367309091E+04  0.10000000000E+02 0. -1.
</event>
<event>
 5    1  0.1068111E-008  0.3824555E+03  0.7957747E-01  0.3440536E+00
         13   -1    0    0    0    0  0.00000000000E+00  0.00000000000E+00  0.14999999963E+04  0.15000000000E+04  0.10566000000E+00 0.  1.
        994   -1    0    0    0    0 -0.00000000000E+00 -0.00000000000E+00  0.11368683772E-12  0.17120000000E+03  0.17120000000E+03 0.  0.
         13    1    1    2    0    0  0.50027202751E+01 -0.18789468876E+02  0.67159581198E+02  0.69917750690E+02  0.10566000000E+00 0.  1.
        994    1    1    2    0    0 -0.51923047055E+01  0.25365435968E+01  0.30094510516E+01  0.17132393551E+03  0.17120000000E+03 0.  0.
        998    1    1    2    0    0  0.18958443037E+00  0.16252925279E+02  0.14298309640E+04  0.14299583138E+04  0.10000000000E+02 0.  1.
</event>
<event>
 5    1  0.1068111E-008  0.3804994E+03  0.7957747E-01  0.3448987E+00
         13   -1    0    0    0    0  0.00000000000E+00  0.00000000000E+00  0.14999999963E+04  0.15000000000E+04  0.10566000000E+00 0. -1.
        994   -1    0    0    0    0 -0.00000000000E+00 -0.00000000000E+00  0.11368683772E-12  0.17120000000E+03  0.17120000000E+03 0.  0.
         13    1    1    2    0    0 -0.16579564610E+02 -0.20766984613E+02  0.98694582255E+02  0.10220949732E+03  0.10566000000E+00 0. -1.
        994    1    1    2    0    0  0.11582262251E+02 -0.11240459857E+02  0.47511174551E+01  0.17202473617E+03  0.17120000000E+03 0.  0.
        998    1    1    2    0    0  0.49973023590E+01  0.32007444470E+02  0.13965542966E+04  0.13969657665E+04  0.10000000000E+02 0. -1.
</event>
<event>
 5    1  0.1068111E-008  0.3811479E+03  0.7957747E-01  0.3446175E+00
         13   -1    0    0    0    0  0.00000000000E+00  0.00000000000E+00  0.14999999963E+04  0.15000000000E+04  0.10566000000E+00 0. -1.
        994   -1    0    0    0    0 -0.00000000000E+00 -0.00000000000E+00  0.11368683772E-12  0.17120000000E+03  0.17120000000E+03 0.  0.
         13    1    1    2    0    0 -0.18934209691E+02  0.47797462430E+01  0.51183168824E+02  0.54782097492E+02  0.10566000000E+00 0. -1.
        994    1    1    2    0    0  0.23201952053E+02  0.15943775967E+02  0.61986340420E+01  0.17360990074E+03  0.17120000000E+03 0.  0.
        998    1    1    2    0    0 -0.42677423617E+01 -0.20723522210E+02  0.14426181934E+04  0.14428080018E+04  0.10000000000E+02 0. -1.
</event>
<event>
 5    1  0.1068111E-008  0.2573977E+03  0.7957747E-01  0.4256575E+00
         13   -1    0    0    0    0  0.00000000000E+00  0.00000000000E+00  0.14999999963E+04  0.15000000000E+04  0.10566000000E+00 0.  1.
        994   -1    0    0    0    0 -0.00000000000E+00 -0.00000000000E+00  0.11368683772E-12  0.17120000000E+03  0.17120000000E+03 0.  0.
         13    1    1    2    0    0 -0.43143559344E+01 -0.18686348655E+03  0.18261884881E+03  0.26131634350E+03  0.10566000000E+00 0.  1.
        994    1    1    2    0    0  0.24110349806E+00  0.19724206919E+03  0.32296916610E+03  0.41535889811E+03  0.17120000000E+03 0.  0.
        998    1    1    2    0    0  0.40732524364E+01 -0.10378582635E+02  0.99441198137E+03  0.99452475839E+03  0.10000000000E+02 0.  1.
</event>
<event>
 5    1  0.1068111E-008  0.3702301E+03  0.7957747E-01  0.3494834E+00
         13   -1    0    0    0    0  0.00000000000E+00  0.00000000000E+00  0.14999999963E+04  0.15000000000E+04  0.10566000000E+00 0. -1.
        994   -1    0    0    0    0 -0.00000000000E+00 -0.00000000000E+00  0.11368683772E-12  0.17120000000E+03  0.17120000000E+03 0.  0.
         13    1    1    2    0    0 -0.53944852862E+02  0.21654610130E+02  0.13906205077E+03  0.15072237531E+03  0.10566000000E+00 0. -1.
        994    1    1    2    0    0  0.48556024089E+02 -0.20695156329E+02  0.20872555176E+02  0.18036374506E+03  0.17120000000E+03 0.  0.
        998    1    1    2    0    0  0.53888287728E+01 -0.95945380115E+00  0.13400653903E+04  0.13401138796E+04  0.10000000000E+02 0. -1.
</event>
<event>
 5    1  0.1068111E-008  0.3301214E+03  0.7957747E-01  0.3701976E+00
         13   -1    0    0    0    0  0.00000000000E+00  0.00000000000E+00  0.14999999963E+04  0.15000000000E+04  0.10566000000E+00 0.  1.
        994   -1    0    0    0    0 -0.00000000000E+00 -0.00000000000E+00  0.11368683772E-12  0.17120000000E+03  0.17120000000E+03 0.  0.
         13    1    1    2    0    0 -0.17853758650E+03  0.17586052130E+03  0.81047949697E+03  0.84833933006E+03  0.10566000000E+00 0.  1.
        994    1    1    2    0    0  0.10490617994E+03 -0.21310187813E+03  0.28047019769E+03  0.40545121636E+03  0.17120000000E+03 0.  0.
        998    1    1    2    0    0  0.73631406561E+02  0.37241356828E+02  0.40905030162E+03  0.41740945359E+03  0.10000000000E+02 0. -1.
</event>
<event>
 5    1  0.1068111E-008  0.3707049E+03  0.7957747E-01  0.3492658E+00
         13   -1    0    0    0    0  0.00000000000E+00  0.00000000000E+00  0.14999999963E+04  0.15000000000E+04  0.10566000000E+00 0.  1.
        994   -1    0    0    0    0 -0.00000000000E+00 -0.00000000000E+00  0.11368683772E-12  0.17120000000E+03  0.17120000000E+03 0.  0.
         13    1    1    2    0    0 -0.17135679290E+02  0.23782105851E+02  0.30579365664E+02  0.42359518787E+02  0.10566000000E+00 0.  1.
        994    1    1    2    0    0  0.52145922384E+02 -0.30154183410E+02  0.24139095374E+02  0.18308634008E+03  0.17120000000E+03 0.  0.
        998    1    1    2    0    0 -0.35010243094E+02  0.63720775593E+01  0.14452815352E+04  0.14457541411E+04  0.10000000000E+02 0.  1.
</event>
<event>
 5    1  0.1068111E-008  0.3865121E+03  0.7957747E-01  0.3423284E+00
         13   -1    0    0    0    0  0.00000000000E+00  0.00000000000E+00  0.14999999963E+04  0.15000000000E+04  0.10566000000E+00 0. -1.
        994   -1    0    0    0    0 -0.00000000000E+00 -0.00000000000E+00  0.11368683772E-12  0.17120000000E+03  0.17120000000E+03 0.  0.
         13    1    1    2    0    0 -0.39359075393E+01  0.10474333777E+02  0.67592836281E+02  0.68512814252E+02  0.10566000000E+00 0. -1.
        994    1    1    2    0    0  0.91305737369E+01 -0.13426675587E+02  0.17445091795E+01  0.17197710983E+03  0.17120000000E+03 0.  0.
        998    1    1    2    0    0 -0.51946661976E+01  0.29523418097E+01  0.14306626508E+04  0.14307100759E+04  0.10000000000E+02 0. -1.
</event>
<event>
 5    1  0.1068111E-008  0.3864400E+03  0.7957747E-01  0.3423588E+00
         13   -1    0    0    0    0  0.00000000000E+00  0.00000000000E+00  0.14999999963E+04  0.15000000000E+04  0.10566000000E+00 0. -1.
        994   -1    0    0    0    0 -0.00000000000E+00 -0.00000000000E+00  0.11368683772E-12  0.17120000000E+03  0.17120000000E+03 0.  0.
         13    1    1    2    0    0 -0.23953789462E+01  0.97506630191E+01  0.54926874187E+02  0.55837137655E+02  0.10566000000E+00 0. -1.
        994    1    1    2    0    0  0.26934085233E+01 -0.91652174131E+01  0.12156581222E+01  0.17147061989E+03  0.17120000000E+03 0.  0.
        998    1    1    2    0    0 -0.29802957715E+00 -0.58544560603E+00  0.14438574640E+04  0.14438922425E+04  0.10000000000E+02 0.  0.
</event>
<event>
 5    1  0.1068111E-008  0.3858595E+03  0.7957747E-01  0.3426035E+00
         13   -1    0    0    0    0  0.00000000000E+00  0.00000000000E+00  0.14999999963E+04  0.15000000000E+04  0.10566000000E+00 0.  1.
        994   -1    0    0    0    0 -0.00000000000E+00 -0.00000000000E+00  0.11368683772E-12  0.17120000000E+03  0.17120000000E+03 0.  0.
         13    1    1    2    0    0  0.77855267070E+01  0.81281235245E+01  0.54879778273E+02  0.56022156737E+02  0.10566000000E+00 0.  1.
        994    1    1    2    0    0 -0.11441877188E+02  0.68859271717E+01  0.17890950427E+01  0.17172936094E+03  0.17120000000E+03 0.  0.
        998    1    1    2    0    0  0.36563504814E+01 -0.15014050696E+02  0.14433311230E+04  0.14434484823E+04  0.10000000000E+02 0.  1.
</event>
<event>
 5    1  0.1094480E-008  0.3860580E+03  0.7957747E-01  0.3425198E+00
         13   -1    0    0    0    0  0.00000000000E+00  0.00000000000E+00  0.14999999963E+04  0.15000000000E+04  0.10566000000E+00 0.  1.
        994   -1    0    0    0    0 -0.00000000000E+00 -0.00000000000E+00  0.11368683772E-12  0.17120000000E+03  0.17120000000E+03 0.  0.
         13    1    1    2    0    0 -0.66817910744E+00 -0.11094655320E+02  0.54685389051E+02  0.55803591100E+02  0.10566000000E+00 0.  1.
        994    1    1    2    0    0  0.30770570271E+01  0.12184921753E+02  0.16235858718E+01  0.17166833322E+03  0.17120000000E+03 0.  0.
        998    1    1    2    0    0 -0.24088779197E+01 -0.10902664329E+01  0.14436910214E+04  0.14437280757E+04  0.10000000000E+02 0.  1.
</event>
<event>
 5    1  0.1068111E-008  0.3821403E+03  0.7957747E-01  0.3441892E+00
         13   -1    0    0    0    0  0.00000000000E+00  0.00000000000E+00  0.14999999963E+04  0.15000000000E+04  0.10566000000E+00 0.  1.
        994   -1    0    0    0    0 -0.00000000000E+00 -0.00000000000E+00  0.11368683772E-12  0.17120000000E+03  0.17120000000E+03 0.  0.
         13    1    1    2    0    0 -0.23495835879E+02  0.21380729314E+02  0.17976067891E+03  0.18254616604E+03  0.10566000000E+00 0.  1.
        994    1    1    2    0    0  0.73909743341E+01 -0.29482527223E+01  0.32668435646E+01  0.17141595889E+03  0.17120000000E+03 0.  0.
        998    1    1    2    0    0  0.16104861545E+02 -0.18432476591E+02  0.13169724738E+04  0.13172378751E+04  0.10000000000E+02 0.  1.
</event>
<event>
 5    1  0.1068111E-008  0.3855062E+03  0.7957747E-01  0.3427528E+00
         13   -1    0    0    0    0  0.00000000000E+00  0.00000000000E+00  0.14999999963E+04  0.15000000000E+04  0.10566000000E+00 0.  1.
        994   -1    0    0    0    0 -0.00000000000E+00 -0.00000000000E+00  0.11368683772E-12  0.17120000000E+03  0.17120000000E+03 0.  0.
         13    1    1    2    0    0 -0.36466419354E+01  0.13046744426E+02  0.70733710475E+02  0.72019334203E+02  0.10566000000E+00 0.  1.
        994    1    1    2    0    0 -0.59306438663E+01 -0.29749080426E+01  0.15235808282E+01  0.17133529675E+03  0.17120000000E+03 0.  0.
        998    1    1    2    0    0  0.95772858017E+01 -0.10071836383E+02  0.14277427050E+04  0.14278453690E+04  0.10000000000E+02 0.  1.
</event>
<event>
 5    1  0.1068111E-008  0.4034102E+03  0.7957747E-01  0.3355158E+00
         13   -1    0    0    0    0  0.00000000000E+00  0.00000000000E+00  0.14999999963E+04  0.15000000000E+04  0.10566000000E+00 0. -1.
        994   -1    0    0    0    0 -0.00000000000E+00 -0.00000000000E+00  0.11368683772E-12  0.17120000000E+03  0.17120000000E+03 0.  0.
         13    1    1    2    0    0 -0.51667673822E+02 -0.72969998716E+02  0.12773776495E+03  0.15592022637E+03  0.10566000000E+00 0. -1.
        994    1    1    2    0    0  0.10345553064E+03 -0.81481504570E+01  0.74029203915E+02  0.21344601708E+03  0.17120000000E+03 0.  0.
        998    1    1    2    0    0 -0.51787856818E+02  0.81118149173E+02  0.12982330274E+04  0.13018337566E+04  0.10000000000E+02 0. -1.
</event>
<event>
 5    1  0.1068111E-008  0.4325197E+03  0.7957747E-01  0.3250164E+00
         13   -1    0    0    0    0  0.00000000000E+00  0.00000000000E+00  0.14999999963E+04  0.15000000000E+04  0.10566000000E+00 0.  1.
        994   -1    0    0    0    0 -0.00000000000E+00 -0.00000000000E+00  0.11368683772E-12  0.17120000000E+03  0.17120000000E+03 0.  0.
         13    1    1    2    0    0 -0.28828117820E+02  0.14640985350E+03  0.25735150145E+03  0.29748396939E+03  0.10566000000E+00 0.  1.
        994    1    1    2    0    0  0.52180734749E+02 -0.48977127490E+02  0.72457738141E+02  0.19920128492E+03  0.17120000000E+03 0.  0.
        998    1    1    2    0    0 -0.23352616928E+02 -0.97432726014E+02  0.11701907567E+04  0.11745147457E+04  0.10000000000E+02 0.  1.
</event>
<event>
 5    1  0.1068111E-008  0.3839984E+03  0.7957747E-01  0.3433931E+00
         13   -1    0    0    0    0  0.00000000000E+00  0.00000000000E+00  0.14999999963E+04  0.15000000000E+04  0.10566000000E+00 0. -1.
        994   -1    0    0    0    0 -0.00000000000E+00 -0.00000000000E+00  0.11368683772E-12  0.17120000000E+03  0.17120000000E+03 0.  0.
         13    1    1    2    0    0  0.90729649628E+01  0.11004648231E+02  0.46982387760E+02  0.49099662928E+02  0.10566000000E+00 0. -1.
        994    1    1    2    0    0 -0.68072684269E+01 -0.85767168398E+01  0.25239239488E+01  0.17156838044E+03  0.17120000000E+03 0.  0.
        998    1    1    2    0    0 -0.22656965359E+01 -0.24279313911E+01  0.14504936846E+04  0.14505319566E+04  0.10000000000E+02 0. -1.
</event>
<event>
 5    1  0.1068111E-008  0.3810696E+03  0.7957747E-01  0.3446515E+00
         13   -1    0    0    0    0  0.00000000000E+00  0.00000000000E+00  0.14999999963E+04  0.15000000000E+04  0.10566000000E+00 0. -1.
        994   -1    0    0    0    0 -0.00000000000E+00 -0.00000000000E+00  0.11368683772E-12  0.17120000000E+03  0.17120000000E+03 0.  0.
         13    1    1    2    0    0  0.30419569197E+02  0.32348635840E+02  0.24682579767E+03  0.25078829715E+03  0.10566000000E+00 0. -1.
        994    1    1    2    0    0 -0.16361797789E+02 -0.35795215146E+02  0.87714212225E+01  0.17588457489E+03  0.17120000000E+03 0.  0.
        998    1    1    2    0    0 -0.14057771408E+02  0.34465793060E+01  0.12444027774E+04  0.12445271280E+04  0.10000000000E+02 0. -1.
</event>
<event>
 5    1  0.1068111E-008  0.3830039E+03  0.7957747E-01  0.3438182E+00
         13   -1    0    0    0    0  0.00000000000E+00  0.00000000000E+00  0.14999999963E+04  0.15000000000E+04  0.10566000000E+00 0.  1.
        994   -1    0    0    0    0 -0.00000000000E+00 -0.00000000000E+00  0.11368683772E-12  0.17120000000E+03  0.17120000000E+03 0.  0.
         13    1    1    2    0    0  0.18922477737E+01 -0.24318071977E+02  0.11826670903E+03  0.12075584812E+03  0.10566000000E+00 0.  1.
        994    1    1    2    0    0 -0.37037404355E+01  0.75633675186E+01  0.28592260739E+01  0.17143085310E+03  0.17120000000E+03 0.  0.
        998    1    1    2    0    0  0.18114926618E+01  0.16754704459E+02  0.13788740612E+04  0.13790132988E+04  0.10000000000E+02 0.  1.
</event>
<event>
 5    1  0.1068111E-008  0.3855507E+03  0.7957747E-01  0.3427340E+00
         13   -1    0    0    0    0  0.00000000000E+00  0.00000000000E+00  0.14999999963E+04  0.15000000000E+04  0.10566000000E+00 0.  1.
        994   -1    0    0    0    0 -0.00000000000E+00 -0.00000000000E+00  0.11368683772E-12  0.17120000000E+03  0.17120000000E+03 0.  0.
         13    1    1    2    0    0  0.15769601384E+01  0.13161826001E+02  0.66581814087E+02  0.67888655887E+02  0.10566000000E+00 0.  1.
        994    1    1    2    0    0  0.53471010486E+01 -0.63396110209E+01  0.15828241345E+01  0.17140807300E+03  0.17120000000E+03 0.  0.
        998    1    1    2    0    0 -0.69240611870E+01 -0.68222149803E+01  0.14318353581E+04  0.14319032711E+04  0.10000000000E+02 0.  1.
</event>
<event>
 5    1  0.1068111E-008  0.3781909E+03  0.7957747E-01  0.3459074E+00
         13   -1    0    0    0    0  0.00000000000E+00  0.00000000000E+00  0.14999999963E+04  0.15000000000E+04  0.10566000000E+00 0.  1.
        994   -1    0    0    0    0 -0.00000000000E+00 -0.00000000000E+00  0.11368683772E-12  0.17120000000E+03  0.17120000000E+03 0.  0.
         13    1    1    2    0    0 -0.16050068269E+02 -0.59672211340E+02  0.34174308247E+03  0.34728478670E+03  0.10566000000E+00 0.  1.
        994    1    1    2    0    0 -0.52777473986E+02  0.71621825267E+02  0.32147316485E+02  0.19559661953E+03  0.17120000000E+03 0.  0.
        998    1    1    2    0    0  0.68827542255E+02 -0.11949613927E+02  0.11261095973E+04  0.11283185938E+04  0.10000000000E+02 0.  1.
</event>
<event>
 5    1  0.1068111E-008  0.3721349E+03  0.7957747E-01  0.3486136E+00
         13   -1    0    0    0    0  0.00000000000E+00  0.00000000000E+00  0.14999999963E+04  0.15000000000E+04  0.10566000000E+00 0.  1.
        994   -1    0    0    0    0 -0.00000000000E+00 -0.00000000000E+00  0.11368683772E-12  0.17120000000E+03  0.17120000000E+03 0.  0.
         13    1    1    2    0    0  0.54507535883E+02  0.54678210520E+02  0.36016488961E+03  0.36834703344E+03  0.10566000000E+00 0.  1.
        994    1    1    2    0    0 -0.52450789862E+02 -0.13125987850E+02  0.18259136161E+02  0.18046111206E+03  0.17120000000E+03 0.  0.
        998    1    1    2    0    0 -0.20567460209E+01 -0.41552222670E+02  0.11215759705E+04  0.11223918545E+04  0.10000000000E+02 0.  1.
</event>
<event>
 5    1  0.1068111E-008  0.3703022E+03  0.7957747E-01  0.3494503E+00
         13   -1    0    0    0    0  0.00000000000E+00  0.00000000000E+00  0.14999999963E+04  0.15000000000E+04  0.10566000000E+00 0. -1.
        994   -1    0    0    0    0 -0.00000000000E+00 -0.00000000000E+00  0.11368683772E-12  0.17120000000E+03  0.17120000000E+03 0.  0.
         13    1    1    2    0    0 -0.12438505400E+02 -0.12152773823E+02  0.12421067955E+02  0.21370550329E+02  0.10566000000E+00 0. -1.
        994    1    1    2    0    0  0.87219676366E+01  0.16743013001E+02  0.10343160369E+02  0.17254802859E+03  0.17120000000E+03 0.  0.
        998    1    1    2    0    0  0.37165377636E+01 -0.45902391788E+01  0.14772357680E+04  0.14772814211E+04  0.10000000000E+02 0. -1.
</event>
<event>
 5    1  0.1068111E-008  0.3859517E+03  0.7957747E-01  0.3425646E+00
         13   -1    0    0    0    0  0.00000000000E+00  0.00000000000E+00  0.14999999963E+04  0.15000000000E+04  0.10566000000E+00 0.  1.
        994   -1    0    0    0    0 -0.00000000000E+00 -0.00000000000E+00  0.11368683772E-12  0.17120000000E+03  0.17120000000E+03 0.  0.
         13    1    1    2    0    0 -0.27115715175E+00 -0.14920034173E+02  0.89030001543E+02  0.90271996127E+02  0.10566000000E+00 0.  1.
        994    1    1    2    0    0 -0.24630548318E+01  0.19834989025E+02  0.24691994529E+01  0.17238048142E+03  0.17120000000E+03 0.  0.
        998    1    1    2    0    0  0.27342119836E+01 -0.49149548517E+01  0.14085007953E+04  0.14085475225E+04  0.10000000000E+02 0.  1.
</event>
<event>
 5    1  0.1068111E-008  0.3716488E+03  0.7957747E-01  0.3488348E+00
         13   -1    0    0    0    0  0.00000000000E+00  0.00000000000E+00  0.14999999963E+04  0.15000000000E+04  0.10566000000E+00 0.  1.
        994   -1    0    0    0    0 -0.00000000000E+00 -0.00000000000E+00  0.11368683772E-12  0.17120000000E+03  0.17120000000E+03 0.  0.
         13    1    1    2    0    0  0.60822984795E+01  0.41515056334E+02  0.99315052860E+02  0.10781458689E+03  0.10566000000E+00 0.  1.
        994    1    1    2    0    0 -0.60301489748E+01 -0.31673819077E+02  0.11992431358E+02  0.17462202588E+03  0.17120000000E+03 0.  0.
        998    1    1    2    0    0 -0.52149504742E-01 -0.98412372568E+01  0.13886925121E+04  0.13887633872E+04  0.10000000000E+02 0.  1.
</event>
<event>
 5    1  0.1068111E-008  0.3929418E+03  0.7957747E-01  0.3396673E+00
         13   -1    0    0    0    0  0.00000000000E+00  0.00000000000E+00  0.14999999963E+04  0.15000000000E+04  0.10566000000E+00 0.  1.
        994   -1    0    0    0    0 -0.00000000000E+00 -0.00000000000E+00  0.11368683772E-12  0.17120000000E+03  0.17120000000E+03 0.  0.
         13    1    1    2    0    0 -0.52182625978E+02 -0.17661338092E+02  0.64892263219E+02  0.85123241873E+02  0.10566000000E+00 0.  1.
        994    1    1    2    0    0 -0.51380824630E+02  0.76974628394E+02  0.57020389472E+02  0.20279508715E+03  0.17120000000E+03 0.  0.
        998    1    1    2    0    0  0.10356345061E+03 -0.59313290303E+02  0.13780873436E+04  0.13832816710E+04  0.10000000000E+02 0.  1.
</event>
<event>
 5    1  0.1068111E-008  0.3851039E+03  0.7957747E-01  0.3429232E+00
         13   -1    0    0    0    0  0.00000000000E+00  0.00000000000E+00  0.14999999963E+04  0.15000000000E+04  0.10566000000E+00 0.  1.
        994   -1    0    0    0    0 -0.00000000000E+00 -0.00000000000E+00  0.11368683772E-12  0.17120000000E+03  0.17120000000E+03 0.  0.
         13    1    1    2    0    0  0.88185694868E+01 -0.54489321345E+01  0.34954013266E+02  0.36458911621E+02  0.10566000000E+00 0.  1.
        994    1    1    2    0    0 -0.30004396905E+01 -0.36214081144E+01  0.16512782705E+01  0.17127254291E+03  0.17120000000E+03 0.  0.
        998    1    1    2    0    0 -0.58181297964E+01  0.90703402490E+01  0.14633947047E+04  0.14634685455E+04  0.10000000000E+02 0.  1.
</event>
<event>
 5    1  0.1068111E-008  0.3728971E+03  0.7957747E-01  0.3482681E+00
         13   -1    0    0    0    0  0.00000000000E+00  0.00000000000E+00  0.14999999963E+04  0.15000000000E+04  0.10566000000E+00 0.  1.
        994   -1    0    0    0    0 -0.00000000000E+00 -0.00000000000E+00  0.11368683772E-12  0.17120000000E+03  0.17120000000E+03 0.  0.
         13    1    1    2    0    0  0.78124499259E+02 -0.15935096790E+02  0.46450055044E+03  0.47129410905E+03  0.10566000000E+00 0.  1.
        994    1    1    2    0    0 -0.27738370084E+02  0.30848056636E+02  0.13677465304E+02  0.17668484041E+03  0.17120000000E+03 0.  0.
        998    1    1    2    0    0 -0.50386129175E+02 -0.14912959846E+02  0.10218219805E+04  0.10232210505E+04  0.10000000000E+02 0.  1.
</event>
<event>
 5    1  0.1068111E-008  0.3807986E+03  0.7957747E-01  0.3447689E+00
         13   -1    0    0    0    0  0.00000000000E+00  0.00000000000E+00  0.14999999963E+04  0.15000000000E+04  0.10566000000E+00 0.  1.
        994   -1    0    0    0    0 -0.00000000000E+00 -0.00000000000E+00  0.11368683772E-12  0.17120000000E+03  0.17120000000E+03 0.  0.
         13    1    1    2    0    0  0.10693348880E+02 -0.43950114866E+02  0.25704206293E+03  0.26099155846E+03  0.10566000000E+00 0.  1.
        994    1    1    2    0    0 -0.18178639182E+02  0.29376857262E+02  0.77199456947E+01  0.17482133802E+03  0.17120000000E+03 0.  0.
        998    1    1    2    0    0  0.74852903022E+01  0.14573257604E+02  0.12352379877E+04  0.12353871035E+04  0.10000000000E+02 0.  1.
</event>
<event>
 5    1  0.1068111E-008  0.3844266E+03  0.7957747E-01  0.3432108E+00
         13   -1    0    0    0    0  0.00000000000E+00  0.00000000000E+00  0.14999999963E+04  0.15000000000E+04  0.10566000000E+00 0.  1.
        994   -1    0    0    0    0 -0.00000000000E+00 -0.00000000000E+00  0.11368683772E-12  0.17120000000E+03  0.17120000000E+03 0.  0.
         13    1    1    2    0    0  0.48950294771E+01 -0.10199660383E+02  0.32033382370E+02  0.33972682197E+02  0.10566000000E+00 0.  1.
        994    1    1    2    0    0 -0.12485114627E+02  0.10335576977E+02  0.27810996139E+01  0.17198801340E+03  0.17120000000E+03 0.  0.
        998    1    1    2    0    0  0.75900851504E+01 -0.13591659376E+00  0.14651855143E+04  0.14652393044E+04  0.10000000000E+02 0.  1.
</event>
<event>
 5    1  0.1068111E-008  0.3706591E+03  0.7957747E-01  0.3492867E+00
         13   -1    0    0    0    0  0.00000000000E+00  0.00000000000E+00  0.14999999963E+04  0.15000000000E+04  0.10566000000E+00 0. -1.
        994   -1    0    0    0    0 -0.00000000000E+00 -0.00000000000E+00  0.11368683772E-12  0.17120000000E+03  0.17120000000E+03 0.  0.
         13    1    1    2    0    0  0.32316805184E+02  0.21135911906E+02  0.84638183406E+02  0.93030833188E+02  0.10566000000E+00 0. -1.
        994    1    1    2    0    0 -0.23196018460E+01 -0.14174921474E+02  0.96370183645E+01  0.17207155801E+03  0.17120000000E+03 0.  0.
        998    1    1    2    0    0 -0.29997203338E+02 -0.69609904312E+01  0.14057247945E+04  0.14060976088E+04  0.10000000000E+02 0. -1.
</event>
<event>
 5    1  0.1068111E-008  0.3832056E+03  0.7957747E-01  0.3437318E+00
         13   -1    0    0    0    0  0.00000000000E+00  0.00000000000E+00  0.14999999963E+04  0.15000000000E+04  0.10566000000E+00 0.  1.
        994   -1    0    0    0    0 -0.00000000000E+00 -0.00000000000E+00  0.11368683772E-12  0.17120000000E+03  0.17120000000E+03 0.  0.
         13    1    1    2    0    0 -0.52972511027E+01 -0.11353300757E+02  0.30592373474E+02  0.33058475254E+02  0.10566000000E+00 0.  1.
        994    1    1    2    0    0  0.27438078788E+01  0.50133103756E+01  0.26316889739E+01  0.17131557883E+03  0.17120000000E+03 0.  0.
        998    1    1    2    0    0  0.25534432239E+01  0.63399903814E+01  0.14667759338E+04  0.14668259459E+04  0.10000000000E+02 0.  1.
</event>
<event>
 5    1  0.1068111E-008  0.3713371E+03  0.7957747E-01  0.3489768E+00
         13   -1    0    0    0    0  0.00000000000E+00  0.00000000000E+00  0.14999999963E+04  0.15000000000E+04  0.10566000000E+00 0.  1.
        994   -1    0    0    0    0 -0.00000000000E+00 -0.00000000000E+00  0.11368683772E-12  0.17120000000E+03  0.17120000000E+03 0.  0.
         13    1    1    2    0    0  0.43022595039E+02  0.19176134283E+02  0.24067245085E+03  0.24523847082E+03  0.10566000000E+00 0.  1.
        994    1    1    2    0    0  0.37636694864E+02  0.75860985208E+02  0.33674323823E+02  0.19394537881E+03  0.17120000000E+03 0.  0.
        998    1    1    2    0    0 -0.80659289903E+02 -0.95037119491E+02  0.12256532216E+04  0.12320161504E+04  0.10000000000E+02 0.  1.
</event>
<event>
 5    1  0.1068111E-008  0.3845335E+03  0.7957747E-01  0.3431653E+00
         13   -1    0    0    0    0  0.00000000000E+00  0.00000000000E+00  0.14999999963E+04  0.15000000000E+04  0.10566000000E+00 0. -1.
        994   -1    0    0    0    0 -0.00000000000E+00 -0.00000000000E+00  0.11368683772E-12  0.17120000000E+03  0.17120000000E+03 0.  0.
         13    1    1    2    0    0 -0.94133695438E+01 -0.75018101136E+01  0.38731808086E+02  0.40559250521E+02  0.10566000000E+00 0. -1.
        994    1    1    2    0    0  0.36800279036E+01  0.70265324412E+01  0.20691826827E+01  0.17139613846E+03  0.17120000000E+03 0.  0.
        998    1    1    2    0    0  0.57333416402E+01  0.47527767234E+00  0.14591990055E+04  0.14592446110E+04  0.10000000000E+02 0. -1.
</event>
<event>
 5    1  0.1249901E-008  0.3860972E+03  0.7957747E-01  0.3425032E+00
         13   -1    0    0    0    0  0.00000000000E+00  0.00000000000E+00  0.14999999963E+04  0.15000000000E+04  0.10566000000E+00 0.  1.
        994   -1    0    0    0    0 -0.00000000000E+00 -0.00000000000E+00  0.11368683772E-12  0.17120000000E+03  0.17120000000E+03 0.  0.
         13    1    1    2    0    0 -0.52323979308E+01  0.10247304675E+02  0.59273286482E+02  0.60379788801E+02  0.10566000000E+00 0.  1.
        994    1    1    2    0    0  0.58282257971E+01 -0.11962999218E+02  0.16668779434E+01  0.17172448878E+03  0.17120000000E+03 0.  0.
        998    1    1    2    0    0 -0.59582786631E+00  0.17156945433E+01  0.14390598319E+04  0.14390957224E+04  0.10000000000E+02 0.  1.
</event>
<event>
 5    1  0.1068111E-008  0.3817669E+03  0.7957747E-01  0.3443501E+00
         13   -1    0    0    0    0  0.00000000000E+00  0.00000000000E+00  0.14999999963E+04  0.15000000000E+04  0.10566000000E+00 0. -1.
        994   -1    0    0    0    0 -0.00000000000E+00 -0.00000000000E+00  0.11368683772E-12  0.17120000000E+03  0.17120000000E+03 0.  0.
         13    1    1    2    0    0 -0.12515772230E+01  0.24691980008E+02  0.90697365263E+02  0.94006827156E+02  0.10566000000E+00 0. -1.
        994    1    1    2    0    0  0.25165067841E+01 -0.20107645328E+02  0.46098834533E+01  0.17245678077E+03  0.17120000000E+03 0.  0.
        998    1    1    2    0    0 -0.12649295611E+01 -0.45843346798E+01  0.14046927476E+04  0.14047363921E+04  0.10000000000E+02 0. -1.
</event>
<event>
 5    1  0.1147809E-008  0.3846538E+03  0.7957747E-01  0.3431142E+00
         13   -1    0    0    0    0  0.00000000000E+00  0.00000000000E+00  0.14999999963E+04  0.15000000000E+04  0.10566000000E+00 0. -1.
        994   -1    0    0    0    0 -0.00000000000E+00 -0.00000000000E+00  0.11368683772E-12  0.17120000000E+03  0.17120000000E+03 0.  0.
         13    1    1    2    0    0 -0.10056336885E+02 -0.16171138892E+01  0.28004471091E+02  0.29799438485E+02  0.10566000000E+00 0. -1.
        994    1    1    2    0    0  0.10726576665E+02 -0.12987799194E+01  0.21865875299E+01  0.17155456112E+03  0.17120000000E+03 0.  0.
        998    1    1    2    0    0 -0.67023977961E+00  0.29158938087E+01  0.14698089377E+04  0.14698460004E+04  0.10000000000E+02 0. -1.
</event>
<event>
 5    1  0.1068111E-008  0.3738790E+03  0.7957747E-01  0.3478252E+00
         13   -1    0    0    0    0  0.00000000000E+00  0.00000000000E+00  0.14999999963E+04  0.15000000000E+04  0.10566000000E+00 0. -1.
        994   -1    0    0    0    0 -0.00000000000E+00 -0.00000000000E+00  0.11368683772E-12  0.17120000000E+03  0.17120000000E+03 0.  0.
         13    1    1    2    0    0  0.11255631054E+02 -0.76772787663E+01  0.93857843649E+01  0.16544907128E+02  0.10566000000E+00 0. -1.
        994    1    1    2    0    0 -0.15033274429E+02  0.69605529841E+01  0.81925078620E+01  0.17219467420E+03  0.17120000000E+03 0.  0.
        998    1    1    2    0    0  0.37776433744E+01  0.71672578221E+00  0.14824217041E+04  0.14824604187E+04  0.10000000000E+02 0. -1.
</event>
<event>
 5    1  0.1068111E-008  0.4048746E+03  0.7957747E-01  0.3349520E+00
         13   -1    0    0    0    0  0.00000000000E+00  0.00000000000E+00  0.14999999963E+04  0.15000000000E+04  0.10566000000E+00 0.  1.
        994   -1    0    0    0    0 -0.00000000000E+00 -0.00000000000E+00  0.11368683772E-12  0.17120000000E+03  0.17120000000E+03 0.  0.
         13    1    1    2    0    0  0.55261117531E+01  0.86100806802E+02  0.11760797180E+03  0.14586134868E+03  0.10566000000E+00 0.  1.
        994    1    1    2    0    0  0.18445577373E+02 -0.47465941008E+02  0.41154177593E+02  0.18329310193E+03  0.17120000000E+03 0.  0.
        998    1    1    2    0    0 -0.23971689126E+02 -0.38634865794E+02  0.13412378469E+04  0.13420455494E+04  0.10000000000E+02 0.  1.
</event>
<event>
 5    1  0.1068111E-008  0.3837028E+03  0.7957747E-01  0.3435193E+00
         13   -1    0    0    0    0  0.00000000000E+00  0.00000000000E+00  0.14999999963E+04  0.15000000000E+04  0.10566000000E+00 0. -1.
        994   -1    0    0    0    0 -0.00000000000E+00 -0.00000000000E+00  0.11368683772E-12  0.17120000000E+03  0.17120000000E+03 0.  0.
         13    1    1    2    0    0 -0.17068649395E+02  0.12140638769E+02  0.88594863794E+02  0.91037327270E+02  0.10566000000E+00 0. -1.
        994    1    1    2    0    0  0.33341200657E+02  0.14716882796E+01  0.59626275109E+01  0.17452448096E+03  0.17120000000E+03 0.  0.
        998    1    1    2    0    0 -0.16272551262E+02 -0.13612327049E+02  0.14054425050E+04  0.14056381918E+04  0.10000000000E+02 0. -1.
</event>
<event>
 5    1  0.1068111E-008  0.3842190E+03  0.7957747E-01  0.3432991E+00
         13   -1    0    0    0    0  0.00000000000E+00  0.00000000000E+00  0.14999999963E+04  0.15000000000E+04  0.10566000000E+00 0.  1.
        994   -1    0    0    0    0 -0.00000000000E+00 -0.00000000000E+00  0.11368683772E-12  0.17120000000E+03  0.17120000000E+03 0.  0.
         13    1    1    2    0    0  0.34678300089E+01 -0.15996927879E+02  0.65627673283E+02  0.67638230396E+02  0.10566000000E+00 0.  1.
        994    1    1    2    0    0  0.69720842275E+00  0.12166044702E+02  0.25081312476E+01  0.17165147674E+03  0.17120000000E+03 0.  0.
        998    1    1    2    0    0 -0.41650384316E+01  0.38308831773E+01  0.14318641917E+04  0.14319102929E+04  0.10000000000E+02 0.  1.
</event>
<event>
 5    1  0.1068111E-008  0.4117523E+03  0.7957747E-01  0.3323575E+00
         13   -1    0    0    0    0  0.00000000000E+00  0.00000000000E+00  0.14999999963E+04  0.15000000000E+04  0.10566000000E+00 0. -1.
        994   -1    0    0    0    0 -0.00000000000E+00 -0.00000000000E+00  0.11368683772E-12  0.17120000000E+03  0.17120000000E+03 0.  0.
         13    1    1    2    0    0  0.10501662811E+03  0.93024982030E+02  0.21558430507E+03  0.25721341959E+03  0.10566000000E+00 0. -1.
        994    1    1    2    0    0 -0.11209223244E+03 -0.99330116497E+02  0.13504444708E+03  0.26453276414E+03  0.17120000000E+03 0.  0.
        998    1    1    2    0    0  0.70756043373E+01  0.63051344668E+01  0.11493712441E+04  0.11494538163E+04  0.10000000000E+02 0. -1.
</event>
<event>
 5    1  0.1068111E-008  0.3794783E+03  0.7957747E-01  0.3453433E+00
         13   -1    0    0    0    0  0.00000000000E+00  0.00000000000E+00  0.14999999963E+04  0.15000000000E+04  0.10566000000E+00 0. -1.
        994   -1    0    0    0    0 -0.00000000000E+00 -0.00000000000E+00  0.11368683772E-12  0.17120000000E+03  0.17120000000E+03 0.  0.
         13    1    1    2    0    0 -0.12164709329E+02  0.18692097916E+02  0.57952526644E+02  0.62095742092E+02  0.10566000000E+00 0. -1.
        994    1    1    2    0    0 -0.17678118747E+02 -0.12511409002E+02  0.59690221283E+01  0.17266765900E+03  0.17120000000E+03 0.  0.
        998    1    1    2    0    0  0.29842828077E+02 -0.61806889139E+01  0.14360784475E+04  0.14364365989E+04  0.10000000000E+02 0. -1.
</event>
<event>
 5    1  0.1068111E-008  0.3807216E+03  0.7957747E-01  0.3448023E+00
         13   -1    0    0    0    0  0.00000000000E+00  0.00000000000E+00  0.14999999963E+04  0.15000000000E+04  0.10566000000E+00 0. -1.
        994   -1    0    0    0    0 -0.00000000000E+00 -0.00000000000E+00  0.11368683772E-12  0.17120000000E+03  0.17120000000E+03 0.  0.
         13    1    1    2    0    0 -0.26004420573E+02 -0.26608078679E+02  0.22089026518E+03  0.22400165213E+03  0.10566000000E+00 0. -1.
        994    1    1    2    0    0  0.62928827521E+01 -0.75743394567E+01  0.40928170232E+01  0.17153181088E+03  0.17120000000E+03 0.  0.
        998    1    1    2    0    0  0.19711537821E+02  0.34182418136E+02  0.12750169141E+04  0.12756665370E+04  0.10000000000E+02 0. -1.
</event>
<event>
 5    1  0.1900123E-008  0.3856832E+03  0.7957747E-01  0.3426780E+00
         13   -1    0    0    0    0  0.00000000000E+00  0.00000000000E+00  0.14999999963E+04  0.15000000000E+04  0.10566000000E+00 0. -1.
        994   -1    0    0    0    0 -0.00000000000E+00 -0.00000000000E+00  0.11368683772E-12  0.17120000000E+03  0.17120000000E+03 0.  0.
         13    1    1    2    0    0 -0.15010406494E+02  0.26154004285E+01  0.86819391443E+02  0.88146301778E+02  0.10566000000E+00 0. -1.
        994    1    1    2    0    0  0.15401193556E+02  0.76605617101E+00  0.20719908331E+01  0.17190554602E+03  0.17120000000E+03 0.  0.
        998    1    1    2    0    0 -0.39078706157E+00 -0.33814565995E+01  0.14111086140E+04  0.14111481522E+04  0.10000000000E+02 0. -1.
</event>
<event>
 5    1  0.1068111E-008  0.3851662E+03  0.7957747E-01  0.3428968E+00
         13   -1    0    0    0    0  0.00000000000E+00  0.00000000000E+00  0.14999999963E+04  0.15000000000E+04  0.10566000000E+00 0.  1.
        994   -1    0    0    0    0 -0.00000000000E+00 -0.00000000000E+00  0.11368683772E-12  0.17120000000E+03  0.17120000000E+03 0.  0.
         13    1    1    2    0    0 -0.13015915447E+02  0.13385178429E+01  0.51016072061E+02  0.52667413621E+02  0.10566000000E+00 0.  1.
        994    1    1    2    0    0  0.22867520597E+02 -0.35428993012E+01  0.33096810601E+01  0.17278851126E+03  0.17120000000E+03 0.  0.
        998    1    1    2    0    0 -0.98516051495E+01  0.22043814584E+01  0.14456742432E+04  0.14457440751E+04  0.10000000000E+02 0.  1.
</event>
<event>
 5    1  0.1068111E-008  0.4061777E+03  0.7957747E-01  0.3344538E+00
         13   -1    0    0    0    0  0.00000000000E+00  0.00000000000E+00  0.14999999963E+04  0.15000000000E+04  0.10566000000E+00 0. -1.
        994   -1    0    0    0    0 -0.00000000000E+00 -0.00000000000E+00  0.11368683772E-12  0.17120000000E+03  0.17120000000E+03 0.  0.
         13    1    1    2    0    0 -0.14185391630E+02 -0.11700859737E+02 -0.84385590412E+01  0.20232545490E+02  0.10566000000E+00 0. -1.
        994    1    1    2    0    0  0.27340652240E+02 -0.23668469118E+02  0.36792773908E+02  0.17880395943E+03  0.17120000000E+03 0.  0.
        998    1    1    2    0    0 -0.13155260610E+02  0.35369328855E+02  0.14716457814E+04  0.14721634951E+04  0.10000000000E+02 0. -1.
</event>
<event>
 5    1  0.1068111E-008  0.3854463E+03  0.7957747E-01  0.3427781E+00
         13   -1    0    0    0    0  0.00000000000E+00  0.00000000000E+00  0.14999999963E+04  0.15000000000E+04  0.10566000000E+00 0.  1.
        994   -1    0    0    0    0 -0.00000000000E+00 -0.00000000000E+00  0.11368683772E-12  0.17120000000E+03  0.17120000000E+03 0.  0.
         13    1    1    2    0    0  0.75977427481E+01 -0.12195286068E+02  0.81393691275E+02  0.82652252483E+02  0.10566000000E+00 0.  1.
        994    1    1    2    0    0  0.95228110088E+01  0.19043194738E+01  0.17184715285E+01  0.17148382870E+03  0.17120000000E+03 0.  0.
        998    1    1    2    0    0 -0.17120553757E+02  0.10290966595E+02  0.14168878335E+04  0.14170639188E+04  0.10000000000E+02 0.  1.
</event>
<event>
 5    1  0.1068111E-008  0.3860347E+03  0.7957747E-01  0.3425296E+00
         13   -1    0    0    0    0  0.00000000000E+00  0.00000000000E+00  0.14999999963E+04  0.15000000000E+04  0.10566000000E+00 0. -1.
        994   -1    0    0    0    0 -0.00000000000E+00 -0.00000000000E+00  0.11368683772E-12  0.17120000000E+03  0.17120000000E+03 0.  0.
         13    1    1    2    0    0  0.12778463285E+02 -0.50716383586E+01  0.77065606966E+02  0.78282370816E+02  0.10566000000E+00 0. -1.
        994    1    1    2    0    0 -0.22291013808E+02  0.34759710070E+01  0.27873002224E+01  0.17270257877E+03  0.17120000000E+03 0.  0.
        998    1    1    2    0    0  0.95125505222E+01  0.15956673515E+01  0.14201470891E+04  0.14202150504E+04  0.10000000000E+02 0. -1.
</event>
<event>
 5    1  0.1068111E-008  0.3766451E+03  0.7957747E-01  0.3465898E+00
         13   -1    0    0    0    0  0.00000000000E+00  0.00000000000E+00  0.14999999963E+04  0.15000000000E+04  0.10566000000E+00 0.  1.
        994   -1    0    0    0    0 -0.00000000000E+00 -0.00000000000E+00  0.11368683772E-12  0.17120000000E+03  0.17120000000E+03 0.  0.
         13    1    1    2    0    0 -0.49726441645E+02 -0.65939451373E+02  0.39966844568E+03  0.40811224912E+03  0.10566000000E+00 0.  1.
        994    1    1    2    0    0  0.45578256495E+02  0.76900419989E+02  0.33345947703E+02  0.19599092910E+03  0.17120000000E+03 0.  0.
        998    1    1    2    0    0  0.41481851499E+01 -0.10960968616E+02  0.10669856029E+04  0.10670968218E+04  0.10000000000E+02 0.  1.
</event>
<event>
 5    1  0.1068111E-008  0.3819645E+03  0.7957747E-01  0.3442649E+00
         13   -1    0    0    0    0  0.00000000000E+00  0.00000000000E+00  0.14999999963E+04  0.15000000000E+04  0.10566000000E+00 0. -1.
        994   -1    0    0    0    0 -0.00000000000E+00 -0.00000000000E+00  0.11368683772E-12  0.17120000000E+03  0.17120000000E+03 0.  0.
         13    1    1    2    0    0 -0.73312181795E+01 -0.10650849040E+02  0.25816467614E+02  0.28873664633E+02  0.10566000000E+00 0. -1.
        994    1    1    2    0    0  0.34335697497E+01  0.20736039696E+01  0.31981984632E+01  0.17127684522E+03  0.17120000000E+03 0.  0.
        998    1    1    2    0    0  0.38976484298E+01  0.85772450703E+01  0.14709853302E+04  0.14710494901E+04  0.10000000000E+02 0. -1.
</event>
<event>
 5    1  0.1068111E-008  0.3823943E+03  0.7957747E-01  0.3440799E+00
         13   -1    0    0    0    0  0.00000000000E+00  0.00000000000E+00  0.14999999963E+04  0.15000000000E+04  0.10566000000E+00 0. -1.
        994   -1    0    0    0    0 -0.00000000000E+00 -0.00000000000E+00  0.11368683772E-12  0.17120000000E+03  0.17120000000E+03 0.  0.
         13    1    1    2    0    0 -0.85336123293E+01  0.66095050538E+01  0.18533292872E+02  0.21447661998E+02  0.10566000000E+00 0. -1.
        994    1    1    2    0    0  0.86014773316E+01 -0.74697276794E+01  0.33599574165E+01  0.17161151348E+03  0.17120000000E+03 0.  0.
        998    1    1    2    0    0 -0.67865002301E-01  0.86022262559E+00  0.14781067460E+04  0.14781408245E+04  0.10000000000E+02 0. -1.
</event>
<event>
 5    1  0.1068111E-008  0.3830959E+03  0.7957747E-01  0.3437788E+00
         13   -1    0    0    0    0  0.00000000000E+00  0.00000000000E+00  0.14999999963E+04  0.15000000000E+04  0.10566000000E+00 0. -1.
        994   -1    0    0    0    0 -0.00000000000E+00 -0.00000000000E+00  0.11368683772E-12  0.17120000000E+03  0.17120000000E+03 0.  0.
         13    1    1    2    0    0 -0.13211583435E+02 -0.79956576172E+01  0.46429045384E+02  0.48929989749E+02  0.10566000000E+00 0. -1.
        994    1    1    2    0    0  0.21732224722E+02 -0.24181914802E+02  0.60841830765E+01  0.17436602845E+03  0.17120000000E+03 0.  0.
        998    1    1    2    0    0 -0.85206412868E+01  0.32177572419E+02  0.14474867678E+04  0.14479039818E+04  0.10000000000E+02 0. -1.
</event>
<event>
 5    1  0.1068111E-008  0.3777053E+03  0.7957747E-01  0.3461211E+00
         13   -1    0    0    0    0  0.00000000000E+00  0.00000000000E+00  0.14999999963E+04  0.15000000000E+04  0.10566000000E+00 0.  1.
        994   -1    0    0    0    0 -0.00000000000E+00 -0.00000000000E+00  0.11368683772E-12  0.17120000000E+03  0.17120000000E+03 0.  0.
         13    1    1    2    0    0  0.68113999578E+02 -0.44496725114E+01  0.12822244286E+03  0.14525950069E+03  0.10566000000E+00 0.  1.
        994    1    1    2    0    0 -0.86507166881E+02 -0.26392730766E+01  0.42506735861E+02  0.19648592387E+03  0.17120000000E+03 0.  0.
        998    1    1    2    0    0  0.18393167303E+02  0.70889455880E+01  0.13292708176E+04  0.13294545754E+04  0.10000000000E+02 0.  1.
</event>
<event>
 5    1  0.1068111E-008  0.3843628E+03  0.7957747E-01  0.3432379E+00
         13   -1    0    0    0    0  0.00000000000E+00  0.00000000000E+00  0.14999999963E+04  0.15000000000E+04  0.10566000000E+00 0. -1.
        994   -1    0    0    0    0 -0.00000000000E+00 -0.00000000000E+00  0.11368683772E-12  0.17120000000E+03  0.17120000000E+03 0.  0.
         13    1    1    2    0    0  0.17754051779E+00  0.12170937423E+02  0.37775218769E+02  0.39688053057E+02  0.10566000000E+00 0. -1.
        994    1    1    2    0    0 -0.81674325878E+01 -0.73941813328E+01  0.23469445939E+01  0.17157018687E+03  0.17120000000E+03 0.  0.
        998    1    1    2    0    0  0.79898920701E+01 -0.47767560905E+01  0.14598778329E+04  0.14599417601E+04  0.10000000000E+02 0. -1.
</event>
<event>
 5    1  0.1068111E-008  0.3691381E+03  0.7957747E-01  0.3499861E+00
         13   -1    0    0    0    0  0.00000000000E+00  0.00000000000E+00  0.14999999963E+04  0.15000000000E+04  0.10566000000E+00 0.  1.
        994   -1    0    0    0    0 -0.00000000000E+00 -0.00000000000E+00  0.11368683772E-12  0.17120000000E+03  0.17120000000E+03 0.  0.
         13    1    1    2    0    0  0.36883816062E+02 -0.43435905055E+01  0.58847133700E+02  0.69586485574E+02  0.10566000000E+00 0.  1.
        994    1    1    2    0    0 -0.40193081011E+02  0.13503513244E+02  0.16776351797E+02  0.17716860504E+03  0.17120000000E+03 0.  0.
        998    1    1    2    0    0  0.33092649484E+01 -0.91599227387E+01  0.14243765108E+04  0.14244449094E+04  0.10000000000E+02 0.  1.
</event>
<event>
 5    1  0.1570739E-008  0.3853336E+03  0.7957747E-01  0.3428259E+00
         13   -1    0    0    0    0  0.00000000000E+00  0.00000000000E+00  0.14999999963E+04  0.15000000000E+04  0.10566000000E+00 0. -1.
        994   -1    0    0    0    0 -0.00000000000E+00 -0.00000000000E+00  0.11368683772E-12  0.17120000000E+03  0.17120000000E+03 0.  0.
         13    1    1    2    0    0  0.74494174575E+01 -0.93411416922E+01  0.47894558924E+02  0.49362442070E+02  0.10566000000E+00 0. -1.
        994    1    1    2    0    0 -0.42280810449E+01  0.11284687661E+02  0.19418252488E+01  0.17163458722E+03  0.17120000000E+03 0.  0.
        998    1    1    2    0    0 -0.32213364125E+01 -0.19435459691E+01  0.14501636121E+04  0.14502029707E+04  0.10000000000E+02 0. -1.
</event>
<event>
 5    1  0.1068111E-008  0.3856669E+03  0.7957747E-01  0.3426849E+00
         13   -1    0    0    0    0  0.00000000000E+00  0.00000000000E+00  0.14999999963E+04  0.15000000000E+04  0.10566000000E+00 0. -1.
        994   -1    0    0    0    0 -0.00000000000E+00 -0.00000000000E+00  0.11368683772E-12  0.17120000000E+03  0.17120000000E+03 0.  0.
         13    1    1    2    0    0 -0.24761363501E+01  0.10531971101E+02  0.45691022036E+02  0.46954598552E+02  0.10566000000E+00 0. -1.
        994    1    1    2    0    0  0.68738658524E+01 -0.45017785430E+01  0.15209792806E+01  0.17140381974E+03  0.17120000000E+03 0.  0.
        998    1    1    2    0    0 -0.43977295023E+01 -0.60301925576E+01  0.14527879950E+04  0.14528415817E+04  0.10000000000E+02 0. -1.
</event>
<event>
 5    1  0.1208318E-008  0.3860697E+03  0.7957747E-01  0.3425148E+00
         13   -1    0    0    0    0  0.00000000000E+00  0.00000000000E+00  0.14999999963E+04  0.15000000000E+04  0.10566000000E+00 0. -1.
        994   -1    0    0    0    0 -0.00000000000E+00 -0.00000000000E+00  0.11368683772E-12  0.17120000000E+03  0.17120000000E+03 0.  0.
         13    1    1    2    0    0  0.10068349896E+02 -0.83784741917E+01  0.74772552656E+02  0.75911239577E+02  0.10566000000E+00 0. -1.
        994    1    1    2    0    0  0.40484942881E+01  0.30754198258E+02  0.42597802730E+01  0.17403964130E+03  0.17120000000E+03 0.  0.
        998    1    1    2    0    0 -0.14116844184E+02 -0.22375724066E+02  0.14209676633E+04  0.14212491191E+04  0.10000000000E+02 0. -1.
</event>
<event>
 5    1  0.1068111E-008  0.3783149E+03  0.7957747E-01  0.3458529E+00
         13   -1    0    0    0    0  0.00000000000E+00  0.00000000000E+00  0.14999999963E+04  0.15000000000E+04  0.10566000000E+00 0. -1.
        994   -1    0    0    0    0 -0.00000000000E+00 -0.00000000000E+00  0.11368683772E-12  0.17120000000E+03  0.17120000000E+03 0.  0.
         13    1    1    2    0    0  0.45641322087E+02 -0.11604546291E+02  0.20022804888E+03  0.20569170741E+03  0.10566000000E+00 0. -1.
        994    1    1    2    0    0 -0.37471442532E+02  0.22526004745E+02  0.11439116796E+02  0.17706446083E+03  0.17120000000E+03 0.  0.
        998    1    1    2    0    0 -0.81698795555E+01 -0.10921458455E+02  0.12883328306E+04  0.12884438318E+04  0.10000000000E+02 0. -1.
</event>
<event>
 5    1  0.1068111E-008  0.3852244E+03  0.7957747E-01  0.3428721E+00
         13   -1    0    0    0    0  0.00000000000E+00  0.00000000000E+00  0.14999999963E+04  0.15000000000E+04  0.10566000000E+00 0.  1.
        994   -1    0    0    0    0 -0.00000000000E+00 -0.00000000000E+00  0.11368683772E-12  0.17120000000E+03  0.17120000000E+03 0.  0.
         13    1    1    2    0    0 -0.10210019371E+02 -0.63340804206E+01  0.47143723898E+02  0.48650867796E+02  0.10566000000E+00 0.  1.
        994    1    1    2    0    0  0.79514075973E+01  0.55207539133E+01  0.18267627513E+01  0.17148317897E+03  0.17120000000E+03 0.  0.
        998    1    1    2    0    0  0.22586117732E+01  0.81332650723E+00  0.14510295096E+04  0.14510659532E+04  0.10000000000E+02 0.  1.
</event>
<event>
 5    1  0.1068111E-008  0.3805441E+03  0.7957747E-01  0.3448793E+00
         13   -1    0    0    0    0  0.00000000000E+00  0.00000000000E+00  0.14999999963E+04  0.15000000000E+04  0.10566000000E+00 0.  1.
        994   -1    0    0    0    0 -0.00000000000E+00 -0.00000000000E+00  0.11368683772E-12  0.17120000000E+03  0.17120000000E+03 0.  0.
         13    1    1    2    0    0 -0.27577595670E+02  0.12825010375E+01  0.96529230332E+02  0.10039956207E+03  0.10566000000E+00 0.  1.
        994    1    1    2    0    0  0.18523708833E+02 -0.39064260190E+01  0.50555425720E+01  0.17231769051E+03  0.17120000000E+03 0.  0.
        998    1    1    2    0    0  0.90538868370E+01  0.26239249815E+01  0.13984152234E+04  0.13984827474E+04  0.10000000000E+02 0.  1.
</event>
<event>
 5    1  0.1068111E-008  0.3849849E+03  0.7957747E-01  0.3429736E+00
         13   -1    0    0    0    0  0.00000000000E+00  0.00000000000E+00  0.14999999963E+04  0.15000000000E+04  0.10566000000E+00 0.  1.
        994   -1    0    0    0    0 -0.00000000000E+00 -0.00000000000E+00  0.11368683772E-12  0.17120000000E+03  0.17120000000E+03 0.  0.
         13    1    1    2    0    0 -0.47141009919E+01  0.97852257548E+01  0.34813008821E+02  0.36468207228E+02  0.10566000000E+00 0.  1.
        994    1    1    2    0    0  0.20624943310E+02 -0.53139767429E+01  0.31309654416E+01  0.17254816597E+03  0.17120000000E+03 0.  0.
        998    1    1    2    0    0 -0.15910842318E+02 -0.44712490119E+01  0.14620560220E+04  0.14621836268E+04  0.10000000000E+02 0.  1.
</event>
<event>
 5    1  0.1068111E-008  0.3849686E+03  0.7957747E-01  0.3429805E+00
         13   -1    0    0    0    0  0.00000000000E+00  0.00000000000E+00  0.14999999963E+04  0.15000000000E+04  0.10566000000E+00 0.  1.
        994   -1    0    0    0    0 -0.00000000000E+00 -0.00000000000E+00  0.11368683772E-12  0.17120000000E+03  0.17120000000E+03 0.  0.
         13    1    1    2    0    0 -0.15585594338E+02 -0.50869122493E+01  0.86181780284E+02  0.87727406459E+02  0.10566000000E+00 0.  1.
        994    1    1    2    0    0  0.15023013455E+01  0.62466225738E+01  0.17815087207E+01  0.17132977259E+03  0.17120000000E+03 0.  0.
        998    1    1    2    0    0  0.14083292993E+02 -0.11597103245E+01  0.14120367073E+04  0.14121428209E+04  0.10000000000E+02 0.  1.
</event>
<event>
 5    1  0.1068111E-008  0.3768815E+03  0.7957747E-01  0.3464851E+00
         13   -1    0    0    0    0  0.00000000000E+00  0.00000000000E+00  0.14999999963E+04  0.15000000000E+04  0.10566000000E+00 0. -1.
        994   -1    0    0    0    0 -0.00000000000E+00 -0.00000000000E+00  0.11368683772E-12  0.17120000000E+03  0.17120000000E+03 0.  0.
         13    1    1    2    0    0  0.39688522924E+02  0.49913553155E+01  0.48403608783E+02  0.62793415157E+02  0.10566000000E+00 0. -1.
        994    1    1    2    0    0 -0.32795186206E+02 -0.14057737354E+02  0.19199536341E+02  0.17592954957E+03  0.17120000000E+03 0.  0.
        998    1    1    2    0    0 -0.68933367189E+01  0.90663820385E+01  0.14323968512E+04  0.14324770353E+04  0.10000000000E+02 0. -1.
</event>
<event>
 5    1  0.1068111E-008  0.3860842E+03  0.7957747E-01  0.3425087E+00
         13   -1    0    0    0    0  0.00000000000E+00  0.00000000000E+00  0.14999999963E+04  0.15000000000E+04  0.10566000000E+00 0.  1.
        994   -1    0    0    0    0 -0.00000000000E+00 -0.00000000000E+00  0.11368683772E-12  0.17120000000E+03  0.17120000000E+03 0.  0.
         13    1    1    2    0    0  0.10086725414E+02 -0.27413977574E+00  0.49356568495E+02  0.50377566435E+02  0.10566000000E+00 0.  1.
        994    1    1    2    0    0 -0.37310533078E+00 -0.55055017777E+01  0.11926184199E+01  0.17129305910E+03  0.17120000000E+03 0.  0.
        998    1    1    2    0    0 -0.97136200832E+01  0.57796415534E+01  0.14494508094E+04  0.14495293745E+04  0.10000000000E+02 0.  1.
</event>
<event>
 5    1  0.1068111E-008  0.3858476E+03  0.7957747E-01  0.3426086E+00
         13   -1    0    0    0    0  0.00000000000E+00  0.00000000000E+00  0.14999999963E+04  0.15000000000E+04  0.10566000000E+00 0. -1.
        994   -1    0    0    0    0 -0.00000000000E+00 -0.00000000000E+00  0.11368683772E-12  0.17120000000E+03  0.17120000000E+03 0.  0.
         13    1    1    2    0    0 -0.41091955602E+02  0.91009604578E+01  0.42611172921E+02  0.59892399502E+02  0.10566000000E+00 0. -1.
        994    1    1    2    0    0 -0.26129674847E+02 -0.27621870219E+02  0.24949465488E+02  0.17713735758E+03  0.17120000000E+03 0.  0.
        998    1    1    2    0    0  0.67221630449E+02  0.18520909761E+02  0.14324393579E+04  0.14341702429E+04  0.10000000000E+02 0. -1.
</event>
<event>
 5    1  0.1068111E-008  0.3840689E+03  0.7957747E-01  0.3433631E+00
         13   -1    0    0    0    0  0.00000000000E+00  0.00000000000E+00  0.14999999963E+04  0.15000000000E+04  0.10566000000E+00 0. -1.
        994   -1    0    0    0    0 -0.00000000000E+00 -0.00000000000E+00  0.11368683772E-12  0.17120000000E+03  0.17120000000E+03 0.  0.
         13    1    1    2    0    0  0.29770668111E+00 -0.25525273053E+02  0.14222709157E+03  0.14449977486E+03  0.10566000000E+00 0. -1.
        994    1    1    2    0    0  0.68671057751E+01  0.26210400223E+02  0.45184985504E+01  0.17338973168E+03  0.17120000000E+03 0.  0.
        998    1    1    2    0    0 -0.71648124562E+01 -0.68512716989E+00  0.13532544062E+04  0.13533104935E+04  0.10000000000E+02 0. -1.
</event>
<event>
 5    1  0.1068111E-008  0.3715491E+03  0.7957747E-01  0.3488802E+00
         13   -1    0    0    0    0  0.00000000000E+00  0.00000000000E+00  0.14999999963E+04  0.15000000000E+04  0.10566000000E+00 0.  1.
        994   -1    0    0    0    0 -0.00000000000E+00 -0.00000000000E+00  0.11368683772E-12  0.17120000000E+03  0.17120000000E+03 0.  0.
         13    1    1    2    0    0  0.45476741057E+02 -0.10305251202E+03  0.47519721915E+03  0.48836498899E+03  0.10566000000E+00 0.  1.
        994    1    1    2    0    0 -0.49724826814E+02  0.10584900537E+03  0.57076318257E+02  0.21504352221E+03  0.17120000000E+03 0.  0.
        998    1    1    2    0    0  0.42480857570E+01 -0.27964933472E+01  0.96772645887E+03  0.96779148880E+03  0.10000000000E+02 0.  1.
</event>
<event>
 5    1  0.1068111E-008  0.3773309E+03  0.7957747E-01  0.3462863E+00
         13   -1    0    0    0    0  0.00000000000E+00  0.00000000000E+00  0.14999999963E+04  0.15000000000E+04  0.10566000000E+00 0.  1.
        994   -1    0    0    0    0 -0.00000000000E+00 -0.00000000000E+00  0.11368683772E-12  0.17120000000E+03  0.17120000000E+03 0.  0.
         13    1    1    2    0    0 -0.10667660949E+02 -0.69376726152E+01  0.12296512442E+02  0.17695922517E+02  0.10566000000E+00 0.  1.
        994    1    1    2    0    0  0.78103267769E+01  0.68306839363E+01  0.58497729027E+01  0.17161386684E+03  0.17120000000E+03 0.  0.
        998    1    1    2    0    0  0.28573341716E+01  0.10698867895E+00  0.14818537109E+04  0.14818902106E+04  0.10000000000E+02 0.  1.
</event>
<event>
 5    1  0.1068111E-008  0.3733466E+03  0.7957747E-01  0.3480650E+00
         13   -1    0    0    0    0  0.00000000000E+00  0.00000000000E+00  0.14999999963E+04  0.15000000000E+04  0.10566000000E+00 0.  1.
        994   -1    0    0    0    0 -0.00000000000E+00 -0.00000000000E+00  0.11368683772E-12  0.17120000000E+03  0.17120000000E+03 0.  0.
         13    1    1    2    0    0  0.22851802936E+02  0.86197924618E+02  0.37288945814E+03  0.38340428566E+03  0.10566000000E+00 0.  1.
        994    1    1    2    0    0 -0.32157066203E+02 -0.89597672237E+02  0.39169523458E+02  0.19976363870E+03  0.17120000000E+03 0.  0.
        998    1    1    2    0    0  0.93052632669E+01  0.33997476186E+01  0.10879410147E+04  0.10880320756E+04  0.10000000000E+02 0. -1.
</event>
<event>
 5    1  0.1068111E-008  0.3822969E+03  0.7957747E-01  0.3441218E+00
         13   -1    0    0    0    0  0.00000000000E+00  0.00000000000E+00  0.14999999963E+04  0.15000000000E+04  0.10566000000E+00 0.  1.
        994   -1    0    0    0    0 -0.00000000000E+00 -0.00000000000E+00  0.11368683772E-12  0.17120000000E+03  0.17120000000E+03 0.  0.
         13    1    1    2    0    0  0.77637215162E+01  0.22303329043E+02  0.10294459484E+03  0.10561872291E+03  0.10566000000E+00 0.  1.
        994    1    1    2    0    0  0.25731647415E+02 -0.71827411864E+01  0.53496334964E+01  0.17335445777E+03  0.17120000000E+03 0.  0.
        998    1    1    2    0    0 -0.33495368931E+02 -0.15120587856E+02  0.13917057679E+04  0.13922268193E+04  0.10000000000E+02 0.  1.
</event>
<event>
 5    1  0.1068111E-008  0.3701450E+03  0.7957747E-01  0.3495225E+00
         13   -1    0    0    0    0  0.00000000000E+00  0.00000000000E+00  0.14999999963E+04  0.15000000000E+04  0.10566000000E+00 0.  1.
        994   -1    0    0    0    0 -0.00000000000E+00 -0.00000000000E+00  0.11368683772E-12  0.17120000000E+03  0.17120000000E+03 0.  0.
         13    1    1    2    0    0 -0.14547379541E+02  0.32244010673E+02  0.66751235708E+02  0.75544960840E+02  0.10566000000E+00 0.  1.
        994    1    1    2    0    0  0.11369216766E+02 -0.90455247383E+01  0.99231157703E+01  0.17210168167E+03  0.17120000000E+03 0.  0.
        998    1    1    2    0    0  0.31781627759E+01 -0.23198485935E+02  0.14233256448E+04  0.14235533575E+04  0.10000000000E+02 0.  1.
</event>
<event>
 5    1  0.1068111E-008  0.3844421E+03  0.7957747E-01  0.3432042E+00
         13   -1    0    0    0    0  0.00000000000E+00  0.00000000000E+00  0.14999999963E+04  0.15000000000E+04  0.10566000000E+00 0. -1.
        994   -1    0    0    0    0 -0.00000000000E+00 -0.00000000000E+00  0.11368683772E-12  0.17120000000E+03  0.17120000000E+03 0.  0.
         13    1    1    2    0    0  0.10224865150E+02  0.14088192051E+02  0.73646273625E+02  0.75675688338E+02  0.10566000000E+00 0. -1.
        994    1    1    2    0    0 -0.11257388880E+02 -0.20263599713E+02  0.36797293865E+01  0.17280139666E+03  0.17120000000E+03 0.  0.
        998    1    1    2    0    0  0.10325237295E+01  0.61754076620E+01  0.14226739933E+04  0.14227229150E+04  0.10000000000E+02 0. -1.
</event>
<event>
 5    1  0.1068111E-008  0.3691561E+03  0.7957747E-01  0.3499778E+00
         13   -1    0    0    0    0  0.00000000000E+00  0.00000000000E+00  0.14999999963E+04  0.15000000000E+04  0.10566000000E+00 0.  1.
        994   -1    0    0    0    0 -0.00000000000E+00 -0.00000000000E+00  0.11368683772E-12  0.17120000000E+03  0.17120000000E+03 0.  0.
         13    1    1    2    0    0  0.90499957546E+02 -0.11767082903E+02  0.34880543647E+03  0.36054673793E+03  0.10566000000E+00 0.  1.
        994    1    1    2    0    0 -0.81034485626E+02  0.84130060568E+01  0.33094172907E+02  0.19246306350E+03  0.17120000000E+03 0.  0.
        998    1    1    2    0    0 -0.94654719195E+01  0.33540768462E+01  0.11181003869E+04  0.11181901986E+04  0.10000000000E+02 0.  1.
</event>
<event>
 5    1  0.1068111E-008  0.3836939E+03  0.7957747E-01  0.3435231E+00
         13   -1    0    0    0    0  0.00000000000E+00  0.00000000000E+00  0.14999999963E+04  0.15000000000E+04  0.10566000000E+00 0. -1.
        994   -1    0    0    0    0 -0.00000000000E+00 -0.00000000000E+00  0.11368683772E-12  0.17120000000E+03  0.17120000000E+03 0.  0.
         13    1    1    2    0    0 -0.87564259336E+01 -0.97939857152E+01  0.38804106066E+02  0.40967877208E+02  0.10566000000E+00 0. -1.
        994    1    1    2    0    0 -0.67353387195E+01  0.49334487764E+01  0.25102350113E+01  0.17142183345E+03  0.17120000000E+03 0.  0.
        998    1    1    2    0    0  0.15491764653E+02  0.48605369388E+01  0.14586856552E+04  0.14588102893E+04  0.10000000000E+02 0. -1.
</event>
<event>
 5    1  0.1068111E-008  0.3693463E+03  0.7957747E-01  0.3498901E+00
         13   -1    0    0    0    0  0.00000000000E+00  0.00000000000E+00  0.14999999963E+04  0.15000000000E+04  0.10566000000E+00 0. -1.
        994   -1    0    0    0    0 -0.00000000000E+00 -0.00000000000E+00  0.11368683772E-12  0.17120000000E+03  0.17120000000E+03 0.  0.
         13    1    1    2    0    0 -0.73608289539E+02 -0.13106534685E+02  0.35427851996E+03  0.36208181728E+03  0.10566000000E+00 0. -1.
        994    1    1    2    0    0 -0.19365527180E+01  0.16583748897E+02  0.11566474631E+02  0.17240067952E+03  0.17120000000E+03 0.  0.
        998    1    1    2    0    0  0.75544842257E+02 -0.34772142117E+01  0.11341550017E+04  0.11367175032E+04  0.10000000000E+02 0. -1.
</event>
<event>
 5    1  0.1068111E-008  0.3847880E+03  0.7957747E-01  0.3430572E+00
         13   -1    0    0    0    0  0.00000000000E+00  0.00000000000E+00  0.14999999963E+04  0.15000000000E+04  0.10566000000E+00 0. -1.
        994   -1    0    0    0    0 -0.00000000000E+00 -0.00000000000E+00  0.11368683772E-12  0.17120000000E+03  0.17120000000E+03 0.  0.
         13    1    1    2    0    0  0.28012836863E+02 -0.15267030257E+02  0.18540277219E+02  0.36899245051E+02  0.10566000000E+00 0. -1.
        994    1    1    2    0    0 -0.29096055278E+02  0.19601819456E+02  0.23535500546E+02  0.17633539504E+03  0.17120000000E+03 0.  0.
        998    1    1    2    0    0  0.10832184159E+01 -0.43347891981E+01  0.14579242185E+04  0.14579653599E+04  0.10000000000E+02 0. -1.
</event>
<event>
 5    1  0.1068111E-008  0.3802081E+03  0.7957747E-01  0.3450253E+00
         13   -1    0    0    0    0  0.00000000000E+00  0.00000000000E+00  0.14999999963E+04  0.15000000000E+04  0.10566000000E+00 0.  1.
        994   -1    0    0    0    0 -0.00000000000E+00 -0.00000000000E+00  0.11368683772E-12  0.17120000000E+03  0.17120000000E+03 0.  0.
         13    1    1    2    0    0  0.13808196689E+02  0.13656050909E+02  0.44782113526E+02  0.48811913281E+02  0.10566000000E+00 0.  1.
        994    1    1    2    0    0 -0.10079879804E+02 -0.12550171475E+02  0.48942035056E+01  0.17202471918E+03  0.17120000000E+03 0.  0.
        998    1    1    2    0    0 -0.37283168855E+01 -0.11058794341E+01  0.14503236792E+04  0.14503633675E+04  0.10000000000E+02 0.  0.
</event>
<event>
 5    1  0.1068111E-008  0.3856934E+03  0.7957747E-01  0.3426737E+00
         13   -1    0    0    0    0  0.00000000000E+00  0.00000000000E+00  0.14999999963E+04  0.15000000000E+04  0.10566000000E+00 0.  1.
        994   -1    0    0    0    0 -0.00000000000E+00 -0.00000000000E+00  0.11368683772E-12  0.17120000000E+03  0.17120000000E+03 0.  0.
         13    1    1    2    0    0 -0.70209856999E+01  0.98560055753E+01  0.55726887721E+02  0.57025715824E+02  0.10566000000E+00 0.  1.
        994    1    1    2    0    0  0.33347201590E+01 -0.12943839453E+02  0.18727193546E+01  0.17173121561E+03  0.17120000000E+03 0.  0.
        998    1    1    2    0    0  0.36862655410E+01  0.30878338778E+01  0.14424003892E+04  0.14424430686E+04  0.10000000000E+02 0.  1.
</event>
<event>
 5    1  0.1068111E-008  0.3718878E+03  0.7957747E-01  0.3487259E+00
         13   -1    0    0    0    0  0.00000000000E+00  0.00000000000E+00  0.14999999963E+04  0.15000000000E+04  0.10566000000E+00 0.  1.
        994   -1    0    0    0    0 -0.00000000000E+00 -0.00000000000E+00  0.11368683772E-12  0.17120000000E+03  0.17120000000E+03 0.  0.
         13    1    1    2    0    0 -0.83636133298E+01 -0.10462806956E+03  0.39309050799E+03  0.40686255862E+03  0.10566000000E+00 0.  1.
        994    1    1    2    0    0 -0.13642589705E+02  0.84756146787E+02  0.38350100720E+02  0.19531998079E+03  0.17120000000E+03 0.  0.
        998    1    1    2    0    0  0.22006203035E+02  0.19871922771E+02  0.10685593876E+04  0.10690174606E+04  0.10000000000E+02 0.  1.
</event>
<event>
 5    1  0.1068111E-008  0.3832325E+03  0.7957747E-01  0.3437203E+00
         13   -1    0    0    0    0  0.00000000000E+00  0.00000000000E+00  0.14999999963E+04  0.15000000000E+04  0.10566000000E+00 0. -1.
        994   -1    0    0    0    0 -0.00000000000E+00 -0.00000000000E+00  0.11368683772E-12  0.17120000000E+03  0.17120000000E+03 0.  0.
         13    1    1    2    0    0 -0.31694151756E+01 -0.26874433506E+02  0.14782719830E+03  0.15028363879E+03  0.10566000000E+00 0. -1.
        994    1    1    2    0    0  0.44742564996E+01  0.13502266986E+02  0.31797319424E+01  0.17181932627E+03  0.17120000000E+03 0.  0.
        998    1    1    2    0    0 -0.13048413241E+01  0.13372166520E+02  0.13489930660E+04  0.13490970349E+04  0.10000000000E+02 0. -1.
</event>
<event>
 5    1  0.1068111E-008  0.3840667E+03  0.7957747E-01  0.3433640E+00
         13   -1    0    0    0    0  0.00000000000E+00  0.00000000000E+00  0.14999999963E+04  0.15000000000E+04  0.10566000000E+00 0. -1.
        994   -1    0    0    0    0 -0.00000000000E+00 -0.00000000000E+00  0.11368683772E-12  0.17120000000E+03  0.17120000000E+03 0.  0.
         13    1    1    2    0    0  0.29624089075E+01 -0.18631315290E+02  0.83987791266E+02  0.86080555422E+02  0.10566000000E+00 0. -1.
        994    1    1    2    0    0  0.12010509531E+01  0.13507267231E+02  0.27010164781E+01  0.17175745772E+03  0.17120000000E+03 0.  0.
        998    1    1    2    0    0 -0.41634598606E+01  0.51240480589E+01  0.14133111885E+04  0.14133619869E+04  0.10000000000E+02 0. -1.
</event>
<event>
 5    1  0.1068111E-008  0.3691603E+03  0.7957747E-01  0.3499759E+00
         13   -1    0    0    0    0  0.00000000000E+00  0.00000000000E+00  0.14999999963E+04  0.15000000000E+04  0.10566000000E+00 0.  1.
        994   -1    0    0    0    0 -0.00000000000E+00 -0.00000000000E+00  0.11368683772E-12  0.17120000000E+03  0.17120000000E+03 0.  0.
         13    1    1    2    0    0  0.97770796042E+01  0.66671469125E+02  0.19622862937E+03  0.20747617268E+03  0.10566000000E+00 0.  1.
        994    1    1    2    0    0  0.56702468275E+01 -0.58254441941E+02  0.22533798710E+02  0.18232647583E+03  0.17120000000E+03 0.  0.
        998    1    1    2    0    0 -0.15447326432E+02 -0.84170271841E+01  0.12812375682E+04  0.12813973515E+04  0.10000000000E+02 0.  1.
</event>
<event>
 5    1  0.1068111E-008  0.3751456E+03  0.7957747E-01  0.3472572E+00
         13   -1    0    0    0    0  0.00000000000E+00  0.00000000000E+00  0.14999999963E+04  0.15000000000E+04  0.10566000000E+00 0.  1.
        994   -1    0    0    0    0 -0.00000000000E+00 -0.00000000000E+00  0.11368683772E-12  0.17120000000E+03  0.17120000000E+03 0.  0.
         13    1    1    2    0    0  0.17099014518E+02 -0.15247379221E+01  0.19357821852E+02  0.25873491340E+02  0.10566000000E+00 0.  1.
        994    1    1    2    0    0 -0.14805247578E+02 -0.80681148317E+00  0.73512787272E+01  0.17199804534E+03  0.17120000000E+03 0.  0.
        998    1    1    2    0    0 -0.22937669405E+01  0.23315494053E+01  0.14732908957E+04  0.14733284633E+04  0.10000000000E+02 0.  1.
</event>
<event>
 5    1  0.1068111E-008  0.3854202E+03  0.7957747E-01  0.3427892E+00
         13   -1    0    0    0    0  0.00000000000E+00  0.00000000000E+00  0.14999999963E+04  0.15000000000E+04  0.10566000000E+00 0. -1.
        994   -1    0    0    0    0 -0.00000000000E+00 -0.00000000000E+00  0.11368683772E-12  0.17120000000E+03  0.17120000000E+03 0.  0.
         13    1    1    2    0    0  0.81881256642E+01 -0.75156121537E+01  0.41230240353E+02  0.42702151135E+02  0.10566000000E+00 0. -1.
        994    1    1    2    0    0 -0.16279580607E+02  0.84494225775E+01  0.25272913780E+01  0.17219827144E+03  0.17120000000E+03 0.  0.
        998    1    1    2    0    0  0.80914549429E+01 -0.93381042378E+00  0.14562424645E+04  0.14562995774E+04  0.10000000000E+02 0. -1.
</event>
<event>
 5    1  0.1068111E-008  0.3856078E+03  0.7957747E-01  0.3427098E+00
         13   -1    0    0    0    0  0.00000000000E+00  0.00000000000E+00  0.14999999963E+04  0.15000000000E+04  0.10566000000E+00 0. -1.
        994   -1    0    0    0    0 -0.00000000000E+00 -0.00000000000E+00  0.11368683772E-12  0.17120000000E+03  0.17120000000E+03 0.  0.
         13    1    1    2    0    0 -0.11048407964E+02 -0.39120754031E+01  0.48224104257E+02  0.49628087289E+02  0.10566000000E+00 0. -1.
        994    1    1    2    0    0  0.19298495533E+02  0.69692390655E+01  0.27116938725E+01  0.17244650042E+03  0.17120000000E+03 0.  0.
        998    1    1    2    0    0 -0.82500875689E+01 -0.30571636624E+01  0.14490641981E+04  0.14491254123E+04  0.10000000000E+02 0. -1.
</event>
<event>
 5    1  0.1068111E-008  0.3700554E+03  0.7957747E-01  0.3495636E+00
         13   -1    0    0    0    0  0.00000000000E+00  0.00000000000E+00  0.14999999963E+04  0.15000000000E+04  0.10566000000E+00 0. -1.
        994   -1    0    0    0    0 -0.00000000000E+00 -0.00000000000E+00  0.11368683772E-12  0.17120000000E+03  0.17120000000E+03 0.  0.
         13    1    1    2    0    0  0.37748785538E+02  0.30129752454E+02  0.13295549884E+03  0.14145652557E+03  0.10566000000E+00 0. -1.
        994    1    1    2    0    0  0.22922484351E+01 -0.21481083512E+02  0.10855121947E+02  0.17289871319E+03  0.17120000000E+03 0.  0.
        998    1    1    2    0    0 -0.40041033973E+02 -0.86486689419E+01  0.13561893755E+04  0.13568447612E+04  0.10000000000E+02 0. -1.
</event>
<event>
 5    1  0.1068111E-008  0.3839117E+03  0.7957747E-01  0.3434301E+00
         13   -1    0    0    0    0  0.00000000000E+00  0.00000000000E+00  0.14999999963E+04  0.15000000000E+04  0.10566000000E+00 0. -1.
        994   -1    0    0    0    0 -0.00000000000E+00 -0.00000000000E+00  0.11368683772E-12  0.17120000000E+03  0.17120000000E+03 0.  0.
         13    1    1    2    0    0  0.13536830052E+02  0.70098576166E+01  0.62132769337E+02  0.63975589573E+02  0.10566000000E+00 0. -1.
        994    1    1    2    0    0  0.13747233610E+02  0.13411537959E+02  0.33896823181E+01  0.17230724224E+03  0.17120000000E+03 0.  0.
        998    1    1    2    0    0 -0.27284063662E+02 -0.20421395575E+02  0.14344775446E+04  0.14349171682E+04  0.10000000000E+02 0. -1.
</event>
<event>
 5    1  0.1068111E-008  0.3836120E+03  0.7957747E-01  0.3435580E+00
         13   -1    0    0    0    0  0.00000000000E+00  0.00000000000E+00  0.14999999963E+04  0.15000000000E+04  0.10566000000E+00 0. -1.
        994   -1    0    0    0    0 -0.00000000000E+00 -0.00000000000E+00  0.11368683772E-12  0.17120000000E+03  0.17120000000E+03 0.  0.
         13    1    1    2    0    0  0.81809027515E+01  0.98046859399E+01  0.34215092645E+02  0.36520443110E+02  0.10566000000E+00 0. -1.
        994    1    1    2    0    0 -0.45108582108E+01 -0.97461304004E+01  0.27019146457E+01  0.17155778980E+03  0.17120000000E+03 0.  0.
        998    1    1    2    0    0 -0.36700445408E+01 -0.58555539422E-01  0.14630829890E+04  0.14631217671E+04  0.10000000000E+02 0. -1.
</event>
<event>
 5    1  0.1068111E-008  0.3833385E+03  0.7957747E-01  0.3436750E+00
         13   -1    0    0    0    0  0.00000000000E+00  0.00000000000E+00  0.14999999963E+04  0.15000000000E+04  0.10566000000E+00 0.  1.
        994   -1    0    0    0    0 -0.00000000000E+00 -0.00000000000E+00  0.11368683772E-12  0.17120000000E+03  0.17120000000E+03 0.  0.
         13    1    1    2    0    0  0.48709644140E+01 -0.11290634139E+02  0.29617710218E+02  0.32069060419E+02  0.10566000000E+00 0.  1.
        994    1    1    2    0    0 -0.65390023164E+01  0.98565145609E+01  0.29200362372E+01  0.17163296898E+03  0.17120000000E+03 0.  0.
        998    1    1    2    0    0  0.16680379024E+01  0.14341195777E+01  0.14674622498E+04  0.14674979706E+04  0.10000000000E+02 0.  1.
</event>
<event>
 5    1  0.1818076E-008  0.3862220E+03  0.7957747E-01  0.3424506E+00
         13   -1    0    0    0    0  0.00000000000E+00  0.00000000000E+00  0.14999999963E+04  0.15000000000E+04  0.10566000000E+00 0.  1.
        994   -1    0    0    0    0 -0.00000000000E+00 -0.00000000000E+00  0.11368683772E-12  0.17120000000E+03  0.17120000000E+03 0.  0.
         13    1    1    2    0    0 -0.50186018930E+01 -0.88033169863E+01  0.50701917153E+02  0.51704741774E+02  0.10566000000E+00 0.  1.
        994    1    1    2    0    0  0.58926310508E+01  0.51628699316E+01  0.12257375164E+01  0.17138354868E+03  0.17120000000E+03 0.  0.
        998    1    1    2    0    0 -0.87402915772E+00  0.36404470547E+01  0.14480723416E+04  0.14481117095E+04  0.10000000000E+02 0.  1.
</event>
<event>
 5    1  0.1068111E-008  0.3761867E+03  0.7957747E-01  0.3467933E+00
         13   -1    0    0    0    0  0.00000000000E+00  0.00000000000E+00  0.14999999963E+04  0.15000000000E+04  0.10566000000E+00 0. -1.
        994   -1    0    0    0    0 -0.00000000000E+00 -0.00000000000E+00  0.11368683772E-12  0.17120000000E+03  0.17120000000E+03 0.  0.
         13    1    1    2    0    0  0.16240639956E+02  0.33521728795E+02  0.10630792734E+03  0.11264480133E+03  0.10566000000E+00 0. -1.
        994    1    1    2    0    0 -0.18651293739E+02 -0.29257912982E+02  0.10157418595E+02  0.17497573941E+03  0.17120000000E+03 0.  0.
        998    1    1    2    0    0  0.24106537838E+01 -0.42638158128E+01  0.13835346503E+04  0.13835794593E+04  0.10000000000E+02 0. -1.
</event>
<event>
 5    1  0.1068111E-008  0.3836564E+03  0.7957747E-01  0.3435391E+00
         13   -1    0    0    0    0  0.00000000000E+00  0.00000000000E+00  0.14999999963E+04  0.15000000000E+04  0.10566000000E+00 0. -1.
        994   -1    0    0    0    0 -0.00000000000E+00 -0.00000000000E+00  0.11368683772E-12  0.17120000000E+03  0.17120000000E+03 0.  0.
         13    1    1    2    0    0  0.44161822075E+01  0.14486773268E+02  0.48501664935E+02  0.50811336634E+02  0.10566000000E+00 0. -1.
        994    1    1    2    0    0 -0.29226941638E+01 -0.13240148179E+02  0.29061650548E+01  0.17176067495E+03  0.17120000000E+03 0.  0.
        998    1    1    2    0    0 -0.14934880437E+01 -0.12466250889E+01  0.14485921663E+04  0.14486279884E+04  0.10000000000E+02 0. -1.
</event>
<event>
 5    1  0.1068111E-008  0.3805194E+03  0.7957747E-01  0.3448900E+00
         13   -1    0    0    0    0  0.00000000000E+00  0.00000000000E+00  0.14999999963E+04  0.15000000000E+04  0.10566000000E+00 0. -1.
        994   -1    0    0    0    0 -0.00000000000E+00 -0.00000000000E+00  0.11368683772E-12  0.17120000000E+03  0.17120000000E+03 0.  0.
         13    1    1    2    0    0  0.18350220954E+02 -0.19309114614E+02  0.90138230080E+02  0.93991936900E+02  0.10566000000E+00 0. -1.
        994    1    1    2    0    0 -0.52393929477E-01  0.23371803875E+02  0.56962415237E+01  0.17288184152E+03  0.17120000000E+03 0.  0.
        998    1    1    2    0    0 -0.18297827024E+02 -0.40626892613E+01  0.14041655247E+04  0.14043262216E+04  0.10000000000E+02 0. -1.
</event>
<event>
 5    1  0.1068111E-008  0.3834886E+03  0.7957747E-01  0.3436107E+00
         13   -1    0    0    0    0  0.00000000000E+00  0.00000000000E+00  0.14999999963E+04  0.15000000000E+04  0.10566000000E+00 0. -1.
        994   -1    0    0    0    0 -0.00000000000E+00 -0.00000000000E+00  0.11368683772E-12  0.17120000000E+03  0.17120000000E+03 0.  0.
         13    1    1    2    0    0  0.19712411151E+02  0.13002265514E+02  0.12626261426E+03  0.12845192481E+03  0.10566000000E+00 0. -1.
        994    1    1    2    0    0 -0.13786319297E+01 -0.46498949208E+01  0.24601053329E+01  0.17128635167E+03  0.17120000000E+03 0.  0.
        998    1    1    2    0    0 -0.18333779222E+02 -0.83523705934E+01  0.13712772767E+04  0.13714617235E+04  0.10000000000E+02 0. -1.
</event>
<event>
 5    1  0.1068111E-008  0.3796856E+03  0.7957747E-01  0.3452529E+00
         13   -1    0    0    0    0  0.00000000000E+00  0.00000000000E+00  0.14999999963E+04  0.15000000000E+04  0.10566000000E+00 0.  1.
        994   -1    0    0    0    0 -0.00000000000E+00 -0.00000000000E+00  0.11368683772E-12  0.17120000000E+03  0.17120000000E+03 0.  0.
         13    1    1    2    0    0  0.15606967097E+02  0.33153019681E+02  0.14925989050E+03  0.15369198487E+03  0.10566000000E+00 0.  1.
        994    1    1    2    0    0 -0.75912544601E+01 -0.26957231827E+02  0.69210218130E+01  0.17361353644E+03  0.17120000000E+03 0.  0.
        998    1    1    2    0    0 -0.80157126370E+01 -0.61957878541E+01  0.13438190840E+04  0.13438944787E+04  0.10000000000E+02 0.  1.
</event>
<event>
 5    1  0.1068111E-008  0.3747016E+03  0.7957747E-01  0.3474559E+00
         13   -1    0    0    0    0  0.00000000000E+00  0.00000000000E+00  0.14999999963E+04  0.15000000000E+04  0.10566000000E+00 0. -1.
        994   -1    0    0    0    0 -0.00000000000E+00 -0.00000000000E+00  0.11368683772E-12  0.17120000000E+03  0.17120000000E+03 0.  0.
         13    1    1    2    0    0  0.49278554188E+02  0.22739760132E+02  0.23501825562E+03  0.24120336696E+03  0.10566000000E+00 0. -1.
        994    1    1    2    0    0 -0.18448128292E+02  0.33162056970E+00  0.79913016567E+01  0.17237675108E+03  0.17120000000E+03 0.  0.
        998    1    1    2    0    0 -0.30830425896E+02 -0.23071380701E+02  0.12569904390E+04  0.12576198820E+04  0.10000000000E+02 0. -1.
</event>
<event>
 5    1  0.1068111E-008  0.3710914E+03  0.7957747E-01  0.3490890E+00
         13   -1    0    0    0    0  0.00000000000E+00  0.00000000000E+00  0.14999999963E+04  0.15000000000E+04  0.10566000000E+00 0.  1.
        994   -1    0    0    0    0 -0.00000000000E+00 -0.00000000000E+00  0.11368683772E-12  0.17120000000E+03  0.17120000000E+03 0.  0.
         13    1    1    2    0    0  0.13458319687E+02  0.10448057643E+03  0.46997106315E+03  0.48163277357E+03  0.10566000000E+00 0.  1.
        994    1    1    2    0    0 -0.77727050482E+01 -0.95241118353E+02  0.40843933487E+02  0.20027219595E+03  0.17120000000E+03 0.  0.
        998    1    1    2    0    0 -0.56856146388E+01 -0.92394580791E+01  0.98918499964E+03  0.98929503047E+03  0.10000000000E+02 0.  1.
</event>
<event>
 5    1  0.1076331E-008  0.3840875E+03  0.7957747E-01  0.3433551E+00
         13   -1    0    0    0    0  0.00000000000E+00  0.00000000000E+00  0.14999999963E+04  0.15000000000E+04  0.10566000000E+00 0. -1.
        994   -1    0    0    0    0 -0.00000000000E+00 -0.00000000000E+00  0.11368683772E-12  0.17120000000E+03  0.17120000000E+03 0.  0.
         13    1    1    2    0    0 -0.13384956442E+02  0.31282778086E+01  0.43753338751E+02  0.45861846854E+02  0.10566000000E+00 0. -1.
        994    1    1    2    0    0  0.14486006472E+02 -0.21388065988E+01  0.27914134942E+01  0.17184775491E+03  0.17120000000E+03 0.  0.
        998    1    1    2    0    0 -0.11010500298E+01 -0.98947120978E+00  0.14534552440E+04  0.14534903982E+04  0.10000000000E+02 0. -1.
</event>
<event>
 5    1  0.1068111E-008  0.3857751E+03  0.7957747E-01  0.3426392E+00
         13   -1    0    0    0    0  0.00000000000E+00  0.00000000000E+00  0.14999999963E+04  0.15000000000E+04  0.10566000000E+00 0.  1.
        994   -1    0    0    0    0 -0.00000000000E+00 -0.00000000000E+00  0.11368683772E-12  0.17120000000E+03  0.17120000000E+03 0.  0.
         13    1    1    2    0    0  0.10536803578E+02  0.29960020317E+01  0.52081752567E+02  0.53221427755E+02  0.10566000000E+00 0.  1.
        994    1    1    2    0    0  0.54021038536E+01 -0.70139101917E+01  0.15029770487E+01  0.17143534234E+03  0.17120000000E+03 0.  0.
        998    1    1    2    0    0 -0.15938907432E+02  0.40179081600E+01  0.14464152667E+04  0.14465432299E+04  0.10000000000E+02 0.  1.
</event>
<event>
 5    1  0.1068111E-008  0.3726419E+03  0.7957747E-01  0.3483837E+00
         13   -1    0    0    0    0  0.00000000000E+00  0.00000000000E+00  0.14999999963E+04  0.15000000000E+04  0.10566000000E+00 0. -1.
        994   -1    0    0    0    0 -0.00000000000E+00 -0.00000000000E+00  0.11368683772E-12  0.17120000000E+03  0.17120000000E+03 0.  0.
         13    1    1    2    0    0  0.14551590677E+02  0.33795312689E+02  0.79957944234E+02  0.88017929770E+02  0.10566000000E+00 0. -1.
        994    1    1    2    0    0 -0.74163614757E+01 -0.32935004558E+02  0.11809880973E+02  0.17489605551E+03  0.17120000000E+03 0.  0.
        998    1    1    2    0    0 -0.71352292015E+01 -0.86030813078E+00  0.14082321711E+04  0.14082860147E+04  0.10000000000E+02 0. -1.
</event>
<event>
 5    1  0.1068111E-008  0.3804467E+03  0.7957747E-01  0.3449216E+00
         13   -1    0    0    0    0  0.00000000000E+00  0.00000000000E+00  0.14999999963E+04  0.15000000000E+04  0.10566000000E+00 0. -1.
        994   -1    0    0    0    0 -0.00000000000E+00 -0.00000000000E+00  0.11368683772E-12  0.17120000000E+03  0.17120000000E+03 0.  0.
         13    1    1    2    0    0 -0.56237482447E+02  0.51583471034E+02  0.14274862619E+03  0.16186627307E+03  0.10566000000E+00 0. -1.
        994    1    1    2    0    0  0.80110954625E+02 -0.55173105611E+02  0.51777153299E+02  0.20359801138E+03  0.17120000000E+03 0.  0.
        998    1    1    2    0    0 -0.23873472178E+02  0.35896345765E+01  0.13054742168E+04  0.13057357155E+04  0.10000000000E+02 0. -1.
</event>
<event>
 5    1  0.1068111E-008  0.3800950E+03  0.7957747E-01  0.3450745E+00
         13   -1    0    0    0    0  0.00000000000E+00  0.00000000000E+00  0.14999999963E+04  0.15000000000E+04  0.10566000000E+00 0.  1.
        994   -1    0    0    0    0 -0.00000000000E+00 -0.00000000000E+00  0.11368683772E-12  0.17120000000E+03  0.17120000000E+03 0.  0.
         13    1    1    2    0    0  0.40827590481E+02  0.64002590092E+01  0.17957356043E+03  0.18426755067E+03  0.10566000000E+00 0.  1.
        994    1    1    2    0    0 -0.45131602218E+02 -0.37961225399E+01  0.10970895897E+02  0.17742906363E+03  0.17120000000E+03 0.  0.
        998    1    1    2    0    0  0.43040117365E+01 -0.26041364692E+01  0.13094555400E+04  0.13095033857E+04  0.10000000000E+02 0.  1.
</event>
<event>
 5    1  0.1068111E-008  0.3854500E+03  0.7957747E-01  0.3427766E+00
         13   -1    0    0    0    0  0.00000000000E+00  0.00000000000E+00  0.14999999963E+04  0.15000000000E+04  0.10566000000E+00 0. -1.
        994   -1    0    0    0    0 -0.00000000000E+00 -0.00000000000E+00  0.11368683772E-12  0.17120000000E+03  0.17120000000E+03 0.  0.
         13    1    1    2    0    0 -0.80568210560E+01  0.13106192109E+02  0.93001757860E+02  0.94265703022E+02  0.10566000000E+00 0. -1.
        994    1    1    2    0    0  0.47575361019E+01  0.46964362566E+01  0.15536500425E+01  0.17133751630E+03  0.17120000000E+03 0.  0.
        998    1    1    2    0    0  0.32992849541E+01 -0.17802628365E+02  0.14054445884E+04  0.14055967807E+04  0.10000000000E+02 0. -1.
</event>
<event>
 5    1  0.1068111E-008  0.3825061E+03  0.7957747E-01  0.3440318E+00
         13   -1    0    0    0    0  0.00000000000E+00  0.00000000000E+00  0.14999999963E+04  0.15000000000E+04  0.10566000000E+00 0. -1.
        994   -1    0    0    0    0 -0.00000000000E+00 -0.00000000000E+00  0.11368683772E-12  0.17120000000E+03  0.17120000000E+03 0.  0.
         13    1    1    2    0    0  0.35941471239E+02  0.91737029019E+01  0.21951292462E+03  0.22262497932E+03  0.10566000000E+00 0. -1.
        994    1    1    2    0    0 -0.29285399117E+02 -0.89918283065E+01  0.59911485590E+01  0.17402247395E+03  0.17120000000E+03 0.  0.
        998    1    1    2    0    0 -0.66560721215E+01 -0.18187459538E+00  0.12744959231E+04  0.12745525467E+04  0.10000000000E+02 0. -1.
</event>
<event>
 5    1  0.1068111E-008  0.3389726E+03  0.7957747E-01  0.3651889E+00
         13   -1    0    0    0    0  0.00000000000E+00  0.00000000000E+00  0.14999999963E+04  0.15000000000E+04  0.10566000000E+00 0.  1.
        994   -1    0    0    0    0 -0.00000000000E+00 -0.00000000000E+00  0.11368683772E-12  0.17120000000E+03  0.17120000000E+03 0.  0.
         13    1    1    2    0    0  0.10710720109E+03 -0.28560746691E+03  0.84465087210E+03  0.89804158288E+03  0.10566000000E+00 0.  1.
        994    1    1    2    0    0 -0.71606255860E+02  0.21750336415E+03  0.32060848775E+03  0.42957468700E+03  0.17120000000E+03 0.  0.
        998    1    1    2    0    0 -0.35500945233E+02  0.68104102760E+02  0.33474063643E+03  0.34358373012E+03  0.10000000000E+02 0. -1.
</event>
<event>
 5    1  0.1068111E-008  0.3824189E+03  0.7957747E-01  0.3440693E+00
         13   -1    0    0    0    0  0.00000000000E+00  0.00000000000E+00  0.14999999963E+04  0.15000000000E+04  0.10566000000E+00 0. -1.
        994   -1    0    0    0    0 -0.00000000000E+00 -0.00000000000E+00  0.11368683772E-12  0.17120000000E+03  0.17120000000E+03 0.  0.
         13    1    1    2    0    0 -0.13194601918E+02  0.31086441884E+01  0.29866349378E+02  0.32798950862E+02  0.10566000000E+00 0. -1.
        994    1    1    2    0    0  0.16410885888E+02  0.48136220762E+01  0.38876526343E+01  0.17209602545E+03  0.17120000000E+03 0.  0.
        998    1    1    2    0    0 -0.32162839700E+01 -0.79222662646E+01  0.14662459943E+04  0.14663050237E+04  0.10000000000E+02 0. -1.
</event>
<event>
 5    1  0.1068111E-008  0.3754926E+03  0.7957747E-01  0.3471023E+00
         13   -1    0    0    0    0  0.00000000000E+00  0.00000000000E+00  0.14999999963E+04  0.15000000000E+04  0.10566000000E+00 0.  1.
        994   -1    0    0    0    0 -0.00000000000E+00 -0.00000000000E+00  0.11368683772E-12  0.17120000000E+03  0.17120000000E+03 0.  0.
         13    1    1    2    0    0  0.34766808400E+01  0.16874817238E+02  0.21416412623E+02  0.27486736077E+02  0.10566000000E+00 0.  1.
        994    1    1    2    0    0  0.22995569509E+02  0.43752265489E+01  0.82876541645E+01  0.17299151435E+03  0.17120000000E+03 0.  0.
        998    1    1    2    0    0 -0.26472250349E+02 -0.21250043787E+02  0.14702959295E+04  0.14707217496E+04  0.10000000000E+02 0.  1.
</event>
<event>
 5    1  0.1068111E-008  0.3858837E+03  0.7957747E-01  0.3425933E+00
         13   -1    0    0    0    0  0.00000000000E+00  0.00000000000E+00  0.14999999963E+04  0.15000000000E+04  0.10566000000E+00 0.  1.
        994   -1    0    0    0    0 -0.00000000000E+00 -0.00000000000E+00  0.11368683772E-12  0.17120000000E+03  0.17120000000E+03 0.  0.
         13    1    1    2    0    0  0.87039780591E+01 -0.64664079304E+01  0.50314798006E+02  0.51470027473E+02  0.10566000000E+00 0.  1.
        994    1    1    2    0    0 -0.57285112502E+01  0.18789603119E+01  0.13112045738E+01  0.17131113680E+03  0.17120000000E+03 0.  0.
        998    1    1    2    0    0 -0.29754668089E+01  0.45874476185E+01  0.14483739937E+04  0.14484188357E+04  0.10000000000E+02 0.  1.
</event>
<event>
 5    1  0.1068111E-008  0.3750895E+03  0.7957747E-01  0.3472823E+00
         13   -1    0    0    0    0  0.00000000000E+00  0.00000000000E+00  0.14999999963E+04  0.15000000000E+04  0.10566000000E+00 0.  1.
        994   -1    0    0    0    0 -0.00000000000E+00 -0.00000000000E+00  0.11368683772E-12  0.17120000000E+03  0.17120000000E+03 0.  0.
         13    1    1    2    0    0  0.14577734014E+02 -0.13462431291E+02  0.26513573811E+02  0.33116886109E+02  0.10566000000E+00 0.  1.
        994    1    1    2    0    0 -0.97695938716E+01  0.18194817370E+02  0.80834243242E+01  0.17263046687E+03  0.17120000000E+03 0.  0.
        998    1    1    2    0    0 -0.48081401428E+01 -0.47323860789E+01  0.14654029981E+04  0.14654526470E+04  0.10000000000E+02 0.  1.
</event>
<event>
 5    1  0.1068111E-008  0.3697161E+03  0.7957747E-01  0.3497197E+00
         13   -1    0    0    0    0  0.00000000000E+00  0.00000000000E+00  0.14999999963E+04  0.15000000000E+04  0.10566000000E+00 0. -1.
        994   -1    0    0    0    0 -0.00000000000E+00 -0.00000000000E+00  0.11368683772E-12  0.17120000000E+03  0.17120000000E+03 0.  0.
         13    1    1    2    0    0  0.45434745083E+02 -0.74197354630E+02  0.49702409257E+03  0.50458153281E+03  0.10566000000E+00 0. -1.
        994    1    1    2    0    0 -0.37869619477E+02  0.10212640997E+02  0.14760810952E+02  0.17625472378E+03  0.17120000000E+03 0.  0.
        998    1    1    2    0    0 -0.75651256051E+01  0.63984713632E+02  0.98821509276E+03  0.99036374341E+03  0.10000000000E+02 0. -1.
</event>
<event>
 5    1  0.1068111E-008  0.4062751E+03  0.7957747E-01  0.3344167E+00
         13   -1    0    0    0    0  0.00000000000E+00  0.00000000000E+00  0.14999999963E+04  0.15000000000E+04  0.10566000000E+00 0. -1.
        994   -1    0    0    0    0 -0.00000000000E+00 -0.00000000000E+00  0.11368683772E-12  0.17120000000E+03  0.17120000000E+03 0.  0.
         13    1    1    2    0    0 -0.11683132596E+03  0.44992975448E+02  0.30370190938E+03  0.32849472977E+03  0.10566000000E+00 0. -1.
        994    1    1    2    0    0 -0.76341231019E+01 -0.10247274572E+03  0.75435805527E+02  0.21344541271E+03  0.17120000000E+03 0.  0.
        998    1    1    2    0    0  0.12446544906E+03  0.57479770270E+02  0.11208622814E+04  0.11292598575E+04  0.10000000000E+02 0. -1.
</event>
<event>
 5    1  0.1068111E-008  0.3803299E+03  0.7957747E-01  0.3449723E+00
         13   -1    0    0    0    0  0.00000000000E+00  0.00000000000E+00  0.14999999963E+04  0.15000000000E+04  0.10566000000E+00 0. -1.
        994   -1    0    0    0    0 -0.00000000000E+00 -0.00000000000E+00  0.11368683772E-12  0.17120000000E+03  0.17120000000E+03 0.  0.
         13    1    1    2    0    0 -0.11577213854E+02  0.26431974024E+02  0.97551658867E+02  0.10173012554E+03  0.10566000000E+00 0. -1.
        994    1    1    2    0    0  0.16302087944E+02 -0.24832747499E+02  0.69189663027E+01  0.17389576048E+03  0.17120000000E+03 0.  0.
        998    1    1    2    0    0 -0.47248740908E+01 -0.15992265249E+01  0.13955293711E+04  0.13955741140E+04  0.10000000000E+02 0. -1.
</event>
<event>
 5    1  0.1068111E-008  0.3821156E+03  0.7957747E-01  0.3441998E+00
         13   -1    0    0    0    0  0.00000000000E+00  0.00000000000E+00  0.14999999963E+04  0.15000000000E+04  0.10566000000E+00 0. -1.
        994   -1    0    0    0    0 -0.00000000000E+00 -0.00000000000E+00  0.11368683772E-12  0.17120000000E+03  0.17120000000E+03 0.  0.
         13    1    1    2    0    0 -0.11479487228E+02  0.13259445167E+02  0.50241727357E+02  0.53214977638E+02  0.10566000000E+00 0. -1.
        994    1    1    2    0    0  0.86558998264E+01 -0.47751494993E+00  0.33185087188E+01  0.17145146579E+03  0.17120000000E+03 0.  0.
        998    1    1    2    0    0  0.28235874015E+01 -0.12781930217E+02  0.14464397602E+04  0.14465335566E+04  0.10000000000E+02 0. -1.
</event>
<event>
 5    1  0.1068111E-008  0.3830767E+03  0.7957747E-01  0.3437870E+00
         13   -1    0    0    0    0  0.00000000000E+00  0.00000000000E+00  0.14999999963E+04  0.15000000000E+04  0.10566000000E+00 0. -1.
        994   -1    0    0    0    0 -0.00000000000E+00 -0.00000000000E+00  0.11368683772E-12  0.17120000000E+03  0.17120000000E+03 0.  0.
         13    1    1    2    0    0  0.74513713032E+01 -0.71594012252E+01  0.19764642440E+02  0.22303188450E+02  0.10566000000E+00 0. -1.
        994    1    1    2    0    0 -0.40194633646E+01  0.40701043410E+01  0.26963568248E+01  0.17131675976E+03  0.17120000000E+03 0.  0.
        998    1    1    2    0    0 -0.34319079386E+01  0.30892968842E+01  0.14775389970E+04  0.14775800518E+04  0.10000000000E+02 0. -1.
</event>
<event>
 5    1  0.1068111E-008  0.3848697E+03  0.7957747E-01  0.3430225E+00
         13   -1    0    0    0    0  0.00000000000E+00  0.00000000000E+00  0.14999999963E+04  0.15000000000E+04  0.10566000000E+00 0. -1.
        994   -1    0    0    0    0 -0.00000000000E+00 -0.00000000000E+00  0.11368683772E-12  0.17120000000E+03  0.17120000000E+03 0.  0.
         13    1    1    2    0    0 -0.14257742987E+01  0.10687758680E+02  0.32816392831E+02  0.34542550867E+02  0.10566000000E+00 0. -1.
        994    1    1    2    0    0  0.38873803169E+01 -0.15175924825E+02  0.25027230741E+01  0.17193348726E+03  0.17120000000E+03 0.  0.
        998    1    1    2    0    0 -0.24616060182E+01  0.44881661453E+01  0.14646808804E+04  0.14647239619E+04  0.10000000000E+02 0. -1.
</event>
<event>
 5    1  0.1068111E-008  0.3774911E+03  0.7957747E-01  0.3462156E+00
         13   -1    0    0    0    0  0.00000000000E+00  0.00000000000E+00  0.14999999963E+04  0.15000000000E+04  0.10566000000E+00 0.  1.
        994   -1    0    0    0    0 -0.00000000000E+00 -0.00000000000E+00  0.11368683772E-12  0.17120000000E+03  0.17120000000E+03 0.  0.
         13    1    1    2    0    0  0.43228231396E+01  0.45998050794E+02  0.25135560399E+03  0.25556634813E+03  0.10566000000E+00 0.  1.
        994    1    1    2    0    0  0.22598116719E+02  0.27394534075E+01  0.71537165350E+01  0.17285483836E+03  0.17120000000E+03 0.  0.
        998    1    1    2    0    0 -0.26920939859E+02 -0.48737504201E+02  0.12414906758E+04  0.12427788135E+04  0.10000000000E+02 0.  1.
</event>
<event>
 5    1  0.1068111E-008  0.3809958E+03  0.7957747E-01  0.3446834E+00
         13   -1    0    0    0    0  0.00000000000E+00  0.00000000000E+00  0.14999999963E+04  0.15000000000E+04  0.10566000000E+00 0. -1.
        994   -1    0    0    0    0 -0.00000000000E+00 -0.00000000000E+00  0.11368683772E-12  0.17120000000E+03  0.17120000000E+03 0.  0.
         13    1    1    2    0    0 -0.23476157847E+02  0.19462491875E+02  0.11555542071E+03  0.11951144296E+03  0.10566000000E+00 0. -1.
        994    1    1    2    0    0  0.31695687557E+02 -0.15776523527E+02  0.78192268413E+01  0.17499741602E+03  0.17120000000E+03 0.  0.
        998    1    1    2    0    0 -0.82195297099E+01 -0.36859683472E+01  0.13766253487E+04  0.13766911410E+04  0.10000000000E+02 0. -1.
</event>
<event>
 5    1  0.1068111E-008  0.3842128E+03  0.7957747E-01  0.3433018E+00
         13   -1    0    0    0    0  0.00000000000E+00  0.00000000000E+00  0.14999999963E+04  0.15000000000E+04  0.10566000000E+00 0. -1.
        994   -1    0    0    0    0 -0.00000000000E+00 -0.00000000000E+00  0.11368683772E-12  0.17120000000E+03  0.17120000000E+03 0.  0.
         13    1    1    2    0    0  0.44268730668E+02  0.87187908155E+01  0.23787163097E+03  0.24211291128E+03  0.10566000000E+00 0. -1.
        994    1    1    2    0    0 -0.96029930144E+02 -0.54814145089E+02  0.43431173674E+02  0.20837956913E+03  0.17120000000E+03 0.  0.
        998    1    1    2    0    0  0.51761199476E+02  0.46095354273E+02  0.12186971916E+04  0.12207075196E+04  0.10000000000E+02 0. -1.
</event>
<event>
 5    1  0.1068111E-008  0.3828430E+03  0.7957747E-01  0.3438872E+00
         13   -1    0    0    0    0  0.00000000000E+00  0.00000000000E+00  0.14999999963E+04  0.15000000000E+04  0.10566000000E+00 0. -1.
        994   -1    0    0    0    0 -0.00000000000E+00 -0.00000000000E+00  0.11368683772E-12  0.17120000000E+03  0.17120000000E+03 0.  0.
         13    1    1    2    0    0 -0.28540531125E+02  0.12069054620E+02  0.16257904354E+03  0.16550583240E+03  0.10566000000E+00 0. -1.
        994    1    1    2    0    0  0.23883661306E+02 -0.17767163842E+02  0.56449686018E+01  0.17386030904E+03  0.17120000000E+03 0.  0.
        998    1    1    2    0    0  0.46568698187E+01  0.56981092215E+01  0.13317759841E+04  0.13318338586E+04  0.10000000000E+02 0. -1.
</event>
<event>
 5    1  0.1068111E-008  0.3744885E+03  0.7957747E-01  0.3475514E+00
         13   -1    0    0    0    0  0.00000000000E+00  0.00000000000E+00  0.14999999963E+04  0.15000000000E+04  0.10566000000E+00 0. -1.
        994   -1    0    0    0    0 -0.00000000000E+00 -0.00000000000E+00  0.11368683772E-12  0.17120000000E+03  0.17120000000E+03 0.  0.
         13    1    1    2    0    0 -0.54873160470E+01  0.59250641962E+02  0.13729044481E+03  0.14963096809E+03  0.10566000000E+00 0. -1.
        994    1    1    2    0    0 -0.50629770847E+01 -0.20490053683E+02  0.14915941167E+02  0.17313983175E+03  0.17120000000E+03 0.  0.
        998    1    1    2    0    0  0.10550293132E+02 -0.38760588278E+02  0.13477936103E+04  0.13484292002E+04  0.10000000000E+02 0. -1.
</event>
<event>
 5    1  0.1068111E-008  0.3852839E+03  0.7957747E-01  0.3428469E+00
         13   -1    0    0    0    0  0.00000000000E+00  0.00000000000E+00  0.14999999963E+04  0.15000000000E+04  0.10566000000E+00 0.  1.
        994   -1    0    0    0    0 -0.00000000000E+00 -0.00000000000E+00  0.11368683772E-12  0.17120000000E+03  0.17120000000E+03 0.  0.
         13    1    1    2    0    0 -0.43435570612E+01 -0.13761929757E+02  0.84487833679E+02  0.85711506826E+02  0.10566000000E+00 0.  1.
        994    1    1    2    0    0 -0.23031230758E+02 -0.71048357612E+01  0.34002280619E+01  0.17292171012E+03  0.17120000000E+03 0.  0.
        998    1    1    2    0    0  0.27374787819E+02  0.20866765519E+02  0.14121119345E+04  0.14125667830E+04  0.10000000000E+02 0.  1.
</event>
<event>
 5    1  0.1068111E-008  0.3730040E+03  0.7957747E-01  0.3482198E+00
         13   -1    0    0    0    0  0.00000000000E+00  0.00000000000E+00  0.14999999963E+04  0.15000000000E+04  0.10566000000E+00 0.  1.
        994   -1    0    0    0    0 -0.00000000000E+00 -0.00000000000E+00  0.11368683772E-12  0.17120000000E+03  0.17120000000E+03 0.  0.
         13    1    1    2    0    0 -0.39433199991E+02 -0.22447890640E+02  0.12488200053E+03  0.13286989981E+03  0.10566000000E+00 0.  1.
        994    1    1    2    0    0  0.17546782033E+02  0.47090157732E+02  0.16399578417E+02  0.17917521784E+03  0.17120000000E+03 0.  0.
        998    1    1    2    0    0  0.21886417958E+02 -0.24642267091E+02  0.13587184173E+04  0.13591548824E+04  0.10000000000E+02 0.  1.
</event>
<event>
 5    1  0.1068111E-008  0.3756587E+03  0.7957747E-01  0.3470282E+00
         13   -1    0    0    0    0  0.00000000000E+00  0.00000000000E+00  0.14999999963E+04  0.15000000000E+04  0.10566000000E+00 0.  1.
        994   -1    0    0    0    0 -0.00000000000E+00 -0.00000000000E+00  0.11368683772E-12  0.17120000000E+03  0.17120000000E+03 0.  0.
         13    1    1    2    0    0  0.22841470323E+02 -0.22320339095E+02  0.74169911356E+02  0.80753434716E+02  0.10566000000E+00 0.  1.
        994    1    1    2    0    0 -0.25684231342E+02  0.21993096656E+02  0.10228597552E+02  0.17480686556E+03  0.17120000000E+03 0.  0.
        998    1    1    2    0    0  0.28427610192E+01  0.32724243909E+00  0.14156014874E+04  0.14156396997E+04  0.10000000000E+02 0.  1.
</event>
<event>
 5    1  0.1068111E-008  0.3850161E+03  0.7957747E-01  0.3429604E+00
         13   -1    0    0    0    0  0.00000000000E+00  0.00000000000E+00  0.14999999963E+04  0.15000000000E+04  0.10566000000E+00 0.  1.
        994   -1    0    0    0    0 -0.00000000000E+00 -0.00000000000E+00  0.11368683772E-12  0.17120000000E+03  0.17120000000E+03 0.  0.
         13    1    1    2    0    0  0.41091870504E+01 -0.15159790100E+02  0.85350313311E+02  0.86783591770E+02  0.10566000000E+00 0.  1.
        994    1    1    2    0    0 -0.12791046769E+01 -0.57436430276E+01  0.17360047783E+01  0.17130989247E+03  0.17120000000E+03 0.  0.
        998    1    1    2    0    0 -0.28300823734E+01  0.20903433127E+02  0.14129136782E+04  0.14131065158E+04  0.10000000000E+02 0.  0.
</event>
<event>
 5    1  0.1068111E-008  0.3773738E+03  0.7957747E-01  0.3462674E+00
         13   -1    0    0    0    0  0.00000000000E+00  0.00000000000E+00  0.14999999963E+04  0.15000000000E+04  0.10566000000E+00 0. -1.
        994   -1    0    0    0    0 -0.00000000000E+00 -0.00000000000E+00  0.11368683772E-12  0.17120000000E+03  0.17120000000E+03 0.  0.
         13    1    1    2    0    0  0.80366456708E+01 -0.15863571546E+02  0.27645252320E+02  0.32871138035E+02  0.10566000000E+00 0. -1.
        994    1    1    2    0    0 -0.42035308296E+01 -0.30455421672E+01  0.55556057629E+01  0.17136875373E+03  0.17120000000E+03 0.  0.
        998    1    1    2    0    0 -0.38331148412E+01  0.18909113713E+02  0.14667991382E+04  0.14669601082E+04  0.10000000000E+02 0. -1.
</event>
<event>
 5    1  0.1068111E-008  0.3857506E+03  0.7957747E-01  0.3426495E+00
         13   -1    0    0    0    0  0.00000000000E+00  0.00000000000E+00  0.14999999963E+04  0.15000000000E+04  0.10566000000E+00 0.  1.
        994   -1    0    0    0    0 -0.00000000000E+00 -0.00000000000E+00  0.11368683772E-12  0.17120000000E+03  0.17120000000E+03 0.  0.
         13    1    1    2    0    0 -0.13076859451E+02  0.33091767590E+01  0.70577245905E+02  0.71854809912E+02  0.10566000000E+00 0.  1.
        994    1    1    2    0    0  0.12617696890E+02 -0.42823672008E+01  0.18406017591E+01  0.17172761210E+03  0.17120000000E+03 0.  0.
        998    1    1    2    0    0  0.45916256066E+00  0.97319044179E+00  0.14275821486E+04  0.14276175780E+04  0.10000000000E+02 0.  1.
</event>
<event>
 5    1  0.1068111E-008  0.3812647E+03  0.7957747E-01  0.3445670E+00
         13   -1    0    0    0    0  0.00000000000E+00  0.00000000000E+00  0.14999999963E+04  0.15000000000E+04  0.10566000000E+00 0. -1.
        994   -1    0    0    0    0 -0.00000000000E+00 -0.00000000000E+00  0.11368683772E-12  0.17120000000E+03  0.17120000000E+03 0.  0.
         13    1    1    2    0    0  0.23461637985E+01 -0.37249851479E+02  0.21957057379E+03  0.22272023698E+03  0.10566000000E+00 0. -1.
        994    1    1    2    0    0 -0.10814272052E+02  0.90552078729E+01  0.41586842949E+01  0.17183038126E+03  0.17120000000E+03 0.  0.
        998    1    1    2    0    0  0.84681082539E+01  0.28194643606E+02  0.12762707382E+04  0.12766493818E+04  0.10000000000E+02 0. -1.
</event>
<event>
 5    1  0.1068111E-008  0.3845250E+03  0.7957747E-01  0.3431689E+00
         13   -1    0    0    0    0  0.00000000000E+00  0.00000000000E+00  0.14999999963E+04  0.15000000000E+04  0.10566000000E+00 0. -1.
        994   -1    0    0    0    0 -0.00000000000E+00 -0.00000000000E+00  0.11368683772E-12  0.17120000000E+03  0.17120000000E+03 0.  0.
         13    1    1    2    0    0 -0.10857552138E+02  0.91410024766E+01  0.52953497388E+02  0.54822699809E+02  0.10566000000E+00 0. -1.
        994    1    1    2    0    0  0.75963737244E+01 -0.97637232529E+01  0.23703557098E+01  0.17166273262E+03  0.17120000000E+03 0.  0.
        998    1    1    2    0    0  0.32611784137E+01  0.62272077632E+00  0.14446761432E+04  0.14447145676E+04  0.10000000000E+02 0. -1.
</event>
<event>
 5    1  0.1068111E-008  0.3817101E+03  0.7957747E-01  0.3443746E+00
         13   -1    0    0    0    0  0.00000000000E+00  0.00000000000E+00  0.14999999963E+04  0.15000000000E+04  0.10566000000E+00 0. -1.
        994   -1    0    0    0    0 -0.00000000000E+00 -0.00000000000E+00  0.11368683772E-12  0.17120000000E+03  0.17120000000E+03 0.  0.
         13    1    1    2    0    0 -0.27689305904E+01 -0.26225501605E+02  0.11632255313E+03  0.11927443750E+03  0.10566000000E+00 0. -1.
        994    1    1    2    0    0  0.80154515551E+01 -0.82970464055E+00  0.34882580571E+01  0.17142503848E+03  0.17120000000E+03 0.  0.
        998    1    1    2    0    0 -0.52465209647E+01  0.27055206246E+02  0.13801891851E+04  0.13805005240E+04  0.10000000000E+02 0. -1.
</event>
<event>
 5    1  0.1068111E-008  0.3849855E+03  0.7957747E-01  0.3429734E+00
         13   -1    0    0    0    0  0.00000000000E+00  0.00000000000E+00  0.14999999963E+04  0.15000000000E+04  0.10566000000E+00 0.  1.
        994   -1    0    0    0    0 -0.00000000000E+00 -0.00000000000E+00  0.11368683772E-12  0.17120000000E+03  0.17120000000E+03 0.  0.
         13    1    1    2    0    0 -0.88903323557E+01 -0.14295227374E+02  0.80246655052E+02  0.81993465265E+02  0.10566000000E+00 0.  1.
        994    1    1    2    0    0  0.19282018597E+02  0.13919179337E+02  0.34995078847E+01  0.17287922475E+03  0.17120000000E+03 0.  0.
        998    1    1    2    0    0 -0.10391686241E+02  0.37604803691E+00  0.14162538333E+04  0.14163273100E+04  0.10000000000E+02 0.  1.
</event>
<event>
 5    1  0.1068111E-008  0.3854299E+03  0.7957747E-01  0.3427851E+00
         13   -1    0    0    0    0  0.00000000000E+00  0.00000000000E+00  0.14999999963E+04  0.15000000000E+04  0.10566000000E+00 0. -1.
        994   -1    0    0    0    0 -0.00000000000E+00 -0.00000000000E+00  0.11368683772E-12  0.17120000000E+03  0.17120000000E+03 0.  0.
         13    1    1    2    0    0 -0.42615857445E+01 -0.12445772384E+02  0.57070651659E+02  0.58567301527E+02  0.10566000000E+00 0. -1.
        994    1    1    2    0    0  0.49621629735E+01  0.19682030179E+02  0.27710703001E+01  0.17242135658E+03  0.17120000000E+03 0.  0.
        998    1    1    2    0    0 -0.70057722898E+00 -0.72362577950E+01  0.14401582743E+04  0.14402113419E+04  0.10000000000E+02 0. -1.
</event>
<event>
 5    1  0.2214117E-008  0.3854688E+03  0.7957747E-01  0.3427686E+00
         13   -1    0    0    0    0  0.00000000000E+00  0.00000000000E+00  0.14999999963E+04  0.15000000000E+04  0.10566000000E+00 0. -1.
        994   -1    0    0    0    0 -0.00000000000E+00 -0.00000000000E+00  0.11368683772E-12  0.17120000000E+03  0.17120000000E+03 0.  0.
         13    1    1    2    0    0 -0.26267305619E+01 -0.12655755185E+02  0.59618563072E+02  0.61003705457E+02  0.10566000000E+00 0. -1.
        994    1    1    2    0    0  0.78356927359E+00  0.97464162265E+01  0.17115538301E+01  0.17148753898E+03  0.17120000000E+03 0.  0.
        998    1    1    2    0    0  0.18431612883E+01  0.29093389590E+01  0.14386698794E+04  0.14387087556E+04  0.10000000000E+02 0. -1.
</event>
<event>
 5    1  0.1068111E-008  0.3844733E+03  0.7957747E-01  0.3431909E+00
         13   -1    0    0    0    0  0.00000000000E+00  0.00000000000E+00  0.14999999963E+04  0.15000000000E+04  0.10566000000E+00 0. -1.
        994   -1    0    0    0    0 -0.00000000000E+00 -0.00000000000E+00  0.11368683772E-12  0.17120000000E+03  0.17120000000E+03 0.  0.
         13    1    1    2    0    0 -0.12180072283E+02 -0.17485884019E+01  0.39061689800E+02  0.40954102313E+02  0.10566000000E+00 0. -1.
        994    1    1    2    0    0  0.11477555973E+02  0.17076768991E+01  0.23355556427E+01  0.17160869812E+03  0.17120000000E+03 0.  0.
        998    1    1    2    0    0  0.70251631011E+00  0.40911502828E-01  0.14586027508E+04  0.14586371996E+04  0.10000000000E+02 0. -1.
</event>
<event>
 5    1  0.1142888E-008  0.3854816E+03  0.7957747E-01  0.3427632E+00
         13   -1    0    0    0    0  0.00000000000E+00  0.00000000000E+00  0.14999999963E+04  0.15000000000E+04  0.10566000000E+00 0. -1.
        994   -1    0    0    0    0 -0.00000000000E+00 -0.00000000000E+00  0.11368683772E-12  0.17120000000E+03  0.17120000000E+03 0.  0.
         13    1    1    2    0    0  0.73897609734E+01  0.15336933349E+02  0.98126783524E+02  0.99592705057E+02  0.10566000000E+00 0. -1.
        994    1    1    2    0    0 -0.38010958637E+01 -0.18909168176E+02  0.26136740712E+01  0.17230286203E+03  0.17120000000E+03 0.  0.
        998    1    1    2    0    0 -0.35886651097E+01  0.35722348273E+01  0.13992595387E+04  0.13993044329E+04  0.10000000000E+02 0. -1.
</event>
<event>
 5    1  0.1068111E-008  0.3840932E+03  0.7957747E-01  0.3433527E+00
         13   -1    0    0    0    0  0.00000000000E+00  0.00000000000E+00  0.14999999963E+04  0.15000000000E+04  0.10566000000E+00 0. -1.
        994   -1    0    0    0    0 -0.00000000000E+00 -0.00000000000E+00  0.11368683772E-12  0.17120000000E+03  0.17120000000E+03 0.  0.
         13    1    1    2    0    0  0.13495663992E+02 -0.48994514518E+01  0.52230744059E+02  0.54168250481E+02  0.10566000000E+00 0. -1.
        994    1    1    2    0    0  0.35883606725E+00 -0.62934860197E+01  0.22121052076E+01  0.17133029545E+03  0.17120000000E+03 0.  0.
        998    1    1    2    0    0 -0.13854500059E+02  0.11192937472E+02  0.14455571470E+04  0.14457014541E+04  0.10000000000E+02 0. -1.
</event>
<event>
 5    1  0.1068111E-008  0.3739529E+03  0.7957747E-01  0.3477919E+00
         13   -1    0    0    0    0  0.00000000000E+00  0.00000000000E+00  0.14999999963E+04  0.15000000000E+04  0.10566000000E+00 0. -1.
        994   -1    0    0    0    0 -0.00000000000E+00 -0.00000000000E+00  0.11368683772E-12  0.17120000000E+03  0.17120000000E+03 0.  0.
         13    1    1    2    0    0 -0.46526965804E+02  0.21545574775E+02  0.88927898546E+02  0.10265063391E+03  0.10566000000E+00 0. -1.
        994    1    1    2    0    0  0.34375590433E+02 -0.62553013699E+02  0.31332664958E+02  0.18811096894E+03  0.17120000000E+03 0.  0.
        998    1    1    2    0    0  0.12151375370E+02  0.41007438924E+02  0.13797394328E+04  0.13804383971E+04  0.10000000000E+02 0. -1.
</event>
<event>
 5    1  0.1068111E-008  0.3857528E+03  0.7957747E-01  0.3426486E+00
         13   -1    0    0    0    0  0.00000000000E+00  0.00000000000E+00  0.14999999963E+04  0.15000000000E+04  0.10566000000E+00 0. -1.
        994   -1    0    0    0    0 -0.00000000000E+00 -0.00000000000E+00  0.11368683772E-12  0.17120000000E+03  0.17120000000E+03 0.  0.
         13    1    1    2    0    0  0.12687154105E+02  0.55728644709E+00  0.65151289474E+02  0.66377527309E+02  0.10566000000E+00 0. -1.
        994    1    1    2    0    0 -0.73088156205E+01 -0.31745782364E+01  0.14652044227E+01  0.17139160877E+03  0.17120000000E+03 0.  0.
        998    1    1    2    0    0 -0.53783384848E+01  0.26172917893E+01  0.14333835024E+04  0.14334308639E+04  0.10000000000E+02 0. -1.
</event>
<event>
 5    1  0.1068111E-008  0.3840498E+03  0.7957747E-01  0.3433712E+00
         13   -1    0    0    0    0  0.00000000000E+00  0.00000000000E+00  0.14999999963E+04  0.15000000000E+04  0.10566000000E+00 0. -1.
        994   -1    0    0    0    0 -0.00000000000E+00 -0.00000000000E+00  0.11368683772E-12  0.17120000000E+03  0.17120000000E+03 0.  0.
         13    1    1    2    0    0  0.64354972528E+01  0.84414361709E+01  0.25802611885E+02  0.27900885535E+02  0.10566000000E+00 0. -1.
        994    1    1    2    0    0 -0.42001776654E+02  0.17319768641E+02  0.89417384442E+01  0.17735139784E+03  0.17120000000E+03 0.  0.
        998    1    1    2    0    0  0.35566279401E+02 -0.25761204811E+02  0.14652556459E+04  0.14659477166E+04  0.10000000000E+02 0. -1.
</event>
<event>
 5    1  0.1068111E-008  0.3859856E+03  0.7957747E-01  0.3425503E+00
         13   -1    0    0    0    0  0.00000000000E+00  0.00000000000E+00  0.14999999963E+04  0.15000000000E+04  0.10566000000E+00 0.  1.
        994   -1    0    0    0    0 -0.00000000000E+00 -0.00000000000E+00  0.11368683772E-12  0.17120000000E+03  0.17120000000E+03 0.  0.
         13    1    1    2    0    0 -0.64096213335E+01  0.88190648036E+01  0.56771880560E+02  0.57809313575E+02  0.10566000000E+00 0.  1.
        994    1    1    2    0    0 -0.50315233298E+01  0.29594619660E+00  0.12248526411E+01  0.17127855696E+03  0.17120000000E+03 0.  0.
        998    1    1    2    0    0  0.11441144663E+02 -0.91150110002E+01  0.14420032631E+04  0.14421121295E+04  0.10000000000E+02 0.  1.
</event>
<event>
 5    1  0.1068111E-008  0.3832744E+03  0.7957747E-01  0.3437024E+00
         13   -1    0    0    0    0  0.00000000000E+00  0.00000000000E+00  0.14999999963E+04  0.15000000000E+04  0.10566000000E+00 0. -1.
        994   -1    0    0    0    0 -0.00000000000E+00 -0.00000000000E+00  0.11368683772E-12  0.17120000000E+03  0.17120000000E+03 0.  0.
         13    1    1    2    0    0 -0.87211931439E+01  0.10491592304E+02  0.36672140926E+02  0.39127864791E+02  0.10566000000E+00 0. -1.
        994    1    1    2    0    0  0.97465186035E+01 -0.34317246730E+01  0.28424792509E+01  0.17153510150E+03  0.17120000000E+03 0.  0.
        998    1    1    2    0    0 -0.10253254596E+01 -0.70598676312E+01  0.14604853761E+04  0.14605370337E+04  0.10000000000E+02 0. -1.
</event>
<event>
 5    1  0.1068111E-008  0.3835504E+03  0.7957747E-01  0.3435844E+00
         13   -1    0    0    0    0  0.00000000000E+00  0.00000000000E+00  0.14999999963E+04  0.15000000000E+04  0.10566000000E+00 0.  1.
        994   -1    0    0    0    0 -0.00000000000E+00 -0.00000000000E+00  0.11368683772E-12  0.17120000000E+03  0.17120000000E+03 0.  0.
         13    1    1    2    0    0 -0.26431148568E+02 -0.16294794648E+02  0.18043136372E+03  0.18308362604E+03  0.10566000000E+00 0.  1.
        994    1    1    2    0    0  0.29712908810E+02  0.13555666290E+02  0.58838341616E+01  0.17438656067E+03  0.17120000000E+03 0.  0.
        998    1    1    2    0    0 -0.32817602421E+01  0.27391283575E+01  0.13136847984E+04  0.13137298133E+04  0.10000000000E+02 0.  1.
</event>
<event>
 5    1  0.1068111E-008  0.3838751E+03  0.7957747E-01  0.3434457E+00
         13   -1    0    0    0    0  0.00000000000E+00  0.00000000000E+00  0.14999999963E+04  0.15000000000E+04  0.10566000000E+00 0. -1.
        994   -1    0    0    0    0 -0.00000000000E+00 -0.00000000000E+00  0.11368683772E-12  0.17120000000E+03  0.17120000000E+03 0.  0.
         13    1    1    2    0    0 -0.73025826179E+01 -0.11959553682E+02  0.42863353342E+02  0.45095863013E+02  0.10566000000E+00 0. -1.
        994    1    1    2    0    0  0.15349513486E+02  0.10156988618E+02  0.33086310405E+01  0.17221834694E+03  0.17120000000E+03 0.  0.
        998    1    1    2    0    0 -0.80469308679E+01  0.18025650639E+01  0.14538280119E+04  0.14538857901E+04  0.10000000000E+02 0. -1.
</event>
<event>
 5    1  0.1068111E-008  0.3701123E+03  0.7957747E-01  0.3495375E+00
         13   -1    0    0    0    0  0.00000000000E+00  0.00000000000E+00  0.14999999963E+04  0.15000000000E+04  0.10566000000E+00 0. -1.
        994   -1    0    0    0    0 -0.00000000000E+00 -0.00000000000E+00  0.11368683772E-12  0.17120000000E+03  0.17120000000E+03 0.  0.
         13    1    1    2    0    0 -0.11628170537E+02  0.98641786403E+02  0.31872686246E+03  0.33384463511E+03  0.10566000000E+00 0. -1.
        994    1    1    2    0    0  0.62339157702E+02 -0.10688841156E+03  0.66646630480E+02  0.22150060149E+03  0.17120000000E+03 0.  0.
        998    1    1    2    0    0 -0.50710987165E+02  0.82466251545E+01  0.11146265033E+04  0.11158547634E+04  0.10000000000E+02 0. -1.
</event>
<event>
 5    1  0.1068111E-008  0.3854693E+03  0.7957747E-01  0.3427684E+00
         13   -1    0    0    0    0  0.00000000000E+00  0.00000000000E+00  0.14999999963E+04  0.15000000000E+04  0.10566000000E+00 0.  1.
        994   -1    0    0    0    0 -0.00000000000E+00 -0.00000000000E+00  0.11368683772E-12  0.17120000000E+03  0.17120000000E+03 0.  0.
         13    1    1    2    0    0 -0.11576337164E+02 -0.48258192967E+01  0.52671729767E+02  0.54144458578E+02  0.10566000000E+00 0.  1.
        994    1    1    2    0    0  0.24230198149E+02 -0.54518957776E+01  0.34253797692E+01  0.17302600642E+03  0.17120000000E+03 0.  0.
        998    1    1    2    0    0 -0.12653860985E+02  0.10277715074E+02  0.14439028867E+04  0.14440295350E+04  0.10000000000E+02 0.  1.
</event>
<event>
 5    1  0.1068111E-008  0.3771711E+03  0.7957747E-01  0.3463569E+00
         13   -1    0    0    0    0  0.00000000000E+00  0.00000000000E+00  0.14999999963E+04  0.15000000000E+04  0.10566000000E+00 0. -1.
        994   -1    0    0    0    0 -0.00000000000E+00 -0.00000000000E+00  0.11368683772E-12  0.17120000000E+03  0.17120000000E+03 0.  0.
         13    1    1    2    0    0  0.16947036049E+02  0.56785026925E+02  0.14266575681E+03  0.15448388473E+03  0.10566000000E+00 0. -1.
        994    1    1    2    0    0  0.57302448152E+01  0.21428075432E+02  0.16548355268E+02  0.17342227707E+03  0.17120000000E+03 0.  0.
        998    1    1    2    0    0 -0.22677280865E+02 -0.78213102357E+02  0.13407858842E+04  0.13432938382E+04  0.10000000000E+02 0. -1.
</event>
<event>
 5    1  0.1068111E-008  0.3848460E+03  0.7957747E-01  0.3430326E+00
         13   -1    0    0    0    0  0.00000000000E+00  0.00000000000E+00  0.14999999963E+04  0.15000000000E+04  0.10566000000E+00 0.  1.
        994   -1    0    0    0    0 -0.00000000000E+00 -0.00000000000E+00  0.11368683772E-12  0.17120000000E+03  0.17120000000E+03 0.  0.
         13    1    1    2    0    0 -0.35193087089E+01 -0.13063046474E+02  0.63408990446E+02  0.64836254907E+02  0.10566000000E+00 0.  1.
        994    1    1    2    0    0 -0.19574610673E+02 -0.12923898973E+02  0.35190049712E+01  0.17283522773E+03  0.17120000000E+03 0.  0.
        998    1    1    2    0    0  0.23093919382E+02  0.25986945447E+02  0.14330720009E+04  0.14335285174E+04  0.10000000000E+02 0.  1.
</event>
<event>
 5    1  0.1068111E-008  0.3719223E+03  0.7957747E-01  0.3487103E+00
         13   -1    0    0    0    0  0.00000000000E+00  0.00000000000E+00  0.14999999963E+04  0.15000000000E+04  0.10566000000E+00 0.  1.
        994   -1    0    0    0    0 -0.00000000000E+00 -0.00000000000E+00  0.11368683772E-12  0.17120000000E+03  0.17120000000E+03 0.  0.
         13    1    1    2    0    0 -0.41986535915E+02  0.50685473747E+02  0.17144245330E+03  0.18364207689E+03  0.10566000000E+00 0.  1.
        994    1    1    2    0    0 -0.65658846645E+01 -0.68437585757E+02  0.28787330411E+02  0.18672162268E+03  0.17120000000E+03 0.  0.
        998    1    1    2    0    0  0.48552420579E+02  0.17752112010E+02  0.12997702126E+04  0.13008363004E+04  0.10000000000E+02 0.  1.
</event>
<event>
 5    1  0.1068111E-008  0.3751625E+03  0.7957747E-01  0.3472496E+00
         13   -1    0    0    0    0  0.00000000000E+00  0.00000000000E+00  0.14999999963E+04  0.15000000000E+04  0.10566000000E+00 0. -1.
        994   -1    0    0    0    0 -0.00000000000E+00 -0.00000000000E+00  0.11368683772E-12  0.17120000000E+03  0.17120000000E+03 0.  0.
         13    1    1    2    0    0 -0.60450766613E+02  0.84474593280E+02  0.55850401735E+03  0.56808186088E+03  0.10566000000E+00 0. -1.
        994    1    1    2    0    0  0.47790899940E+02 -0.82902314978E+02  0.38369238455E+02  0.19984594668E+03  0.17120000000E+03 0.  0.
        998    1    1    2    0    0  0.12659866673E+02 -0.15722783012E+01  0.90312674047E+03  0.90327219244E+03  0.10000000000E+02 0. -1.
</event>
<event>
 5    1  0.1068111E-008  0.3722674E+03  0.7957747E-01  0.3485535E+00
         13   -1    0    0    0    0  0.00000000000E+00  0.00000000000E+00  0.14999999963E+04  0.15000000000E+04  0.10566000000E+00 0.  1.
        994   -1    0    0    0    0 -0.00000000000E+00 -0.00000000000E+00  0.11368683772E-12  0.17120000000E+03  0.17120000000E+03 0.  0.
         13    1    1    2    0    0 -0.19176420824E+00  0.23553865222E+02  0.31439384385E+02  0.39284442149E+02  0.10566000000E+00 0.  1.
        994    1    1    2    0    0  0.50344672948E+01 -0.10516405856E+02  0.85552381965E+01  0.17180969924E+03  0.17120000000E+03 0.  0.
        998    1    1    2    0    0 -0.48427030866E+01 -0.13037459366E+02  0.14600053737E+04  0.14601058586E+04  0.10000000000E+02 0.  1.
</event>
<event>
 5    1  0.1068111E-008  0.3795582E+03  0.7957747E-01  0.3453084E+00
         13   -1    0    0    0    0  0.00000000000E+00  0.00000000000E+00  0.14999999963E+04  0.15000000000E+04  0.10566000000E+00 0.  1.
        994   -1    0    0    0    0 -0.00000000000E+00 -0.00000000000E+00  0.11368683772E-12  0.17120000000E+03  0.17120000000E+03 0.  0.
         13    1    1    2    0    0 -0.25455847741E+02 -0.15373374843E+01  0.69407925685E+02  0.73944809843E+02  0.10566000000E+00 0.  1.
        994    1    1    2    0    0  0.28367638967E+02 -0.14291531746E+01  0.70619119737E+01  0.17368383926E+03  0.17120000000E+03 0.  0.
        998    1    1    2    0    0 -0.29117912263E+01  0.29664906589E+01  0.14235301586E+04  0.14235713509E+04  0.10000000000E+02 0.  1.
</event>
<event>
 5    1  0.1068111E-008  0.3829560E+03  0.7957747E-01  0.3438387E+00
         13   -1    0    0    0    0  0.00000000000E+00  0.00000000000E+00  0.14999999963E+04  0.15000000000E+04  0.10566000000E+00 0.  1.
        994   -1    0    0    0    0 -0.00000000000E+00 -0.00000000000E+00  0.11368683772E-12  0.17120000000E+03  0.17120000000E+03 0.  0.
         13    1    1    2    0    0  0.36266632909E+02  0.80817931065E+01  0.21128703646E+03  0.21452926836E+03  0.10566000000E+00 0.  1.
        994    1    1    2    0    0 -0.42826916297E+02 -0.12496248067E+02  0.92655297452E+01  0.17715978950E+03  0.17120000000E+03 0.  0.
        998    1    1    2    0    0  0.65602833880E+01  0.44144549601E+01  0.12794474301E+04  0.12795109421E+04  0.10000000000E+02 0.  1.
</event>
<event>
 5    1  0.1068111E-008  0.3840649E+03  0.7957747E-01  0.3433648E+00
         13   -1    0    0    0    0  0.00000000000E+00  0.00000000000E+00  0.14999999963E+04  0.15000000000E+04  0.10566000000E+00 0. -1.
        994   -1    0    0    0    0 -0.00000000000E+00 -0.00000000000E+00  0.11368683772E-12  0.17120000000E+03  0.17120000000E+03 0.  0.
         13    1    1    2    0    0  0.22294761052E+02 -0.12520940665E+02  0.14681011817E+03  0.14902030830E+03  0.10566000000E+00 0. -1.
        994    1    1    2    0    0 -0.12365319971E+02  0.24477666896E+02  0.45798068345E+01  0.17344299336E+03  0.17120000000E+03 0.  0.
        998    1    1    2    0    0 -0.99294410812E+01 -0.11956726231E+02  0.13486100713E+04  0.13487366983E+04  0.10000000000E+02 0. -1.
</event>
<event>
 5    1  0.1068111E-008  0.3839154E+03  0.7957747E-01  0.3434285E+00
         13   -1    0    0    0    0  0.00000000000E+00  0.00000000000E+00  0.14999999963E+04  0.15000000000E+04  0.10566000000E+00 0. -1.
        994   -1    0    0    0    0 -0.00000000000E+00 -0.00000000000E+00  0.11368683772E-12  0.17120000000E+03  0.17120000000E+03 0.  0.
         13    1    1    2    0    0  0.15730590730E+02 -0.34716216712E+01  0.60919169842E+02  0.63013173702E+02  0.10566000000E+00 0. -1.
        994    1    1    2    0    0 -0.62586092167E+01 -0.20003940633E+01  0.23120806166E+01  0.17134163966E+03  0.17120000000E+03 0.  0.
        998    1    1    2    0    0 -0.94719815128E+01  0.54720157345E+01  0.14367687458E+04  0.14368451866E+04  0.10000000000E+02 0. -1.
</event>
<event>
 5    1  0.1068111E-008  0.3793359E+03  0.7957747E-01  0.3454055E+00
         13   -1    0    0    0    0  0.00000000000E+00  0.00000000000E+00  0.14999999963E+04  0.15000000000E+04  0.10566000000E+00 0. -1.
        994   -1    0    0    0    0 -0.00000000000E+00 -0.00000000000E+00  0.11368683772E-12  0.17120000000E+03  0.17120000000E+03 0.  0.
         13    1    1    2    0    0 -0.24848189125E+02 -0.23286001348E+02  0.14858109089E+03  0.15243366458E+03  0.10566000000E+00 0. -1.
        994    1    1    2    0    0  0.22266168963E+01 -0.74997595901E+01  0.46738108713E+01  0.17144237727E+03  0.17120000000E+03 0.  0.
        998    1    1    2    0    0  0.22621572229E+02  0.30785760938E+02  0.13467450945E+04  0.13473239582E+04  0.10000000000E+02 0. -1.
</event>
<event>
 5    1  0.1068111E-008  0.3838627E+03  0.7957747E-01  0.3434510E+00
         13   -1    0    0    0    0  0.00000000000E+00  0.00000000000E+00  0.14999999963E+04  0.15000000000E+04  0.10566000000E+00 0. -1.
        994   -1    0    0    0    0 -0.00000000000E+00 -0.00000000000E+00  0.11368683772E-12  0.17120000000E+03  0.17120000000E+03 0.  0.
         13    1    1    2    0    0  0.61213113938E+01 -0.10417608800E+02  0.33276617890E+02  0.35402563305E+02  0.10566000000E+00 0. -1.
        994    1    1    2    0    0  0.87768340130E+00  0.44847362353E+01  0.22647793072E+01  0.17127595398E+03  0.17120000000E+03 0.  0.
        998    1    1    2    0    0 -0.69989947951E+01  0.59328725647E+01  0.14644585991E+04  0.14645214827E+04  0.10000000000E+02 0. -1.
</event>
<event>
 5    1  0.1068111E-008  0.2494715E+03  0.7957747E-01  0.4339225E+00
         13   -1    0    0    0    0  0.00000000000E+00  0.00000000000E+00  0.14999999963E+04  0.15000000000E+04  0.10566000000E+00 0.  1.
        994   -1    0    0    0    0 -0.00000000000E+00 -0.00000000000E+00  0.11368683772E-12  0.17120000000E+03  0.17120000000E+03 0.  0.
         13    1    1    2    0    0 -0.16586353039E+03 -0.10725325212E+03  0.37339301439E+03  0.42241724061E+03  0.10566000000E+00 0.  1.
        994    1    1    2    0    0  0.10691864604E+03  0.42550497972E+02  0.12064421813E+03  0.23896989165E+03  0.17120000000E+03 0.  0.
        998    1    1    2    0    0  0.58944884351E+02  0.64702754144E+02  0.10059627638E+04  0.10098128677E+04  0.10000000000E+02 0. -1.
</event>
<event>
 5    1  0.1068111E-008  0.3764576E+03  0.7957747E-01  0.3466729E+00
         13   -1    0    0    0    0  0.00000000000E+00  0.00000000000E+00  0.14999999963E+04  0.15000000000E+04  0.10566000000E+00 0. -1.
        994   -1    0    0    0    0 -0.00000000000E+00 -0.00000000000E+00  0.11368683772E-12  0.17120000000E+03  0.17120000000E+03 0.  0.
         13    1    1    2    0    0 -0.11971707712E+03  0.75793649279E+02  0.84707758736E+03  0.85884649734E+03  0.10566000000E+00 0. -1.
        994    1    1    2    0    0  0.92043171152E+02 -0.13079249845E+03  0.98027015435E+02  0.25396330200E+03  0.17120000000E+03 0.  0.
        998    1    1    2    0    0  0.27673905971E+02  0.54998849172E+02  0.55489539349E+03  0.55839020066E+03  0.10000000000E+02 0.  1.
</event>
<event>
 5    1  0.1068111E-008  0.3860228E+03  0.7957747E-01  0.3425346E+00
         13   -1    0    0    0    0  0.00000000000E+00  0.00000000000E+00  0.14999999963E+04  0.15000000000E+04  0.10566000000E+00 0.  1.
        994   -1    0    0    0    0 -0.00000000000E+00 -0.00000000000E+00  0.11368683772E-12  0.17120000000E+03  0.17120000000E+03 0.  0.
         13    1    1    2    0    0  0.60818643308E+00 -0.12270163367E+02  0.64076618086E+02  0.65243780923E+02  0.10566000000E+00 0.  1.
        994    1    1    2    0    0  0.89555262151E+01  0.16772376835E+02  0.23090675998E+01  0.17226806398E+03  0.17120000000E+03 0.  0.
        998    1    1    2    0    0 -0.95637126482E+01 -0.45022134671E+01  0.14336143106E+04  0.14336881551E+04  0.10000000000E+02 0.  1.
</event>
<event>
 5    1  0.1068111E-008  0.3738176E+03  0.7957747E-01  0.3478528E+00
         13   -1    0    0    0    0  0.00000000000E+00  0.00000000000E+00  0.14999999963E+04  0.15000000000E+04  0.10566000000E+00 0. -1.
        994   -1    0    0    0    0 -0.00000000000E+00 -0.00000000000E+00  0.11368683772E-12  0.17120000000E+03  0.17120000000E+03 0.  0.
         13    1    1    2    0    0 -0.27686655263E+02  0.11672137875E+03  0.39469610485E+03  0.41252328114E+03  0.10566000000E+00 0. -1.
        994    1    1    2    0    0  0.25950316690E+02 -0.11685008634E+03  0.65641611056E+02  0.21896488923E+03  0.17120000000E+03 0.  0.
        998    1    1    2    0    0  0.17363385737E+01  0.12870759329E+00  0.10396622804E+04  0.10397118296E+04  0.10000000000E+02 0.  0.
</event>
<event>
 5    1  0.1068111E-008  0.3511182E+03  0.7957747E-01  0.3587439E+00
         13   -1    0    0    0    0  0.00000000000E+00  0.00000000000E+00  0.14999999963E+04  0.15000000000E+04  0.10566000000E+00 0. -1.
        994   -1    0    0    0    0 -0.00000000000E+00 -0.00000000000E+00  0.11368683772E-12  0.17120000000E+03  0.17120000000E+03 0.  0.
         13    1    1    2    0    0  0.17804610663E+03  0.19329100184E+03  0.86089055334E+03  0.90010798434E+03  0.10566000000E+00 0. -1.
        994    1    1    2    0    0 -0.17340430753E+03 -0.20565091078E+03  0.32065155167E+03  0.45220372462E+03  0.17120000000E+03 0.  0.
        998    1    1    2    0    0 -0.46417990927E+01  0.12359908943E+02  0.31845789127E+03  0.31888829104E+03  0.10000000000E+02 0. -1.
</event>
<event>
 5    1  0.1068111E-008  0.3734335E+03  0.7957747E-01  0.3480258E+00
         13   -1    0    0    0    0  0.00000000000E+00  0.00000000000E+00  0.14999999963E+04  0.15000000000E+04  0.10566000000E+00 0.  1.
        994   -1    0    0    0    0 -0.00000000000E+00 -0.00000000000E+00  0.11368683772E-12  0.17120000000E+03  0.17120000000E+03 0.  0.
         13    1    1    2    0    0 -0.16589115192E+02  0.56924371242E+02  0.21001658310E+03  0.21822593596E+03  0.10566000000E+00 0.  1.
        994    1    1    2    0    0  0.32186515018E+02 -0.44983770367E+02  0.18013597520E+02  0.18081327673E+03  0.17120000000E+03 0.  0.
        998    1    1    2    0    0 -0.15597399825E+02 -0.11940600875E+02  0.12719698157E+04  0.12721607873E+04  0.10000000000E+02 0.  1.
</event>
<event>
 5    1  0.1068111E-008  0.3846083E+03  0.7957747E-01  0.3431335E+00
         13   -1    0    0    0    0  0.00000000000E+00  0.00000000000E+00  0.14999999963E+04  0.15000000000E+04  0.10566000000E+00 0.  1.
        994   -1    0    0    0    0 -0.00000000000E+00 -0.00000000000E+00  0.11368683772E-12  0.17120000000E+03  0.17120000000E+03 0.  0.
         13    1    1    2    0    0  0.11985173894E+02 -0.34757176441E+01  0.42258572909E+02  0.44062718422E+02  0.10566000000E+00 0.  1.
        994    1    1    2    0    0 -0.10485202780E+02 -0.36056429071E+01  0.22296587073E+01  0.17157316666E+03  0.17120000000E+03 0.  0.
        998    1    1    2    0    0 -0.14999711142E+01  0.70813605511E+01  0.14555117647E+04  0.14555641149E+04  0.10000000000E+02 0.  1.
</event>
<event>
 5    1  0.1068111E-008  0.3868463E+03  0.7957747E-01  0.3421879E+00
         13   -1    0    0    0    0  0.00000000000E+00  0.00000000000E+00  0.14999999963E+04  0.15000000000E+04  0.10566000000E+00 0.  1.
        994   -1    0    0    0    0 -0.00000000000E+00 -0.00000000000E+00  0.11368683772E-12  0.17120000000E+03  0.17120000000E+03 0.  0.
         13    1    1    2    0    0 -0.70799128781E+02  0.33757662131E+02  0.13578448383E+03  0.15681050220E+03  0.10566000000E+00 0.  1.
        994    1    1    2    0    0  0.65079390582E+02 -0.35278402256E+02  0.40807966389E+02  0.19093093742E+03  0.17120000000E+03 0.  0.
        998    1    1    2    0    0  0.57197381984E+01  0.15207401259E+01  0.13234075461E+04  0.13234585604E+04  0.10000000000E+02 0.  1.
</event>
<event>
 5    1  0.1068111E-008  0.3857242E+03  0.7957747E-01  0.3426607E+00
         13   -1    0    0    0    0  0.00000000000E+00  0.00000000000E+00  0.14999999963E+04  0.15000000000E+04  0.10566000000E+00 0. -1.
        994   -1    0    0    0    0 -0.00000000000E+00 -0.00000000000E+00  0.11368683772E-12  0.17120000000E+03  0.17120000000E+03 0.  0.
         13    1    1    2    0    0 -0.66943500775E+01 -0.84950406077E+01  0.45164741585E+02  0.46441846263E+02  0.10566000000E+00 0. -1.
        994    1    1    2    0    0  0.74546365795E+01  0.89290099807E+01  0.17150368436E+01  0.17160326389E+03  0.17120000000E+03 0.  0.
        998    1    1    2    0    0 -0.76028650204E+00 -0.43396937304E+00  0.14531202179E+04  0.14531548898E+04  0.10000000000E+02 0. -1.
</event>
<event>
 5    1  0.1068111E-008  0.3707207E+03  0.7957747E-01  0.3492585E+00
         13   -1    0    0    0    0  0.00000000000E+00  0.00000000000E+00  0.14999999963E+04  0.15000000000E+04  0.10566000000E+00 0.  1.
        994   -1    0    0    0    0 -0.00000000000E+00 -0.00000000000E+00  0.11368683772E-12  0.17120000000E+03  0.17120000000E+03 0.  0.
         13    1    1    2    0    0  0.31579851604E+01 -0.19825517709E+02  0.19374620381E+02  0.27900019742E+02  0.10566000000E+00 0.  1.
        994    1    1    2    0    0  0.59534994859E+01  0.34409522878E+01  0.90559850420E+01  0.17157719888E+03  0.17120000000E+03 0.  0.
        998    1    1    2    0    0 -0.91114846462E+01  0.16384565421E+02  0.14715693909E+04  0.14717227814E+04  0.10000000000E+02 0.  1.
</event>
<event>
 5    1  0.1068111E-008  0.3777900E+03  0.7957747E-01  0.3460838E+00
         13   -1    0    0    0    0  0.00000000000E+00  0.00000000000E+00  0.14999999963E+04  0.15000000000E+04  0.10566000000E+00 0. -1.
        994   -1    0    0    0    0 -0.00000000000E+00 -0.00000000000E+00  0.11368683772E-12  0.17120000000E+03  0.17120000000E+03 0.  0.
         13    1    1    2    0    0 -0.52018360357E+02  0.16414126077E+02  0.25071098468E+03  0.25657619210E+03  0.10566000000E+00 0. -1.
        994    1    1    2    0    0  0.34132230326E+02 -0.56381028756E+02  0.20023248104E+02  0.18453780105E+03  0.17120000000E+03 0.  0.
        998    1    1    2    0    0  0.17886130031E+02  0.39966902678E+02  0.12292657635E+04  0.12300860069E+04  0.10000000000E+02 0.  1.
</event>
<event>
 5    1  0.1068111E-008  0.3817453E+03  0.7957747E-01  0.3443594E+00
         13   -1    0    0    0    0  0.00000000000E+00  0.00000000000E+00  0.14999999963E+04  0.15000000000E+04  0.10566000000E+00 0.  1.
        994   -1    0    0    0    0 -0.00000000000E+00 -0.00000000000E+00  0.11368683772E-12  0.17120000000E+03  0.17120000000E+03 0.  0.
         13    1    1    2    0    0 -0.11895954836E+02 -0.65775604516E+01  0.31295631187E+02  0.34120459234E+02  0.10566000000E+00 0.  1.
        994    1    1    2    0    0 -0.13128808674E+02 -0.42823439637E+02  0.99517291017E+01  0.17724189548E+03  0.17120000000E+03 0.  0.
        998    1    1    2    0    0  0.25024763510E+02  0.49401000089E+02  0.14587526360E+04  0.14598376453E+04  0.10000000000E+02 0.  1.
</event>
<event>
 5    1  0.1068111E-008  0.3850912E+03  0.7957747E-01  0.3429285E+00
         13   -1    0    0    0    0  0.00000000000E+00  0.00000000000E+00  0.14999999963E+04  0.15000000000E+04  0.10566000000E+00 0. -1.
        994   -1    0    0    0    0 -0.00000000000E+00 -0.00000000000E+00  0.11368683772E-12  0.17120000000E+03  0.17120000000E+03 0.  0.
         13    1    1    2    0    0  0.18632295619E+02 -0.55710628423E+00  0.10958918620E+03  0.11116327498E+03  0.10566000000E+00 0. -1.
        994    1    1    2    0    0 -0.12209731486E+02 -0.51580460480E+01  0.21626657293E+01  0.17172594476E+03  0.17120000000E+03 0.  0.
        998    1    1    2    0    0 -0.64225641332E+01  0.57151523322E+01  0.13882481443E+04  0.13883107803E+04  0.10000000000E+02 0. -1.
</event>
<event>
 5    1  0.1068111E-008  0.3828242E+03  0.7957747E-01  0.3438953E+00
         13   -1    0    0    0    0  0.00000000000E+00  0.00000000000E+00  0.14999999963E+04  0.15000000000E+04  0.10566000000E+00 0. -1.
        994   -1    0    0    0    0 -0.00000000000E+00 -0.00000000000E+00  0.11368683772E-12  0.17120000000E+03  0.17120000000E+03 0.  0.
         13    1    1    2    0    0 -0.92572152838E+01 -0.13827735750E+02  0.50805089004E+02  0.53460925389E+02  0.10566000000E+00 0. -1.
        994    1    1    2    0    0  0.34550684213E+01  0.75000728061E+01  0.29401330341E+01  0.17142424850E+03  0.17120000000E+03 0.  0.
        998    1    1    2    0    0  0.58021468625E+01  0.63276629441E+01  0.14462547742E+04  0.14463148261E+04  0.10000000000E+02 0. -1.
</event>
<event>
 5    1  0.1068111E-008  0.3822287E+03  0.7957747E-01  0.3441511E+00
         13   -1    0    0    0    0  0.00000000000E+00  0.00000000000E+00  0.14999999963E+04  0.15000000000E+04  0.10566000000E+00 0.  1.
        994   -1    0    0    0    0 -0.00000000000E+00 -0.00000000000E+00  0.11368683772E-12  0.17120000000E+03  0.17120000000E+03 0.  0.
         13    1    1    2    0    0 -0.18608982383E+02  0.42909606347E+02  0.21360664129E+03  0.21866718298E+03  0.10566000000E+00 0.  1.
        994    1    1    2    0    0  0.79111782764E+02 -0.69611924659E+02  0.40782048768E+02  0.20512705752E+03  0.17120000000E+03 0.  0.
        998    1    1    2    0    0 -0.60502800380E+02  0.26702318313E+02  0.12456113062E+04  0.12474057595E+04  0.10000000000E+02 0.  1.
</event>
<event>
 5    1  0.1068111E-008  0.3853382E+03  0.7957747E-01  0.3428239E+00
         13   -1    0    0    0    0  0.00000000000E+00  0.00000000000E+00  0.14999999963E+04  0.15000000000E+04  0.10566000000E+00 0. -1.
        994   -1    0    0    0    0 -0.00000000000E+00 -0.00000000000E+00  0.11368683772E-12  0.17120000000E+03  0.17120000000E+03 0.  0.
         13    1    1    2    0    0 -0.99126595723E+01  0.45793215391E+01  0.41813381857E+02  0.43215750276E+02  0.10566000000E+00 0. -1.
        994    1    1    2    0    0  0.47491106608E+01  0.33599828432E+01  0.15735187252E+01  0.17130604046E+03  0.17120000000E+03 0.  0.
        998    1    1    2    0    0  0.51635489116E+01 -0.79393043823E+01  0.14566130957E+04  0.14566782093E+04  0.10000000000E+02 0. -1.
</event>
<event>
 5    1  0.1068111E-008  0.3861428E+03  0.7957747E-01  0.3424840E+00
         13   -1    0    0    0    0  0.00000000000E+00  0.00000000000E+00  0.14999999963E+04  0.15000000000E+04  0.10566000000E+00 0.  1.
        994   -1    0    0    0    0 -0.00000000000E+00 -0.00000000000E+00  0.11368683772E-12  0.17120000000E+03  0.17120000000E+03 0.  0.
         13    1    1    2    0    0 -0.73519915082E+01  0.12153259454E+02  0.83854467745E+02  0.85049023623E+02  0.10566000000E+00 0.  1.
        994    1    1    2    0    0  0.14645092184E+02 -0.20444642649E+02  0.31388350797E+01  0.17306575174E+03  0.17120000000E+03 0.  0.
        998    1    1    2    0    0 -0.72931006760E+01  0.82913831951E+01  0.14130066935E+04  0.14130852246E+04  0.10000000000E+02 0.  1.
</event>
<event>
 5    1  0.1068111E-008  0.2390789E+03  0.7957747E-01  0.4457371E+00
         13   -1    0    0    0    0  0.00000000000E+00  0.00000000000E+00  0.14999999963E+04  0.15000000000E+04  0.10566000000E+00 0.  1.
        994   -1    0    0    0    0 -0.00000000000E+00 -0.00000000000E+00  0.11368683772E-12  0.17120000000E+03  0.17120000000E+03 0.  0.
         13    1    1    2    0    0  0.65143568784E+02  0.14800754503E+03  0.20867633665E+03  0.26399951246E+03  0.10566000000E+00 0.  1.
        994    1    1    2    0    0 -0.67530632415E+02 -0.15141209097E+03  0.18726871516E+03  0.30309242696E+03  0.17120000000E+03 0.  0.
        998    1    1    2    0    0  0.23870636309E+01  0.34045459408E+01  0.11040549445E+04  0.11041080606E+04  0.10000000000E+02 0.  0.
</event>
<event>
 5    1  0.1068111E-008  0.3792347E+03  0.7957747E-01  0.3454498E+00
         13   -1    0    0    0    0  0.00000000000E+00  0.00000000000E+00  0.14999999963E+04  0.15000000000E+04  0.10566000000E+00 0. -1.
        994   -1    0    0    0    0 -0.00000000000E+00 -0.00000000000E+00  0.11368683772E-12  0.17120000000E+03  0.17120000000E+03 0.  0.
         13    1    1    2    0    0 -0.18000925096E+02 -0.21308568205E+02  0.81841413152E+02  0.86464538708E+02  0.10566000000E+00 0. -1.
        994    1    1    2    0    0  0.12485057913E+02  0.21262448268E+02  0.65601749303E+01  0.17309085554E+03  0.17120000000E+03 0.  0.
        998    1    1    2    0    0  0.55158671836E+01  0.46119937521E-01  0.14115984082E+04  0.14116446057E+04  0.10000000000E+02 0. -1.
</event>
<event>
 5    1  0.1068111E-008  0.3815473E+03  0.7957747E-01  0.3444449E+00
         13   -1    0    0    0    0  0.00000000000E+00  0.00000000000E+00  0.14999999963E+04  0.15000000000E+04  0.10566000000E+00 0.  1.
        994   -1    0    0    0    0 -0.00000000000E+00 -0.00000000000E+00  0.11368683772E-12  0.17120000000E+03  0.17120000000E+03 0.  0.
         13    1    1    2    0    0  0.66582983955E+01 -0.37693755421E+02  0.22460650674E+03  0.22784478525E+03  0.10566000000E+00 0.  1.
        994    1    1    2    0    0 -0.13537882972E+02  0.16370858124E+02  0.48564563550E+01  0.17258129806E+03  0.17120000000E+03 0.  0.
        998    1    1    2    0    0  0.68795845761E+01  0.21322897297E+02  0.12705370332E+04  0.12707739167E+04  0.10000000000E+02 0.  1.
</event>
<event>
 5    1  0.1068111E-008  0.3828514E+03  0.7957747E-01  0.3438836E+00
         13   -1    0    0    0    0  0.00000000000E+00  0.00000000000E+00  0.14999999963E+04  0.15000000000E+04  0.10566000000E+00 0. -1.
        994   -1    0    0    0    0 -0.00000000000E+00 -0.00000000000E+00  0.11368683772E-12  0.17120000000E+03  0.17120000000E+03 0.  0.
         13    1    1    2    0    0 -0.16532537282E+02 -0.68485970113E+01  0.60766363418E+02  0.63346587572E+02  0.10566000000E+00 0. -1.
        994    1    1    2    0    0  0.10047477679E+01  0.75696477547E+01  0.28937813360E+01  0.17139464127E+03  0.17120000000E+03 0.  0.
        998    1    1    2    0    0  0.15527789514E+02 -0.72105074334E+00  0.14363398515E+04  0.14364587712E+04  0.10000000000E+02 0. -1.
</event>
<event>
 5    1  0.1068111E-008  0.3841328E+03  0.7957747E-01  0.3433358E+00
         13   -1    0    0    0    0  0.00000000000E+00  0.00000000000E+00  0.14999999963E+04  0.15000000000E+04  0.10566000000E+00 0.  1.
        994   -1    0    0    0    0 -0.00000000000E+00 -0.00000000000E+00  0.11368683772E-12  0.17120000000E+03  0.17120000000E+03 0.  0.
         13    1    1    2    0    0 -0.20091184662E+02 -0.35232704296E+01  0.10125178759E+03  0.10328603385E+03  0.10566000000E+00 0.  1.
        994    1    1    2    0    0  0.11753985358E+02  0.15309925974E+01  0.25247854893E+01  0.17162842029E+03  0.17120000000E+03 0.  0.
        998    1    1    2    0    0  0.83371993037E+01  0.19922778321E+01  0.13962234232E+04  0.13962855459E+04  0.10000000000E+02 0.  1.
</event>
<event>
 5    1  0.1068111E-008  0.3729324E+03  0.7957747E-01  0.3482522E+00
         13   -1    0    0    0    0  0.00000000000E+00  0.00000000000E+00  0.14999999963E+04  0.15000000000E+04  0.10566000000E+00 0. -1.
        994   -1    0    0    0    0 -0.00000000000E+00 -0.00000000000E+00  0.11368683772E-12  0.17120000000E+03  0.17120000000E+03 0.  0.
         13    1    1    2    0    0  0.22932756467E+02 -0.48914781636E+02  0.12742686679E+03  0.13840586955E+03  0.10566000000E+00 0. -1.
        994    1    1    2    0    0  0.13145105452E+01  0.18955532180E+01  0.12516696148E+02  0.17167244608E+03  0.17120000000E+03 0.  0.
        998    1    1    2    0    0 -0.24247267012E+02  0.47019228418E+02  0.13600564333E+04  0.13611216844E+04  0.10000000000E+02 0. -1.
</event>
<event>
 5    1  0.1068111E-008  0.3742298E+03  0.7957747E-01  0.3476675E+00
         13   -1    0    0    0    0  0.00000000000E+00  0.00000000000E+00  0.14999999963E+04  0.15000000000E+04  0.10566000000E+00 0.  1.
        994   -1    0    0    0    0 -0.00000000000E+00 -0.00000000000E+00  0.11368683772E-12  0.17120000000E+03  0.17120000000E+03 0.  0.
         13    1    1    2    0    0 -0.42262583314E+01 -0.11126186224E+02  0.67318451403E+01  0.13674142840E+02  0.10566000000E+00 0.  1.
        994    1    1    2    0    0  0.78290180207E+01  0.94486867110E+01  0.75881042121E+01  0.17180684075E+03  0.17120000000E+03 0.  0.
        998    1    1    2    0    0 -0.36027596892E+01  0.16774995128E+01  0.14856800469E+04  0.14857190164E+04  0.10000000000E+02 0.  1.
</event>
<event>
 5    1  0.1068111E-008  0.3821113E+03  0.7957747E-01  0.3442017E+00
         13   -1    0    0    0    0  0.00000000000E+00  0.00000000000E+00  0.14999999963E+04  0.15000000000E+04  0.10566000000E+00 0.  1.
        994   -1    0    0    0    0 -0.00000000000E+00 -0.00000000000E+00  0.11368683772E-12  0.17120000000E+03  0.17120000000E+03 0.  0.
         13    1    1    2    0    0  0.16977387186E+02  0.10391236257E+02  0.66306663813E+02  0.69230010087E+02  0.10566000000E+00 0.  1.
        994    1    1    2    0    0  0.14109304389E+01 -0.97508580206E+01  0.33934757216E+01  0.17151683776E+03  0.17120000000E+03 0.  0.
        998    1    1    2    0    0 -0.18388317625E+02 -0.64037823679E+00  0.14302998567E+04  0.14304531522E+04  0.10000000000E+02 0.  1.
</event>
<event>
 5    1  0.1068111E-008  0.3840967E+03  0.7957747E-01  0.3433512E+00
         13   -1    0    0    0    0  0.00000000000E+00  0.00000000000E+00  0.14999999963E+04  0.15000000000E+04  0.10566000000E+00 0.  1.
        994   -1    0    0    0    0 -0.00000000000E+00 -0.00000000000E+00  0.11368683772E-12  0.17120000000E+03  0.17120000000E+03 0.  0.
         13    1    1    2    0    0 -0.58895064866E+01 -0.91697899263E+01  0.26841294661E+02  0.28969597806E+02  0.10566000000E+00 0.  1.
        994    1    1    2    0    0  0.13922955526E+02  0.12985929289E+02  0.32757664290E+01  0.17228654531E+03  0.17120000000E+03 0.  0.
        998    1    1    2    0    0 -0.80334490393E+01 -0.38161393625E+01  0.14698829352E+04  0.14699438569E+04  0.10000000000E+02 0.  1.
</event>
<event>
 5    1  0.1068111E-008  0.3798421E+03  0.7957747E-01  0.3451846E+00
         13   -1    0    0    0    0  0.00000000000E+00  0.00000000000E+00  0.14999999963E+04  0.15000000000E+04  0.10566000000E+00 0.  1.
        994   -1    0    0    0    0 -0.00000000000E+00 -0.00000000000E+00  0.11368683772E-12  0.17120000000E+03  0.17120000000E+03 0.  0.
         13    1    1    2    0    0  0.80504193277E+01  0.32253743417E+02  0.14108893454E+03  0.14495244678E+03  0.10566000000E+00 0.  1.
        994    1    1    2    0    0 -0.22466738511E+02 -0.11533918105E+01  0.59073690573E+01  0.17277274571E+03  0.17120000000E+03 0.  0.
        998    1    1    2    0    0  0.14416319183E+02 -0.31100351607E+02  0.13530036927E+04  0.13534748075E+04  0.10000000000E+02 0.  1.
</event>
<event>
 5    1  0.1068111E-008  0.3796034E+03  0.7957747E-01  0.3452887E+00
         13   -1    0    0    0    0  0.00000000000E+00  0.00000000000E+00  0.14999999963E+04  0.15000000000E+04  0.10566000000E+00 0.  1.
        994   -1    0    0    0    0 -0.00000000000E+00 -0.00000000000E+00  0.11368683772E-12  0.17120000000E+03  0.17120000000E+03 0.  0.
         13    1    1    2    0    0  0.17856688396E+02 -0.94341862018E+01  0.43999316288E+02  0.48412975405E+02  0.10566000000E+00 0.  1.
        994    1    1    2    0    0 -0.16018357848E+02  0.17482603066E+02  0.62176761782E+01  0.17294602827E+03  0.17120000000E+03 0.  0.
        998    1    1    2    0    0 -0.18383305477E+01 -0.80484168638E+01  0.14497830038E+04  0.14498409963E+04  0.10000000000E+02 0.  1.
</event>
<event>
 5    1  0.1068111E-008  0.3772647E+03  0.7957747E-01  0.3463156E+00
         13   -1    0    0    0    0  0.00000000000E+00  0.00000000000E+00  0.14999999963E+04  0.15000000000E+04  0.10566000000E+00 0. -1.
        994   -1    0    0    0    0 -0.00000000000E+00 -0.00000000000E+00  0.11368683772E-12  0.17120000000E+03  0.17120000000E+03 0.  0.
         13    1    1    2    0    0 -0.17578473447E+02 -0.89236737823E+00  0.39575261952E+01  0.18040848813E+02  0.10566000000E+00 0. -1.
        994    1    1    2    0    0 -0.16331518224E-01  0.23332031995E+02  0.16788205526E+02  0.17359627827E+03  0.17120000000E+03 0.  0.
        998    1    1    2    0    0  0.17594804965E+02 -0.22439664617E+02  0.14792542646E+04  0.14795628729E+04  0.10000000000E+02 0. -1.
</event>
<event>
 5    1  0.1068111E-008  0.3860671E+03  0.7957747E-01  0.3425159E+00
         13   -1    0    0    0    0  0.00000000000E+00  0.00000000000E+00  0.14999999963E+04  0.15000000000E+04  0.10566000000E+00 0.  1.
        994   -1    0    0    0    0 -0.00000000000E+00 -0.00000000000E+00  0.11368683772E-12  0.17120000000E+03  0.17120000000E+03 0.  0.
         13    1    1    2    0    0  0.11980116659E+02 -0.26388623703E+01  0.57900355803E+02  0.59185717500E+02  0.10566000000E+00 0.  1.
        994    1    1    2    0    0 -0.35577612403E+02 -0.39705864608E+01  0.53125333319E+01  0.17498341370E+03  0.17120000000E+03 0.  0.
        998    1    1    2    0    0  0.23597495744E+02  0.66094488311E+01  0.14367871071E+04  0.14370308688E+04  0.10000000000E+02 0.  1.
</event>
<event>
 5    1  0.1068111E-008  0.3846483E+03  0.7957747E-01  0.3431165E+00
         13   -1    0    0    0    0  0.00000000000E+00  0.00000000000E+00  0.14999999963E+04  0.15000000000E+04  0.10566000000E+00 0.  1.
        994   -1    0    0    0    0 -0.00000000000E+00 -0.00000000000E+00  0.11368683772E-12  0.17120000000E+03  0.17120000000E+03 0.  0.
         13    1    1    2    0    0  0.15294726237E+02 -0.85232694590E+01  0.93052559470E+02  0.94685610105E+02  0.10566000000E+00 0.  1.
        994    1    1    2    0    0  0.13357440914E+02  0.23312596049E+02  0.41852670604E+01  0.17334605511E+03  0.17120000000E+03 0.  0.
        998    1    1    2    0    0 -0.28652167152E+02 -0.14789326590E+02  0.14027621697E+04  0.14031683348E+04  0.10000000000E+02 0.  1.
</event>
<event>
 5    1  0.1068111E-008  0.3785290E+03  0.7957747E-01  0.3457589E+00
         13   -1    0    0    0    0  0.00000000000E+00  0.00000000000E+00  0.14999999963E+04  0.15000000000E+04  0.10566000000E+00 0. -1.
        994   -1    0    0    0    0 -0.00000000000E+00 -0.00000000000E+00  0.11368683772E-12  0.17120000000E+03  0.17120000000E+03 0.  0.
         13    1    1    2    0    0  0.16399681514E+02 -0.27170522046E+01  0.25337254871E+02  0.30303788128E+02  0.10566000000E+00 0. -1.
        994    1    1    2    0    0 -0.23455894638E+02  0.11805073036E+02  0.71973137101E+01  0.17335160821E+03  0.17120000000E+03 0.  0.
        998    1    1    2    0    0  0.70562131245E+01 -0.90880208318E+01  0.14674654277E+04  0.14675446037E+04  0.10000000000E+02 0. -1.
</event>
<event>
 5    1  0.1068111E-008  0.3726804E+03  0.7957747E-01  0.3483662E+00
         13   -1    0    0    0    0  0.00000000000E+00  0.00000000000E+00  0.14999999963E+04  0.15000000000E+04  0.10566000000E+00 0.  1.
        994   -1    0    0    0    0 -0.00000000000E+00 -0.00000000000E+00  0.11368683772E-12  0.17120000000E+03  0.17120000000E+03 0.  0.
         13    1    1    2    0    0  0.35142103269E+02  0.62108199633E+02  0.29973740826E+03  0.30811510992E+03  0.10566000000E+00 0.  1.
        994    1    1    2    0    0 -0.29555128564E+02 -0.41550737266E+02  0.16835288752E+02  0.17942362258E+03  0.17120000000E+03 0.  0.
        998    1    1    2    0    0 -0.55869747054E+01 -0.20557462367E+02  0.11834272993E+04  0.11836612675E+04  0.10000000000E+02 0.  1.
</event>
<event>
 5    1  0.1068111E-008  0.3812875E+03  0.7957747E-01  0.3445571E+00
         13   -1    0    0    0    0  0.00000000000E+00  0.00000000000E+00  0.14999999963E+04  0.15000000000E+04  0.10566000000E+00 0. -1.
        994   -1    0    0    0    0 -0.00000000000E+00 -0.00000000000E+00  0.11368683772E-12  0.17120000000E+03  0.17120000000E+03 0.  0.
         13    1    1    2    0    0 -0.10589743532E+02  0.39194225511E+01  0.16508819310E+02  0.20001420456E+02  0.10566000000E+00 0. -1.
        994    1    1    2    0    0  0.14339265304E+02 -0.63788398885E+01  0.43049278791E+01  0.17197173178E+03  0.17120000000E+03 0.  0.
        998    1    1    2    0    0 -0.37495217720E+01  0.24594173374E+01  0.14791862491E+04  0.14792268478E+04  0.10000000000E+02 0. -1.
</event>
<event>
 5    1  0.1068111E-008  0.3835312E+03  0.7957747E-01  0.3435926E+00
         13   -1    0    0    0    0  0.00000000000E+00  0.00000000000E+00  0.14999999963E+04  0.15000000000E+04  0.10566000000E+00 0.  1.
        994   -1    0    0    0    0 -0.00000000000E+00 -0.00000000000E+00  0.11368683772E-12  0.17120000000E+03  0.17120000000E+03 0.  0.
         13    1    1    2    0    0  0.10490391761E+02  0.18662053072E+02  0.92318786029E+02  0.94768612748E+02  0.10566000000E+00 0.  1.
        994    1    1    2    0    0 -0.25493845162E+00 -0.23424193762E+02  0.41765632484E+01  0.17284571597E+03  0.17120000000E+03 0.  0.
        998    1    1    2    0    0 -0.10235453310E+02  0.47621406903E+01  0.14035046470E+04  0.14035856713E+04  0.10000000000E+02 0.  1.
</event>
<event>
 5    1  0.1068111E-008  0.3713555E+03  0.7957747E-01  0.3489684E+00
         13   -1    0    0    0    0  0.00000000000E+00  0.00000000000E+00  0.14999999963E+04  0.15000000000E+04  0.10566000000E+00 0. -1.
        994   -1    0    0    0    0 -0.00000000000E+00 -0.00000000000E+00  0.11368683772E-12  0.17120000000E+03  0.17120000000E+03 0.  0.
         13    1    1    2    0    0  0.25377880112E+02  0.18815879712E+02  0.54433950824E+02  0.62937590474E+02  0.10566000000E+00 0. -1.
        994    1    1    2    0    0 -0.18248020245E+02 -0.16204137598E+02  0.10614667125E+02  0.17325609795E+03  0.17120000000E+03 0.  0.
        998    1    1    2    0    0 -0.71298598670E+01 -0.26117421136E+01  0.14349513783E+04  0.14350063116E+04  0.10000000000E+02 0. -1.
</event>
<event>
 5    1  0.1068111E-008  0.3837598E+03  0.7957747E-01  0.3434949E+00
         13   -1    0    0    0    0  0.00000000000E+00  0.00000000000E+00  0.14999999963E+04  0.15000000000E+04  0.10566000000E+00 0.  1.
        994   -1    0    0    0    0 -0.00000000000E+00 -0.00000000000E+00  0.11368683772E-12  0.17120000000E+03  0.17120000000E+03 0.  0.
         13    1    1    2    0    0 -0.64585107458E+01 -0.17086735111E+02  0.75157453182E+02  0.77345476989E+02  0.10566000000E+00 0.  1.
        994    1    1    2    0    0  0.31938217936E+02 -0.19389666513E+01  0.56350170692E+01  0.17425556741E+03  0.17120000000E+03 0.  0.
        998    1    1    2    0    0 -0.25479707190E+02  0.19025701762E+02  0.14192075260E+04  0.14195989556E+04  0.10000000000E+02 0.  1.
</event>
<event>
 5    1  0.1068111E-008  0.3803051E+03  0.7957747E-01  0.3449831E+00
         13   -1    0    0    0    0  0.00000000000E+00  0.00000000000E+00  0.14999999963E+04  0.15000000000E+04  0.10566000000E+00 0. -1.
        994   -1    0    0    0    0 -0.00000000000E+00 -0.00000000000E+00  0.11368683772E-12  0.17120000000E+03  0.17120000000E+03 0.  0.
         13    1    1    2    0    0  0.11356527520E+02 -0.42307461194E+02  0.52453373994E+02  0.68339297607E+02  0.10566000000E+00 0. -1.
        994    1    1    2    0    0 -0.76690296015E+01  0.27390596745E+02  0.19435287490E+02  0.17463169588E+03  0.17120000000E+03 0.  0.
        998    1    1    2    0    0 -0.36874979188E+01  0.14916864448E+02  0.14281113348E+04  0.14282290065E+04  0.10000000000E+02 0. -1.
</event>
<event>
 5    1  0.1068111E-008  0.3815518E+03  0.7957747E-01  0.3444429E+00
         13   -1    0    0    0    0  0.00000000000E+00  0.00000000000E+00  0.14999999963E+04  0.15000000000E+04  0.10566000000E+00 0. -1.
        994   -1    0    0    0    0 -0.00000000000E+00 -0.00000000000E+00  0.11368683772E-12  0.17120000000E+03  0.17120000000E+03 0.  0.
         13    1    1    2    0    0 -0.19921617051E+02  0.15788897735E+02  0.92786118910E+02  0.96205172127E+02  0.10566000000E+00 0. -1.
        994    1    1    2    0    0  0.19746450717E+02 -0.82275000955E+01  0.48752803977E+01  0.17260018086E+03  0.17120000000E+03 0.  0.
        998    1    1    2    0    0  0.17516633376E+00 -0.75613976391E+01  0.14023385970E+04  0.14023946470E+04  0.10000000000E+02 0. -1.
</event>
<event>
 5    1  0.1068111E-008  0.3855995E+03  0.7957747E-01  0.3427133E+00
         13   -1    0    0    0    0  0.00000000000E+00  0.00000000000E+00  0.14999999963E+04  0.15000000000E+04  0.10566000000E+00 0. -1.
        994   -1    0    0    0    0 -0.00000000000E+00 -0.00000000000E+00  0.11368683772E-12  0.17120000000E+03  0.17120000000E+03 0.  0.
         13    1    1    2    0    0  0.13373472788E+02  0.62652028374E+01  0.80933260599E+02  0.82269717249E+02  0.10566000000E+00 0. -1.
        994    1    1    2    0    0 -0.12342706899E+02 -0.16233650017E+01  0.18416129740E+01  0.17166190394E+03  0.17120000000E+03 0.  0.
        998    1    1    2    0    0 -0.10307658896E+01 -0.46418378357E+01  0.14172251227E+04  0.14172683788E+04  0.10000000000E+02 0. -1.
</event>
<event>
 5    1  0.1068111E-008  0.3822123E+03  0.7957747E-01  0.3441582E+00
         13   -1    0    0    0    0  0.00000000000E+00  0.00000000000E+00  0.14999999963E+04  0.15000000000E+04  0.10566000000E+00 0.  1.
        994   -1    0    0    0    0 -0.00000000000E+00 -0.00000000000E+00  0.11368683772E-12  0.17120000000E+03  0.17120000000E+03 0.  0.
         13    1    1    2    0    0  0.11228986772E+02 -0.11884289692E+02  0.41538868026E+02  0.44640958842E+02  0.10566000000E+00 0.  1.
        994    1    1    2    0    0 -0.17788145729E+02  0.12085780134E+02  0.45568748089E+01  0.17260558890E+03  0.17120000000E+03 0.  0.
        998    1    1    2    0    0  0.65591589574E+01 -0.20149044214E+00  0.14539042534E+04  0.14539534523E+04  0.10000000000E+02 0.  1.
</event>
<event>
 5    1  0.1068111E-008  0.3826153E+03  0.7957747E-01  0.3439849E+00
         13   -1    0    0    0    0  0.00000000000E+00  0.00000000000E+00  0.14999999963E+04  0.15000000000E+04  0.10566000000E+00 0. -1.
        994   -1    0    0    0    0 -0.00000000000E+00 -0.00000000000E+00  0.11368683772E-12  0.17120000000E+03  0.17120000000E+03 0.  0.
         13    1    1    2    0    0  0.10770006200E+02  0.23878959599E+01  0.20193348510E+02  0.23010379587E+02  0.10566000000E+00 0. -1.
        994    1    1    2    0    0 -0.12236849619E+02 -0.44135444975E+01  0.33797784742E+01  0.17172676776E+03  0.17120000000E+03 0.  0.
        998    1    1    2    0    0  0.14668434193E+01  0.20256485377E+01  0.14764268693E+04  0.14764628527E+04  0.10000000000E+02 0. -1.
</event>
<event>
 5    1  0.1068111E-008  0.3844807E+03  0.7957747E-01  0.3431877E+00
         13   -1    0    0    0    0  0.00000000000E+00  0.00000000000E+00  0.14999999963E+04  0.15000000000E+04  0.10566000000E+00 0. -1.
        994   -1    0    0    0    0 -0.00000000000E+00 -0.00000000000E+00  0.11368683772E-12  0.17120000000E+03  0.17120000000E+03 0.  0.
         13    1    1    2    0    0 -0.19876158369E+02 -0.29960527717E+01  0.10701886062E+03  0.10889024610E+03  0.10566000000E+00 0. -1.
        994    1    1    2    0    0  0.13256555076E+02 -0.47610291255E+01  0.25420150992E+01  0.17179728022E+03  0.17120000000E+03 0.  0.
        998    1    1    2    0    0  0.66196032929E+01  0.77570818972E+01  0.13904391206E+04  0.13905124737E+04  0.10000000000E+02 0. -1.
</event>
<event>
 5    1  0.1068111E-008  0.3830488E+03  0.7957747E-01  0.3437990E+00
         13   -1    0    0    0    0  0.00000000000E+00  0.00000000000E+00  0.14999999963E+04  0.15000000000E+04  0.10566000000E+00 0. -1.
        994   -1    0    0    0    0 -0.00000000000E+00 -0.00000000000E+00  0.11368683772E-12  0.17120000000E+03  0.17120000000E+03 0.  0.
         13    1    1    2    0    0  0.13939320796E+02  0.11406023562E+02  0.67297064924E+02  0.69665688464E+02  0.10566000000E+00 0. -1.
        994    1    1    2    0    0  0.21080769009E+01  0.55556060145E+01  0.27188699632E+01  0.17132466548E+03  0.17120000000E+03 0.  0.
        998    1    1    2    0    0 -0.16047397697E+02 -0.16961629577E+02  0.14299840614E+04  0.14302096461E+04  0.10000000000E+02 0. -1.
</event>
<event>
 5    1  0.1068111E-008  0.3849033E+03  0.7957747E-01  0.3430082E+00
         13   -1    0    0    0    0  0.00000000000E+00  0.00000000000E+00  0.14999999963E+04  0.15000000000E+04  0.10566000000E+00 0. -1.
        994   -1    0    0    0    0 -0.00000000000E+00 -0.00000000000E+00  0.11368683772E-12  0.17120000000E+03  0.17120000000E+03 0.  0.
         13    1    1    2    0    0 -0.77265454604E+01 -0.18632603494E+02  0.11455931544E+03  0.11632162884E+03  0.10566000000E+00 0. -1.
        994    1    1    2    0    0  0.23185378964E+02  0.12074564742E+02  0.39294089212E+01  0.17322885777E+03  0.17120000000E+03 0.  0.
        998    1    1    2    0    0 -0.15458833503E+02  0.65580387514E+01  0.13815112719E+04  0.13816495134E+04  0.10000000000E+02 0. -1.
</event>
<event>
 5    1  0.1068111E-008  0.3833200E+03  0.7957747E-01  0.3436829E+00
         13   -1    0    0    0    0  0.00000000000E+00  0.00000000000E+00  0.14999999963E+04  0.15000000000E+04  0.10566000000E+00 0. -1.
        994   -1    0    0    0    0 -0.00000000000E+00 -0.00000000000E+00  0.11368683772E-12  0.17120000000E+03  0.17120000000E+03 0.  0.
         13    1    1    2    0    0 -0.65998102286E+01  0.19804313775E+02  0.98184296954E+02  0.10037896030E+03  0.10566000000E+00 0. -1.
        994    1    1    2    0    0  0.13864361748E+01  0.48577010009E+01  0.25509240801E+01  0.17129351032E+03  0.17120000000E+03 0.  0.
        998    1    1    2    0    0  0.52133740537E+01 -0.24662014776E+02  0.13992647752E+04  0.13995275294E+04  0.10000000000E+02 0. -1.
</event>
<event>
 5    1  0.1068111E-008  0.3855969E+03  0.7957747E-01  0.3427145E+00
         13   -1    0    0    0    0  0.00000000000E+00  0.00000000000E+00  0.14999999963E+04  0.15000000000E+04  0.10566000000E+00 0. -1.
        994   -1    0    0    0    0 -0.00000000000E+00 -0.00000000000E+00  0.11368683772E-12  0.17120000000E+03  0.17120000000E+03 0.  0.
         13    1    1    2    0    0 -0.10027722513E+02  0.92417140281E+01  0.71573469206E+02  0.72861081210E+02  0.10566000000E+00 0. -1.
        994    1    1    2    0    0 -0.92584773304E+01 -0.20227635858E+02  0.29601147245E+01  0.17266464298E+03  0.17120000000E+03 0.  0.
        998    1    1    2    0    0  0.19286199843E+02  0.10985921830E+02  0.14254664123E+04  0.14256742758E+04  0.10000000000E+02 0. -1.
</event>
<event>
 5    1  0.1068111E-008  0.3861068E+03  0.7957747E-01  0.3424992E+00
         13   -1    0    0    0    0  0.00000000000E+00  0.00000000000E+00  0.14999999963E+04  0.15000000000E+04  0.10566000000E+00 0.  1.
        994   -1    0    0    0    0 -0.00000000000E+00 -0.00000000000E+00  0.11368683772E-12  0.17120000000E+03  0.17120000000E+03 0.  0.
         13    1    1    2    0    0 -0.43465956773E+02  0.60692251243E+01  0.40248079603E+02  0.59548668899E+02  0.10566000000E+00 0.  1.
        994    1    1    2    0    0  0.45767607510E+02  0.10401218630E+02  0.27933433321E+02  0.17970135209E+03  0.17120000000E+03 0.  0.
        998    1    1    2    0    0 -0.23016507372E+01 -0.16470443754E+02  0.14318184834E+04  0.14319499790E+04  0.10000000000E+02 0.  1.
</event>
<event>
 5    1  0.1068111E-008  0.3767600E+03  0.7957747E-01  0.3465389E+00
         13   -1    0    0    0    0  0.00000000000E+00  0.00000000000E+00  0.14999999963E+04  0.15000000000E+04  0.10566000000E+00 0.  1.
        994   -1    0    0    0    0 -0.00000000000E+00 -0.00000000000E+00  0.11368683772E-12  0.17120000000E+03  0.17120000000E+03 0.  0.
         13    1    1    2    0    0 -0.13136426935E+02  0.13310079650E+02  0.27774728855E+02  0.33483886571E+02  0.10566000000E+00 0.  1.
        994    1    1    2    0    0  0.42633622244E+01 -0.15717952813E+02  0.66744576386E+01  0.17210234944E+03  0.17120000000E+03 0.  0.
        998    1    1    2    0    0  0.88730647110E+01  0.24078731631E+01  0.14655508098E+04  0.14656137640E+04  0.10000000000E+02 0.  1.
</event>
<event>
 5    1  0.1068111E-008  0.3841488E+03  0.7957747E-01  0.3433290E+00
         13   -1    0    0    0    0  0.00000000000E+00  0.00000000000E+00  0.14999999963E+04  0.15000000000E+04  0.10566000000E+00 0.  1.
        994   -1    0    0    0    0 -0.00000000000E+00 -0.00000000000E+00  0.11368683772E-12  0.17120000000E+03  0.17120000000E+03 0.  0.
         13    1    1    2    0    0  0.24549361073E+02  0.40608823516E+01  0.14740264432E+03  0.14948816880E+03  0.10566000000E+00 0.  1.
        994    1    1    2    0    0 -0.16292395289E+02 -0.84851622295E+01  0.31669014642E+01  0.17221181547E+03  0.17120000000E+03 0.  0.
        998    1    1    2    0    0 -0.82569657842E+01  0.44242798779E+01  0.13494304505E+04  0.13495000157E+04  0.10000000000E+02 0.  1.
</event>
<event>
 5    1  0.1068111E-008  0.3859864E+03  0.7957747E-01  0.3425499E+00
         13   -1    0    0    0    0  0.00000000000E+00  0.00000000000E+00  0.14999999963E+04  0.15000000000E+04  0.10566000000E+00 0.  1.
        994   -1    0    0    0    0 -0.00000000000E+00 -0.00000000000E+00  0.11368683772E-12  0.17120000000E+03  0.17120000000E+03 0.  0.
         13    1    1    2    0    0 -0.16972309374E+01 -0.10464850606E+02  0.49145154357E+02  0.50275750137E+02  0.10566000000E+00 0.  1.
        994    1    1    2    0    0  0.15432288309E+02  0.70662658459E+01  0.20861623755E+01  0.17205196805E+03  0.17120000000E+03 0.  0.
        998    1    1    2    0    0 -0.13735057371E+02  0.33985847602E+01  0.14487686795E+04  0.14488722818E+04  0.10000000000E+02 0.  1.
</event>
<event>
 5    1  0.1068111E-008  0.3831113E+03  0.7957747E-01  0.3437722E+00
         13   -1    0    0    0    0  0.00000000000E+00  0.00000000000E+00  0.14999999963E+04  0.15000000000E+04  0.10566000000E+00 0.  1.
        994   -1    0    0    0    0 -0.00000000000E+00 -0.00000000000E+00  0.11368683772E-12  0.17120000000E+03  0.17120000000E+03 0.  0.
         13    1    1    2    0    0  0.49157755682E+01  0.20725813649E+02  0.85520834696E+02  0.88133696915E+02  0.10566000000E+00 0.  1.
        994    1    1    2    0    0 -0.77700304638E+01 -0.16021863563E+02  0.36206435713E+01  0.17216161751E+03  0.17120000000E+03 0.  0.
        998    1    1    2    0    0  0.28542548956E+01 -0.47039500863E+01  0.14108585180E+04  0.14109046856E+04  0.10000000000E+02 0.  1.
</event>
<event>
 5    1  0.1068111E-008  0.3851864E+03  0.7957747E-01  0.3428882E+00
         13   -1    0    0    0    0  0.00000000000E+00  0.00000000000E+00  0.14999999963E+04  0.15000000000E+04  0.10566000000E+00 0. -1.
        994   -1    0    0    0    0 -0.00000000000E+00 -0.00000000000E+00  0.11368683772E-12  0.17120000000E+03  0.17120000000E+03 0.  0.
         13    1    1    2    0    0 -0.93673013131E+01  0.15965859286E+02  0.10744979509E+03  0.10903267687E+03  0.10566000000E+00 0. -1.
        994    1    1    2    0    0  0.68063148954E+01 -0.14944177704E+02  0.24244058353E+01  0.17200282589E+03  0.17120000000E+03 0.  0.
        998    1    1    2    0    0  0.25609864176E+01 -0.10216815827E+01  0.13901257954E+04  0.13901644972E+04  0.10000000000E+02 0. -1.
</event>
<event>
 5    1  0.1068111E-008  0.3825961E+03  0.7957747E-01  0.3439932E+00
         13   -1    0    0    0    0  0.00000000000E+00  0.00000000000E+00  0.14999999963E+04  0.15000000000E+04  0.10566000000E+00 0. -1.
        994   -1    0    0    0    0 -0.00000000000E+00 -0.00000000000E+00  0.11368683772E-12  0.17120000000E+03  0.17120000000E+03 0.  0.
         13    1    1    2    0    0  0.19416882812E+02 -0.11922757730E+02  0.92608209302E+02  0.95370116306E+02  0.10566000000E+00 0. -1.
        994    1    1    2    0    0 -0.90080001248E+01  0.64577621267E+01  0.32356403642E+01  0.17158891609E+03  0.17120000000E+03 0.  0.
        998    1    1    2    0    0 -0.10408882687E+02  0.54649956038E+01  0.14041561466E+04  0.14042409676E+04  0.10000000000E+02 0. -1.
</event>
<event>
 5    1  0.1068111E-008  0.3809459E+03  0.7957747E-01  0.3447050E+00
         13   -1    0    0    0    0  0.00000000000E+00  0.00000000000E+00  0.14999999963E+04  0.15000000000E+04  0.10566000000E+00 0. -1.
        994   -1    0    0    0    0 -0.00000000000E+00 -0.00000000000E+00  0.11368683772E-12  0.17120000000E+03  0.17120000000E+03 0.  0.
         13    1    1    2    0    0  0.80652734556E+01  0.33002102103E+02  0.15698407921E+03  0.16061817975E+03  0.10566000000E+00 0. -1.
        994    1    1    2    0    0 -0.87202702092E+01 -0.18070764199E+02  0.49992062870E+01  0.17244427417E+03  0.17120000000E+03 0.  0.
        998    1    1    2    0    0  0.65499675351E+00 -0.14931337904E+02  0.13380167108E+04  0.13381375461E+04  0.10000000000E+02 0. -1.
</event>
<event>
 5    1  0.1068111E-008  0.3831345E+03  0.7957747E-01  0.3437623E+00
         13   -1    0    0    0    0  0.00000000000E+00  0.00000000000E+00  0.14999999963E+04  0.15000000000E+04  0.10566000000E+00 0. -1.
        994   -1    0    0    0    0 -0.00000000000E+00 -0.00000000000E+00  0.11368683772E-12  0.17120000000E+03  0.17120000000E+03 0.  0.
         13    1    1    2    0    0 -0.84686462034E+01 -0.27816324053E+02  0.15393847079E+03  0.15666055599E+03  0.10566000000E+00 0. -1.
        994    1    1    2    0    0  0.20095894795E+01  0.26278378917E+02  0.48606994887E+01  0.17328490427E+03  0.17120000000E+03 0.  0.
        998    1    1    2    0    0  0.64590567239E+01  0.15379451364E+01  0.13412008260E+04  0.13412545397E+04  0.10000000000E+02 0. -1.
</event>
<event>
 5    1  0.1068111E-008  0.3837889E+03  0.7957747E-01  0.3434825E+00
         13   -1    0    0    0    0  0.00000000000E+00  0.00000000000E+00  0.14999999963E+04  0.15000000000E+04  0.10566000000E+00 0. -1.
        994   -1    0    0    0    0 -0.00000000000E+00 -0.00000000000E+00  0.11368683772E-12  0.17120000000E+03  0.17120000000E+03 0.  0.
         13    1    1    2    0    0  0.11736828562E+02  0.39991066370E+01  0.31935455347E+02  0.34258290542E+02  0.10566000000E+00 0. -1.
        994    1    1    2    0    0 -0.20962437643E+02 -0.91234889650E+01  0.39601276818E+01  0.17276511353E+03  0.17120000000E+03 0.  0.
        998    1    1    2    0    0  0.92256090809E+01  0.51243823280E+01  0.14641044133E+04  0.14641765959E+04  0.10000000000E+02 0. -1.
</event>
<event>
 5    1  0.1068111E-008  0.3842776E+03  0.7957747E-01  0.3432742E+00
         13   -1    0    0    0    0  0.00000000000E+00  0.00000000000E+00  0.14999999963E+04  0.15000000000E+04  0.10566000000E+00 0.  1.
        994   -1    0    0    0    0 -0.00000000000E+00 -0.00000000000E+00  0.11368683772E-12  0.17120000000E+03  0.17120000000E+03 0.  0.
         13    1    1    2    0    0  0.79335390516E-01 -0.11538729042E+02  0.34386656260E+02  0.36271226266E+02  0.10566000000E+00 0.  1.
        994    1    1    2    0    0  0.86119474107E+01 -0.16054669542E+01  0.22422203160E+01  0.17143865000E+03  0.17120000000E+03 0.  0.
        998    1    1    2    0    0 -0.86912828012E+01  0.13144195996E+02  0.14633711197E+04  0.14634901237E+04  0.10000000000E+02 0.  1.
</event>
<event>
 5    1  0.1068111E-008  0.3797479E+03  0.7957747E-01  0.3452257E+00
         13   -1    0    0    0    0  0.00000000000E+00  0.00000000000E+00  0.14999999963E+04  0.15000000000E+04  0.10566000000E+00 0. -1.
        994   -1    0    0    0    0 -0.00000000000E+00 -0.00000000000E+00  0.11368683772E-12  0.17120000000E+03  0.17120000000E+03 0.  0.
         13    1    1    2    0    0 -0.39950008766E+02 -0.43594152182E+01  0.17490903388E+03  0.17946640075E+03  0.10566000000E+00 0. -1.
        994    1    1    2    0    0  0.33102424652E+02  0.12734612930E+02  0.84806403228E+01  0.17504085850E+03  0.17120000000E+03 0.  0.
        998    1    1    2    0    0  0.68475841140E+01 -0.83751977117E+01  0.13166103221E+04  0.13166927407E+04  0.10000000000E+02 0. -1.
</event>
<event>
 5    1  0.1068111E-008  0.3694769E+03  0.7957747E-01  0.3498298E+00
         13   -1    0    0    0    0  0.00000000000E+00  0.00000000000E+00  0.14999999963E+04  0.15000000000E+04  0.10566000000E+00 0. -1.
        994   -1    0    0    0    0 -0.00000000000E+00 -0.00000000000E+00  0.11368683772E-12  0.17120000000E+03  0.17120000000E+03 0.  0.
         13    1    1    2    0    0  0.19248167891E+02 -0.47063277443E+02  0.15368391743E+03  0.16187711911E+03  0.10566000000E+00 0. -1.
        994    1    1    2    0    0 -0.15089804968E+02 -0.82554045893E+01  0.10568196587E+02  0.17238613836E+03  0.17120000000E+03 0.  0.
        998    1    1    2    0    0 -0.41583629223E+01  0.55318682032E+02  0.13357478823E+04  0.13369367425E+04  0.10000000000E+02 0.  1.
</event>
<event>
 5    1  0.1068111E-008  0.3845681E+03  0.7957747E-01  0.3431506E+00
         13   -1    0    0    0    0  0.00000000000E+00  0.00000000000E+00  0.14999999963E+04  0.15000000000E+04  0.10566000000E+00 0.  1.
        994   -1    0    0    0    0 -0.00000000000E+00 -0.00000000000E+00  0.11368683772E-12  0.17120000000E+03  0.17120000000E+03 0.  0.
         13    1    1    2    0    0  0.13794443663E+02  0.54699364476E+01  0.56641788541E+02  0.58553481996E+02  0.10566000000E+00 0.  1.
        994    1    1    2    0    0 -0.18000096667E+02 -0.50038057384E+01  0.29950396405E+01  0.17224242165E+03  0.17120000000E+03 0.  0.
        998    1    1    2    0    0  0.42056530041E+01 -0.46613070922E+00  0.14403631681E+04  0.14404040964E+04  0.10000000000E+02 0.  1.
</event>
<event>
 5    1  0.1068111E-008  0.3769069E+03  0.7957747E-01  0.3464738E+00
         13   -1    0    0    0    0  0.00000000000E+00  0.00000000000E+00  0.14999999963E+04  0.15000000000E+04  0.10566000000E+00 0. -1.
        994   -1    0    0    0    0 -0.00000000000E+00 -0.00000000000E+00  0.11368683772E-12  0.17120000000E+03  0.17120000000E+03 0.  0.
         13    1    1    2    0    0 -0.82423618309E+01  0.40803598465E+02  0.61636165511E+02  0.74376731840E+02  0.10566000000E+00 0. -1.
        994    1    1    2    0    0 -0.68757736912E+01  0.20818992293E+02  0.16362655800E+02  0.17337209467E+03  0.17120000000E+03 0.  0.
        998    1    1    2    0    0  0.15118135522E+02 -0.61622590758E+02  0.14220011750E+04  0.14234511735E+04  0.10000000000E+02 0. -1.
</event>
<event>
 5    1  0.1068111E-008  0.3822491E+03  0.7957747E-01  0.3441423E+00
         13   -1    0    0    0    0  0.00000000000E+00  0.00000000000E+00  0.14999999963E+04  0.15000000000E+04  0.10566000000E+00 0.  1.
        994   -1    0    0    0    0 -0.00000000000E+00 -0.00000000000E+00  0.11368683772E-12  0.17120000000E+03  0.17120000000E+03 0.  0.
         13    1    1    2    0    0  0.15605917561E+02  0.70314010026E+01  0.46588765041E+02  0.49633753183E+02  0.10566000000E+00 0.  1.
        994    1    1    2    0    0 -0.15560116781E+02 -0.79801755022E+01  0.40174713849E+01  0.17213767894E+03  0.17120000000E+03 0.  0.
        998    1    1    2    0    0 -0.45800779656E-01  0.94877449966E+00  0.14493937599E+04  0.14494285679E+04  0.10000000000E+02 0.  1.
</event>
<event>
 5    1  0.1068111E-008  0.3723424E+03  0.7957747E-01  0.3485195E+00
         13   -1    0    0    0    0  0.00000000000E+00  0.00000000000E+00  0.14999999963E+04  0.15000000000E+04  0.10566000000E+00 0. -1.
        994   -1    0    0    0    0 -0.00000000000E+00 -0.00000000000E+00  0.11368683772E-12  0.17120000000E+03  0.17120000000E+03 0.  0.
         13    1    1    2    0    0  0.29418755217E+02 -0.29793776258E+02  0.12528219812E+03  0.13209380224E+03  0.10566000000E+00 0. -1.
        994    1    1    2    0    0  0.18494203585E+02  0.14852958898E+01  0.92314593393E+01  0.17244970719E+03  0.17120000000E+03 0.  0.
        998    1    1    2    0    0 -0.47912958801E+02  0.28308480368E+02  0.13654863388E+04  0.13666564906E+04  0.10000000000E+02 0.  1.
</event>
<event>
 5    1  0.1068111E-008  0.3702431E+03  0.7957747E-01  0.3494774E+00
         13   -1    0    0    0    0  0.00000000000E+00  0.00000000000E+00  0.14999999963E+04  0.15000000000E+04  0.10566000000E+00 0.  1.
        994   -1    0    0    0    0 -0.00000000000E+00 -0.00000000000E+00  0.11368683772E-12  0.17120000000E+03  0.17120000000E+03 0.  0.
         13    1    1    2    0    0  0.29756644793E+02  0.43913740223E+01  0.35663800878E+02  0.46654688213E+02  0.10566000000E+00 0.  1.
        994    1    1    2    0    0 -0.26849180836E+02 -0.19847829902E+02  0.14978122176E+02  0.17506741275E+03  0.17120000000E+03 0.  0.
        998    1    1    2    0    0 -0.29074639563E+01  0.15456455879E+02  0.14493580732E+04  0.14494778990E+04  0.10000000000E+02 0.  1.
</event>
<event>
 5    1  0.1068111E-008  0.3689255E+03  0.7957747E-01  0.3500844E+00
         13   -1    0    0    0    0  0.00000000000E+00  0.00000000000E+00  0.14999999963E+04  0.15000000000E+04  0.10566000000E+00 0.  1.
        994   -1    0    0    0    0 -0.00000000000E+00 -0.00000000000E+00  0.11368683772E-12  0.17120000000E+03  0.17120000000E+03 0.  0.
         13    1    1    2    0    0  0.18455861210E+03  0.46931550847E+00  0.77434277619E+03  0.79603319514E+03  0.10566000000E+00 0.  1.
        994    1    1    2    0    0 -0.17474410004E+03  0.61318685597E+01  0.12587659534E+03  0.27518622343E+03  0.17120000000E+03 0.  0.
        998    1    1    2    0    0 -0.98145120591E+01 -0.66011840682E+01  0.59978062475E+03  0.59998058143E+03  0.10000000000E+02 0.  1.
</event>
<event>
 5    1  0.1068111E-008  0.3823931E+03  0.7957747E-01  0.3440804E+00
         13   -1    0    0    0    0  0.00000000000E+00  0.00000000000E+00  0.14999999963E+04  0.15000000000E+04  0.10566000000E+00 0.  1.
        994   -1    0    0    0    0 -0.00000000000E+00 -0.00000000000E+00  0.11368683772E-12  0.17120000000E+03  0.17120000000E+03 0.  0.
         13    1    1    2    0    0  0.30060588360E+02  0.88617875773E+00  0.16895000771E+03  0.17160577075E+03  0.10566000000E+00 0.  1.
        994    1    1    2    0    0 -0.69010543006E+01  0.18668217911E+02  0.42449065441E+01  0.17240529615E+03  0.17120000000E+03 0.  0.
        998    1    1    2    0    0 -0.23159534059E+02 -0.19554396669E+02  0.13268050820E+04  0.13271889331E+04  0.10000000000E+02 0.  1.
</event>
<event>
 5    1  0.1068111E-008  0.3701029E+03  0.7957747E-01  0.3495418E+00
         13   -1    0    0    0    0  0.00000000000E+00  0.00000000000E+00  0.14999999963E+04  0.15000000000E+04  0.10566000000E+00 0. -1.
        994   -1    0    0    0    0 -0.00000000000E+00 -0.00000000000E+00  0.11368683772E-12  0.17120000000E+03  0.17120000000E+03 0.  0.
         13    1    1    2    0    0  0.74233872068E+02  0.62967640712E+02  0.39029310980E+03  0.40224906993E+03  0.10566000000E+00 0. -1.
        994    1    1    2    0    0 -0.66535174307E+02 -0.63645562092E+02  0.39116219256E+02  0.19828566666E+03  0.17120000000E+03 0.  0.
        998    1    1    2    0    0 -0.76986977616E+01  0.67792138035E+00  0.10705906672E+04  0.10706652634E+04  0.10000000000E+02 0. -1.
</event>
<event>
 5    1  0.1068111E-008  0.3795859E+03  0.7957747E-01  0.3452964E+00
         13   -1    0    0    0    0  0.00000000000E+00  0.00000000000E+00  0.14999999963E+04  0.15000000000E+04  0.10566000000E+00 0.  1.
        994   -1    0    0    0    0 -0.00000000000E+00 -0.00000000000E+00  0.11368683772E-12  0.17120000000E+03  0.17120000000E+03 0.  0.
         13    1    1    2    0    0 -0.97849016731E+01  0.28115590984E+01  0.98907186809E+01  0.14194599162E+02  0.10566000000E+00 0.  1.
        994    1    1    2    0    0  0.11743857394E+02 -0.36088330836E+01  0.48477608324E+01  0.17170871454E+03  0.17120000000E+03 0.  0.
        998    1    1    2    0    0 -0.19589557211E+01  0.79727398520E+00  0.14852615168E+04  0.14852966863E+04  0.10000000000E+02 0.  1.
</event>
<event>
 5    1  0.1068111E-008  0.3844765E+03  0.7957747E-01  0.3431895E+00
         13   -1    0    0    0    0  0.00000000000E+00  0.00000000000E+00  0.14999999963E+04  0.15000000000E+04  0.10566000000E+00 0. -1.
        994   -1    0    0    0    0 -0.00000000000E+00 -0.00000000000E+00  0.11368683772E-12  0.17120000000E+03  0.17120000000E+03 0.  0.
         13    1    1    2    0    0  0.24298546195E+02  0.15953685454E+02  0.16660391244E+03  0.16912070906E+03  0.10566000000E+00 0. -1.
        994    1    1    2    0    0 -0.44324674018E+02 -0.22907604990E+02  0.10134514621E+02  0.17861014383E+03  0.17120000000E+03 0.  0.
        998    1    1    2    0    0  0.20026127823E+02  0.69539195368E+01  0.13232615692E+04  0.13234691471E+04  0.10000000000E+02 0. -1.
</event>
<event>
 5    1  0.1068111E-008  0.3843824E+03  0.7957747E-01  0.3432296E+00
         13   -1    0    0    0    0  0.00000000000E+00  0.00000000000E+00  0.14999999963E+04  0.15000000000E+04  0.10566000000E+00 0.  1.
        994   -1    0    0    0    0 -0.00000000000E+00 -0.00000000000E+00  0.11368683772E-12  0.17120000000E+03  0.17120000000E+03 0.  0.
         13    1    1    2    0    0 -0.10466611824E+02 -0.27713433386E+01  0.29600868325E+02  0.31519087496E+02  0.10566000000E+00 0.  1.
        994    1    1    2    0    0  0.84024477618E+01  0.33868142266E+01  0.22075909501E+01  0.17145374040E+03  0.17120000000E+03 0.  0.
        998    1    1    2    0    0  0.20641640622E+01 -0.61547088803E+00  0.14681915370E+04  0.14682271721E+04  0.10000000000E+02 0.  1.
</event>
<event>
 5    1  0.1068111E-008  0.4264029E+03  0.7957747E-01  0.3271059E+00
         13   -1    0    0    0    0  0.00000000000E+00  0.00000000000E+00  0.14999999963E+04  0.15000000000E+04  0.10566000000E+00 0.  1.
        994   -1    0    0    0    0 -0.00000000000E+00 -0.00000000000E+00  0.11368683772E-12  0.17120000000E+03  0.17120000000E+03 0.  0.
         13    1    1    2    0    0  0.41489414252E+02  0.21692314622E+01  0.16421314742E+01  0.41578658227E+02  0.10566000000E+00 0.  1.
        994    1    1    2    0    0 -0.48434276842E+02 -0.78838583016E+01  0.55273378292E+02  0.18647418251E+03  0.17120000000E+03 0.  0.
        998    1    1    2    0    0  0.69448625901E+01  0.57146268394E+01  0.14430844865E+04  0.14431471593E+04  0.10000000000E+02 0.  1.
</event>
<event>
 5    1  0.1068111E-008  0.3823848E+03  0.7957747E-01  0.3440840E+00
         13   -1    0    0    0    0  0.00000000000E+00  0.00000000000E+00  0.14999999963E+04  0.15000000000E+04  0.10566000000E+00 0.  1.
        994   -1    0    0    0    0 -0.00000000000E+00 -0.00000000000E+00  0.11368683772E-12  0.17120000000E+03  0.17120000000E+03 0.  0.
         13    1    1    2    0    0 -0.15934696979E+01 -0.19173159115E+02  0.61528539468E+02  0.64466437075E+02  0.10566000000E+00 0.  1.
        994    1    1    2    0    0  0.53579601364E+00  0.14515008745E+02  0.36341749736E+01  0.17185348348E+03  0.17120000000E+03 0.  0.
        998    1    1    2    0    0  0.10576736842E+01  0.46581503698E+01  0.14348372818E+04  0.14348800794E+04  0.10000000000E+02 0.  1.
</event>
<event>
 5    1  0.1068111E-008  0.3838481E+03  0.7957747E-01  0.3434572E+00
         13   -1    0    0    0    0  0.00000000000E+00  0.00000000000E+00  0.14999999963E+04  0.15000000000E+04  0.10566000000E+00 0. -1.
        994   -1    0    0    0    0 -0.00000000000E+00 -0.00000000000E+00  0.11368683772E-12  0.17120000000E+03  0.17120000000E+03 0.  0.
         13    1    1    2    0    0  0.42962978206E+01  0.90439203317E+01  0.22654684503E+02  0.24768862790E+02  0.10566000000E+00 0. -1.
        994    1    1    2    0    0  0.51051996683E+01 -0.13035729879E+01  0.22947733003E+01  0.17129643414E+03  0.17120000000E+03 0.  0.
        998    1    1    2    0    0 -0.94014974889E+01 -0.77403473438E+01  0.14750505385E+04  0.14751347031E+04  0.10000000000E+02 0. -1.
</event>
<event>
 5    1  0.1068111E-008  0.3840373E+03  0.7957747E-01  0.3433766E+00
         13   -1    0    0    0    0  0.00000000000E+00  0.00000000000E+00  0.14999999963E+04  0.15000000000E+04  0.10566000000E+00 0. -1.
        994   -1    0    0    0    0 -0.00000000000E+00 -0.00000000000E+00  0.11368683772E-12  0.17120000000E+03  0.17120000000E+03 0.  0.
         13    1    1    2    0    0 -0.20333829169E+02 -0.12245305916E+02  0.14235528309E+03  0.14432064964E+03  0.10566000000E+00 0. -1.
        994    1    1    2    0    0  0.25661953893E+01  0.86601076908E+01  0.23780506675E+01  0.17145459442E+03  0.17120000000E+03 0.  0.
        998    1    1    2    0    0  0.17767633779E+02  0.35851982251E+01  0.13552666625E+04  0.13554247559E+04  0.10000000000E+02 0. -1.
</event>
<event>
 5    1  0.1068111E-008  0.3963702E+03  0.7957747E-01  0.3382836E+00
         13   -1    0    0    0    0  0.00000000000E+00  0.00000000000E+00  0.14999999963E+04  0.15000000000E+04  0.10566000000E+00 0. -1.
        994   -1    0    0    0    0 -0.00000000000E+00 -0.00000000000E+00  0.11368683772E-12  0.17120000000E+03  0.17120000000E+03 0.  0.
         13    1    1    2    0    0 -0.51493833893E+01 -0.20389308983E+02 -0.27960863772E+01  0.21214837571E+02  0.10566000000E+00 0. -1.
        994    1    1    2    0    0  0.21521216569E+02  0.24464290023E+02  0.29732699298E+02  0.17679122619E+03  0.17120000000E+03 0.  0.
        998    1    1    2    0    0 -0.16371833180E+02 -0.40749810408E+01  0.14730633834E+04  0.14731939362E+04  0.10000000000E+02 0. -1.
</event>
<event>
 5    1  0.1220176E-008  0.3858863E+03  0.7957747E-01  0.3425922E+00
         13   -1    0    0    0    0  0.00000000000E+00  0.00000000000E+00  0.14999999963E+04  0.15000000000E+04  0.10566000000E+00 0.  1.
        994   -1    0    0    0    0 -0.00000000000E+00 -0.00000000000E+00  0.11368683772E-12  0.17120000000E+03  0.17120000000E+03 0.  0.
         13    1    1    2    0    0 -0.62253956553E+01  0.11083806537E+02  0.69785225146E+02  0.70933737609E+02  0.10566000000E+00 0.  1.
        994    1    1    2    0    0 -0.46785907421E+00 -0.72508596265E+01  0.13638645698E+01  0.17135954594E+03  0.17120000000E+03 0.  0.
        998    1    1    2    0    0  0.66932547296E+01 -0.38329469102E+01  0.14288509066E+04  0.14289067165E+04  0.10000000000E+02 0.  1.
</event>
<event>
 5    1  0.1068111E-008  0.3756029E+03  0.7957747E-01  0.3470531E+00
         13   -1    0    0    0    0  0.00000000000E+00  0.00000000000E+00  0.14999999963E+04  0.15000000000E+04  0.10566000000E+00 0.  1.
        994   -1    0    0    0    0 -0.00000000000E+00 -0.00000000000E+00  0.11368683772E-12  0.17120000000E+03  0.17120000000E+03 0.  0.
         13    1    1    2    0    0  0.14802166028E+02 -0.47058464813E+02  0.23460357735E+03  0.23973412960E+03  0.10566000000E+00 0.  1.
        994    1    1    2    0    0  0.21810856079E+02  0.44841819567E+01  0.80532490945E+01  0.17282973168E+03  0.17120000000E+03 0.  0.
        998    1    1    2    0    0 -0.36613022107E+02  0.42574282856E+02  0.12573431698E+04  0.12586361387E+04  0.10000000000E+02 0.  1.
</event>
<event>
 5    1  0.1378898E-008  0.3854852E+03  0.7957747E-01  0.3427617E+00
         13   -1    0    0    0    0  0.00000000000E+00  0.00000000000E+00  0.14999999963E+04  0.15000000000E+04  0.10566000000E+00 0.  1.
        994   -1    0    0    0    0 -0.00000000000E+00 -0.00000000000E+00  0.11368683772E-12  0.17120000000E+03  0.17120000000E+03 0.  0.
         13    1    1    2    0    0  0.14036159997E+02  0.20841860149E+01  0.68326683770E+02  0.69784701030E+02  0.10566000000E+00 0.  1.
        994    1    1    2    0    0 -0.18784955420E+02  0.12878898862E+00  0.25490208756E+01  0.17224641838E+03  0.17120000000E+03 0.  0.
        998    1    1    2    0    0  0.47487954232E+01 -0.22129750035E+01  0.14291242916E+04  0.14291688806E+04  0.10000000000E+02 0.  1.
</event>
<event>
 5    1  0.1068111E-008  0.3748802E+03  0.7957747E-01  0.3473759E+00
         13   -1    0    0    0    0  0.00000000000E+00  0.00000000000E+00  0.14999999963E+04  0.15000000000E+04  0.10566000000E+00 0. -1.
        994   -1    0    0    0    0 -0.00000000000E+00 -0.00000000000E+00  0.11368683772E-12  0.17120000000E+03  0.17120000000E+03 0.  0.
         13    1    1    2    0    0 -0.78593667965E+01  0.21770372374E+02  0.36696541934E+02  0.43386243369E+02  0.10566000000E+00 0. -1.
        994    1    1    2    0    0 -0.39752928802E+01 -0.21360015105E+02  0.83471565018E+01  0.17277490622E+03  0.17120000000E+03 0.  0.
        998    1    1    2    0    0  0.11834659677E+02 -0.41035726855E+00  0.14549562978E+04  0.14550388504E+04  0.10000000000E+02 0. -1.
</event>
<event>
 5    1  0.1068111E-008  0.3795696E+03  0.7957747E-01  0.3453035E+00
         13   -1    0    0    0    0  0.00000000000E+00  0.00000000000E+00  0.14999999963E+04  0.15000000000E+04  0.10566000000E+00 0. -1.
        994   -1    0    0    0    0 -0.00000000000E+00 -0.00000000000E+00  0.11368683772E-12  0.17120000000E+03  0.17120000000E+03 0.  0.
         13    1    1    2    0    0 -0.18828312211E+02  0.12753743699E+02  0.58712673475E+02  0.62963104352E+02  0.10566000000E+00 0. -1.
        994    1    1    2    0    0  0.10940284433E+02 -0.30619060343E+01  0.47827587375E+01  0.17164317602E+03  0.17120000000E+03 0.  0.
        998    1    1    2    0    0  0.78880277785E+01 -0.96918376643E+01  0.14365045641E+04  0.14365937196E+04  0.10000000000E+02 0. -1.
</event>
<event>
 5    1  0.1068111E-008  0.3784176E+03  0.7957747E-01  0.3458078E+00
         13   -1    0    0    0    0  0.00000000000E+00  0.00000000000E+00  0.14999999963E+04  0.15000000000E+04  0.10566000000E+00 0. -1.
        994   -1    0    0    0    0 -0.00000000000E+00 -0.00000000000E+00  0.11368683772E-12  0.17120000000E+03  0.17120000000E+03 0.  0.
         13    1    1    2    0    0  0.14606549279E+01 -0.20754786840E+02  0.45215923407E+02  0.49773342093E+02  0.10566000000E+00 0. -1.
        994    1    1    2    0    0 -0.27970885846E+02 -0.10401532044E+02  0.79326049993E+01  0.17396243430E+03  0.17120000000E+03 0.  0.
        998    1    1    2    0    0  0.26510230918E+02  0.31156318884E+02  0.14468514679E+04  0.14474642236E+04  0.10000000000E+02 0. -1.
</event>
<event>
 5    1  0.1068111E-008  0.3820263E+03  0.7957747E-01  0.3442383E+00
         13   -1    0    0    0    0  0.00000000000E+00  0.00000000000E+00  0.14999999963E+04  0.15000000000E+04  0.10566000000E+00 0. -1.
        994   -1    0    0    0    0 -0.00000000000E+00 -0.00000000000E+00  0.11368683772E-12  0.17120000000E+03  0.17120000000E+03 0.  0.
         13    1    1    2    0    0 -0.17151573835E+02 -0.27338548124E+02  0.18936908623E+03  0.19209954368E+03  0.10566000000E+00 0. -1.
        994    1    1    2    0    0 -0.94738610585E+00  0.45366776089E+01  0.31850845193E+01  0.17129233418E+03  0.17120000000E+03 0.  0.
        998    1    1    2    0    0  0.18098959941E+02  0.22801870515E+02  0.13074458255E+04  0.13078081221E+04  0.10000000000E+02 0. -1.
</event>
<event>
 5    1  0.1068111E-008  0.3786655E+03  0.7957747E-01  0.3456990E+00
         13   -1    0    0    0    0  0.00000000000E+00  0.00000000000E+00  0.14999999963E+04  0.15000000000E+04  0.10566000000E+00 0. -1.
        994   -1    0    0    0    0 -0.00000000000E+00 -0.00000000000E+00  0.11368683772E-12  0.17120000000E+03  0.17120000000E+03 0.  0.
         13    1    1    2    0    0 -0.78677479718E+01  0.34955429073E+02  0.11411573408E+03  0.11960850893E+03  0.10566000000E+00 0. -1.
        994    1    1    2    0    0 -0.36780814291E+02 -0.61114715385E+02  0.22086279469E+02  0.18677548147E+03  0.17120000000E+03 0.  0.
        998    1    1    2    0    0  0.44648562263E+02  0.26159286312E+02  0.13637979827E+04  0.13648160096E+04  0.10000000000E+02 0. -1.
</event>
<event>
 5    1  0.1068111E-008  0.3807409E+03  0.7957747E-01  0.3447939E+00
         13   -1    0    0    0    0  0.00000000000E+00  0.00000000000E+00  0.14999999963E+04  0.15000000000E+04  0.10566000000E+00 0.  1.
        994   -1    0    0    0    0 -0.00000000000E+00 -0.00000000000E+00  0.11368683772E-12  0.17120000000E+03  0.17120000000E+03 0.  0.
         13    1    1    2    0    0 -0.25830438193E+02 -0.11020684950E+02  0.98720649835E+02  0.10263744396E+03  0.10566000000E+00 0.  1.
        994    1    1    2    0    0  0.23989715928E+02  0.10631956842E+02  0.60591106616E+01  0.17330521573E+03  0.17120000000E+03 0.  0.
        998    1    1    2    0    0  0.18407222647E+01  0.38872810804E+00  0.13952202358E+04  0.13952573403E+04  0.10000000000E+02 0.  1.
</event>
<event>
 5    1  0.1068111E-008  0.3863485E+03  0.7957747E-01  0.3423973E+00
         13   -1    0    0    0    0  0.00000000000E+00  0.00000000000E+00  0.14999999963E+04  0.15000000000E+04  0.10566000000E+00 0.  1.
        994   -1    0    0    0    0 -0.00000000000E+00 -0.00000000000E+00  0.11368683772E-12  0.17120000000E+03  0.17120000000E+03 0.  0.
         13    1    1    2    0    0 -0.70609224947E+01  0.76443751464E+01  0.59729074101E+02  0.60628925068E+02  0.10566000000E+00 0.  1.
        994    1    1    2    0    0  0.12207558075E+02  0.83649825429E+01  0.16794956872E+01  0.17184661217E+03  0.17120000000E+03 0.  0.
        998    1    1    2    0    0 -0.51466355799E+01 -0.16009357689E+02  0.14385914265E+04  0.14387244628E+04  0.10000000000E+02 0.  1.
</event>
<event>
 5    1  0.1068111E-008  0.3850057E+03  0.7957747E-01  0.3429648E+00
         13   -1    0    0    0    0  0.00000000000E+00  0.00000000000E+00  0.14999999963E+04  0.15000000000E+04  0.10566000000E+00 0.  1.
        994   -1    0    0    0    0 -0.00000000000E+00 -0.00000000000E+00  0.11368683772E-12  0.17120000000E+03  0.17120000000E+03 0.  0.
         13    1    1    2    0    0  0.99595587095E+01  0.15971127081E+01  0.30151296824E+02  0.31793952930E+02  0.10566000000E+00 0.  1.
        994    1    1    2    0    0 -0.12720126676E+02 -0.56771747857E+01  0.22656786475E+01  0.17178068936E+03  0.17120000000E+03 0.  0.
        998    1    1    2    0    0  0.27605679664E+01  0.40800620776E+01  0.14675830208E+04  0.14676253577E+04  0.10000000000E+02 0.  1.
</event>
<event>
 5    1  0.1068111E-008  0.3828751E+03  0.7957747E-01  0.3438734E+00
         13   -1    0    0    0    0  0.00000000000E+00  0.00000000000E+00  0.14999999963E+04  0.15000000000E+04  0.10566000000E+00 0.  1.
        994   -1    0    0    0    0 -0.00000000000E+00 -0.00000000000E+00  0.11368683772E-12  0.17120000000E+03  0.17120000000E+03 0.  0.
         13    1    1    2    0    0 -0.78456455938E+01 -0.70925138131E+01  0.19983384976E+02  0.22609837374E+02  0.10566000000E+00 0.  1.
        994    1    1    2    0    0  0.28275592150E+01  0.32165733272E+01  0.27495315810E+01  0.17127562979E+03  0.17120000000E+03 0.  0.
        998    1    1    2    0    0  0.50180863787E+01  0.38759404859E+01  0.14772670797E+04  0.14773145328E+04  0.10000000000E+02 0.  1.
</event>
<event>
 5    1  0.1068111E-008  0.3742386E+03  0.7957747E-01  0.3476635E+00
         13   -1    0    0    0    0  0.00000000000E+00  0.00000000000E+00  0.14999999963E+04  0.15000000000E+04  0.10566000000E+00 0.  1.
        994   -1    0    0    0    0 -0.00000000000E+00 -0.00000000000E+00  0.11368683772E-12  0.17120000000E+03  0.17120000000E+03 0.  0.
         13    1    1    2    0    0 -0.91852086379E+00  0.14028935179E+02  0.10475979900E+02  0.17533169187E+02  0.10566000000E+00 0.  1.
        994    1    1    2    0    0 -0.56347247108E+00 -0.23952862272E+02  0.90290331974E+01  0.17310407434E+03  0.17120000000E+03 0.  0.
        998    1    1    2    0    0  0.14819933349E+01  0.99239270928E+01  0.14804949832E+04  0.14805627565E+04  0.10000000000E+02 0.  1.
</event>
<event>
 5    1  0.1068111E-008  0.3772471E+03  0.7957747E-01  0.3463234E+00
         13   -1    0    0    0    0  0.00000000000E+00  0.00000000000E+00  0.14999999963E+04  0.15000000000E+04  0.10566000000E+00 0.  1.
        994   -1    0    0    0    0 -0.00000000000E+00 -0.00000000000E+00  0.11368683772E-12  0.17120000000E+03  0.17120000000E+03 0.  0.
         13    1    1    2    0    0  0.73009818510E+02  0.94568994825E+02  0.35796145727E+03  0.37737268639E+03  0.10566000000E+00 0.  1.
        994    1    1    2    0    0 -0.67502742924E+02 -0.96568563825E+02  0.66470558145E+02  0.21819689027E+03  0.17120000000E+03 0.  0.
        998    1    1    2    0    0 -0.55070755868E+01  0.19995690001E+01  0.10755679809E+04  0.10756304233E+04  0.10000000000E+02 0.  1.
</event>
<event>
 5    1  0.1068111E-008  0.3820036E+03  0.7957747E-01  0.3442480E+00
         13   -1    0    0    0    0  0.00000000000E+00  0.00000000000E+00  0.14999999963E+04  0.15000000000E+04  0.10566000000E+00 0. -1.
        994   -1    0    0    0    0 -0.00000000000E+00 -0.00000000000E+00  0.11368683772E-12  0.17120000000E+03  0.17120000000E+03 0.  0.
         13    1    1    2    0    0  0.69164150093E+01 -0.35440052327E+02  0.18033342299E+03  0.18391299225E+03  0.10566000000E+00 0. -1.
        994    1    1    2    0    0 -0.11539869385E+02  0.37723782345E+02  0.83106309877E+01  0.17588279884E+03  0.17120000000E+03 0.  0.
        998    1    1    2    0    0  0.46234543759E+01 -0.22837300178E+01  0.13113559423E+04  0.13114042089E+04  0.10000000000E+02 0.  0.
</event>
<event>
 5    1  0.1068111E-008  0.3767688E+03  0.7957747E-01  0.3465350E+00
         13   -1    0    0    0    0  0.00000000000E+00  0.00000000000E+00  0.14999999963E+04  0.15000000000E+04  0.10566000000E+00 0. -1.
        994   -1    0    0    0    0 -0.00000000000E+00 -0.00000000000E+00  0.11368683772E-12  0.17120000000E+03  0.17120000000E+03 0.  0.
         13    1    1    2    0    0 -0.63320067293E+01  0.24407100195E+02  0.51988822740E+02  0.57781049688E+02  0.10566000000E+00 0. -1.
        994    1    1    2    0    0  0.48825870138E+01 -0.20688437378E+02  0.73015128891E+01  0.17266905683E+03  0.17120000000E+03 0.  0.
        998    1    1    2    0    0  0.14494197154E+01 -0.37186628167E+01  0.14407096606E+04  0.14407498935E+04  0.10000000000E+02 0. -1.
</event>
<event>
 5    1  0.1068111E-008  0.3732767E+03  0.7957747E-01  0.3480966E+00
         13   -1    0    0    0    0  0.00000000000E+00  0.00000000000E+00  0.14999999963E+04  0.15000000000E+04  0.10566000000E+00 0.  1.
        994   -1    0    0    0    0 -0.00000000000E+00 -0.00000000000E+00  0.11368683772E-12  0.17120000000E+03  0.17120000000E+03 0.  0.
         13    1    1    2    0    0  0.72380192979E+02 -0.46730668868E+02  0.38891165066E+03  0.39834022008E+03  0.10566000000E+00 0.  1.
        994    1    1    2    0    0 -0.66586370975E+02  0.39114138243E+02  0.28239570375E+02  0.18992254723E+03  0.17120000000E+03 0.  0.
        998    1    1    2    0    0 -0.57938220040E+01  0.76165306252E+01  0.10828487752E+04  0.10829372327E+04  0.10000000000E+02 0.  1.
</event>
<event>
 5    1  0.1068111E-008  0.3785346E+03  0.7957747E-01  0.3457564E+00
         13   -1    0    0    0    0  0.00000000000E+00  0.00000000000E+00  0.14999999963E+04  0.15000000000E+04  0.10566000000E+00 0. -1.
        994   -1    0    0    0    0 -0.00000000000E+00 -0.00000000000E+00  0.11368683772E-12  0.17120000000E+03  0.17120000000E+03 0.  0.
         13    1    1    2    0    0  0.76882990579E+01  0.28695315492E+02  0.90893321172E+02  0.95624986647E+02  0.10566000000E+00 0. -1.
        994    1    1    2    0    0 -0.29272412446E+02 -0.62044723480E+01  0.78882657549E+01  0.17397423471E+03  0.17120000000E+03 0.  0.
        998    1    1    2    0    0  0.21584113388E+02 -0.22490843144E+02  0.14012184094E+04  0.14016007786E+04  0.10000000000E+02 0. -1.
</event>
<event>
 5    1  0.1068111E-008  0.3767058E+03  0.7957747E-01  0.3465629E+00
         13   -1    0    0    0    0  0.00000000000E+00  0.00000000000E+00  0.14999999963E+04  0.15000000000E+04  0.10566000000E+00 0. -1.
        994   -1    0    0    0    0 -0.00000000000E+00 -0.00000000000E+00  0.11368683772E-12  0.17120000000E+03  0.17120000000E+03 0.  0.
         13    1    1    2    0    0  0.26560344652E+02  0.39924138380E+02  0.16974710528E+03  0.17639013478E+03  0.10566000000E+00 0. -1.
        994    1    1    2    0    0 -0.25777955278E+02 -0.46712566020E+02  0.15487322719E+02  0.17998851065E+03  0.17120000000E+03 0.  0.
        998    1    1    2    0    0 -0.78238937444E+00  0.67884276399E+01  0.13147655683E+04  0.13148213546E+04  0.10000000000E+02 0. -1.
</event>
<event>
 5    1  0.1068111E-008  0.3801206E+03  0.7957747E-01  0.3450634E+00
         13   -1    0    0    0    0  0.00000000000E+00  0.00000000000E+00  0.14999999963E+04  0.15000000000E+04  0.10566000000E+00 0. -1.
        994   -1    0    0    0    0 -0.00000000000E+00 -0.00000000000E+00  0.11368683772E-12  0.17120000000E+03  0.17120000000E+03 0.  0.
         13    1    1    2    0    0 -0.31976515233E+02  0.50015834723E+01  0.13595803386E+03  0.13975733075E+03  0.10566000000E+00 0. -1.
        994    1    1    2    0    0  0.83464056835E+01 -0.78140641772E+00  0.43071401272E+01  0.17145922122E+03  0.17120000000E+03 0.  0.
        998    1    1    2    0    0  0.23630109549E+02 -0.42201770546E+01  0.13597348223E+04  0.13599834480E+04  0.10000000000E+02 0. -1.
</event>
<event>
 5    1  0.1068111E-008  0.3830393E+03  0.7957747E-01  0.3438030E+00
         13   -1    0    0    0    0  0.00000000000E+00  0.00000000000E+00  0.14999999963E+04  0.15000000000E+04  0.10566000000E+00 0.  1.
        994   -1    0    0    0    0 -0.00000000000E+00 -0.00000000000E+00  0.11368683772E-12  0.17120000000E+03  0.17120000000E+03 0.  0.
         13    1    1    2    0    0 -0.75836950168E+01 -0.22419353857E+02  0.10414499273E+03  0.10680042384E+03  0.10566000000E+00 0.  1.
        994    1    1    2    0    0 -0.14172663328E+01  0.19951541117E+02  0.39319555363E+01  0.17240931794E+03  0.17120000000E+03 0.  0.
        998    1    1    2    0    0  0.90009613496E+01  0.24678127400E+01  0.13919230480E+04  0.13919902582E+04  0.10000000000E+02 0.  1.
</event>
<event>
 5    1  0.1068111E-008  0.3776326E+03  0.7957747E-01  0.3461532E+00
         13   -1    0    0    0    0  0.00000000000E+00  0.00000000000E+00  0.14999999963E+04  0.15000000000E+04  0.10566000000E+00 0. -1.
        994   -1    0    0    0    0 -0.00000000000E+00 -0.00000000000E+00  0.11368683772E-12  0.17120000000E+03  0.17120000000E+03 0.  0.
         13    1    1    2    0    0  0.26578102472E+02  0.32627101933E+02  0.48273996830E+02  0.64041496278E+02  0.10566000000E+00 0. -1.
        994    1    1    2    0    0 -0.12503447723E+03  0.29336156196E+02  0.76947166481E+02  0.22743029039E+03  0.17120000000E+03 0.  0.
        998    1    1    2    0    0  0.98456374761E+02 -0.61963258129E+02  0.13747788330E+04  0.13797282133E+04  0.10000000000E+02 0. -1.
</event>
<event>
 5    1  0.1068111E-008  0.3851410E+03  0.7957747E-01  0.3429075E+00
         13   -1    0    0    0    0  0.00000000000E+00  0.00000000000E+00  0.14999999963E+04  0.15000000000E+04  0.10566000000E+00 0. -1.
        994   -1    0    0    0    0 -0.00000000000E+00 -0.00000000000E+00  0.11368683772E-12  0.17120000000E+03  0.17120000000E+03 0.  0.
         13    1    1    2    0    0  0.13722376353E+02 -0.47386096092E-01  0.60485264401E+02  0.62022449418E+02  0.10566000000E+00 0. -1.
        994    1    1    2    0    0 -0.91054302245E+01 -0.10660521007E+02  0.22065331540E+01  0.17178726483E+03  0.17120000000E+03 0.  0.
        998    1    1    2    0    0 -0.46169461283E+01  0.10707907103E+02  0.14373081987E+04  0.14373902858E+04  0.10000000000E+02 0. -1.
</event>
<event>
 5    1  0.1068111E-008  0.3749793E+03  0.7957747E-01  0.3473315E+00
         13   -1    0    0    0    0  0.00000000000E+00  0.00000000000E+00  0.14999999963E+04  0.15000000000E+04  0.10566000000E+00 0.  1.
        994   -1    0    0    0    0 -0.00000000000E+00 -0.00000000000E+00  0.11368683772E-12  0.17120000000E+03  0.17120000000E+03 0.  0.
         13    1    1    2    0    0 -0.16537582327E+02 -0.76105046551E+01  0.21569841091E+02  0.28225531334E+02  0.10566000000E+00 0.  1.
        994    1    1    2    0    0  0.24355289793E+02 -0.69102597155E+01  0.88712184646E+01  0.17328897930E+03  0.17120000000E+03 0.  0.
        998    1    1    2    0    0 -0.78177074662E+01  0.14520764371E+02  0.14695589367E+04  0.14696854894E+04  0.10000000000E+02 0.  1.
</event>
<event>
 5    1  0.1068111E-008  0.3851440E+03  0.7957747E-01  0.3429062E+00
         13   -1    0    0    0    0  0.00000000000E+00  0.00000000000E+00  0.14999999963E+04  0.15000000000E+04  0.10566000000E+00 0. -1.
        994   -1    0    0    0    0 -0.00000000000E+00 -0.00000000000E+00  0.11368683772E-12  0.17120000000E+03  0.17120000000E+03 0.  0.
         13    1    1    2    0    0 -0.10234870771E+02  0.93846507698E+01  0.64128055250E+02  0.65614349680E+02  0.10566000000E+00 0. -1.
        994    1    1    2    0    0  0.11377227199E+02  0.64700681667E+01  0.21219604303E+01  0.17171268386E+03  0.17120000000E+03 0.  0.
        998    1    1    2    0    0 -0.11423564278E+01 -0.15854718937E+02  0.14337499806E+04  0.14338729665E+04  0.10000000000E+02 0. -1.
</event>
<event>
 5    1  0.1068111E-008  0.3858378E+03  0.7957747E-01  0.3426127E+00
         13   -1    0    0    0    0  0.00000000000E+00  0.00000000000E+00  0.14999999963E+04  0.15000000000E+04  0.10566000000E+00 0.  1.
        994   -1    0    0    0    0 -0.00000000000E+00 -0.00000000000E+00  0.11368683772E-12  0.17120000000E+03  0.17120000000E+03 0.  0.
         13    1    1    2    0    0  0.99688854378E+01 -0.66944652459E+01  0.62623378831E+02  0.63764357458E+02  0.10566000000E+00 0.  1.
        994    1    1    2    0    0 -0.59680793607E+01 -0.53772860173E+01  0.14264131822E+01  0.17139430513E+03  0.17120000000E+03 0.  0.
        998    1    1    2    0    0 -0.40008060771E+01  0.12071751263E+02  0.14359502043E+04  0.14360413374E+04  0.10000000000E+02 0.  1.
</event>
<event>
 5    1  0.1068111E-008  0.3685807E+03  0.7957747E-01  0.3502439E+00
         13   -1    0    0    0    0  0.00000000000E+00  0.00000000000E+00  0.14999999963E+04  0.15000000000E+04  0.10566000000E+00 0. -1.
        994   -1    0    0    0    0 -0.00000000000E+00 -0.00000000000E+00  0.11368683772E-12  0.17120000000E+03  0.17120000000E+03 0.  0.
         13    1    1    2    0    0  0.65041554937E+01  0.69953891628E+02  0.19942220164E+03  0.21143575067E+03  0.10566000000E+00 0. -1.
        994    1    1    2    0    0  0.12834198688E+02 -0.79538824973E+02  0.33124841740E+02  0.19208809561E+03  0.17120000000E+03 0.  0.
        998    1    1    2    0    0 -0.19338354181E+02  0.95849333453E+01  0.12674529529E+04  0.12676761537E+04  0.10000000000E+02 0. -1.
</event>
<event>
 5    1  0.1068111E-008  0.3855042E+03  0.7957747E-01  0.3427537E+00
         13   -1    0    0    0    0  0.00000000000E+00  0.00000000000E+00  0.14999999963E+04  0.15000000000E+04  0.10566000000E+00 0. -1.
        994   -1    0    0    0    0 -0.00000000000E+00 -0.00000000000E+00  0.11368683772E-12  0.17120000000E+03  0.17120000000E+03 0.  0.
         13    1    1    2    0    0  0.42357737599E+01  0.11962709006E+02  0.59353459609E+02  0.60695078200E+02  0.10566000000E+00 0. -1.
        994    1    1    2    0    0  0.84149781949E+01 -0.10170560006E+02  0.19523611892E+01  0.17171925886E+03  0.17120000000E+03 0.  0.
        998    1    1    2    0    0 -0.12650751955E+02 -0.17921490001E+01  0.14386941755E+04  0.14387856629E+04  0.10000000000E+02 0. -1.
</event>
<event>
 5    1  0.1358905E-008  0.3842243E+03  0.7957747E-01  0.3432969E+00
         13   -1    0    0    0    0  0.00000000000E+00  0.00000000000E+00  0.14999999963E+04  0.15000000000E+04  0.10566000000E+00 0.  1.
        994   -1    0    0    0    0 -0.00000000000E+00 -0.00000000000E+00  0.11368683772E-12  0.17120000000E+03  0.17120000000E+03 0.  0.
         13    1    1    2    0    0 -0.74354143525E+01  0.70409950811E+01  0.25462024429E+02  0.27444249860E+02  0.10566000000E+00 0.  1.
        994    1    1    2    0    0  0.46674754664E+01 -0.51031984494E+01  0.21734695188E+01  0.17135341237E+03  0.17120000000E+03 0.  0.
        998    1    1    2    0    0  0.27679388860E+01 -0.19377966317E+01  0.14723645023E+04  0.14724023378E+04  0.10000000000E+02 0.  1.
</event>
<event>
 5    1  0.1068111E-008  0.3975187E+03  0.7957747E-01  0.3378254E+00
         13   -1    0    0    0    0  0.00000000000E+00  0.00000000000E+00  0.14999999963E+04  0.15000000000E+04  0.10566000000E+00 0. -1.
        994   -1    0    0    0    0 -0.00000000000E+00 -0.00000000000E+00  0.11368683772E-12  0.17120000000E+03  0.17120000000E+03 0.  0.
         13    1    1    2    0    0 -0.20336565538E+02 -0.98450283043E+01 -0.17462102482E+01  0.22661881971E+02  0.10566000000E+00 0. -1.
        994    1    1    2    0    0  0.10945825059E+02  0.20401541755E+02  0.28384470572E+02  0.17507470452E+03  0.17120000000E+03 0.  0.
        998    1    1    2    0    0  0.93907404782E+01 -0.10556513451E+02  0.14733617360E+04  0.14734634135E+04  0.10000000000E+02 0. -1.
</event>
<event>
 5    1  0.1068111E-008  0.3843997E+03  0.7957747E-01  0.3432222E+00
         13   -1    0    0    0    0  0.00000000000E+00  0.00000000000E+00  0.14999999963E+04  0.15000000000E+04  0.10566000000E+00 0. -1.
        994   -1    0    0    0    0 -0.00000000000E+00 -0.00000000000E+00  0.11368683772E-12  0.17120000000E+03  0.17120000000E+03 0.  0.
         13    1    1    2    0    0 -0.20822463500E+01  0.13971569103E+02  0.49043311833E+02  0.51037222619E+02  0.10566000000E+00 0. -1.
        994    1    1    2    0    0 -0.10117148200E+02 -0.20538414080E+02  0.36576102358E+01  0.17276284685E+03  0.17120000000E+03 0.  0.
        998    1    1    2    0    0  0.12199394550E+02  0.65668449779E+01  0.14472990742E+04  0.14473999305E+04  0.10000000000E+02 0. -1.
</event>
<event>
 5    1  0.1068111E-008  0.3835275E+03  0.7957747E-01  0.3435941E+00
         13   -1    0    0    0    0  0.00000000000E+00  0.00000000000E+00  0.14999999963E+04  0.15000000000E+04  0.10566000000E+00 0. -1.
        994   -1    0    0    0    0 -0.00000000000E+00 -0.00000000000E+00  0.11368683772E-12  0.17120000000E+03  0.17120000000E+03 0.  0.
         13    1    1    2    0    0 -0.13371132990E+01  0.10645107333E+02  0.23229780867E+02  0.25587889035E+02  0.10566000000E+00 0. -1.
        994    1    1    2    0    0  0.24160168251E+01 -0.11397044848E+02  0.28115945254E+01  0.17161898156E+03  0.17120000000E+03 0.  0.
        998    1    1    2    0    0 -0.10789035262E+01  0.75193751490E+00  0.14739586209E+04  0.14739931294E+04  0.10000000000E+02 0. -1.
</event>
<event>
 5    1  0.1068111E-008  0.3815718E+03  0.7957747E-01  0.3444343E+00
         13   -1    0    0    0    0  0.00000000000E+00  0.00000000000E+00  0.14999999963E+04  0.15000000000E+04  0.10566000000E+00 0.  1.
        994   -1    0    0    0    0 -0.00000000000E+00 -0.00000000000E+00  0.11368683772E-12  0.17120000000E+03  0.17120000000E+03 0.  0.
         13    1    1    2    0    0 -0.27225646567E+02 -0.89469540397E+01  0.11933250740E+03  0.12272547537E+03  0.10566000000E+00 0.  1.
        994    1    1    2    0    0  0.19882003268E+02  0.53287264509E+01  0.47520973053E+01  0.17249844002E+03  0.17120000000E+03 0.  0.
        998    1    1    2    0    0  0.73436432991E+01  0.36182275889E+01  0.13759153916E+04  0.13759760846E+04  0.10000000000E+02 0.  1.
</event>
<event>
 5    1  0.1068111E-008  0.3825839E+03  0.7957747E-01  0.3439984E+00
         13   -1    0    0    0    0  0.00000000000E+00  0.00000000000E+00  0.14999999963E+04  0.15000000000E+04  0.10566000000E+00 0. -1.
        994   -1    0    0    0    0 -0.00000000000E+00 -0.00000000000E+00  0.11368683772E-12  0.17120000000E+03  0.17120000000E+03 0.  0.
         13    1    1    2    0    0  0.59242929668E+01 -0.91184342579E+01  0.19481405797E+02  0.22310970986E+02  0.10566000000E+00 0. -1.
        994    1    1    2    0    0 -0.16186007057E+01  0.13887463093E+02  0.34826559049E+01  0.17180526881E+03  0.17120000000E+03 0.  0.
        998    1    1    2    0    0 -0.43056922611E+01 -0.47690288346E+01  0.14770359346E+04  0.14770837602E+04  0.10000000000E+02 0. -1.
</event>
<event>
 5    1  0.1068111E-008  0.3741348E+03  0.7957747E-01  0.3477101E+00
         13   -1    0    0    0    0  0.00000000000E+00  0.00000000000E+00  0.14999999963E+04  0.15000000000E+04  0.10566000000E+00 0.  1.
        994   -1    0    0    0    0 -0.00000000000E+00 -0.00000000000E+00  0.11368683772E-12  0.17120000000E+03  0.17120000000E+03 0.  0.
         13    1    1    2    0    0  0.37741130413E+02  0.27297229632E+02  0.15077796061E+03  0.15780854299E+03  0.10566000000E+00 0.  1.
        994    1    1    2    0    0 -0.70726574577E+01 -0.36040041785E+02  0.11736221337E+02  0.17548813631E+03  0.17120000000E+03 0.  0.
        998    1    1    2    0    0 -0.30668472955E+02  0.87428121534E+01  0.13374858143E+04  0.13379033207E+04  0.10000000000E+02 0.  1.
</event>
<event>
 5    1  0.1068111E-008  0.3852685E+03  0.7957747E-01  0.3428534E+00
         13   -1    0    0    0    0  0.00000000000E+00  0.00000000000E+00  0.14999999963E+04  0.15000000000E+04  0.10566000000E+00 0.  1.
        994   -1    0    0    0    0 -0.00000000000E+00 -0.00000000000E+00  0.11368683772E-12  0.17120000000E+03  0.17120000000E+03 0.  0.
         13    1    1    2    0    0  0.15292538020E+02 -0.10623969136E+01  0.75977196924E+02  0.77508296477E+02  0.10566000000E+00 0.  1.
        994    1    1    2    0    0 -0.15359636477E+02 -0.39041980571E+01  0.23225948819E+01  0.17194765378E+03  0.17120000000E+03 0.  0.
        998    1    1    2    0    0  0.67098456731E-01  0.49665949707E+01  0.14217002045E+04  0.14217440497E+04  0.10000000000E+02 0.  1.
</event>
<event>
 5    1  0.1068111E-008  0.3716350E+03  0.7957747E-01  0.3488410E+00
         13   -1    0    0    0    0  0.00000000000E+00  0.00000000000E+00  0.14999999963E+04  0.15000000000E+04  0.10566000000E+00 0. -1.
        994   -1    0    0    0    0 -0.00000000000E+00 -0.00000000000E+00  0.11368683772E-12  0.17120000000E+03  0.17120000000E+03 0.  0.
         13    1    1    2    0    0  0.38914142759E+02  0.51664100962E+01  0.10119539390E+03  0.10854271607E+03  0.10566000000E+00 0. -1.
        994    1    1    2    0    0  0.10886739880E+02 -0.90255085267E+01  0.91048493141E+01  0.17202418199E+03  0.17120000000E+03 0.  0.
        998    1    1    2    0    0 -0.49800882638E+02  0.38590984305E+01  0.13896997531E+04  0.13906331019E+04  0.10000000000E+02 0. -1.
</event>
<event>
 5    1  0.1068111E-008  0.3755227E+03  0.7957747E-01  0.3470888E+00
         13   -1    0    0    0    0  0.00000000000E+00  0.00000000000E+00  0.14999999963E+04  0.15000000000E+04  0.10566000000E+00 0. -1.
        994   -1    0    0    0    0 -0.00000000000E+00 -0.00000000000E+00  0.11368683772E-12  0.17120000000E+03  0.17120000000E+03 0.  0.
         13    1    1    2    0    0  0.93731206595E+02 -0.54534284374E+02  0.29170334889E+03  0.31120794042E+03  0.10566000000E+00 0. -1.
        994    1    1    2    0    0 -0.11170993116E+03  0.65911726554E+02  0.76577176596E+02  0.22802843768E+03  0.17120000000E+03 0.  0.
        998    1    1    2    0    0  0.17978724566E+02 -0.11377442180E+02  0.11317194708E+04  0.11319636219E+04  0.10000000000E+02 0. -1.
</event>
<event>
 5    1  0.1068111E-008  0.3849952E+03  0.7957747E-01  0.3429692E+00
         13   -1    0    0    0    0  0.00000000000E+00  0.00000000000E+00  0.14999999963E+04  0.15000000000E+04  0.10566000000E+00 0.  1.
        994   -1    0    0    0    0 -0.00000000000E+00 -0.00000000000E+00  0.11368683772E-12  0.17120000000E+03  0.17120000000E+03 0.  0.
         13    1    1    2    0    0  0.54095770253E+01  0.94218884487E+01  0.34490688340E+02  0.36161502343E+02  0.10566000000E+00 0.  1.
        994    1    1    2    0    0 -0.17023571695E+01 -0.17986506964E+02  0.27067053329E+01  0.17217194518E+03  0.17120000000E+03 0.  0.
        998    1    1    2    0    0 -0.37072198559E+01  0.85646185156E+01  0.14628026026E+04  0.14628665525E+04  0.10000000000E+02 0.  1.
</event>
<event>
 5    1  0.1068111E-008  0.3801543E+03  0.7957747E-01  0.3450487E+00
         13   -1    0    0    0    0  0.00000000000E+00  0.00000000000E+00  0.14999999963E+04  0.15000000000E+04  0.10566000000E+00 0. -1.
        994   -1    0    0    0    0 -0.00000000000E+00 -0.00000000000E+00  0.11368683772E-12  0.17120000000E+03  0.17120000000E+03 0.  0.
         13    1    1    2    0    0  0.47208802068E+02  0.21730223072E+02  0.30604629398E+03  0.31042747754E+03  0.10566000000E+00 0. -1.
        994    1    1    2    0    0 -0.34541519318E+02 -0.16006162006E+02  0.89129640264E+01  0.17560807130E+03  0.17120000000E+03 0.  0.
        998    1    1    2    0    0 -0.12667282751E+02 -0.57240610662E+01  0.11850407383E+04  0.11851644512E+04  0.10000000000E+02 0. -1.
</event>
<event>
 5    1  0.1068111E-008  0.3719898E+03  0.7957747E-01  0.3486796E+00
         13   -1    0    0    0    0  0.00000000000E+00  0.00000000000E+00  0.14999999963E+04  0.15000000000E+04  0.10566000000E+00 0. -1.
        994   -1    0    0    0    0 -0.00000000000E+00 -0.00000000000E+00  0.11368683772E-12  0.17120000000E+03  0.17120000000E+03 0.  0.
         13    1    1    2    0    0 -0.74521110897E+01  0.54052556554E+02  0.15931041956E+03  0.16839546839E+03  0.10566000000E+00 0. -1.
        994    1    1    2    0    0 -0.16606190028E+02 -0.58571072245E+02  0.21069927198E+02  0.18291997672E+03  0.17120000000E+03 0.  0.
        998    1    1    2    0    0  0.24058301118E+02  0.45185156904E+01  0.13196196495E+04  0.13198845549E+04  0.10000000000E+02 0. -1.
</event>
<event>
 5    1  0.1068111E-008  0.4575521E+03  0.7957747E-01  0.3170312E+00
         13   -1    0    0    0    0  0.00000000000E+00  0.00000000000E+00  0.14999999963E+04  0.15000000000E+04  0.10566000000E+00 0. -1.
        994   -1    0    0    0    0 -0.00000000000E+00 -0.00000000000E+00  0.11368683772E-12  0.17120000000E+03  0.17120000000E+03 0.  0.
         13    1    1    2    0    0 -0.27091910327E+02 -0.13070703039E+03  0.17254407327E+03  0.21815079139E+03  0.10566000000E+00 0. -1.
        994    1    1    2    0    0 -0.26133331345E+02 -0.18258197698E+02  0.73339738077E+02  0.18895626471E+03  0.17120000000E+03 0.  0.
        998    1    1    2    0    0  0.53225241671E+02  0.14896522809E+03  0.12541161849E+04  0.12640929439E+04  0.10000000000E+02 0. -1.
</event>
<event>
 5    1  0.1068111E-008  0.3724849E+03  0.7957747E-01  0.3484548E+00
         13   -1    0    0    0    0  0.00000000000E+00  0.00000000000E+00  0.14999999963E+04  0.15000000000E+04  0.10566000000E+00 0.  1.
        994   -1    0    0    0    0 -0.00000000000E+00 -0.00000000000E+00  0.11368683772E-12  0.17120000000E+03  0.17120000000E+03 0.  0.
         13    1    1    2    0    0 -0.35973691783E+02  0.94002089492E+02  0.42237263473E+03  0.43419943927E+03  0.10566000000E+00 0.  1.
        994    1    1    2    0    0  0.32537937256E+02 -0.45948520034E+02  0.23523777047E+02  0.18174925568E+03  0.17120000000E+03 0.  0.
        998    1    1    2    0    0  0.34357545268E+01 -0.48053569458E+02  0.10541035845E+04  0.10552513051E+04  0.10000000000E+02 0.  1.
</event>
<event>
 5    1  0.1068111E-008  0.3824324E+03  0.7957747E-01  0.3440635E+00
         13   -1    0    0    0    0  0.00000000000E+00  0.00000000000E+00  0.14999999963E+04  0.15000000000E+04  0.10566000000E+00 0. -1.
        994   -1    0    0    0    0 -0.00000000000E+00 -0.00000000000E+00  0.11368683772E-12  0.17120000000E+03  0.17120000000E+03 0.  0.
         13    1    1    2    0    0  0.22225455570E+02 -0.74639971929E+01  0.65125893920E+02  0.69217594240E+02  0.10566000000E+00 0. -1.
        994    1    1    2    0    0 -0.80917041270E+02  0.45590423291E+02  0.32064106393E+02  0.19739199878E+03  0.17120000000E+03 0.  0.
        998    1    1    2    0    0  0.58691585700E+02 -0.38126426098E+02  0.14028099960E+04  0.14045904070E+04  0.10000000000E+02 0. -1.
</event>
<event>
 5    1  0.1068111E-008  0.3858045E+03  0.7957747E-01  0.3426267E+00
         13   -1    0    0    0    0  0.00000000000E+00  0.00000000000E+00  0.14999999963E+04  0.15000000000E+04  0.10566000000E+00 0. -1.
        994   -1    0    0    0    0 -0.00000000000E+00 -0.00000000000E+00  0.11368683772E-12  0.17120000000E+03  0.17120000000E+03 0.  0.
         13    1    1    2    0    0  0.37835347537E-01  0.11408283211E+02  0.50693142313E+02  0.51961102750E+02  0.10566000000E+00 0. -1.
        994    1    1    2    0    0  0.12519062626E+02 -0.15826481015E+02  0.25680440941E+01  0.17240429020E+03  0.17120000000E+03 0.  0.
        998    1    1    2    0    0 -0.12556897974E+02  0.44181978042E+01  0.14467388099E+04  0.14468346070E+04  0.10000000000E+02 0. -1.
</event>
<event>
 5    1  0.1068111E-008  0.3812844E+03  0.7957747E-01  0.3445585E+00
         13   -1    0    0    0    0  0.00000000000E+00  0.00000000000E+00  0.14999999963E+04  0.15000000000E+04  0.10566000000E+00 0.  1.
        994   -1    0    0    0    0 -0.00000000000E+00 -0.00000000000E+00  0.11368683772E-12  0.17120000000E+03  0.17120000000E+03 0.  0.
         13    1    1    2    0    0  0.88368153549E+01 -0.11898009784E+02  0.30119380077E+02  0.33568439980E+02  0.10566000000E+00 0.  1.
        994    1    1    2    0    0 -0.58270694918E+01  0.89001871705E+01  0.38630055999E+01  0.17157368937E+03  0.17120000000E+03 0.  0.
        998    1    1    2    0    0 -0.30097458631E+01  0.29978226136E+01  0.14660176106E+04  0.14660578707E+04  0.10000000000E+02 0.  1.
</event>
<event>
 5    1  0.1068111E-008  0.3846309E+03  0.7957747E-01  0.3431239E+00
         13   -1    0    0    0    0  0.00000000000E+00  0.00000000000E+00  0.14999999963E+04  0.15000000000E+04  0.10566000000E+00 0.  1.
        994   -1    0    0    0    0 -0.00000000000E+00 -0.00000000000E+00  0.11368683772E-12  0.17120000000E+03  0.17120000000E+03 0.  0.
         13    1    1    2    0    0 -0.13434753410E+02  0.64423401141E+01  0.57814042970E+02  0.59703191489E+02  0.10566000000E+00 0.  1.
        994    1    1    2    0    0  0.17261442931E+02 -0.88630491473E+01  0.30541931557E+01  0.17232318227E+03  0.17120000000E+03 0.  0.
        998    1    1    2    0    0 -0.38266895213E+01  0.24207090332E+01  0.14391317602E+04  0.14391736262E+04  0.10000000000E+02 0.  1.
</event>
<event>
 5    1  0.1068111E-008  0.3845249E+03  0.7957747E-01  0.3431690E+00
         13   -1    0    0    0    0  0.00000000000E+00  0.00000000000E+00  0.14999999963E+04  0.15000000000E+04  0.10566000000E+00 0.  1.
        994   -1    0    0    0    0 -0.00000000000E+00 -0.00000000000E+00  0.11368683772E-12  0.17120000000E+03  0.17120000000E+03 0.  0.
         13    1    1    2    0    0  0.18839056945E+02 -0.23434774273E+01  0.10602516889E+03  0.10771141794E+03  0.10566000000E+00 0.  1.
        994    1    1    2    0    0  0.10540461169E+01  0.64004017069E+01  0.20047862313E+01  0.17133457130E+03  0.17120000000E+03 0.  0.
        998    1    1    2    0    0 -0.19893103062E+02 -0.40569242795E+01  0.13919700412E+04  0.13921540108E+04  0.10000000000E+02 0.  1.
</event>
<event>
 5    1  0.1068111E-008  0.3808379E+03  0.7957747E-01  0.3447518E+00
         13   -1    0    0    0    0  0.00000000000E+00  0.00000000000E+00  0.14999999963E+04  0.15000000000E+04  0.10566000000E+00 0. -1.
        994   -1    0    0    0    0 -0.00000000000E+00 -0.00000000000E+00  0.11368683772E-12  0.17120000000E+03  0.17120000000E+03 0.  0.
         13    1    1    2    0    0  0.66310218587E+01  0.10651978517E+02  0.19744936108E+02  0.23394631076E+02  0.10566000000E+00 0. -1.
        994    1    1    2    0    0 -0.59049121440E+01 -0.54868852098E+01  0.39274202995E+01  0.17143464798E+03  0.17120000000E+03 0.  0.
        998    1    1    2    0    0 -0.72610971470E+00 -0.51650933069E+01  0.14763276399E+04  0.14763707209E+04  0.10000000000E+02 0. -1.
</event>
<event>
 5    1  0.1068111E-008  0.3808472E+03  0.7957747E-01  0.3447478E+00
         13   -1    0    0    0    0  0.00000000000E+00  0.00000000000E+00  0.14999999963E+04  0.15000000000E+04  0.10566000000E+00 0. -1.
        994   -1    0    0    0    0 -0.00000000000E+00 -0.00000000000E+00  0.11368683772E-12  0.17120000000E+03  0.17120000000E+03 0.  0.
         13    1    1    2    0    0 -0.79936325358E+01  0.25331316461E+02  0.10396156667E+03  0.10730140849E+03  0.10566000000E+00 0. -1.
        994    1    1    2    0    0 -0.22867904325E+02 -0.57483945087E+01  0.55617176840E+01  0.17290563262E+03  0.17120000000E+03 0.  0.
        998    1    1    2    0    0  0.30861536861E+02 -0.19582921952E+02  0.13904767119E+04  0.13909929589E+04  0.10000000000E+02 0. -1.
</event>
<event>
 5    1  0.1068111E-008  0.3856375E+03  0.7957747E-01  0.3426973E+00
         13   -1    0    0    0    0  0.00000000000E+00  0.00000000000E+00  0.14999999963E+04  0.15000000000E+04  0.10566000000E+00 0. -1.
        994   -1    0    0    0    0 -0.00000000000E+00 -0.00000000000E+00  0.11368683772E-12  0.17120000000E+03  0.17120000000E+03 0.  0.
         13    1    1    2    0    0 -0.32088234253E+01  0.10868233785E+02  0.50558898517E+02  0.51813400165E+02  0.10566000000E+00 0. -1.
        994    1    1    2    0    0  0.66831731272E+01 -0.13432228879E+01  0.14664615682E+01  0.17134193754E+03  0.17120000000E+03 0.  0.
        998    1    1    2    0    0 -0.34743497019E+01 -0.95250108969E+01  0.14479746362E+04  0.14480446623E+04  0.10000000000E+02 0. -1.
</event>
<event>
 5    1  0.1068111E-008  0.3809490E+03  0.7957747E-01  0.3447037E+00
         13   -1    0    0    0    0  0.00000000000E+00  0.00000000000E+00  0.14999999963E+04  0.15000000000E+04  0.10566000000E+00 0. -1.
        994   -1    0    0    0    0 -0.00000000000E+00 -0.00000000000E+00  0.11368683772E-12  0.17120000000E+03  0.17120000000E+03 0.  0.
         13    1    1    2    0    0  0.27446321366E+02 -0.45095903079E+02  0.30798540271E+03  0.31247713592E+03  0.10566000000E+00 0. -1.
        994    1    1    2    0    0 -0.26066141667E+02  0.44692188778E+02  0.12627286329E+02  0.17929228606E+03  0.17120000000E+03 0.  0.
        998    1    1    2    0    0 -0.13801796985E+01  0.40371430131E+00  0.11793873072E+04  0.11794305780E+04  0.10000000000E+02 0.  0.
</event>
<event>
 5    1  0.1068111E-008  0.3699399E+03  0.7957747E-01  0.3496167E+00
         13   -1    0    0    0    0  0.00000000000E+00  0.00000000000E+00  0.14999999963E+04  0.15000000000E+04  0.10566000000E+00 0.  1.
        994   -1    0    0    0    0 -0.00000000000E+00 -0.00000000000E+00  0.11368683772E-12  0.17120000000E+03  0.17120000000E+03 0.  0.
         13    1    1    2    0    0 -0.86701810593E+02 -0.12688900055E+02  0.33088510940E+03  0.34229107340E+03  0.10566000000E+00 0.  1.
        994    1    1    2    0    0  0.80907485524E+02  0.12954389998E+02  0.32891722172E+02  0.19262695248E+03  0.17120000000E+03 0.  0.
        998    1    1    2    0    0  0.57943250691E+01 -0.26548994282E+00  0.11362231647E+04  0.11362819741E+04  0.10000000000E+02 0.  1.
</event>
<event>
 5    1  0.1068111E-008  0.3831975E+03  0.7957747E-01  0.3437353E+00
         13   -1    0    0    0    0  0.00000000000E+00  0.00000000000E+00  0.14999999963E+04  0.15000000000E+04  0.10566000000E+00 0.  1.
        994   -1    0    0    0    0 -0.00000000000E+00 -0.00000000000E+00  0.11368683772E-12  0.17120000000E+03  0.17120000000E+03 0.  0.
         13    1    1    2    0    0  0.85367587273E+01  0.11015277778E+02  0.36213578011E+02  0.38802667312E+02  0.10566000000E+00 0.  1.
        994    1    1    2    0    0 -0.14809596096E+02 -0.12652846035E+02  0.37838185985E+01  0.17234609346E+03  0.17120000000E+03 0.  0.
        998    1    1    2    0    0  0.62728373683E+01  0.16375682566E+01  0.14600025997E+04  0.14600512392E+04  0.10000000000E+02 0.  1.
</event>
<event>
 5    1  0.1068111E-008  0.3823376E+03  0.7957747E-01  0.3441043E+00
         13   -1    0    0    0    0  0.00000000000E+00  0.00000000000E+00  0.14999999963E+04  0.15000000000E+04  0.10566000000E+00 0.  1.
        994   -1    0    0    0    0 -0.00000000000E+00 -0.00000000000E+00  0.11368683772E-12  0.17120000000E+03  0.17120000000E+03 0.  0.
         13    1    1    2    0    0  0.38405531633E+02  0.19688527723E+02  0.24440323005E+03  0.24818455433E+03  0.10566000000E+00 0.  1.
        994    1    1    2    0    0 -0.44865386793E+02 -0.26235671479E+02  0.11970767367E+02  0.17931523265E+03  0.17120000000E+03 0.  0.
        998    1    1    2    0    0  0.64598551602E+01  0.65471437559E+01  0.12436259989E+04  0.12437002130E+04  0.10000000000E+02 0.  1.
</event>
<event>
 5    1  0.1068111E-008  0.3755676E+03  0.7957747E-01  0.3470688E+00
         13   -1    0    0    0    0  0.00000000000E+00  0.00000000000E+00  0.14999999963E+04  0.15000000000E+04  0.10566000000E+00 0.  1.
        994   -1    0    0    0    0 -0.00000000000E+00 -0.00000000000E+00  0.11368683772E-12  0.17120000000E+03  0.17120000000E+03 0.  0.
         13    1    1    2    0    0  0.52183057776E+02  0.54146960543E+01  0.94573869833E+02  0.10815090601E+03  0.10566000000E+00 0.  1.
        994    1    1    2    0    0 -0.32402576557E+02 -0.78379236349E+01  0.17886501822E+02  0.17533033668E+03  0.17120000000E+03 0.  0.
        998    1    1    2    0    0 -0.19780481219E+02  0.24232275806E+01  0.13875396246E+04  0.13877187573E+04  0.10000000000E+02 0.  1.
</event>
<event>
 5    1  0.1068111E-008  0.3853042E+03  0.7957747E-01  0.3428383E+00
         13   -1    0    0    0    0  0.00000000000E+00  0.00000000000E+00  0.14999999963E+04  0.15000000000E+04  0.10566000000E+00 0. -1.
        994   -1    0    0    0    0 -0.00000000000E+00 -0.00000000000E+00  0.11368683772E-12  0.17120000000E+03  0.17120000000E+03 0.  0.
         13    1    1    2    0    0  0.14247875172E+02 -0.14018235316E+01  0.79179858787E+02  0.80463831985E+02  0.10566000000E+00 0. -1.
        994    1    1    2    0    0  0.69661755782E+01 -0.93864459150E+01  0.19282030715E+01  0.17160941389E+03  0.17120000000E+03 0.  0.
        998    1    1    2    0    0 -0.21214050750E+02  0.10788269447E+02  0.14188919344E+04  0.14191267541E+04  0.10000000000E+02 0. -1.
</event>
<event>
 5    1  0.1068111E-008  0.3852377E+03  0.7957747E-01  0.3428665E+00
         13   -1    0    0    0    0  0.00000000000E+00  0.00000000000E+00  0.14999999963E+04  0.15000000000E+04  0.10566000000E+00 0.  1.
        994   -1    0    0    0    0 -0.00000000000E+00 -0.00000000000E+00  0.11368683772E-12  0.17120000000E+03  0.17120000000E+03 0.  0.
         13    1    1    2    0    0 -0.14461612441E+01 -0.10137680078E+02  0.34930473319E+02  0.36400728976E+02  0.10566000000E+00 0.  1.
        994    1    1    2    0    0  0.66215675500E+00  0.49386624669E+01  0.15937753725E+01  0.17127991405E+03  0.17120000000E+03 0.  0.
        998    1    1    2    0    0  0.78400448913E+00  0.51990176109E+01  0.14634757476E+04  0.14635193570E+04  0.10000000000E+02 0.  1.
</event>
<event>
 5    1  0.1068111E-008  0.4057784E+03  0.7957747E-01  0.3346062E+00
         13   -1    0    0    0    0  0.00000000000E+00  0.00000000000E+00  0.14999999963E+04  0.15000000000E+04  0.10566000000E+00 0. -1.
        994   -1    0    0    0    0 -0.00000000000E+00 -0.00000000000E+00  0.11368683772E-12  0.17120000000E+03  0.17120000000E+03 0.  0.
         13    1    1    2    0    0  0.47022198255E+02 -0.17088074593E+02  0.35303194431E+02  0.61232476049E+02  0.10566000000E+00 0. -1.
        994    1    1    2    0    0  0.41526737787E+02 -0.34645119576E+02  0.43097789683E+02  0.18463914465E+03  0.17120000000E+03 0.  0.
        998    1    1    2    0    0 -0.88548936042E+02  0.51733194169E+02  0.14215990122E+04  0.14253283793E+04  0.10000000000E+02 0. -1.
</event>
<event>
 5    1  0.1068111E-008  0.3774255E+03  0.7957747E-01  0.3462446E+00
         13   -1    0    0    0    0  0.00000000000E+00  0.00000000000E+00  0.14999999963E+04  0.15000000000E+04  0.10566000000E+00 0. -1.
        994   -1    0    0    0    0 -0.00000000000E+00 -0.00000000000E+00  0.11368683772E-12  0.17120000000E+03  0.17120000000E+03 0.  0.
         13    1    1    2    0    0  0.11570244086E+02 -0.71908508274E+02  0.15885139208E+03  0.17475262527E+03  0.10566000000E+00 0. -1.
        994    1    1    2    0    0 -0.22980091712E+02  0.64395030943E+02  0.31898212078E+02  0.18708752112E+03  0.17120000000E+03 0.  0.
        998    1    1    2    0    0  0.11409847627E+02  0.75134773313E+01  0.13092503921E+04  0.13093598536E+04  0.10000000000E+02 0. -1.
</event>
<event>
 5    1  0.1068111E-008  0.3689372E+03  0.7957747E-01  0.3500790E+00
         13   -1    0    0    0    0  0.00000000000E+00  0.00000000000E+00  0.14999999963E+04  0.15000000000E+04  0.10566000000E+00 0. -1.
        994   -1    0    0    0    0 -0.00000000000E+00 -0.00000000000E+00  0.11368683772E-12  0.17120000000E+03  0.17120000000E+03 0.  0.
         13    1    1    2    0    0  0.26171121542E+02  0.11826976457E+02  0.37021025146E+02  0.46854801694E+02  0.10566000000E+00 0. -1.
        994    1    1    2    0    0 -0.27575877933E+02 -0.12329025797E+02  0.12998711915E+02  0.17432968890E+03  0.17120000000E+03 0.  0.
        998    1    1    2    0    0  0.14047563909E+01  0.50204933970E+00  0.14499802592E+04  0.14500155094E+04  0.10000000000E+02 0. -1.
</event>
<event>
 5    1  0.1068111E-008  0.3776223E+03  0.7957747E-01  0.3461577E+00
         13   -1    0    0    0    0  0.00000000000E+00  0.00000000000E+00  0.14999999963E+04  0.15000000000E+04  0.10566000000E+00 0.  1.
        994   -1    0    0    0    0 -0.00000000000E+00 -0.00000000000E+00  0.11368683772E-12  0.17120000000E+03  0.17120000000E+03 0.  0.
         13    1    1    2    0    0  0.61516164102E+01 -0.31039497610E+02  0.91706680005E+02  0.97012468879E+02  0.10566000000E+00 0.  1.
        994    1    1    2    0    0  0.10909461481E+01  0.20460926602E+02  0.67541367265E+01  0.17255404384E+03  0.17120000000E+03 0.  0.
        998    1    1    2    0    0 -0.72425625583E+01  0.10578571008E+02  0.14015391795E+04  0.14016334873E+04  0.10000000000E+02 0.  1.
</event>
<event>
 5    1  0.1068111E-008  0.3762778E+03  0.7957747E-01  0.3467528E+00
         13   -1    0    0    0    0  0.00000000000E+00  0.00000000000E+00  0.14999999963E+04  0.15000000000E+04  0.10566000000E+00 0. -1.
        994   -1    0    0    0    0 -0.00000000000E+00 -0.00000000000E+00  0.11368683772E-12  0.17120000000E+03  0.17120000000E+03 0.  0.
         13    1    1    2    0    0 -0.10064151113E+02  0.17369383112E+02  0.30951164178E+02  0.36891304332E+02  0.10566000000E+00 0. -1.
        994    1    1    2    0    0  0.17870017471E+01 -0.15204207457E+02  0.68176178873E+01  0.17201825837E+03  0.17120000000E+03 0.  0.
        998    1    1    2    0    0  0.82771493660E+01 -0.21651756552E+01  0.14622312142E+04  0.14622904373E+04  0.10000000000E+02 0. -1.
</event>
<event>
 5    1  0.1068111E-008  0.3837241E+03  0.7957747E-01  0.3435102E+00
         13   -1    0    0    0    0  0.00000000000E+00  0.00000000000E+00  0.14999999963E+04  0.15000000000E+04  0.10566000000E+00 0. -1.
        994   -1    0    0    0    0 -0.00000000000E+00 -0.00000000000E+00  0.11368683772E-12  0.17120000000E+03  0.17120000000E+03 0.  0.
         13    1    1    2    0    0  0.69381534085E+01  0.73814668463E+01  0.21776579438E+02  0.24017797601E+02  0.10566000000E+00 0. -1.
        994    1    1    2    0    0 -0.93271048125E+01 -0.32207434561E+01  0.25865362633E+01  0.17150363915E+03  0.17120000000E+03 0.  0.
        998    1    1    2    0    0  0.23889514040E+01 -0.41607233902E+01  0.14756368806E+04  0.14756785632E+04  0.10000000000E+02 0. -1.
</event>
<event>
 5    1  0.1068111E-008  0.3791841E+03  0.7957747E-01  0.3454719E+00
         13   -1    0    0    0    0  0.00000000000E+00  0.00000000000E+00  0.14999999963E+04  0.15000000000E+04  0.10566000000E+00 0.  1.
        994   -1    0    0    0    0 -0.00000000000E+00 -0.00000000000E+00  0.11368683772E-12  0.17120000000E+03  0.17120000000E+03 0.  0.
         13    1    1    2    0    0 -0.22466009416E+01 -0.19527401736E+02  0.42056747820E+02  0.46423569828E+02  0.10566000000E+00 0.  1.
        994    1    1    2    0    0 -0.62378265557E+01  0.43621104064E+01  0.47397810089E+01  0.17143466397E+03  0.17120000000E+03 0.  0.
        998    1    1    2    0    0  0.84844274973E+01  0.15165291330E+02  0.14532034675E+04  0.14533417662E+04  0.10000000000E+02 0.  1.
</event>
<event>
 5    1  0.1068111E-008  0.4310463E+03  0.7957747E-01  0.3255144E+00
         13   -1    0    0    0    0  0.00000000000E+00  0.00000000000E+00  0.14999999963E+04  0.15000000000E+04  0.10566000000E+00 0. -1.
        994   -1    0    0    0    0 -0.00000000000E+00 -0.00000000000E+00  0.11368683772E-12  0.17120000000E+03  0.17120000000E+03 0.  0.
         13    1    1    2    0    0 -0.69006680978E+02 -0.54325524881E+02  0.28407583918E+02  0.92304857192E+02  0.10566000000E+00 0. -1.
        994    1    1    2    0    0  0.19981873556E+03  0.10053906905E+03  0.35264423091E+03  0.45133471513E+03  0.17120000000E+03 0.  0.
        998    1    1    2    0    0 -0.13081205459E+03 -0.46213544167E+02  0.11189481815E+04  0.11275604277E+04  0.10000000000E+02 0. -1.
</event>
<event>
 5    1  0.1068111E-008  0.3835345E+03  0.7957747E-01  0.3435911E+00
         13   -1    0    0    0    0  0.00000000000E+00  0.00000000000E+00  0.14999999963E+04  0.15000000000E+04  0.10566000000E+00 0. -1.
        994   -1    0    0    0    0 -0.00000000000E+00 -0.00000000000E+00  0.11368683772E-12  0.17120000000E+03  0.17120000000E+03 0.  0.
         13    1    1    2    0    0  0.19270863373E+02  0.60520300609E+00  0.75362198690E+02  0.77789489016E+02  0.10566000000E+00 0. -1.
        994    1    1    2    0    0 -0.18967668451E+02  0.49978416678E+01  0.36318439541E+01  0.17235829298E+03  0.17120000000E+03 0.  0.
        998    1    1    2    0    0 -0.30319492256E+00 -0.56030446739E+01  0.14210059536E+04  0.14210522180E+04  0.10000000000E+02 0. -1.
</event>
<event>
 5    1  0.1068111E-008  0.3749968E+03  0.7957747E-01  0.3473237E+00
         13   -1    0    0    0    0  0.00000000000E+00  0.00000000000E+00  0.14999999963E+04  0.15000000000E+04  0.10566000000E+00 0.  1.
        994   -1    0    0    0    0 -0.00000000000E+00 -0.00000000000E+00  0.11368683772E-12  0.17120000000E+03  0.17120000000E+03 0.  0.
         13    1    1    2    0    0 -0.46347869531E+02  0.22178868934E+02  0.89687389451E+02  0.10336278938E+03  0.10566000000E+00 0.  1.
        994    1    1    2    0    0  0.41610749215E+02 -0.12246833451E+02  0.20330666844E+02  0.17777574467E+03  0.17120000000E+03 0.  0.
        998    1    1    2    0    0  0.47371203159E+01 -0.99320354833E+01  0.13899819400E+04  0.13900614659E+04  0.10000000000E+02 0.  1.
</event>
<event>
 5    1  0.1356595E-008  0.3856957E+03  0.7957747E-01  0.3426727E+00
         13   -1    0    0    0    0  0.00000000000E+00  0.00000000000E+00  0.14999999963E+04  0.15000000000E+04  0.10566000000E+00 0.  1.
        994   -1    0    0    0    0 -0.00000000000E+00 -0.00000000000E+00  0.11368683772E-12  0.17120000000E+03  0.17120000000E+03 0.  0.
         13    1    1    2    0    0  0.91286873569E+01 -0.52112834122E+01  0.41489639001E+02  0.42800604156E+02  0.10566000000E+00 0.  1.
        994    1    1    2    0    0 -0.13456263143E+02  0.56079925178E+01  0.19827703648E+01  0.17183099830E+03  0.17120000000E+03 0.  0.
        998    1    1    2    0    0  0.43275757861E+01 -0.39670910564E+00  0.14565275869E+04  0.14565683975E+04  0.10000000000E+02 0.  1.
</event>
<event>
 5    1  0.1068111E-008  0.3813180E+03  0.7957747E-01  0.3445440E+00
         13   -1    0    0    0    0  0.00000000000E+00  0.00000000000E+00  0.14999999963E+04  0.15000000000E+04  0.10566000000E+00 0.  1.
        994   -1    0    0    0    0 -0.00000000000E+00 -0.00000000000E+00  0.11368683772E-12  0.17120000000E+03  0.17120000000E+03 0.  0.
         13    1    1    2    0    0 -0.63877193766E+01 -0.83633767433E+01  0.14419160651E+02  0.17851397348E+02  0.10566000000E+00 0.  1.
        994    1    1    2    0    0  0.38863744303E+01  0.92271321754E+01  0.38030199021E+01  0.17153468114E+03  0.17120000000E+03 0.  0.
        998    1    1    2    0    0  0.25013449463E+01 -0.86375543216E+00  0.14817778157E+04  0.14818139215E+04  0.10000000000E+02 0.  1.
</event>
<event>
 5    1  0.1068111E-008  0.2849684E+03  0.7957747E-01  0.4009541E+00
         13   -1    0    0    0    0  0.00000000000E+00  0.00000000000E+00  0.14999999963E+04  0.15000000000E+04  0.10566000000E+00 0. -1.
        994   -1    0    0    0    0 -0.00000000000E+00 -0.00000000000E+00  0.11368683772E-12  0.17120000000E+03  0.17120000000E+03 0.  0.
         13    1    1    2    0    0 -0.20536153802E+03 -0.72333410195E+02  0.53494278103E+03  0.57755456337E+03  0.10566000000E+00 0. -1.
        994    1    1    2    0    0  0.18041150543E+03 -0.17421844409E+01  0.18590396707E+03  0.31051742539E+03  0.17120000000E+03 0.  0.
        998    1    1    2    0    0  0.24950032585E+02  0.74075594635E+02  0.77915324817E+03  0.78312801124E+03  0.10000000000E+02 0.  1.
</event>
<event>
 5    1  0.1068111E-008  0.3792378E+03  0.7957747E-01  0.3454484E+00
         13   -1    0    0    0    0  0.00000000000E+00  0.00000000000E+00  0.14999999963E+04  0.15000000000E+04  0.10566000000E+00 0.  1.
        994   -1    0    0    0    0 -0.00000000000E+00 -0.00000000000E+00  0.11368683772E-12  0.17120000000E+03  0.17120000000E+03 0.  0.
         13    1    1    2    0    0  0.17520576045E+02  0.13926295170E+01  0.24541898313E+01  0.17746667678E+02  0.10566000000E+00 0.  1.
        994    1    1    2    0    0 -0.20512845537E+02 -0.21964661430E+01  0.17448548317E+02  0.17331905012E+03  0.17120000000E+03 0.  0.
        998    1    1    2    0    0  0.29922694917E+01  0.80383662597E+00  0.14800972581E+04  0.14801342822E+04  0.10000000000E+02 0.  1.
</event>
<event>
 5    1  0.1068111E-008  0.3829149E+03  0.7957747E-01  0.3438564E+00
         13   -1    0    0    0    0  0.00000000000E+00  0.00000000000E+00  0.14999999963E+04  0.15000000000E+04  0.10566000000E+00 0. -1.
        994   -1    0    0    0    0 -0.00000000000E+00 -0.00000000000E+00  0.11368683772E-12  0.17120000000E+03  0.17120000000E+03 0.  0.
         13    1    1    2    0    0 -0.18609548891E+02  0.71207394248E+01  0.78526394906E+02  0.81014974547E+02  0.10566000000E+00 0. -1.
        994    1    1    2    0    0  0.25110601235E+01  0.34057387982E+01  0.27282075042E+01  0.17127401319E+03  0.17120000000E+03 0.  0.
        998    1    1    2    0    0  0.16098488767E+02 -0.10526478223E+02  0.14187453939E+04  0.14189110123E+04  0.10000000000E+02 0. -1.
</event>
<event>
 5    1  0.1068111E-008  0.3838454E+03  0.7957747E-01  0.3434584E+00
         13   -1    0    0    0    0  0.00000000000E+00  0.00000000000E+00  0.14999999963E+04  0.15000000000E+04  0.10566000000E+00 0.  1.
        994   -1    0    0    0    0 -0.00000000000E+00 -0.00000000000E+00  0.11368683772E-12  0.17120000000E+03  0.17120000000E+03 0.  0.
         13    1    1    2    0    0 -0.15421092194E+02 -0.91714648586E+01  0.72048274471E+02  0.74248844236E+02  0.10566000000E+00 0.  1.
        994    1    1    2    0    0  0.15571518347E+02 -0.11056753065E+01  0.30093113607E+01  0.17193658906E+03  0.17120000000E+03 0.  0.
        998    1    1    2    0    0 -0.15042615340E+00  0.10277140165E+02  0.14249424104E+04  0.14250145667E+04  0.10000000000E+02 0.  1.
</event>
<event>
 5    1  0.1068111E-008  0.3766466E+03  0.7957747E-01  0.3465891E+00
         13   -1    0    0    0    0  0.00000000000E+00  0.00000000000E+00  0.14999999963E+04  0.15000000000E+04  0.10566000000E+00 0.  1.
        994   -1    0    0    0    0 -0.00000000000E+00 -0.00000000000E+00  0.11368683772E-12  0.17120000000E+03  0.17120000000E+03 0.  0.
         13    1    1    2    0    0  0.84551828032E+01  0.69458322773E+02  0.33980055590E+03  0.34692993194E+03  0.10566000000E+00 0.  1.
        994    1    1    2    0    0 -0.92155979944E+01 -0.63777392560E+02  0.20004177540E+02  0.18401654862E+03  0.17120000000E+03 0.  0.
        998    1    1    2    0    0  0.76041519115E+00 -0.56809302129E+01  0.11401952628E+04  0.11402535194E+04  0.10000000000E+02 0.  1.
</event>
<event>
 5    1  0.1068111E-008  0.3853947E+03  0.7957747E-01  0.3428000E+00
         13   -1    0    0    0    0  0.00000000000E+00  0.00000000000E+00  0.14999999963E+04  0.15000000000E+04  0.10566000000E+00 0.  1.
        994   -1    0    0    0    0 -0.00000000000E+00 -0.00000000000E+00  0.11368683772E-12  0.17120000000E+03  0.17120000000E+03 0.  0.
         13    1    1    2    0    0 -0.59399471808E+01  0.97629498877E+01  0.48149740313E+02  0.49487441026E+02  0.10566000000E+00 0.  1.
        994    1    1    2    0    0 -0.70632815333E+01 -0.27193140553E+01  0.16224729979E+01  0.17137490199E+03  0.17120000000E+03 0.  0.
        998    1    1    2    0    0  0.13003228714E+02 -0.70436358325E+01  0.14502277830E+04  0.14503376570E+04  0.10000000000E+02 0.  1.
</event>
<event>
 5    1  0.1068111E-008  0.3744554E+03  0.7957747E-01  0.3475662E+00
         13   -1    0    0    0    0  0.00000000000E+00  0.00000000000E+00  0.14999999963E+04  0.15000000000E+04  0.10566000000E+00 0. -1.
        994   -1    0    0    0    0 -0.00000000000E+00 -0.00000000000E+00  0.11368683772E-12  0.17120000000E+03  0.17120000000E+03 0.  0.
         13    1    1    2    0    0 -0.18146493586E+02  0.63168838709E+01  0.23781165140E+02  0.30573734328E+02  0.10566000000E+00 0. -1.
        994    1    1    2    0    0  0.80971811004E+01 -0.78759492086E+01  0.73932724505E+01  0.17173146303E+03  0.17120000000E+03 0.  0.
        998    1    1    2    0    0  0.10049312485E+02  0.15590653377E+01  0.14688255587E+04  0.14688948026E+04  0.10000000000E+02 0. -1.
</event>
<event>
 5    1  0.1068111E-008  0.3724677E+03  0.7957747E-01  0.3484626E+00
         13   -1    0    0    0    0  0.00000000000E+00  0.00000000000E+00  0.14999999963E+04  0.15000000000E+04  0.10566000000E+00 0.  1.
        994   -1    0    0    0    0 -0.00000000000E+00 -0.00000000000E+00  0.11368683772E-12  0.17120000000E+03  0.17120000000E+03 0.  0.
         13    1    1    2    0    0  0.10707707486E+02 -0.48357522146E+02  0.15690885961E+03  0.16454028788E+03  0.10566000000E+00 0.  1.
        994    1    1    2    0    0 -0.47493507269E+01  0.21029829492E+02  0.95801095191E+01  0.17281790578E+03  0.17120000000E+03 0.  0.
        998    1    1    2    0    0 -0.59583567595E+01  0.27327692654E+02  0.13335110272E+04  0.13338418063E+04  0.10000000000E+02 0.  1.
</event>
<event>
 5    1  0.1068111E-008  0.3825172E+03  0.7957747E-01  0.3440271E+00
         13   -1    0    0    0    0  0.00000000000E+00  0.00000000000E+00  0.14999999963E+04  0.15000000000E+04  0.10566000000E+00 0.  1.
        994   -1    0    0    0    0 -0.00000000000E+00 -0.00000000000E+00  0.11368683772E-12  0.17120000000E+03  0.17120000000E+03 0.  0.
         13    1    1    2    0    0  0.76059690117E+01  0.12998102602E+02  0.40970492509E+02  0.43650817361E+02  0.10566000000E+00 0.  1.
        994    1    1    2    0    0 -0.63233247211E+01  0.93884115158E+01  0.32927366683E+01  0.17160538692E+03  0.17120000000E+03 0.  0.
        998    1    1    2    0    0 -0.12826442906E+01 -0.22386514118E+02  0.14557367671E+04  0.14559437957E+04  0.10000000000E+02 0.  1.
</event>
<event>
 5    1  0.1068111E-008  0.3851789E+03  0.7957747E-01  0.3428914E+00
         13   -1    0    0    0    0  0.00000000000E+00  0.00000000000E+00  0.14999999963E+04  0.15000000000E+04  0.10566000000E+00 0.  1.
        994   -1    0    0    0    0 -0.00000000000E+00 -0.00000000000E+00  0.11368683772E-12  0.17120000000E+03  0.17120000000E+03 0.  0.
         13    1    1    2    0    0  0.11646220254E+02 -0.10155558296E+02  0.80202920823E+02  0.81677962040E+02  0.10566000000E+00 0.  1.
        994    1    1    2    0    0 -0.58465754330E+01  0.17690294507E+01  0.16639686843E+01  0.17131701813E+03  0.17120000000E+03 0.  0.
        998    1    1    2    0    0 -0.57996448213E+01  0.83865288451E+01  0.14181331068E+04  0.14182050198E+04  0.10000000000E+02 0.  1.
</event>
<event>
 5    1  0.1068111E-008  0.3744223E+03  0.7957747E-01  0.3475810E+00
         13   -1    0    0    0    0  0.00000000000E+00  0.00000000000E+00  0.14999999963E+04  0.15000000000E+04  0.10566000000E+00 0. -1.
        994   -1    0    0    0    0 -0.00000000000E+00 -0.00000000000E+00  0.11368683772E-12  0.17120000000E+03  0.17120000000E+03 0.  0.
         13    1    1    2    0    0  0.63749368448E+01 -0.38240828023E+02  0.11708426938E+03  0.12333587495E+03  0.10566000000E+00 0. -1.
        994    1    1    2    0    0  0.31117260872E+02  0.57712093404E+01  0.10394509141E+02  0.17441065507E+03  0.17120000000E+03 0.  0.
        998    1    1    2    0    0 -0.37492197717E+02  0.32469618682E+02  0.13725212178E+04  0.13734534700E+04  0.10000000000E+02 0. -1.
</event>
<event>
 5    1  0.1068111E-008  0.3746474E+03  0.7957747E-01  0.3474801E+00
         13   -1    0    0    0    0  0.00000000000E+00  0.00000000000E+00  0.14999999963E+04  0.15000000000E+04  0.10566000000E+00 0.  1.
        994   -1    0    0    0    0 -0.00000000000E+00 -0.00000000000E+00  0.11368683772E-12  0.17120000000E+03  0.17120000000E+03 0.  0.
         13    1    1    2    0    0 -0.98812895077E+02 -0.10520988792E+02  0.53163607042E+03  0.54084341724E+03  0.10566000000E+00 0.  1.
        994    1    1    2    0    0  0.84490117088E+02  0.27125638844E+02  0.34149806555E+02  0.19583163548E+03  0.17120000000E+03 0.  0.
        998    1    1    2    0    0  0.14322777989E+02 -0.16604650052E+02  0.93421411931E+03  0.93452494728E+03  0.10000000000E+02 0.  1.
</event>
<event>
 5    1  0.1068111E-008  0.3826250E+03  0.7957747E-01  0.3439808E+00
         13   -1    0    0    0    0  0.00000000000E+00  0.00000000000E+00  0.14999999963E+04  0.15000000000E+04  0.10566000000E+00 0. -1.
        994   -1    0    0    0    0 -0.00000000000E+00 -0.00000000000E+00  0.11368683772E-12  0.17120000000E+03  0.17120000000E+03 0.  0.
         13    1    1    2    0    0 -0.59561098305E+01  0.10136269732E+02  0.23524638765E+02  0.26299030428E+02  0.10566000000E+00 0. -1.
        994    1    1    2    0    0 -0.18217642462E+02 -0.20055135415E+02  0.52505915227E+01  0.17341020635E+03  0.17120000000E+03 0.  0.
        998    1    1    2    0    0  0.24173752293E+02  0.99188656826E+01  0.14712247660E+04  0.14714907632E+04  0.10000000000E+02 0. -1.
</event>
<event>
 5    1  0.1068111E-008  0.3811745E+03  0.7957747E-01  0.3446060E+00
         13   -1    0    0    0    0  0.00000000000E+00  0.00000000000E+00  0.14999999963E+04  0.15000000000E+04  0.10566000000E+00 0. -1.
        994   -1    0    0    0    0 -0.00000000000E+00 -0.00000000000E+00  0.11368683772E-12  0.17120000000E+03  0.17120000000E+03 0.  0.
         13    1    1    2    0    0  0.20411943933E+02 -0.27367621455E+02  0.14969570847E+03  0.15353973576E+03  0.10566000000E+00 0. -1.
        994    1    1    2    0    0 -0.16767471277E+02  0.28928013058E+02  0.72732369095E+01  0.17458613349E+03  0.17120000000E+03 0.  0.
        998    1    1    2    0    0 -0.36444726559E+01 -0.15603916031E+01  0.13430310509E+04  0.13430741307E+04  0.10000000000E+02 0. -1.
</event>
<event>
 5    1  0.1068111E-008  0.3811386E+03  0.7957747E-01  0.3446216E+00
         13   -1    0    0    0    0  0.00000000000E+00  0.00000000000E+00  0.14999999963E+04  0.15000000000E+04  0.10566000000E+00 0.  1.
        994   -1    0    0    0    0 -0.00000000000E+00 -0.00000000000E+00  0.11368683772E-12  0.17120000000E+03  0.17120000000E+03 0.  0.
         13    1    1    2    0    0  0.16280381377E+02 -0.11275930316E+02  0.58040237317E+02  0.61325995582E+02  0.10566000000E+00 0.  1.
        994    1    1    2    0    0 -0.61004953899E+01 -0.16898719211E+02  0.46352111311E+01  0.17220252012E+03  0.17120000000E+03 0.  0.
        998    1    1    2    0    0 -0.10179885987E+02  0.28174649527E+02  0.14373245478E+04  0.14376714843E+04  0.10000000000E+02 0.  1.
</event>
<event>
 5    1  0.1068111E-008  0.3828280E+03  0.7957747E-01  0.3438936E+00
         13   -1    0    0    0    0  0.00000000000E+00  0.00000000000E+00  0.14999999963E+04  0.15000000000E+04  0.10566000000E+00 0.  1.
        994   -1    0    0    0    0 -0.00000000000E+00 -0.00000000000E+00  0.11368683772E-12  0.17120000000E+03  0.17120000000E+03 0.  0.
         13    1    1    2    0    0 -0.23149135039E+02  0.11160241396E+02  0.11808133022E+03  0.12084554254E+03  0.10566000000E+00 0.  1.
        994    1    1    2    0    0  0.17227638351E+02 -0.84523332129E+01  0.39328538049E+01  0.17231697769E+03  0.17120000000E+03 0.  0.
        998    1    1    2    0    0  0.59214966879E+01 -0.27079081835E+01  0.13779858123E+04  0.13780374798E+04  0.10000000000E+02 0.  1.
</event>
<event>
 5    1  0.1068111E-008  0.3849179E+03  0.7957747E-01  0.3430020E+00
         13   -1    0    0    0    0  0.00000000000E+00  0.00000000000E+00  0.14999999963E+04  0.15000000000E+04  0.10566000000E+00 0. -1.
        994   -1    0    0    0    0 -0.00000000000E+00 -0.00000000000E+00  0.11368683772E-12  0.17120000000E+03  0.17120000000E+03 0.  0.
         13    1    1    2    0    0 -0.41492503232E+01 -0.16834379565E+02  0.77787543863E+02  0.79696460134E+02  0.10566000000E+00 0. -1.
        994    1    1    2    0    0  0.78186849116E+01  0.32077955796E+02  0.52651373015E+01  0.17443419605E+03  0.17120000000E+03 0.  0.
        998    1    1    2    0    0 -0.36694345884E+01 -0.15243576232E+02  0.14169473151E+04  0.14170693438E+04  0.10000000000E+02 0. -1.
</event>
<event>
 5    1  0.1068111E-008  0.3862721E+03  0.7957747E-01  0.3424295E+00
         13   -1    0    0    0    0  0.00000000000E+00  0.00000000000E+00  0.14999999963E+04  0.15000000000E+04  0.10566000000E+00 0.  1.
        994   -1    0    0    0    0 -0.00000000000E+00 -0.00000000000E+00  0.11368683772E-12  0.17120000000E+03  0.17120000000E+03 0.  0.
         13    1    1    2    0    0  0.76415689634E+01 -0.67048178060E+01  0.57442147573E+02  0.58334892131E+02  0.10566000000E+00 0.  1.
        994    1    1    2    0    0  0.49071938374E+01 -0.15812288603E+01  0.10869225408E+01  0.17128106211E+03  0.17120000000E+03 0.  0.
        998    1    1    2    0    0 -0.12548762801E+02  0.82860466662E+01  0.14414709262E+04  0.14415840458E+04  0.10000000000E+02 0.  1.
</event>
<event>
 5    1  0.1068111E-008  0.3860415E+03  0.7957747E-01  0.3425267E+00
         13   -1    0    0    0    0  0.00000000000E+00  0.00000000000E+00  0.14999999963E+04  0.15000000000E+04  0.10566000000E+00 0. -1.
        994   -1    0    0    0    0 -0.00000000000E+00 -0.00000000000E+00  0.11368683772E-12  0.17120000000E+03  0.17120000000E+03 0.  0.
         13    1    1    2    0    0 -0.11969467561E+02  0.26762196836E+01  0.72716679753E+02  0.73743860652E+02  0.10566000000E+00 0. -1.
        994    1    1    2    0    0 -0.56395550137E+00 -0.52409706034E+01  0.12049876628E+01  0.17128536953E+03  0.17120000000E+03 0.  0.
        998    1    1    2    0    0  0.12533423062E+02  0.25647509198E+01  0.14260783289E+04  0.14261707698E+04  0.10000000000E+02 0. -1.
</event>
<event>
 5    1  0.1068111E-008  0.3791911E+03  0.7957747E-01  0.3454688E+00
         13   -1    0    0    0    0  0.00000000000E+00  0.00000000000E+00  0.14999999963E+04  0.15000000000E+04  0.10566000000E+00 0. -1.
        994   -1    0    0    0    0 -0.00000000000E+00 -0.00000000000E+00  0.11368683772E-12  0.17120000000E+03  0.17120000000E+03 0.  0.
         13    1    1    2    0    0  0.41293956407E+02 -0.54048138808E+02  0.12672268149E+03  0.14382295127E+03  0.10566000000E+00 0. -1.
        994    1    1    2    0    0 -0.59132982375E+02  0.46614464603E+02  0.36664149876E+02  0.19058677237E+03  0.17120000000E+03 0.  0.
        998    1    1    2    0    0  0.17839025969E+02  0.74336742052E+01  0.13366131649E+04  0.13367902764E+04  0.10000000000E+02 0. -1.
</event>
<event>
 5    1  0.1068111E-008  0.3751578E+03  0.7957747E-01  0.3472517E+00
         13   -1    0    0    0    0  0.00000000000E+00  0.00000000000E+00  0.14999999963E+04  0.15000000000E+04  0.10566000000E+00 0.  1.
        994   -1    0    0    0    0 -0.00000000000E+00 -0.00000000000E+00  0.11368683772E-12  0.17120000000E+03  0.17120000000E+03 0.  0.
         13    1    1    2    0    0 -0.36819049002E+02  0.43996800841E+02  0.29474505404E+03  0.30027657067E+03  0.10566000000E+00 0.  1.
        994    1    1    2    0    0  0.85735407864E+01 -0.59838385326E+01  0.69691571236E+01  0.17166048199E+03  0.17120000000E+03 0.  0.
        998    1    1    2    0    0  0.28245508216E+02 -0.38012962308E+02  0.11982857851E+04  0.11992629473E+04  0.10000000000E+02 0.  1.
</event>
<event>
 5    1  0.1068111E-008  0.3835535E+03  0.7957747E-01  0.3435830E+00
         13   -1    0    0    0    0  0.00000000000E+00  0.00000000000E+00  0.14999999963E+04  0.15000000000E+04  0.10566000000E+00 0. -1.
        994   -1    0    0    0    0 -0.00000000000E+00 -0.00000000000E+00  0.11368683772E-12  0.17120000000E+03  0.17120000000E+03 0.  0.
         13    1    1    2    0    0  0.98853334852E+01  0.41329875125E+01  0.23882952656E+02  0.26176477905E+02  0.10566000000E+00 0. -1.
        994    1    1    2    0    0 -0.40884787896E+01 -0.18266721798E+01  0.24162532851E+01  0.17127559858E+03  0.17120000000E+03 0.  0.
        998    1    1    2    0    0 -0.57968546956E+01 -0.23063153328E+01  0.14737007903E+04  0.14737479235E+04  0.10000000000E+02 0. -1.
</event>
<event>
 5    1  0.1068111E-008  0.3850922E+03  0.7957747E-01  0.3429281E+00
         13   -1    0    0    0    0  0.00000000000E+00  0.00000000000E+00  0.14999999963E+04  0.15000000000E+04  0.10566000000E+00 0. -1.
        994   -1    0    0    0    0 -0.00000000000E+00 -0.00000000000E+00  0.11368683772E-12  0.17120000000E+03  0.17120000000E+03 0.  0.
         13    1    1    2    0    0  0.88985188296E+01 -0.72788453511E+01  0.41018187080E+02  0.42598920906E+02  0.10566000000E+00 0. -1.
        994    1    1    2    0    0 -0.68549099700E+01  0.84599452767E+01  0.19742318752E+01  0.17155727340E+03  0.17120000000E+03 0.  0.
        998    1    1    2    0    0 -0.20436088596E+01 -0.11810999256E+01  0.14570075773E+04  0.14570438057E+04  0.10000000000E+02 0. -1.
</event>
<event>
 5    1  0.1068111E-008  0.3750503E+03  0.7957747E-01  0.3472998E+00
         13   -1    0    0    0    0  0.00000000000E+00  0.00000000000E+00  0.14999999963E+04  0.15000000000E+04  0.10566000000E+00 0. -1.
        994   -1    0    0    0    0 -0.00000000000E+00 -0.00000000000E+00  0.11368683772E-12  0.17120000000E+03  0.17120000000E+03 0.  0.
         13    1    1    2    0    0  0.94823058923E+00 -0.12491720220E+02  0.86184864958E+01  0.15206304246E+02  0.10566000000E+00 0. -1.
        994    1    1    2    0    0 -0.64780907295E+01  0.16964780287E+02  0.77744311144E+01  0.17233586745E+03  0.17120000000E+03 0.  0.
        998    1    1    2    0    0  0.55298601402E+01 -0.44730600667E+01  0.14836070787E+04  0.14836578283E+04  0.10000000000E+02 0. -1.
</event>
<event>
 5    1  0.1068111E-008  0.3697227E+03  0.7957747E-01  0.3497166E+00
         13   -1    0    0    0    0  0.00000000000E+00  0.00000000000E+00  0.14999999963E+04  0.15000000000E+04  0.10566000000E+00 0.  1.
        994   -1    0    0    0    0 -0.00000000000E+00 -0.00000000000E+00  0.11368683772E-12  0.17120000000E+03  0.17120000000E+03 0.  0.
         13    1    1    2    0    0  0.69295398362E+02  0.17689866068E+02  0.38559192308E+03  0.39216823674E+03  0.10566000000E+00 0.  1.
        994    1    1    2    0    0  0.70723813750E+01 -0.15768371839E+02  0.10448401372E+02  0.17238697520E+03  0.17120000000E+03 0.  0.
        998    1    1    2    0    0 -0.76367779737E+02 -0.19214942291E+01  0.11039596718E+04  0.11066447881E+04  0.10000000000E+02 0.  1.
</event>
<event>
 5    1  0.1068111E-008  0.3821247E+03  0.7957747E-01  0.3441959E+00
         13   -1    0    0    0    0  0.00000000000E+00  0.00000000000E+00  0.14999999963E+04  0.15000000000E+04  0.10566000000E+00 0. -1.
        994   -1    0    0    0    0 -0.00000000000E+00 -0.00000000000E+00  0.11368683772E-12  0.17120000000E+03  0.17120000000E+03 0.  0.
         13    1    1    2    0    0 -0.16112943481E+01 -0.32290895591E+02  0.15646695782E+03  0.15977239518E+03  0.10566000000E+00 0. -1.
        994    1    1    2    0    0 -0.35010778940E+01  0.30302880281E+02  0.61595338975E+01  0.17400546531E+03  0.17120000000E+03 0.  0.
        998    1    1    2    0    0  0.51123722422E+01  0.19880153093E+01  0.13373735046E+04  0.13374221395E+04  0.10000000000E+02 0. -1.
</event>
<event>
 5    1  0.1068111E-008  0.3684770E+03  0.7957747E-01  0.3502920E+00
         13   -1    0    0    0    0  0.00000000000E+00  0.00000000000E+00  0.14999999963E+04  0.15000000000E+04  0.10566000000E+00 0.  1.
        994   -1    0    0    0    0 -0.00000000000E+00 -0.00000000000E+00  0.11368683772E-12  0.17120000000E+03  0.17120000000E+03 0.  0.
         13    1    1    2    0    0  0.67193744346E+02  0.28015378816E+02  0.23604068419E+03  0.24701230027E+03  0.10566000000E+00 0.  1.
        994    1    1    2    0    0 -0.53745022763E+02 -0.27708196999E+02  0.22886130064E+02  0.18300132951E+03  0.17120000000E+03 0.  0.
        998    1    1    2    0    0 -0.13448721583E+02 -0.30718181675E+00  0.12410731820E+04  0.12411863702E+04  0.10000000000E+02 0.  1.
</event>
<event>
 5    1  0.1068111E-008  0.3805161E+03  0.7957747E-01  0.3448914E+00
         13   -1    0    0    0    0  0.00000000000E+00  0.00000000000E+00  0.14999999963E+04  0.15000000000E+04  0.10566000000E+00 0. -1.
        994   -1    0    0    0    0 -0.00000000000E+00 -0.00000000000E+00  0.11368683772E-12  0.17120000000E+03  0.17120000000E+03 0.  0.
         13    1    1    2    0    0 -0.12197712757E+02  0.23996950230E+02  0.91454646070E+02  0.95334155835E+02  0.10566000000E+00 0. -1.
        994    1    1    2    0    0  0.91116960465E+01 -0.15776898728E+02  0.49813423279E+01  0.17223875089E+03  0.17120000000E+03 0.  0.
        998    1    1    2    0    0  0.30860167107E+01 -0.82200515025E+01  0.14035640079E+04  0.14036270933E+04  0.10000000000E+02 0. -1.
</event>
<event>
 5    1  0.1068111E-008  0.3821075E+03  0.7957747E-01  0.3442033E+00
         13   -1    0    0    0    0  0.00000000000E+00  0.00000000000E+00  0.14999999963E+04  0.15000000000E+04  0.10566000000E+00 0. -1.
        994   -1    0    0    0    0 -0.00000000000E+00 -0.00000000000E+00  0.11368683772E-12  0.17120000000E+03  0.17120000000E+03 0.  0.
         13    1    1    2    0    0 -0.24521851485E+02  0.49583393850E+01  0.96063520117E+02  0.99267907156E+02  0.10566000000E+00 0. -1.
        994    1    1    2    0    0  0.23521578631E+02 -0.44441118685E+01  0.49776505003E+01  0.17293707467E+03  0.17120000000E+03 0.  0.
        998    1    1    2    0    0  0.10002728541E+01 -0.51422751649E+00  0.13989588257E+04  0.13989950182E+04  0.10000000000E+02 0.  0.
</event>
<event>
 5    1  0.1068111E-008  0.3854804E+03  0.7957747E-01  0.3427637E+00
         13   -1    0    0    0    0  0.00000000000E+00  0.00000000000E+00  0.14999999963E+04  0.15000000000E+04  0.10566000000E+00 0.  1.
        994   -1    0    0    0    0 -0.00000000000E+00 -0.00000000000E+00  0.11368683772E-12  0.17120000000E+03  0.17120000000E+03 0.  0.
         13    1    1    2    0    0 -0.99530822882E+01 -0.78268162028E+01  0.58478516771E+02  0.59833694409E+02  0.10566000000E+00 0.  1.
        994    1    1    2    0    0  0.34072238293E+01  0.67109899619E+01  0.15778309879E+01  0.17137262358E+03  0.17120000000E+03 0.  0.
        998    1    1    2    0    0  0.65458584589E+01  0.11158262409E+01  0.14399436485E+04  0.14399936820E+04  0.10000000000E+02 0.  1.
</event>
<event>
 5    1  0.1068111E-008  0.3816827E+03  0.7957747E-01  0.3443864E+00
         13   -1    0    0    0    0  0.00000000000E+00  0.00000000000E+00  0.14999999963E+04  0.15000000000E+04  0.10566000000E+00 0. -1.
        994   -1    0    0    0    0 -0.00000000000E+00 -0.00000000000E+00  0.11368683772E-12  0.17120000000E+03  0.17120000000E+03 0.  0.
         13    1    1    2    0    0  0.99355346936E+01  0.69245855984E+01  0.21189298083E+02  0.24406192916E+02  0.10566000000E+00 0. -1.
        994    1    1    2    0    0 -0.74091355191E+01  0.87903604646E+00  0.34712407764E+01  0.17139765899E+03  0.17120000000E+03 0.  0.
        998    1    1    2    0    0 -0.25263991745E+01 -0.78036216448E+01  0.14753394574E+04  0.14753961481E+04  0.10000000000E+02 0. -1.
</event>
<event>
 5    1  0.1382480E-008  0.3833347E+03  0.7957747E-01  0.3436766E+00
         13   -1    0    0    0    0  0.00000000000E+00  0.00000000000E+00  0.14999999963E+04  0.15000000000E+04  0.10566000000E+00 0. -1.
        994   -1    0    0    0    0 -0.00000000000E+00 -0.00000000000E+00  0.11368683772E-12  0.17120000000E+03  0.17120000000E+03 0.  0.
         13    1    1    2    0    0 -0.12548486120E+02  0.61190867249E+01  0.38179271752E+02  0.40651884111E+02  0.10566000000E+00 0. -1.
        994    1    1    2    0    0  0.11139844370E+02 -0.88504757957E+01  0.31287959260E+01  0.17181867308E+03  0.17120000000E+03 0.  0.
        998    1    1    2    0    0  0.14086417499E+01  0.27313890708E+01  0.14586919286E+04  0.14587294428E+04  0.10000000000E+02 0. -1.
</event>
<event>
 5    1  0.1068111E-008  0.3763977E+03  0.7957747E-01  0.3466995E+00
         13   -1    0    0    0    0  0.00000000000E+00  0.00000000000E+00  0.14999999963E+04  0.15000000000E+04  0.10566000000E+00 0.  1.
        994   -1    0    0    0    0 -0.00000000000E+00 -0.00000000000E+00  0.11368683772E-12  0.17120000000E+03  0.17120000000E+03 0.  0.
         13    1    1    2    0    0  0.17715527918E+02 -0.45250570813E+02  0.25031849683E+03  0.25499179419E+03  0.10566000000E+00 0.  1.
        994    1    1    2    0    0  0.19016240395E+01 -0.46199958793E+01  0.60471719004E+01  0.17137960446E+03  0.17120000000E+03 0.  0.
        998    1    1    2    0    0 -0.19617151957E+02  0.49870566692E+02  0.12436343276E+04  0.12448286014E+04  0.10000000000E+02 0.  1.
</event>
<event>
 5    1  0.1068111E-008  0.3766442E+03  0.7957747E-01  0.3465902E+00
         13   -1    0    0    0    0  0.00000000000E+00  0.00000000000E+00  0.14999999963E+04  0.15000000000E+04  0.10566000000E+00 0.  1.
        994   -1    0    0    0    0 -0.00000000000E+00 -0.00000000000E+00  0.11368683772E-12  0.17120000000E+03  0.17120000000E+03 0.  0.
         13    1    1    2    0    0 -0.15945250380E+02  0.26531205207E+02  0.77829366653E+02  0.83759043315E+02  0.10566000000E+00 0.  1.
        994    1    1    2    0    0  0.18616838662E+02 -0.19261416178E+02  0.82663973902E+01  0.17348014918E+03  0.17120000000E+03 0.  0.
        998    1    1    2    0    0 -0.26715882817E+01 -0.72697890288E+01  0.14139042322E+04  0.14139608075E+04  0.10000000000E+02 0.  1.
</event>
<event>
 5    1  0.1068111E-008  0.3855388E+03  0.7957747E-01  0.3427390E+00
         13   -1    0    0    0    0  0.00000000000E+00  0.00000000000E+00  0.14999999963E+04  0.15000000000E+04  0.10566000000E+00 0.  1.
        994   -1    0    0    0    0 -0.00000000000E+00 -0.00000000000E+00  0.11368683772E-12  0.17120000000E+03  0.17120000000E+03 0.  0.
         13    1    1    2    0    0 -0.12819773677E+02  0.44969416194E+01  0.69912832753E+02  0.71220674166E+02  0.10566000000E+00 0.  1.
        994    1    1    2    0    0  0.56299363723E+01  0.34266375514E-01  0.14669436799E+01  0.17129883036E+03  0.17120000000E+03 0.  0.
        998    1    1    2    0    0  0.71898373043E+01 -0.45312079949E+01  0.14286202198E+04  0.14286804955E+04  0.10000000000E+02 0.  1.
</event>
<event>
 5    1  0.1068111E-008  0.3796726E+03  0.7957747E-01  0.3452585E+00
         13   -1    0    0    0    0  0.00000000000E+00  0.00000000000E+00  0.14999999963E+04  0.15000000000E+04  0.10566000000E+00 0. -1.
        994   -1    0    0    0    0 -0.00000000000E+00 -0.00000000000E+00  0.11368683772E-12  0.17120000000E+03  0.17120000000E+03 0.  0.
         13    1    1    2    0    0 -0.11845421888E+02 -0.66649522329E+00  0.14368189823E+02  0.18633686656E+02  0.10566000000E+00 0. -1.
        994    1    1    2    0    0  0.12800584421E+02 -0.23632466541E+01  0.48657457410E+01  0.17176307920E+03  0.17120000000E+03 0.  0.
        998    1    1    2    0    0 -0.95516253333E+00  0.30297418774E+01  0.14807660607E+04  0.14808032341E+04  0.10000000000E+02 0. -1.
</event>
<event>
 5    1  0.1068111E-008  0.3834768E+03  0.7957747E-01  0.3436158E+00
         13   -1    0    0    0    0  0.00000000000E+00  0.00000000000E+00  0.14999999963E+04  0.15000000000E+04  0.10566000000E+00 0.  1.
        994   -1    0    0    0    0 -0.00000000000E+00 -0.00000000000E+00  0.11368683772E-12  0.17120000000E+03  0.17120000000E+03 0.  0.
         13    1    1    2    0    0  0.15523107658E+02 -0.15326008899E+01  0.51347594954E+02  0.53664722197E+02  0.10566000000E+00 0.  1.
        994    1    1    2    0    0 -0.62987134675E+01 -0.28915356031E+01  0.25470465683E+01  0.17135916146E+03  0.17120000000E+03 0.  0.
        998    1    1    2    0    0 -0.92243941903E+01  0.44241364930E+01  0.14461053548E+04  0.14461761163E+04  0.10000000000E+02 0.  1.
</event>
<event>
 5    1  0.1068111E-008  0.3776518E+03  0.7957747E-01  0.3461447E+00
         13   -1    0    0    0    0  0.00000000000E+00  0.00000000000E+00  0.14999999963E+04  0.15000000000E+04  0.10566000000E+00 0.  1.
        994   -1    0    0    0    0 -0.00000000000E+00 -0.00000000000E+00  0.11368683772E-12  0.17120000000E+03  0.17120000000E+03 0.  0.
         13    1    1    2    0    0  0.13551321820E+03 -0.21787825373E+03  0.11712801706E+04  0.11990546339E+04  0.10566000000E+00 0.  1.
        994    1    1    2    0    0 -0.11944335460E+03  0.22111070561E+03  0.25775057018E+03  0.39862445425E+03  0.17120000000E+03 0.  0.
        998    1    1    2    0    0 -0.16069863603E+02 -0.32324518834E+01  0.70969255467E+02  0.73520911875E+02  0.10000000000E+02 0.  0.
</event>
<event>
 5    1  0.1068111E-008  0.4050511E+03  0.7957747E-01  0.3348844E+00
         13   -1    0    0    0    0  0.00000000000E+00  0.00000000000E+00  0.14999999963E+04  0.15000000000E+04  0.10566000000E+00 0. -1.
        994   -1    0    0    0    0 -0.00000000000E+00 -0.00000000000E+00  0.11368683772E-12  0.17120000000E+03  0.17120000000E+03 0.  0.
         13    1    1    2    0    0  0.50960382539E+02 -0.45841988670E+02  0.62451266168E+02  0.92728745941E+02  0.10566000000E+00 0. -1.
        994    1    1    2    0    0 -0.61786239123E+02  0.40869314004E+02  0.53121467740E+02  0.19395662017E+03  0.17120000000E+03 0.  0.
        998    1    1    2    0    0  0.10825856584E+02  0.49726746657E+01  0.13844272624E+04  0.13845146339E+04  0.10000000000E+02 0. -1.
</event>
<event>
 5    1  0.1068111E-008  0.3754621E+03  0.7957747E-01  0.3471159E+00
         13   -1    0    0    0    0  0.00000000000E+00  0.00000000000E+00  0.14999999963E+04  0.15000000000E+04  0.10566000000E+00 0.  1.
        994   -1    0    0    0    0 -0.00000000000E+00 -0.00000000000E+00  0.11368683772E-12  0.17120000000E+03  0.17120000000E+03 0.  0.
         13    1    1    2    0    0  0.50168262432E+02 -0.23827692530E+02  0.26695198996E+03  0.27266827757E+03  0.10566000000E+00 0.  1.
        994    1    1    2    0    0 -0.14173377868E+02  0.66496376344E+01  0.72739037782E+01  0.17206816090E+03  0.17120000000E+03 0.  0.
        998    1    1    2    0    0 -0.35994884564E+02  0.17178054895E+02  0.12257741025E+04  0.12264635615E+04  0.10000000000E+02 0.  1.
</event>
<event>
 5    1  0.1068111E-008  0.3850006E+03  0.7957747E-01  0.3429669E+00
         13   -1    0    0    0    0  0.00000000000E+00  0.00000000000E+00  0.14999999963E+04  0.15000000000E+04  0.10566000000E+00 0.  1.
        994   -1    0    0    0    0 -0.00000000000E+00 -0.00000000000E+00  0.11368683772E-12  0.17120000000E+03  0.17120000000E+03 0.  0.
         13    1    1    2    0    0  0.11752541324E+02 -0.58421385296E+01  0.54132697015E+02  0.55701102865E+02  0.10566000000E+00 0.  1.
        994    1    1    2    0    0 -0.22309526870E+01  0.56327490565E+01  0.17505382556E+01  0.17131610956E+03  0.17120000000E+03 0.  0.
        998    1    1    2    0    0 -0.95215886374E+01  0.20938947308E+00  0.14441167610E+04  0.14441827876E+04  0.10000000000E+02 0.  1.
</event>
<event>
 5    1  0.1068111E-008  0.3851171E+03  0.7957747E-01  0.3429176E+00
         13   -1    0    0    0    0  0.00000000000E+00  0.00000000000E+00  0.14999999963E+04  0.15000000000E+04  0.10566000000E+00 0. -1.
        994   -1    0    0    0    0 -0.00000000000E+00 -0.00000000000E+00  0.11368683772E-12  0.17120000000E+03  0.17120000000E+03 0.  0.
         13    1    1    2    0    0  0.40450066748E+00 -0.18889116158E+02  0.10814063627E+03  0.10977873522E+03  0.10566000000E+00 0. -1.
        994    1    1    2    0    0  0.52808621729E+00  0.18046408424E+02  0.26442922341E+01  0.17216963732E+03  0.17120000000E+03 0.  0.
        998    1    1    2    0    0 -0.93258688478E+00  0.84270773375E+00  0.13892150678E+04  0.13892516275E+04  0.10000000000E+02 0. -1.
</event>
<event>
 5    1  0.1068111E-008  0.3781733E+03  0.7957747E-01  0.3459151E+00
         13   -1    0    0    0    0  0.00000000000E+00  0.00000000000E+00  0.14999999963E+04  0.15000000000E+04  0.10566000000E+00 0.  1.
        994   -1    0    0    0    0 -0.00000000000E+00 -0.00000000000E+00  0.11368683772E-12  0.17120000000E+03  0.17120000000E+03 0.  0.
         13    1    1    2    0    0 -0.49896563796E+02 -0.38117237669E+02  0.12549683764E+03  0.14032839452E+03  0.10566000000E+00 0.  1.
        994    1    1    2    0    0  0.15917789223E+02  0.38841642971E+02  0.21696693879E+02  0.17760133943E+03  0.17120000000E+03 0.  0.
        998    1    1    2    0    0  0.33978774573E+02 -0.72440530243E+00  0.13528064648E+04  0.13532702661E+04  0.10000000000E+02 0.  1.
</event>
<event>
 5    1  0.1068111E-008  0.3835270E+03  0.7957747E-01  0.3435944E+00
         13   -1    0    0    0    0  0.00000000000E+00  0.00000000000E+00  0.14999999963E+04  0.15000000000E+04  0.10566000000E+00 0. -1.
        994   -1    0    0    0    0 -0.00000000000E+00 -0.00000000000E+00  0.11368683772E-12  0.17120000000E+03  0.17120000000E+03 0.  0.
         13    1    1    2    0    0  0.23105285892E+02  0.14959603318E+02  0.15984326349E+03  0.16219594327E+03  0.10566000000E+00 0. -1.
        994    1    1    2    0    0 -0.16671851366E+02 -0.43654217787E+01  0.33452935290E+01  0.17209775863E+03  0.17120000000E+03 0.  0.
        998    1    1    2    0    0 -0.64334345262E+01 -0.10594181539E+02  0.13368114393E+04  0.13369062981E+04  0.10000000000E+02 0. -1.
</event>
<event>
 5    1  0.1068111E-008  0.3766713E+03  0.7957747E-01  0.3465782E+00
         13   -1    0    0    0    0  0.00000000000E+00  0.00000000000E+00  0.14999999963E+04  0.15000000000E+04  0.10566000000E+00 0.  1.
        994   -1    0    0    0    0 -0.00000000000E+00 -0.00000000000E+00  0.11368683772E-12  0.17120000000E+03  0.17120000000E+03 0.  0.
         13    1    1    2    0    0  0.37421195260E+01  0.14523012853E+02  0.16647168317E+02  0.22406711893E+02  0.10566000000E+00 0.  1.
        994    1    1    2    0    0 -0.80917155129E+01 -0.12540497636E+02  0.65762081141E+01  0.17197507510E+03  0.17120000000E+03 0.  0.
        998    1    1    2    0    0  0.43495959869E+01 -0.19825152170E+01  0.14767766198E+04  0.14768182130E+04  0.10000000000E+02 0.  1.
</event>
<event>
 5    1  0.1068111E-008  0.3794813E+03  0.7957747E-01  0.3453420E+00
         13   -1    0    0    0    0  0.00000000000E+00  0.00000000000E+00  0.14999999963E+04  0.15000000000E+04  0.10566000000E+00 0.  1.
        994   -1    0    0    0    0 -0.00000000000E+00 -0.00000000000E+00  0.11368683772E-12  0.17120000000E+03  0.17120000000E+03 0.  0.
         13    1    1    2    0    0 -0.74676414742E+02 -0.79777758316E+02  0.47603352297E+03  0.48841476615E+03  0.10566000000E+00 0.  1.
        994    1    1    2    0    0  0.25033384620E+02  0.16745977117E+02  0.19330142588E+02  0.17490052175E+03  0.17120000000E+03 0.  0.
        998    1    1    2    0    0  0.49643030122E+02  0.63031781199E+02  0.10046363307E+04  0.10078847121E+04  0.10000000000E+02 0.  1.
</event>
<event>
 5    1  0.1068111E-008  0.3687184E+03  0.7957747E-01  0.3501802E+00
         13   -1    0    0    0    0  0.00000000000E+00  0.00000000000E+00  0.14999999963E+04  0.15000000000E+04  0.10566000000E+00 0.  1.
        994   -1    0    0    0    0 -0.00000000000E+00 -0.00000000000E+00  0.11368683772E-12  0.17120000000E+03  0.17120000000E+03 0.  0.
         13    1    1    2    0    0 -0.49993538496E+02 -0.58074195915E+02  0.23695486595E+03  0.24903731805E+03  0.10566000000E+00 0.  1.
        994    1    1    2    0    0  0.56694854168E+02  0.60623863461E+02  0.34265321225E+02  0.19332126512E+03  0.17120000000E+03 0.  0.
        998    1    1    2    0    0 -0.67013156714E+01 -0.25496675459E+01  0.12287798091E+04  0.12288414168E+04  0.10000000000E+02 0.  1.
</event>
<event>
 5    1  0.1068111E-008  0.3771640E+03  0.7957747E-01  0.3463601E+00
         13   -1    0    0    0    0  0.00000000000E+00  0.00000000000E+00  0.14999999963E+04  0.15000000000E+04  0.10566000000E+00 0. -1.
        994   -1    0    0    0    0 -0.00000000000E+00 -0.00000000000E+00  0.11368683772E-12  0.17120000000E+03  0.17120000000E+03 0.  0.
         13    1    1    2    0    0 -0.32276240400E+02 -0.30960626008E+02  0.15652576390E+03  0.16279017780E+03  0.10566000000E+00 0. -1.
        994    1    1    2    0    0  0.30367261200E+02  0.38881902737E+02  0.13829732740E+02  0.17870275437E+03  0.17120000000E+03 0.  0.
        998    1    1    2    0    0  0.19089791995E+01 -0.79212767289E+01  0.13296444996E+04  0.13297070678E+04  0.10000000000E+02 0.  1.
</event>
<event>
 5    1  0.1068111E-008  0.3707610E+03  0.7957747E-01  0.3492401E+00
         13   -1    0    0    0    0  0.00000000000E+00  0.00000000000E+00  0.14999999963E+04  0.15000000000E+04  0.10566000000E+00 0. -1.
        994   -1    0    0    0    0 -0.00000000000E+00 -0.00000000000E+00  0.11368683772E-12  0.17120000000E+03  0.17120000000E+03 0.  0.
         13    1    1    2    0    0 -0.12710631558E+03 -0.13578452714E+03  0.73580703775E+03  0.75895023633E+03  0.10566000000E+00 0. -1.
        994    1    1    2    0    0  0.12262233893E+03  0.12828128827E+03  0.13156738455E+03  0.27948478242E+03  0.17120000000E+03 0.  0.
        998    1    1    2    0    0  0.44839766444E+01  0.75032388744E+01  0.63262557398E+03  0.63276498125E+03  0.10000000000E+02 0.  1.
</event>
<event>
 5    1  0.1068111E-008  0.3703410E+03  0.7957747E-01  0.3494325E+00
         13   -1    0    0    0    0  0.00000000000E+00  0.00000000000E+00  0.14999999963E+04  0.15000000000E+04  0.10566000000E+00 0.  1.
        994   -1    0    0    0    0 -0.00000000000E+00 -0.00000000000E+00  0.11368683772E-12  0.17120000000E+03  0.17120000000E+03 0.  0.
         13    1    1    2    0    0 -0.15050751225E+02 -0.14460591546E+02  0.18800860426E+02  0.28091232388E+02  0.10566000000E+00 0.  1.
        994    1    1    2    0    0 -0.48366077016E+01  0.62357959107E+02  0.22724851937E+02  0.18367843296E+03  0.17120000000E+03 0.  0.
        998    1    1    2    0    0  0.19887358927E+02 -0.47897367560E+02  0.14584742839E+04  0.14594303347E+04  0.10000000000E+02 0.  1.
</event>
<event>
 5    1  0.1068111E-008  0.3692122E+03  0.7957747E-01  0.3499519E+00
         13   -1    0    0    0    0  0.00000000000E+00  0.00000000000E+00  0.14999999963E+04  0.15000000000E+04  0.10566000000E+00 0. -1.
        994   -1    0    0    0    0 -0.00000000000E+00 -0.00000000000E+00  0.11368683772E-12  0.17120000000E+03  0.17120000000E+03 0.  0.
         13    1    1    2    0    0  0.72338651512E+02 -0.54708138770E+02  0.36283906977E+03  0.37400275757E+03  0.10566000000E+00 0. -1.
        994    1    1    2    0    0 -0.80194836830E+02  0.11988030609E+01  0.33298908739E+02  0.19196589881E+03  0.17120000000E+03 0.  0.
        998    1    1    2    0    0  0.78561853188E+01  0.53509335709E+02  0.11038620178E+04  0.11052313436E+04  0.10000000000E+02 0. -1.
</event>
<event>
 5    1  0.1068111E-008  0.3842210E+03  0.7957747E-01  0.3432983E+00
         13   -1    0    0    0    0  0.00000000000E+00  0.00000000000E+00  0.14999999963E+04  0.15000000000E+04  0.10566000000E+00 0. -1.
        994   -1    0    0    0    0 -0.00000000000E+00 -0.00000000000E+00  0.11368683772E-12  0.17120000000E+03  0.17120000000E+03 0.  0.
         13    1    1    2    0    0  0.11177500193E+02 -0.11373424308E+03  0.27119375672E+03  0.29428978815E+03  0.10566000000E+00 0. -1.
        994    1    1    2    0    0 -0.99547977367E+01  0.11800680040E+03  0.72321413947E+02  0.22037361424E+03  0.17120000000E+03 0.  0.
        998    1    1    2    0    0 -0.12227024561E+01 -0.42725573114E+01  0.11564848256E+04  0.11565365976E+04  0.10000000000E+02 0. -1.
</event>
<event>
 5    1  0.1068111E-008  0.3791952E+03  0.7957747E-01  0.3454670E+00
         13   -1    0    0    0    0  0.00000000000E+00  0.00000000000E+00  0.14999999963E+04  0.15000000000E+04  0.10566000000E+00 0. -1.
        994   -1    0    0    0    0 -0.00000000000E+00 -0.00000000000E+00  0.11368683772E-12  0.17120000000E+03  0.17120000000E+03 0.  0.
         13    1    1    2    0    0 -0.38442636385E+01  0.12079297305E+02  0.15422871020E+02  0.19964065238E+02  0.10566000000E+00 0. -1.
        994    1    1    2    0    0  0.33171028817E+01 -0.17052670308E+02  0.55521572275E+01  0.17216870559E+03  0.17120000000E+03 0.  0.
        998    1    1    2    0    0  0.52716075688E+00  0.49733730036E+01  0.14790249680E+04  0.14790672292E+04  0.10000000000E+02 0. -1.
</event>
<event>
 5    1  0.1068111E-008  0.3994013E+03  0.7957747E-01  0.3370800E+00
         13   -1    0    0    0    0  0.00000000000E+00  0.00000000000E+00  0.14999999963E+04  0.15000000000E+04  0.10566000000E+00 0.  1.
        994   -1    0    0    0    0 -0.00000000000E+00 -0.00000000000E+00  0.11368683772E-12  0.17120000000E+03  0.17120000000E+03 0.  0.
         13    1    1    2    0    0 -0.11591480919E+02 -0.80557844993E+02  0.10447089429E+03  0.13243152093E+03  0.10566000000E+00 0.  1.
        994    1    1    2    0    0  0.95907255982E+01  0.81676588923E+02  0.54351231350E+02  0.19755136938E+03  0.17120000000E+03 0.  0.
        998    1    1    2    0    0  0.20007553212E+01 -0.11187439303E+01  0.13411778706E+04  0.13412171097E+04  0.10000000000E+02 0.  1.
</event>
<event>
 5    1  0.1068111E-008  0.3817316E+03  0.7957747E-01  0.3443653E+00
         13   -1    0    0    0    0  0.00000000000E+00  0.00000000000E+00  0.14999999963E+04  0.15000000000E+04  0.10566000000E+00 0.  1.
        994   -1    0    0    0    0 -0.00000000000E+00 -0.00000000000E+00  0.11368683772E-12  0.17120000000E+03  0.17120000000E+03 0.  0.
         13    1    1    2    0    0  0.24552675101E+02  0.33924209788E+01  0.99301146953E+02  0.10234779590E+03  0.10566000000E+00 0.  1.
        994    1    1    2    0    0 -0.23836971257E+01 -0.13681983556E+02  0.39029720113E+01  0.17180672826E+03  0.17120000000E+03 0.  0.
        998    1    1    2    0    0 -0.22168977975E+02  0.10289562577E+02  0.13967958773E+04  0.13970454758E+04  0.10000000000E+02 0.  1.
</event>
<event>
 5    1  0.1068111E-008  0.3763048E+03  0.7957747E-01  0.3467408E+00
         13   -1    0    0    0    0  0.00000000000E+00  0.00000000000E+00  0.14999999963E+04  0.15000000000E+04  0.10566000000E+00 0.  1.
        994   -1    0    0    0    0 -0.00000000000E+00 -0.00000000000E+00  0.11368683772E-12  0.17120000000E+03  0.17120000000E+03 0.  0.
         13    1    1    2    0    0  0.23474036664E+02 -0.18008858255E+02  0.69841093896E+02  0.75849449131E+02  0.10566000000E+00 0.  1.
        994    1    1    2    0    0 -0.21850650321E+02  0.69663743344E+01  0.77922986615E+01  0.17290500632E+03  0.17120000000E+03 0.  0.
        998    1    1    2    0    0 -0.16233863432E+01  0.11042483920E+02  0.14223666037E+04  0.14224455446E+04  0.10000000000E+02 0.  1.
</event>
<event>
 5    1  0.1068111E-008  0.3837303E+03  0.7957747E-01  0.3435075E+00
         13   -1    0    0    0    0  0.00000000000E+00  0.00000000000E+00  0.14999999963E+04  0.15000000000E+04  0.10566000000E+00 0.  1.
        994   -1    0    0    0    0 -0.00000000000E+00 -0.00000000000E+00  0.11368683772E-12  0.17120000000E+03  0.17120000000E+03 0.  0.
         13    1    1    2    0    0  0.17336197093E+02 -0.23707039170E+00  0.58751328074E+02  0.61256262101E+02  0.10566000000E+00 0.  1.
        994    1    1    2    0    0 -0.36361358610E+02  0.67934743555E+02  0.22121138926E+02  0.18903984387E+03  0.17120000000E+03 0.  0.
        998    1    1    2    0    0  0.19025161517E+02 -0.67697673163E+02  0.14191275293E+04  0.14209038940E+04  0.10000000000E+02 0.  1.
</event>
<event>
 5    1  0.1068111E-008  0.3735488E+03  0.7957747E-01  0.3479739E+00
         13   -1    0    0    0    0  0.00000000000E+00  0.00000000000E+00  0.14999999963E+04  0.15000000000E+04  0.10566000000E+00 0.  1.
        994   -1    0    0    0    0 -0.00000000000E+00 -0.00000000000E+00  0.11368683772E-12  0.17120000000E+03  0.17120000000E+03 0.  0.
         13    1    1    2    0    0 -0.16076402443E+02 -0.29266353418E+02  0.39796783725E+02  0.51949642123E+02  0.10566000000E+00 0.  1.
        994    1    1    2    0    0  0.11957071809E+02  0.44092017735E+01  0.13402866801E+02  0.17219607854E+03  0.17120000000E+03 0.  0.
        998    1    1    2    0    0  0.41193306337E+01  0.24857151644E+02  0.14468003458E+04  0.14470542793E+04  0.10000000000E+02 0.  1.
</event>
<event>
 5    1  0.1068111E-008  0.3856359E+03  0.7957747E-01  0.3426980E+00
         13   -1    0    0    0    0  0.00000000000E+00  0.00000000000E+00  0.14999999963E+04  0.15000000000E+04  0.10566000000E+00 0.  1.
        994   -1    0    0    0    0 -0.00000000000E+00 -0.00000000000E+00  0.11368683772E-12  0.17120000000E+03  0.17120000000E+03 0.  0.
         13    1    1    2    0    0  0.67114079167E+01 -0.12916162888E+02  0.84697176101E+02  0.85938891449E+02  0.10566000000E+00 0.  1.
        994    1    1    2    0    0 -0.68913890872E+01  0.11435998259E+01  0.14749082354E+01  0.17134880921E+03  0.17120000000E+03 0.  0.
        998    1    1    2    0    0  0.17998117054E+00  0.11772563062E+02  0.14138279119E+04  0.14139122993E+04  0.10000000000E+02 0.  1.
</event>
<event>
 5    1  0.1068111E-008  0.3800837E+03  0.7957747E-01  0.3450794E+00
         13   -1    0    0    0    0  0.00000000000E+00  0.00000000000E+00  0.14999999963E+04  0.15000000000E+04  0.10566000000E+00 0.  1.
        994   -1    0    0    0    0 -0.00000000000E+00 -0.00000000000E+00  0.11368683772E-12  0.17120000000E+03  0.17120000000E+03 0.  0.
         13    1    1    2    0    0  0.17411841539E+02  0.13275489945E+02  0.55198559599E+02  0.59382682702E+02  0.10566000000E+00 0.  1.
        994    1    1    2    0    0 -0.13942677971E+02 -0.19222375829E+02  0.59777340865E+01  0.17294239303E+03  0.17120000000E+03 0.  0.
        998    1    1    2    0    0 -0.34691635686E+01  0.59468858837E+01  0.14388237026E+04  0.14388749243E+04  0.10000000000E+02 0.  1.
</event>
<event>
 5    1  0.1068111E-008  0.3821052E+03  0.7957747E-01  0.3442043E+00
         13   -1    0    0    0    0  0.00000000000E+00  0.00000000000E+00  0.14999999963E+04  0.15000000000E+04  0.10566000000E+00 0.  1.
        994   -1    0    0    0    0 -0.00000000000E+00 -0.00000000000E+00  0.11368683772E-12  0.17120000000E+03  0.17120000000E+03 0.  0.
         13    1    1    2    0    0  0.68581278962E+01  0.28051412139E+02  0.12361008303E+03  0.12693848680E+03  0.10566000000E+00 0.  1.
        994    1    1    2    0    0 -0.40338916693E+01 -0.30542206807E+02  0.62314629317E+01  0.17406139666E+03  0.17120000000E+03 0.  0.
        998    1    1    2    0    0 -0.28242362269E+01  0.24907946676E+01  0.13701584503E+04  0.13702001165E+04  0.10000000000E+02 0.  1.
</event>
<event>
 5    1  0.1068111E-008  0.3736577E+03  0.7957747E-01  0.3479248E+00
         13   -1    0    0    0    0  0.00000000000E+00  0.00000000000E+00  0.14999999963E+04  0.15000000000E+04  0.10566000000E+00 0.  1.
        994   -1    0    0    0    0 -0.00000000000E+00 -0.00000000000E+00  0.11368683772E-12  0.17120000000E+03  0.17120000000E+03 0.  0.
         13    1    1    2    0    0 -0.70711755374E+01  0.35613069940E+02  0.96912823756E+02  0.10349105684E+03  0.10566000000E+00 0.  1.
        994    1    1    2    0    0 -0.29445099951E+02 -0.12863625465E+01  0.10341567272E+02  0.17402602292E+03  0.17120000000E+03 0.  0.
        998    1    1    2    0    0  0.36516275488E+02 -0.34326707394E+02  0.13927456053E+04  0.13936829202E+04  0.10000000000E+02 0.  1.
</event>
<event>
 5    1  0.1068111E-008  0.3839049E+03  0.7957747E-01  0.3434330E+00
         13   -1    0    0    0    0  0.00000000000E+00  0.00000000000E+00  0.14999999963E+04  0.15000000000E+04  0.10566000000E+00 0.  1.
        994   -1    0    0    0    0 -0.00000000000E+00 -0.00000000000E+00  0.11368683772E-12  0.17120000000E+03  0.17120000000E+03 0.  0.
         13    1    1    2    0    0 -0.19678000166E+02 -0.21450733750E+02  0.16493135865E+03  0.16748051200E+03  0.10566000000E+00 0.  1.
        994    1    1    2    0    0  0.21204083635E+02  0.29752736171E+02  0.65927769479E+01  0.17517917451E+03  0.17120000000E+03 0.  0.
        998    1    1    2    0    0 -0.15260834693E+01 -0.83020024201E+01  0.13284758607E+04  0.13285403135E+04  0.10000000000E+02 0.  1.
</event>
<event>
 5    1  0.1068111E-008  0.3719862E+03  0.7957747E-01  0.3486812E+00
         13   -1    0    0    0    0  0.00000000000E+00  0.00000000000E+00  0.14999999963E+04  0.15000000000E+04  0.10566000000E+00 0. -1.
        994   -1    0    0    0    0 -0.00000000000E+00 -0.00000000000E+00  0.11368683772E-12  0.17120000000E+03  0.17120000000E+03 0.  0.
         13    1    1    2    0    0 -0.67682751906E+02  0.63086510030E+02  0.37021646084E+03  0.38160333030E+03  0.10566000000E+00 0. -1.
        994    1    1    2    0    0  0.75948442076E+02 -0.61331191839E+02  0.41706899951E+02  0.20144127295E+03  0.17120000000E+03 0.  0.
        998    1    1    2    0    0 -0.82656901700E+01 -0.17553181910E+01  0.10880766355E+04  0.10881553967E+04  0.10000000000E+02 0.  0.
</event>
<event>
 5    1  0.1068111E-008  0.3839322E+03  0.7957747E-01  0.3434214E+00
         13   -1    0    0    0    0  0.00000000000E+00  0.00000000000E+00  0.14999999963E+04  0.15000000000E+04  0.10566000000E+00 0. -1.
        994   -1    0    0    0    0 -0.00000000000E+00 -0.00000000000E+00  0.11368683772E-12  0.17120000000E+03  0.17120000000E+03 0.  0.
         13    1    1    2    0    0  0.24891547702E+02  0.14801292838E+02  0.14154713386E+03  0.14447930539E+03  0.10566000000E+00 0. -1.
        994    1    1    2    0    0 -0.53831323325E+02 -0.22076273508E+02  0.13413673224E+02  0.18131337472E+03  0.17120000000E+03 0.  0.
        998    1    1    2    0    0  0.28939775623E+02  0.72749806697E+01  0.13450391892E+04  0.13454073199E+04  0.10000000000E+02 0. -1.
</event>
<event>
 5    1  0.1068111E-008  0.3828253E+03  0.7957747E-01  0.3438948E+00
         13   -1    0    0    0    0  0.00000000000E+00  0.00000000000E+00  0.14999999963E+04  0.15000000000E+04  0.10566000000E+00 0. -1.
        994   -1    0    0    0    0 -0.00000000000E+00 -0.00000000000E+00  0.11368683772E-12  0.17120000000E+03  0.17120000000E+03 0.  0.
         13    1    1    2    0    0 -0.14065808352E+02  0.89912514459E+01  0.51793525362E+02  0.54417552321E+02  0.10566000000E+00 0. -1.
        994    1    1    2    0    0 -0.72270364312E-02 -0.10226421985E+02  0.30601264871E+01  0.17153245796E+03  0.17120000000E+03 0.  0.
        998    1    1    2    0    0  0.14073035389E+02  0.12351705386E+01  0.14451463444E+04  0.14452499897E+04  0.10000000000E+02 0. -1.
</event>
<event>
 5    1  0.1068111E-008  0.3693835E+03  0.7957747E-01  0.3498729E+00
         13   -1    0    0    0    0  0.00000000000E+00  0.00000000000E+00  0.14999999963E+04  0.15000000000E+04  0.10566000000E+00 0.  1.
        994   -1    0    0    0    0 -0.00000000000E+00 -0.00000000000E+00  0.11368683772E-12  0.17120000000E+03  0.17120000000E+03 0.  0.
         13    1    1    2    0    0 -0.16970858274E+02 -0.13953344494E+03  0.60076843015E+03  0.61699295792E+03  0.10566000000E+00 0.  1.
        994    1    1    2    0    0 -0.36181472531E+01  0.13004252939E+03  0.72220103506E+02  0.22682445589E+03  0.17120000000E+03 0.  0.
        998    1    1    2    0    0  0.20589005527E+02  0.94909155482E+01  0.82701146262E+03  0.82738258619E+03  0.10000000000E+02 0.  1.
</event>
<event>
 5    1  0.1068111E-008  0.3758995E+03  0.7957747E-01  0.3469210E+00
         13   -1    0    0    0    0  0.00000000000E+00  0.00000000000E+00  0.14999999963E+04  0.15000000000E+04  0.10566000000E+00 0. -1.
        994   -1    0    0    0    0 -0.00000000000E+00 -0.00000000000E+00  0.11368683772E-12  0.17120000000E+03  0.17120000000E+03 0.  0.
         13    1    1    2    0    0 -0.65109118226E+02 -0.53114606978E+02  0.38744870125E+03  0.39645537708E+03  0.10566000000E+00 0. -1.
        994    1    1    2    0    0  0.67728372765E+02  0.62112400620E+02  0.35396929276E+02  0.19750307691E+03  0.17120000000E+03 0.  0.
        998    1    1    2    0    0 -0.26192545388E+01 -0.89977936416E+01  0.10771543658E+04  0.10772415460E+04  0.10000000000E+02 0. -1.
</event>
<event>
 5    1  0.1068111E-008  0.3847665E+03  0.7957747E-01  0.3430663E+00
         13   -1    0    0    0    0  0.00000000000E+00  0.00000000000E+00  0.14999999963E+04  0.15000000000E+04  0.10566000000E+00 0.  1.
        994   -1    0    0    0    0 -0.00000000000E+00 -0.00000000000E+00  0.11368683772E-12  0.17120000000E+03  0.17120000000E+03 0.  0.
         13    1    1    2    0    0 -0.77018058037E+01 -0.10380961657E+02  0.47800626387E+02  0.49517605199E+02  0.10566000000E+00 0.  1.
        994    1    1    2    0    0  0.16444790461E+01  0.89072994741E+01  0.20161546382E+01  0.17145130263E+03  0.17120000000E+03 0.  0.
        998    1    1    2    0    0  0.60573267576E+01  0.14736621827E+01  0.14501832153E+04  0.14502310922E+04  0.10000000000E+02 0.  1.
</event>
<event>
 5    1  0.1068111E-008  0.3815884E+03  0.7957747E-01  0.3444271E+00
         13   -1    0    0    0    0  0.00000000000E+00  0.00000000000E+00  0.14999999963E+04  0.15000000000E+04  0.10566000000E+00 0.  1.
        994   -1    0    0    0    0 -0.00000000000E+00 -0.00000000000E+00  0.11368683772E-12  0.17120000000E+03  0.17120000000E+03 0.  0.
         13    1    1    2    0    0 -0.12252997870E+02 -0.32409606972E+01  0.22886910492E+02  0.26162217393E+02  0.10566000000E+00 0.  1.
        994    1    1    2    0    0  0.64025650174E+01  0.42681444924E+01  0.35304045450E+01  0.17140919944E+03  0.17120000000E+03 0.  0.
        998    1    1    2    0    0  0.58504328528E+01 -0.10271837953E+01  0.14735826812E+04  0.14736285832E+04  0.10000000000E+02 0.  1.
</event>
<event>
 5    1  0.1068111E-008  0.3712614E+03  0.7957747E-01  0.3490114E+00
         13   -1    0    0    0    0  0.00000000000E+00  0.00000000000E+00  0.14999999963E+04  0.15000000000E+04  0.10566000000E+00 0.  1.
        994   -1    0    0    0    0 -0.00000000000E+00 -0.00000000000E+00  0.11368683772E-12  0.17120000000E+03  0.17120000000E+03 0.  0.
         13    1    1    2    0    0 -0.22335619210E+02 -0.14702200409E+03  0.71984751863E+03  0.73504748881E+03  0.10566000000E+00 0.  1.
        994    1    1    2    0    0  0.42274357902E+01  0.13901387424E+03  0.78462814244E+02  0.23411232702E+03  0.17120000000E+03 0.  0.
        998    1    1    2    0    0  0.18108183420E+02  0.80081298524E+01  0.70168966341E+03  0.70204018417E+03  0.10000000000E+02 0.  1.
</event>
<event>
 5    1  0.1068111E-008  0.3855467E+03  0.7957747E-01  0.3427357E+00
         13   -1    0    0    0    0  0.00000000000E+00  0.00000000000E+00  0.14999999963E+04  0.15000000000E+04  0.10566000000E+00 0. -1.
        994   -1    0    0    0    0 -0.00000000000E+00 -0.00000000000E+00  0.11368683772E-12  0.17120000000E+03  0.17120000000E+03 0.  0.
         13    1    1    2    0    0 -0.21294294556E+01 -0.13756360143E+02  0.67634788862E+02  0.69052499901E+02  0.10566000000E+00 0. -1.
        994    1    1    2    0    0 -0.45739744929E+01  0.18554009340E+02  0.25586468620E+01  0.17228220796E+03  0.17120000000E+03 0.  0.
        998    1    1    2    0    0  0.67034039485E+01 -0.47976491971E+01  0.14298065606E+04  0.14298652921E+04  0.10000000000E+02 0. -1.
</event>
<event>
 5    1  0.1068111E-008  0.3823004E+03  0.7957747E-01  0.3441203E+00
         13   -1    0    0    0    0  0.00000000000E+00  0.00000000000E+00  0.14999999963E+04  0.15000000000E+04  0.10566000000E+00 0. -1.
        994   -1    0    0    0    0 -0.00000000000E+00 -0.00000000000E+00  0.11368683772E-12  0.17120000000E+03  0.17120000000E+03 0.  0.
         13    1    1    2    0    0  0.30227068585E+01  0.16288712001E+02  0.43503475327E+02  0.46551288112E+02  0.10566000000E+00 0. -1.
        994    1    1    2    0    0 -0.67777891641E+01 -0.19060485394E+02  0.43353126992E+01  0.17244557247E+03  0.17120000000E+03 0.  0.
        998    1    1    2    0    0  0.37550823056E+01  0.27717733936E+01  0.14521612083E+04  0.14522031394E+04  0.10000000000E+02 0. -1.
</event>
<event>
 5    1  0.1201121E-008  0.3855174E+03  0.7957747E-01  0.3427481E+00
         13   -1    0    0    0    0  0.00000000000E+00  0.00000000000E+00  0.14999999963E+04  0.15000000000E+04  0.10566000000E+00 0. -1.
        994   -1    0    0    0    0 -0.00000000000E+00 -0.00000000000E+00  0.11368683772E-12  0.17120000000E+03  0.17120000000E+03 0.  0.
         13    1    1    2    0    0  0.33683282724E+01  0.11069711513E+02  0.58185905521E+02  0.59325331130E+02  0.10566000000E+00 0. -1.
        994    1    1    2    0    0  0.68151137064E+00  0.18469612206E+02  0.24957700279E+01  0.17221283315E+03  0.17120000000E+03 0.  0.
        998    1    1    2    0    0 -0.40498396430E+01 -0.29539323719E+02  0.14393183207E+04  0.14396618357E+04  0.10000000000E+02 0. -1.
</event>
<event>
 5    1  0.1068111E-008  0.3860363E+03  0.7957747E-01  0.3425289E+00
         13   -1    0    0    0    0  0.00000000000E+00  0.00000000000E+00  0.14999999963E+04  0.15000000000E+04  0.10566000000E+00 0.  1.
        994   -1    0    0    0    0 -0.00000000000E+00 -0.00000000000E+00  0.11368683772E-12  0.17120000000E+03  0.17120000000E+03 0.  0.
         13    1    1    2    0    0  0.88754362271E+01 -0.67874690675E+01  0.55573410216E+02  0.56685608329E+02  0.10566000000E+00 0.  1.
        994    1    1    2    0    0 -0.38502820054E+01  0.11731072514E+02  0.16163192482E+01  0.17165225085E+03  0.17120000000E+03 0.  0.
        998    1    1    2    0    0 -0.50251542218E+01 -0.49436034464E+01  0.14428102668E+04  0.14428621408E+04  0.10000000000E+02 0.  1.
</event>
<event>
 5    1  0.1068111E-008  0.3857394E+03  0.7957747E-01  0.3426542E+00
         13   -1    0    0    0    0  0.00000000000E+00  0.00000000000E+00  0.14999999963E+04  0.15000000000E+04  0.10566000000E+00 0. -1.
        994   -1    0    0    0    0 -0.00000000000E+00 -0.00000000000E+00  0.11368683772E-12  0.17120000000E+03  0.17120000000E+03 0.  0.
         13    1    1    2    0    0  0.36947459165E+01 -0.11893624263E+02  0.63729440729E+02  0.64935061601E+02  0.10566000000E+00 0. -1.
        994    1    1    2    0    0 -0.69097768594E+01  0.22396319353E+01  0.14365862665E+01  0.17136004420E+03  0.17120000000E+03 0.  0.
        998    1    1    2    0    0  0.32150309430E+01  0.96539923281E+01  0.14348339693E+04  0.14349048942E+04  0.10000000000E+02 0. -1.
</event>
<event>
 5    1  0.1068111E-008  0.3855809E+03  0.7957747E-01  0.3427212E+00
         13   -1    0    0    0    0  0.00000000000E+00  0.00000000000E+00  0.14999999963E+04  0.15000000000E+04  0.10566000000E+00 0.  1.
        994   -1    0    0    0    0 -0.00000000000E+00 -0.00000000000E+00  0.11368683772E-12  0.17120000000E+03  0.17120000000E+03 0.  0.
         13    1    1    2    0    0 -0.54541068084E+01  0.83909730626E+01  0.33565496073E+02  0.35025839043E+02  0.10566000000E+00 0.  1.
        994    1    1    2    0    0  0.17191767216E+02 -0.23017031079E+02  0.40558664817E+01  0.17364109719E+03  0.17120000000E+03 0.  0.
        998    1    1    2    0    0 -0.11737660407E+02  0.14626058017E+02  0.14623786337E+04  0.14625330638E+04  0.10000000000E+02 0.  1.
</event>
<event>
 5    1  0.1068111E-008  0.3854546E+03  0.7957747E-01  0.3427746E+00
         13   -1    0    0    0    0  0.00000000000E+00  0.00000000000E+00  0.14999999963E+04  0.15000000000E+04  0.10566000000E+00 0.  1.
        994   -1    0    0    0    0 -0.00000000000E+00 -0.00000000000E+00  0.11368683772E-12  0.17120000000E+03  0.17120000000E+03 0.  0.
         13    1    1    2    0    0  0.39715267247E+01 -0.10238980639E+02  0.42262620840E+02  0.43666348982E+02  0.10566000000E+00 0.  1.
        994    1    1    2    0    0 -0.66285978292E+01  0.90214916074E+01  0.18162441322E+01  0.17157524403E+03  0.17120000000E+03 0.  0.
        998    1    1    2    0    0  0.26570711045E+01  0.12174890321E+01  0.14559211313E+04  0.14559584070E+04  0.10000000000E+02 0.  1.
</event>
<event>
 5    1  0.1068111E-008  0.3778866E+03  0.7957747E-01  0.3460413E+00
         13   -1    0    0    0    0  0.00000000000E+00  0.00000000000E+00  0.14999999963E+04  0.15000000000E+04  0.10566000000E+00 0. -1.
        994   -1    0    0    0    0 -0.00000000000E+00 -0.00000000000E+00  0.11368683772E-12  0.17120000000E+03  0.17120000000E+03 0.  0.
         13    1    1    2    0    0 -0.25442010863E+02 -0.12390139155E+01  0.57412095708E+02  0.62809163104E+02  0.10566000000E+00 0. -1.
        994    1    1    2    0    0  0.30159601843E+02  0.13575958821E+01  0.82782270655E+01  0.17403854083E+03  0.17120000000E+03 0.  0.
        998    1    1    2    0    0 -0.47175909799E+01 -0.11858196660E+00  0.14343096735E+04  0.14343522961E+04  0.10000000000E+02 0. -1.
</event>
<event>
 5    1  0.1068111E-008  0.3845133E+03  0.7957747E-01  0.3431739E+00
         13   -1    0    0    0    0  0.00000000000E+00  0.00000000000E+00  0.14999999963E+04  0.15000000000E+04  0.10566000000E+00 0.  1.
        994   -1    0    0    0    0 -0.00000000000E+00 -0.00000000000E+00  0.11368683772E-12  0.17120000000E+03  0.17120000000E+03 0.  0.
         13    1    1    2    0    0  0.10507092510E+02  0.12485930654E+02  0.71527826015E+02  0.73365785730E+02  0.10566000000E+00 0.  1.
        994    1    1    2    0    0 -0.15624788923E+02  0.82769444695E+00  0.26787552350E+01  0.17193439108E+03  0.17120000000E+03 0.  0.
        998    1    1    2    0    0  0.51176964130E+01 -0.13313625101E+02  0.14257934150E+04  0.14258998232E+04  0.10000000000E+02 0.  1.
</event>
<event>
 5    1  0.1068111E-008  0.3861769E+03  0.7957747E-01  0.3424696E+00
         13   -1    0    0    0    0  0.00000000000E+00  0.00000000000E+00  0.14999999963E+04  0.15000000000E+04  0.10566000000E+00 0.  1.
        994   -1    0    0    0    0 -0.00000000000E+00 -0.00000000000E+00  0.11368683772E-12  0.17120000000E+03  0.17120000000E+03 0.  0.
         13    1    1    2    0    0  0.10190002071E+02  0.30687604751E+01  0.54232720474E+02  0.55267102032E+02  0.10566000000E+00 0.  1.
        994    1    1    2    0    0 -0.83186784311E+01 -0.31030029049E+01  0.13052442287E+01  0.17143503930E+03  0.17120000000E+03 0.  0.
        998    1    1    2    0    0 -0.18713236401E+01  0.34242429851E-01  0.14444620316E+04  0.14444978587E+04  0.10000000000E+02 0.  1.
</event>
<event>
 5    1  0.1068111E-008  0.3726809E+03  0.7957747E-01  0.3483660E+00
         13   -1    0    0    0    0  0.00000000000E+00  0.00000000000E+00  0.14999999963E+04  0.15000000000E+04  0.10566000000E+00 0. -1.
        994   -1    0    0    0    0 -0.00000000000E+00 -0.00000000000E+00  0.11368683772E-12  0.17120000000E+03  0.17120000000E+03 0.  0.
         13    1    1    2    0    0  0.90148028038E+01  0.29975742251E+02  0.60943439390E+02  0.68512230746E+02  0.10566000000E+00 0. -1.
        994    1    1    2    0    0 -0.67889152014E+01 -0.10007281560E+02  0.83756160793E+01  0.17183080631E+03  0.17120000000E+03 0.  0.
        998    1    1    2    0    0 -0.22258876024E+01 -0.19968460691E+02  0.14306809408E+04  0.14308569629E+04  0.10000000000E+02 0. -1.
</event>
<event>
 5    1  0.1068111E-008  0.3849945E+03  0.7957747E-01  0.3429696E+00
         13   -1    0    0    0    0  0.00000000000E+00  0.00000000000E+00  0.14999999963E+04  0.15000000000E+04  0.10566000000E+00 0. -1.
        994   -1    0    0    0    0 -0.00000000000E+00 -0.00000000000E+00  0.11368683772E-12  0.17120000000E+03  0.17120000000E+03 0.  0.
         13    1    1    2    0    0  0.13704458990E+02  0.44453357645E+01  0.65828814653E+02  0.67387070043E+02  0.10566000000E+00 0. -1.
        994    1    1    2    0    0 -0.25507716206E+01 -0.53309139923E+01  0.17477397442E+01  0.17131088603E+03  0.17120000000E+03 0.  0.
        998    1    1    2    0    0 -0.11153687369E+02  0.88557822779E+00  0.14324234419E+04  0.14325020439E+04  0.10000000000E+02 0. -1.
</event>
<event>
 5    1  0.1068111E-008  0.3805774E+03  0.7957747E-01  0.3448648E+00
         13   -1    0    0    0    0  0.00000000000E+00  0.00000000000E+00  0.14999999963E+04  0.15000000000E+04  0.10566000000E+00 0. -1.
        994   -1    0    0    0    0 -0.00000000000E+00 -0.00000000000E+00  0.11368683772E-12  0.17120000000E+03  0.17120000000E+03 0.  0.
         13    1    1    2    0    0 -0.30888256034E+02 -0.17544255959E+01  0.11618895256E+03  0.12023745769E+03  0.10566000000E+00 0. -1.
        994    1    1    2    0    0  0.29220196494E+02 -0.32200777637E+01  0.67307374535E+01  0.17383593302E+03  0.17120000000E+03 0.  0.
        998    1    1    2    0    0  0.16680595397E+01  0.49745033596E+01  0.13770803063E+04  0.13771266093E+04  0.10000000000E+02 0. -1.
</event>
<event>
 5    1  0.1068111E-008  0.3847961E+03  0.7957747E-01  0.3430537E+00
         13   -1    0    0    0    0  0.00000000000E+00  0.00000000000E+00  0.14999999963E+04  0.15000000000E+04  0.10566000000E+00 0.  1.
        994   -1    0    0    0    0 -0.00000000000E+00 -0.00000000000E+00  0.11368683772E-12  0.17120000000E+03  0.17120000000E+03 0.  0.
         13    1    1    2    0    0  0.21918546761E+01  0.13381186885E+02  0.52847129642E+02  0.54559056671E+02  0.10566000000E+00 0.  1.
        994    1    1    2    0    0 -0.14055256717E+01 -0.93039833156E+01  0.20228093325E+01  0.17147032211E+03  0.17120000000E+03 0.  0.
        998    1    1    2    0    0 -0.78632900432E+00 -0.40772035696E+01  0.14451300573E+04  0.14451706212E+04  0.10000000000E+02 0.  1.
</event>
<event>
 5    1  0.1068111E-008  0.3794962E+03  0.7957747E-01  0.3453355E+00
         13   -1    0    0    0    0  0.00000000000E+00  0.00000000000E+00  0.14999999963E+04  0.15000000000E+04  0.10566000000E+00 0. -1.
        994   -1    0    0    0    0 -0.00000000000E+00 -0.00000000000E+00  0.11368683772E-12  0.17120000000E+03  0.17120000000E+03 0.  0.
         13    1    1    2    0    0 -0.11766992036E+02 -0.14861343361E+02  0.38520208929E+02  0.42931798100E+02  0.10566000000E+00 0. -1.
        994    1    1    2    0    0  0.94794245955E+01  0.15801081411E+02  0.55254314667E+01  0.17227740437E+03  0.17120000000E+03 0.  0.
        998    1    1    2    0    0  0.22875674405E+01 -0.93973805023E+00  0.14559543559E+04  0.14559907975E+04  0.10000000000E+02 0. -1.
</event>
<event>
 5    1  0.1068111E-008  0.3785452E+03  0.7957747E-01  0.3457518E+00
         13   -1    0    0    0    0  0.00000000000E+00  0.00000000000E+00  0.14999999963E+04  0.15000000000E+04  0.10566000000E+00 0.  1.
        994   -1    0    0    0    0 -0.00000000000E+00 -0.00000000000E+00  0.11368683772E-12  0.17120000000E+03  0.17120000000E+03 0.  0.
         13    1    1    2    0    0 -0.48600900347E+01  0.93718992491E+01  0.93112598985E+01  0.14077062748E+02  0.10566000000E+00 0.  1.
        994    1    1    2    0    0  0.34983428521E+01 -0.39923057073E+01  0.49640049891E+01  0.17135418948E+03  0.17120000000E+03 0.  0.
        998    1    1    2    0    0  0.13617471826E+01 -0.53795935419E+01  0.14857247314E+04  0.14857687478E+04  0.10000000000E+02 0.  1.
</event>
<event>
 5    1  0.1868155E-008  0.3865659E+03  0.7957747E-01  0.3423058E+00
         13   -1    0    0    0    0  0.00000000000E+00  0.00000000000E+00  0.14999999963E+04  0.15000000000E+04  0.10566000000E+00 0.  1.
        994   -1    0    0    0    0 -0.00000000000E+00 -0.00000000000E+00  0.11368683772E-12  0.17120000000E+03  0.17120000000E+03 0.  0.
         13    1    1    2    0    0  0.11266765019E+02  0.13551385823E+01  0.66697331208E+02  0.67655905499E+02  0.10566000000E+00 0.  1.
        994    1    1    2    0    0 -0.22435316468E+02 -0.32937616262E+02  0.60687349721E+01  0.17588206143E+03  0.17120000000E+03 0.  0.
        998    1    1    2    0    0  0.11168551449E+02  0.31582477679E+02  0.14272339301E+04  0.14276620331E+04  0.10000000000E+02 0.  1.
</event>
<event>
 5    1  0.1068111E-008  0.3812629E+03  0.7957747E-01  0.3445678E+00
         13   -1    0    0    0    0  0.00000000000E+00  0.00000000000E+00  0.14999999963E+04  0.15000000000E+04  0.10566000000E+00 0. -1.
        994   -1    0    0    0    0 -0.00000000000E+00 -0.00000000000E+00  0.11368683772E-12  0.17120000000E+03  0.17120000000E+03 0.  0.
         13    1    1    2    0    0  0.15613758358E+02  0.11812843831E+02  0.50979779062E+02  0.54610271622E+02  0.10566000000E+00 0. -1.
        994    1    1    2    0    0 -0.15762011931E+02 -0.20702727028E+02  0.57541527584E+01  0.17326163511E+03  0.17120000000E+03 0.  0.
        998    1    1    2    0    0  0.14825357287E+00  0.88898831974E+01  0.14432660645E+04  0.14433280933E+04  0.10000000000E+02 0. -1.
</event>
<event>
 5    1  0.1068111E-008  0.3724854E+03  0.7957747E-01  0.3484546E+00
         13   -1    0    0    0    0  0.00000000000E+00  0.00000000000E+00  0.14999999963E+04  0.15000000000E+04  0.10566000000E+00 0. -1.
        994   -1    0    0    0    0 -0.00000000000E+00 -0.00000000000E+00  0.11368683772E-12  0.17120000000E+03  0.17120000000E+03 0.  0.
         13    1    1    2    0    0 -0.58911858974E+01  0.36695739567E+02  0.48076356550E+02  0.60767018989E+02  0.10566000000E+00 0. -1.
        994    1    1    2    0    0  0.21069063562E+02 -0.49129344618E+02  0.22406154798E+02  0.18074588160E+03  0.17120000000E+03 0.  0.
        998    1    1    2    0    0 -0.15177877664E+02  0.12433605051E+02  0.14295174849E+04  0.14296870994E+04  0.10000000000E+02 0. -1.
</event>
<event>
 5    1  0.1068111E-008  0.3790090E+03  0.7957747E-01  0.3455485E+00
         13   -1    0    0    0    0  0.00000000000E+00  0.00000000000E+00  0.14999999963E+04  0.15000000000E+04  0.10566000000E+00 0. -1.
        994   -1    0    0    0    0 -0.00000000000E+00 -0.00000000000E+00  0.11368683772E-12  0.17120000000E+03  0.17120000000E+03 0.  0.
         13    1    1    2    0    0  0.15849205221E+02 -0.21369967711E+02  0.69457003092E+02  0.74378486599E+02  0.10566000000E+00 0. -1.
        994    1    1    2    0    0 -0.11479070834E+02  0.34291874657E+02  0.90326303116E+01  0.17521053092E+03  0.17120000000E+03 0.  0.
        998    1    1    2    0    0 -0.43701343871E+01 -0.12921906947E+02  0.14215103629E+04  0.14216109825E+04  0.10000000000E+02 0. -1.
</event>
<event>
 5    1  0.1068111E-008  0.3802519E+03  0.7957747E-01  0.3450063E+00
         13   -1    0    0    0    0  0.00000000000E+00  0.00000000000E+00  0.14999999963E+04  0.15000000000E+04  0.10566000000E+00 0. -1.
        994   -1    0    0    0    0 -0.00000000000E+00 -0.00000000000E+00  0.11368683772E-12  0.17120000000E+03  0.17120000000E+03 0.  0.
         13    1    1    2    0    0  0.28619500713E+02  0.27315138982E+02  0.22066237300E+03  0.22418092395E+03  0.10566000000E+00 0. -1.
        994    1    1    2    0    0 -0.42528018809E+01 -0.55644460665E+01  0.41699098734E+01  0.17139392502E+03  0.17120000000E+03 0.  0.
        998    1    1    2    0    0 -0.24366698832E+02 -0.21750692915E+02  0.12751677134E+04  0.12756251510E+04  0.10000000000E+02 0. -1.
</event>
<event>
 5    1  0.1068111E-008  0.3783904E+03  0.7957747E-01  0.3458197E+00
         13   -1    0    0    0    0  0.00000000000E+00  0.00000000000E+00  0.14999999963E+04  0.15000000000E+04  0.10566000000E+00 0. -1.
        994   -1    0    0    0    0 -0.00000000000E+00 -0.00000000000E+00  0.11368683772E-12  0.17120000000E+03  0.17120000000E+03 0.  0.
         13    1    1    2    0    0  0.28993792519E+02 -0.82658604291E+02  0.20070035326E+03  0.21898339624E+03  0.10566000000E+00 0. -1.
        994    1    1    2    0    0 -0.19702283990E+02  0.96702937049E+02  0.51427473150E+02  0.20419075156E+03  0.17120000000E+03 0.  0.
        998    1    1    2    0    0 -0.92915085288E+01 -0.14044332758E+02  0.12478721699E+04  0.12480258522E+04  0.10000000000E+02 0. -1.
</event>
<event>
 5    1  0.1068111E-008  0.3692269E+03  0.7957747E-01  0.3499452E+00
         13   -1    0    0    0    0  0.00000000000E+00  0.00000000000E+00  0.14999999963E+04  0.15000000000E+04  0.10566000000E+00 0. -1.
        994   -1    0    0    0    0 -0.00000000000E+00 -0.00000000000E+00  0.11368683772E-12  0.17120000000E+03  0.17120000000E+03 0.  0.
         13    1    1    2    0    0 -0.25597654865E+02  0.22605358218E+02  0.53851238889E+02  0.63766835022E+02  0.10566000000E+00 0. -1.
        994    1    1    2    0    0 -0.15939888460E+01 -0.11234555349E+02  0.10979609279E+02  0.17192657693E+03  0.17120000000E+03 0.  0.
        998    1    1    2    0    0  0.27191643711E+02 -0.11370802869E+02  0.14351691481E+04  0.14355065880E+04  0.10000000000E+02 0. -1.
</event>
<event>
 5    1  0.1068111E-008  0.3858734E+03  0.7957747E-01  0.3425976E+00
         13   -1    0    0    0    0  0.00000000000E+00  0.00000000000E+00  0.14999999963E+04  0.15000000000E+04  0.10566000000E+00 0. -1.
        994   -1    0    0    0    0 -0.00000000000E+00 -0.00000000000E+00  0.11368683772E-12  0.17120000000E+03  0.17120000000E+03 0.  0.
         13    1    1    2    0    0  0.92444385833E+01 -0.59984755790E+01  0.50698416022E+02  0.51882385308E+02  0.10566000000E+00 0. -1.
        994    1    1    2    0    0 -0.56033818553E+01  0.78654976507E+01  0.15030364046E+01  0.17147875396E+03  0.17120000000E+03 0.  0.
        998    1    1    2    0    0 -0.36410567280E+01 -0.18670220717E+01  0.14477985439E+04  0.14478388607E+04  0.10000000000E+02 0. -1.
</event>
<event>
 5    1  0.1068111E-008  0.3792632E+03  0.7957747E-01  0.3454373E+00
         13   -1    0    0    0    0  0.00000000000E+00  0.00000000000E+00  0.14999999963E+04  0.15000000000E+04  0.10566000000E+00 0. -1.
        994   -1    0    0    0    0 -0.00000000000E+00 -0.00000000000E+00  0.11368683772E-12  0.17120000000E+03  0.17120000000E+03 0.  0.
         13    1    1    2    0    0 -0.73366996400E+01 -0.16907579583E+02  0.40573779432E+01  0.18872384290E+02  0.10566000000E+00 0. -1.
        994    1    1    2    0    0 -0.19869567250E+02 -0.12219895284E+02  0.17891854114E+02  0.17370573965E+03  0.17120000000E+03 0.  0.
        998    1    1    2    0    0  0.27206266890E+02  0.29127474868E+02  0.14780507642E+04  0.14786218761E+04  0.10000000000E+02 0. -1.
</event>
<event>
 5    1  0.1068111E-008  0.3761787E+03  0.7957747E-01  0.3467968E+00
         13   -1    0    0    0    0  0.00000000000E+00  0.00000000000E+00  0.14999999963E+04  0.15000000000E+04  0.10566000000E+00 0.  1.
        994   -1    0    0    0    0 -0.00000000000E+00 -0.00000000000E+00  0.11368683772E-12  0.17120000000E+03  0.17120000000E+03 0.  0.
         13    1    1    2    0    0 -0.68979804187E+02 -0.12573329405E+02  0.33907840116E+03  0.34625204013E+03  0.10566000000E+00 0.  1.
        994    1    1    2    0    0  0.64282189591E+02 -0.98707004465E+01  0.20532106144E+02  0.18428412305E+03  0.17120000000E+03 0.  0.
        998    1    1    2    0    0  0.46976145953E+01  0.22444029852E+02  0.11403894890E+04  0.11406638368E+04  0.10000000000E+02 0. -1.
</event>
<event>
 5    1  0.1068111E-008  0.3821550E+03  0.7957747E-01  0.3441829E+00
         13   -1    0    0    0    0  0.00000000000E+00  0.00000000000E+00  0.14999999963E+04  0.15000000000E+04  0.10566000000E+00 0. -1.
        994   -1    0    0    0    0 -0.00000000000E+00 -0.00000000000E+00  0.11368683772E-12  0.17120000000E+03  0.17120000000E+03 0.  0.
         13    1    1    2    0    0 -0.15595193033E+01 -0.22338077223E+02  0.81885467835E+02  0.84892065596E+02  0.10566000000E+00 0. -1.
        994    1    1    2    0    0  0.20592014759E+01  0.12470500316E+02  0.35797007181E+01  0.17170325549E+03  0.17120000000E+03 0.  0.
        998    1    1    2    0    0 -0.49968217261E+00  0.98675769071E+01  0.14145348277E+04  0.14146046789E+04  0.10000000000E+02 0. -1.
</event>
<event>
 5    1  0.1068111E-008  0.3859903E+03  0.7957747E-01  0.3425483E+00
         13   -1    0    0    0    0  0.00000000000E+00  0.00000000000E+00  0.14999999963E+04  0.15000000000E+04  0.10566000000E+00 0. -1.
        994   -1    0    0    0    0 -0.00000000000E+00 -0.00000000000E+00  0.11368683772E-12  0.17120000000E+03  0.17120000000E+03 0.  0.
         13    1    1    2    0    0  0.10386284723E+02  0.49127589989E+01  0.59683894431E+02  0.60779836540E+02  0.10566000000E+00 0. -1.
        994    1    1    2    0    0 -0.56847329223E+01 -0.12547003497E+00  0.12452526970E+01  0.17129892757E+03  0.17120000000E+03 0.  0.
        998    1    1    2    0    0 -0.47015518008E+01 -0.47872889639E+01  0.14390708492E+04  0.14391212359E+04  0.10000000000E+02 0. -1.
</event>
<event>
 5    1  0.1068111E-008  0.3850194E+03  0.7957747E-01  0.3429590E+00
         13   -1    0    0    0    0  0.00000000000E+00  0.00000000000E+00  0.14999999963E+04  0.15000000000E+04  0.10566000000E+00 0. -1.
        994   -1    0    0    0    0 -0.00000000000E+00 -0.00000000000E+00  0.11368683772E-12  0.17120000000E+03  0.17120000000E+03 0.  0.
         13    1    1    2    0    0 -0.10105523261E+02  0.95273919967E+01  0.63308632907E+02  0.64814249693E+02  0.10566000000E+00 0. -1.
        994    1    1    2    0    0 -0.57747546314E+01 -0.54565849958E+01  0.18281080033E+01  0.17139400249E+03  0.17120000000E+03 0.  0.
        998    1    1    2    0    0  0.15880277893E+02 -0.40708070009E+01  0.14348632554E+04  0.14349917478E+04  0.10000000000E+02 0. -1.
</event>
<event>
 5    1  0.1068111E-008  0.3707017E+03  0.7957747E-01  0.3492672E+00
         13   -1    0    0    0    0  0.00000000000E+00  0.00000000000E+00  0.14999999963E+04  0.15000000000E+04  0.10566000000E+00 0. -1.
        994   -1    0    0    0    0 -0.00000000000E+00 -0.00000000000E+00  0.11368683772E-12  0.17120000000E+03  0.17120000000E+03 0.  0.
         13    1    1    2    0    0 -0.28249845507E+02  0.41777088700E+02  0.10443098668E+03  0.11597077673E+03  0.10566000000E+00 0. -1.
        994    1    1    2    0    0  0.21234151702E+02 -0.37293167812E+02  0.17792566703E+02  0.17739133292E+03  0.17120000000E+03 0.  0.
        998    1    1    2    0    0  0.70156938043E+01 -0.44839208888E+01  0.13777764429E+04  0.13778378904E+04  0.10000000000E+02 0. -1.
</event>
<event>
 5    1  0.1068111E-008  0.3737500E+03  0.7957747E-01  0.3478832E+00
         13   -1    0    0    0    0  0.00000000000E+00  0.00000000000E+00  0.14999999963E+04  0.15000000000E+04  0.10566000000E+00 0. -1.
        994   -1    0    0    0    0 -0.00000000000E+00 -0.00000000000E+00  0.11368683772E-12  0.17120000000E+03  0.17120000000E+03 0.  0.
         13    1    1    2    0    0  0.30600668164E+02  0.11066891762E+02  0.78358531388E+02  0.84846612134E+02  0.10566000000E+00 0. -1.
        994    1    1    2    0    0  0.17949643534E+02 -0.15783169697E+02  0.92746321804E+01  0.17310908974E+03  0.17120000000E+03 0.  0.
        998    1    1    2    0    0 -0.48550311698E+02  0.47162779351E+01  0.14123668327E+04  0.14132442981E+04  0.10000000000E+02 0. -1.
</event>
<event>
 5    1  0.1068111E-008  0.3775706E+03  0.7957747E-01  0.3461805E+00
         13   -1    0    0    0    0  0.00000000000E+00  0.00000000000E+00  0.14999999963E+04  0.15000000000E+04  0.10566000000E+00 0. -1.
        994   -1    0    0    0    0 -0.00000000000E+00 -0.00000000000E+00  0.11368683772E-12  0.17120000000E+03  0.17120000000E+03 0.  0.
         13    1    1    2    0    0  0.11316464557E+02  0.27554864444E+02  0.85971131952E+02  0.90985601156E+02  0.10566000000E+00 0. -1.
        994    1    1    2    0    0 -0.71968136162E+01 -0.13865323784E+01  0.55455747757E+01  0.17144652227E+03  0.17120000000E+03 0.  0.
        998    1    1    2    0    0 -0.41196509409E+01 -0.26168332066E+02  0.14084832896E+04  0.14087678766E+04  0.10000000000E+02 0. -1.
</event>
<event>
 5    1  0.1068111E-008  0.3820696E+03  0.7957747E-01  0.3442196E+00
         13   -1    0    0    0    0  0.00000000000E+00  0.00000000000E+00  0.14999999963E+04  0.15000000000E+04  0.10566000000E+00 0.  1.
        994   -1    0    0    0    0 -0.00000000000E+00 -0.00000000000E+00  0.11368683772E-12  0.17120000000E+03  0.17120000000E+03 0.  0.
         13    1    1    2    0    0 -0.52668070241E+01 -0.12736415756E+02  0.29464376977E+02  0.32528698363E+02  0.10566000000E+00 0.  1.
        994    1    1    2    0    0 -0.20427394687E+01  0.12261630244E+02  0.36052394031E+01  0.17168854974E+03  0.17120000000E+03 0.  0.
        998    1    1    2    0    0  0.73095464927E+01  0.47478551259E+00  0.14669303799E+04  0.14669827519E+04  0.10000000000E+02 0.  1.
</event>
<event>
 5    1  0.1068111E-008  0.3848132E+03  0.7957747E-01  0.3430465E+00
         13   -1    0    0    0    0  0.00000000000E+00  0.00000000000E+00  0.14999999963E+04  0.15000000000E+04  0.10566000000E+00 0. -1.
        994   -1    0    0    0    0 -0.00000000000E+00 -0.00000000000E+00  0.11368683772E-12  0.17120000000E+03  0.17120000000E+03 0.  0.
         13    1    1    2    0    0 -0.17190731795E+02 -0.52325260181E+01  0.94055981434E+02  0.95757189786E+02  0.10566000000E+00 0. -1.
        994    1    1    2    0    0  0.94810987718E+01  0.64299790357E+01  0.21548879639E+01  0.17159638518E+03  0.17120000000E+03 0.  0.
        998    1    1    2    0    0  0.77096330230E+01 -0.11974530176E+01  0.14037891269E+04  0.14038464250E+04  0.10000000000E+02 0. -1.
</event>
<event>
 5    1  0.1068111E-008  0.3838064E+03  0.7957747E-01  0.3434750E+00
         13   -1    0    0    0    0  0.00000000000E+00  0.00000000000E+00  0.14999999963E+04  0.15000000000E+04  0.10566000000E+00 0.  1.
        994   -1    0    0    0    0 -0.00000000000E+00 -0.00000000000E+00  0.11368683772E-12  0.17120000000E+03  0.17120000000E+03 0.  0.
         13    1    1    2    0    0  0.95871635628E+00  0.12240126953E+02  0.34198228242E+02  0.36335517387E+02  0.10566000000E+00 0.  1.
        994    1    1    2    0    0 -0.13552561288E+02 -0.63248498884E+00  0.28318095636E+01  0.17176009752E+03  0.17120000000E+03 0.  0.
        998    1    1    2    0    0  0.12593844932E+02 -0.11607641964E+02  0.14629699585E+04  0.14631043851E+04  0.10000000000E+02 0.  1.
</event>
<event>
 5    1  0.1068111E-008  0.3690511E+03  0.7957747E-01  0.3500263E+00
         13   -1    0    0    0    0  0.00000000000E+00  0.00000000000E+00  0.14999999963E+04  0.15000000000E+04  0.10566000000E+00 0. -1.
        994   -1    0    0    0    0 -0.00000000000E+00 -0.00000000000E+00  0.11368683772E-12  0.17120000000E+03  0.17120000000E+03 0.  0.
         13    1    1    2    0    0 -0.54789929644E+01  0.49954222084E+02  0.11232815137E+03  0.12305717542E+03  0.10566000000E+00 0. -1.
        994    1    1    2    0    0  0.11195725393E+03 -0.32625422998E+02  0.59444135581E+02  0.21550380551E+03  0.17120000000E+03 0.  0.
        998    1    1    2    0    0 -0.10647826096E+03 -0.17328799087E+02  0.13282277093E+04  0.13326390191E+04  0.10000000000E+02 0. -1.
</event>
<event>
 5    1  0.1068111E-008  0.3845994E+03  0.7957747E-01  0.3431373E+00
         13   -1    0    0    0    0  0.00000000000E+00  0.00000000000E+00  0.14999999963E+04  0.15000000000E+04  0.10566000000E+00 0.  1.
        994   -1    0    0    0    0 -0.00000000000E+00 -0.00000000000E+00  0.11368683772E-12  0.17120000000E+03  0.17120000000E+03 0.  0.
         13    1    1    2    0    0 -0.16206157529E+02 -0.19882897257E+01  0.70180290529E+02  0.72054681878E+02  0.10566000000E+00 0.  1.
        994    1    1    2    0    0  0.16508654636E+02 -0.36792590917E+00  0.27275350171E+01  0.17201613440E+03  0.17120000000E+03 0.  0.
        998    1    1    2    0    0 -0.30249710686E+00  0.23562156349E+01  0.14270921707E+04  0.14271291837E+04  0.10000000000E+02 0.  1.
</event>
<event>
 5    1  0.1068111E-008  0.3856609E+03  0.7957747E-01  0.3426874E+00
         13   -1    0    0    0    0  0.00000000000E+00  0.00000000000E+00  0.14999999963E+04  0.15000000000E+04  0.10566000000E+00 0. -1.
        994   -1    0    0    0    0 -0.00000000000E+00 -0.00000000000E+00  0.11368683772E-12  0.17120000000E+03  0.17120000000E+03 0.  0.
         13    1    1    2    0    0 -0.16253177781E+02  0.11070735696E+01  0.96129148697E+02  0.97499824580E+02  0.10566000000E+00 0. -1.
        994    1    1    2    0    0  0.17513904236E+02 -0.12638625781E+02  0.28346435368E+01  0.17258026222E+03  0.17120000000E+03 0.  0.
        998    1    1    2    0    0 -0.12607264550E+01  0.11531552211E+02  0.14010362040E+04  0.14011199132E+04  0.10000000000E+02 0. -1.
</event>
<event>
 5    1  0.1068111E-008  0.3845835E+03  0.7957747E-01  0.3431440E+00
         13   -1    0    0    0    0  0.00000000000E+00  0.00000000000E+00  0.14999999963E+04  0.15000000000E+04  0.10566000000E+00 0. -1.
        994   -1    0    0    0    0 -0.00000000000E+00 -0.00000000000E+00  0.11368683772E-12  0.17120000000E+03  0.17120000000E+03 0.  0.
         13    1    1    2    0    0  0.16387806235E+02  0.23726056536E+01  0.71372661759E+02  0.73268393331E+02  0.10566000000E+00 0. -1.
        994    1    1    2    0    0 -0.17290849925E+02 -0.30346736634E+01  0.28525882865E+01  0.17212135253E+03  0.17120000000E+03 0.  0.
        998    1    1    2    0    0  0.90304368991E+00  0.66206800983E+00  0.14257747462E+04  0.14258102541E+04  0.10000000000E+02 0.  0.
</event>
<event>
 5    1  0.1068111E-008  0.4014568E+03  0.7957747E-01  0.3362741E+00
         13   -1    0    0    0    0  0.00000000000E+00  0.00000000000E+00  0.14999999963E+04  0.15000000000E+04  0.10566000000E+00 0. -1.
        994   -1    0    0    0    0 -0.00000000000E+00 -0.00000000000E+00  0.11368683772E-12  0.17120000000E+03  0.17120000000E+03 0.  0.
         13    1    1    2    0    0  0.39207121790E+02 -0.23351046653E+02  0.27328403048E+02  0.53191376708E+02  0.10566000000E+00 0. -1.
        994    1    1    2    0    0  0.43387581610E+02  0.70238507056E+02  0.56032260078E+02  0.19815394087E+03  0.17120000000E+03 0.  0.
        998    1    1    2    0    0 -0.82594703400E+02 -0.46887460403E+02  0.14166393332E+04  0.14198546824E+04  0.10000000000E+02 0. -1.
</event>
<event>
 5    1  0.1068111E-008  0.3806331E+03  0.7957747E-01  0.3448406E+00
         13   -1    0    0    0    0  0.00000000000E+00  0.00000000000E+00  0.14999999963E+04  0.15000000000E+04  0.10566000000E+00 0. -1.
        994   -1    0    0    0    0 -0.00000000000E+00 -0.00000000000E+00  0.11368683772E-12  0.17120000000E+03  0.17120000000E+03 0.  0.
         13    1    1    2    0    0  0.10261348560E+02 -0.60393926132E+01  0.17084077426E+02  0.20824178326E+02  0.10566000000E+00 0. -1.
        994    1    1    2    0    0 -0.85663911659E+01 -0.22822409267E+01  0.40761219214E+01  0.17147783079E+03  0.17120000000E+03 0.  0.
        998    1    1    2    0    0 -0.16949573940E+01  0.83216335399E+01  0.14788397969E+04  0.14788979909E+04  0.10000000000E+02 0. -1.
</event>
<event>
 5    1  0.1068111E-008  0.3828055E+03  0.7957747E-01  0.3439033E+00
         13   -1    0    0    0    0  0.00000000000E+00  0.00000000000E+00  0.14999999963E+04  0.15000000000E+04  0.10566000000E+00 0. -1.
        994   -1    0    0    0    0 -0.00000000000E+00 -0.00000000000E+00  0.11368683772E-12  0.17120000000E+03  0.17120000000E+03 0.  0.
         13    1    1    2    0    0 -0.96340102014E+01  0.68350160174E+01  0.24970051272E+02  0.27623291279E+02  0.10566000000E+00 0. -1.
        994    1    1    2    0    0 -0.29196581309E+01 -0.11153303825E+02  0.31640066298E+01  0.17161693252E+03  0.17120000000E+03 0.  0.
        998    1    1    2    0    0  0.12553668332E+02  0.43182878079E+01  0.14718659384E+04  0.14719597762E+04  0.10000000000E+02 0. -1.
</event>
<event>
 5    1  0.1068111E-008  0.3793371E+03  0.7957747E-01  0.3454050E+00
         13   -1    0    0    0    0  0.00000000000E+00  0.00000000000E+00  0.14999999963E+04  0.15000000000E+04  0.10566000000E+00 0. -1.
        994   -1    0    0    0    0 -0.00000000000E+00 -0.00000000000E+00  0.11368683772E-12  0.17120000000E+03  0.17120000000E+03 0.  0.
         13    1    1    2    0    0  0.46790101206E+01  0.36164320082E+02  0.17452797172E+03  0.17829687395E+03  0.10566000000E+00 0. -1.
        994    1    1    2    0    0  0.16307222572E+01  0.34202798547E+01  0.45162413993E+01  0.17130147111E+03  0.17120000000E+03 0.  0.
        998    1    1    2    0    0 -0.63097323778E+01 -0.39584599937E+02  0.13209557832E+04  0.13216016549E+04  0.10000000000E+02 0. -1.
</event>
<event>
 5    1  0.1068111E-008  0.3777682E+03  0.7957747E-01  0.3460934E+00
         13   -1    0    0    0    0  0.00000000000E+00  0.00000000000E+00  0.14999999963E+04  0.15000000000E+04  0.10566000000E+00 0. -1.
        994   -1    0    0    0    0 -0.00000000000E+00 -0.00000000000E+00  0.11368683772E-12  0.17120000000E+03  0.17120000000E+03 0.  0.
         13    1    1    2    0    0  0.93194508175E+01  0.12341273794E+02  0.20498026686E+02  0.25677606284E+02  0.10566000000E+00 0. -1.
        994    1    1    2    0    0  0.85074861078E+01 -0.19432066727E+02  0.67808976871E+01  0.17264241400E+03  0.17120000000E+03 0.  0.
        998    1    1    2    0    0 -0.17826936925E+02  0.70907929329E+01  0.14727210719E+04  0.14728799797E+04  0.10000000000E+02 0. -1.
</event>
<event>
 5    1  0.1068111E-008  0.3808546E+03  0.7957747E-01  0.3447446E+00
         13   -1    0    0    0    0  0.00000000000E+00  0.00000000000E+00  0.14999999963E+04  0.15000000000E+04  0.10566000000E+00 0. -1.
        994   -1    0    0    0    0 -0.00000000000E+00 -0.00000000000E+00  0.11368683772E-12  0.17120000000E+03  0.17120000000E+03 0.  0.
         13    1    1    2    0    0  0.18390524683E+01 -0.18355539561E+02  0.44322328519E+02  0.48008206756E+02  0.10566000000E+00 0. -1.
        994    1    1    2    0    0 -0.14998636529E+01  0.13747187096E+02  0.43401114608E+01  0.17181243061E+03  0.17120000000E+03 0.  0.
        998    1    1    2    0    0 -0.33918881538E+00  0.46083524650E+01  0.14513375563E+04  0.14513793626E+04  0.10000000000E+02 0. -1.
</event>
<event>
 5    1  0.1068111E-008  0.2945426E+03  0.7957747E-01  0.3935767E+00
         13   -1    0    0    0    0  0.00000000000E+00  0.00000000000E+00  0.14999999963E+04  0.15000000000E+04  0.10566000000E+00 0. -1.
        994   -1    0    0    0    0 -0.00000000000E+00 -0.00000000000E+00  0.11368683772E-12  0.17120000000E+03  0.17120000000E+03 0.  0.
         13    1    1    2    0    0 -0.17550411845E+02  0.18234451453E+03  0.60255089704E+03  0.62978181430E+03  0.10566000000E+00 0. -1.
        994    1    1    2    0    0  0.12626712546E+02 -0.18224138902E+03  0.14587023029E+03  0.28975665967E+03  0.17120000000E+03 0.  0.
        998    1    1    2    0    0  0.49236992997E+01 -0.10312550896E+00  0.75157886895E+03  0.75166152603E+03  0.10000000000E+02 0.  0.
</event>
<event>
 5    1  0.1068111E-008  0.3834475E+03  0.7957747E-01  0.3436283E+00
         13   -1    0    0    0    0  0.00000000000E+00  0.00000000000E+00  0.14999999963E+04  0.15000000000E+04  0.10566000000E+00 0.  1.
        994   -1    0    0    0    0 -0.00000000000E+00 -0.00000000000E+00  0.11368683772E-12  0.17120000000E+03  0.17120000000E+03 0.  0.
         13    1    1    2    0    0 -0.24614118178E+02  0.17006732456E+02  0.16164684318E+03  0.16439220431E+03  0.10566000000E+00 0.  1.
        994    1    1    2    0    0  0.23732361043E+02 -0.26624261776E+02  0.66188502057E+01  0.17500092987E+03  0.17120000000E+03 0.  0.
        998    1    1    2    0    0  0.88175713560E+00  0.96175293204E+01  0.13317343029E+04  0.13318068658E+04  0.10000000000E+02 0.  1.
</event>
<event>
 5    1  0.1068111E-008  0.3834202E+03  0.7957747E-01  0.3436400E+00
         13   -1    0    0    0    0  0.00000000000E+00  0.00000000000E+00  0.14999999963E+04  0.15000000000E+04  0.10566000000E+00 0. -1.
        994   -1    0    0    0    0 -0.00000000000E+00 -0.00000000000E+00  0.11368683772E-12  0.17120000000E+03  0.17120000000E+03 0.  0.
         13    1    1    2    0    0  0.37585486031E+01  0.94691512716E+01  0.20558678276E+02  0.22944758223E+02  0.10566000000E+00 0. -1.
        994    1    1    2    0    0 -0.18486949911E+01 -0.79399122660E+01  0.26362223371E+01  0.17141426297E+03  0.17120000000E+03 0.  0.
        998    1    1    2    0    0 -0.19098536120E+01 -0.15292390056E+01  0.14768050957E+04  0.14768409788E+04  0.10000000000E+02 0. -1.
</event>
<event>
 5    1  0.1068111E-008  0.3827682E+03  0.7957747E-01  0.3439193E+00
         13   -1    0    0    0    0  0.00000000000E+00  0.00000000000E+00  0.14999999963E+04  0.15000000000E+04  0.10566000000E+00 0. -1.
        994   -1    0    0    0    0 -0.00000000000E+00 -0.00000000000E+00  0.11368683772E-12  0.17120000000E+03  0.17120000000E+03 0.  0.
         13    1    1    2    0    0  0.24855439792E+03  0.43969243225E+02  0.89766158742E+03  0.93247462151E+03  0.10566000000E+00 0. -1.
        994    1    1    2    0    0 -0.27487608809E+03 -0.51256269605E+02  0.33120612808E+03  0.46603756099E+03  0.17120000000E+03 0.  0.
        998    1    1    2    0    0  0.26321690174E+02  0.72870263801E+01  0.27113228078E+03  0.27268781749E+03  0.10000000000E+02 0. -1.
</event>
<event>
 5    1  0.1068111E-008  0.3848150E+03  0.7957747E-01  0.3430457E+00
         13   -1    0    0    0    0  0.00000000000E+00  0.00000000000E+00  0.14999999963E+04  0.15000000000E+04  0.10566000000E+00 0. -1.
        994   -1    0    0    0    0 -0.00000000000E+00 -0.00000000000E+00  0.11368683772E-12  0.17120000000E+03  0.17120000000E+03 0.  0.
         13    1    1    2    0    0  0.73391275311E+01 -0.18472519373E+02  0.11076471100E+03  0.11253412430E+03  0.10566000000E+00 0. -1.
        994    1    1    2    0    0 -0.35809160666E+01  0.16697199904E+02  0.26821895487E+01  0.17207049016E+03  0.17120000000E+03 0.  0.
        998    1    1    2    0    0 -0.37582114644E+01  0.17753194691E+01  0.13865530957E+04  0.13865953855E+04  0.10000000000E+02 0. -1.
</event>
<event>
 5    1  0.1068111E-008  0.3791684E+03  0.7957747E-01  0.3454787E+00
         13   -1    0    0    0    0  0.00000000000E+00  0.00000000000E+00  0.14999999963E+04  0.15000000000E+04  0.10566000000E+00 0.  1.
        994   -1    0    0    0    0 -0.00000000000E+00 -0.00000000000E+00  0.11368683772E-12  0.17120000000E+03  0.17120000000E+03 0.  0.
         13    1    1    2    0    0  0.35455716457E+02 -0.11390461133E+02  0.13311517304E+03  0.13822630319E+03  0.10566000000E+00 0.  1.
        994    1    1    2    0    0 -0.38479211340E+02  0.25046096485E+02  0.11652316050E+02  0.17763212864E+03  0.17120000000E+03 0.  0.
        998    1    1    2    0    0  0.30234948836E+01 -0.13655635352E+02  0.13552325072E+04  0.13553415682E+04  0.10000000000E+02 0.  1.
</event>
<event>
 5    1  0.1068111E-008  0.3691206E+03  0.7957747E-01  0.3499942E+00
         13   -1    0    0    0    0  0.00000000000E+00  0.00000000000E+00  0.14999999963E+04  0.15000000000E+04  0.10566000000E+00 0.  1.
        994   -1    0    0    0    0 -0.00000000000E+00 -0.00000000000E+00  0.11368683772E-12  0.17120000000E+03  0.17120000000E+03 0.  0.
         13    1    1    2    0    0  0.22521364704E+02  0.23811637362E+02  0.50134141549E+02  0.59896988696E+02  0.10566000000E+00 0.  1.
        994    1    1    2    0    0  0.49344617280E+01 -0.46867461110E+02  0.17471714143E+02  0.17842535868E+03  0.17120000000E+03 0.  0.
        998    1    1    2    0    0 -0.27455826432E+02  0.23055823748E+02  0.14323941406E+04  0.14328776526E+04  0.10000000000E+02 0.  1.
</event>
<event>
 5    1  0.1068111E-008  0.3713474E+03  0.7957747E-01  0.3489721E+00
         13   -1    0    0    0    0  0.00000000000E+00  0.00000000000E+00  0.14999999963E+04  0.15000000000E+04  0.10566000000E+00 0. -1.
        994   -1    0    0    0    0 -0.00000000000E+00 -0.00000000000E+00  0.11368683772E-12  0.17120000000E+03  0.17120000000E+03 0.  0.
         13    1    1    2    0    0  0.25749754882E+02 -0.27246482375E+02  0.89804666057E+02  0.97315517200E+02  0.10566000000E+00 0. -1.
        994    1    1    2    0    0  0.94427764293E+01 -0.67079890407E+01  0.90283528368E+01  0.17182873537E+03  0.17120000000E+03 0.  0.
        998    1    1    2    0    0 -0.35192531311E+02  0.33954471416E+02  0.14011669774E+04  0.14020557474E+04  0.10000000000E+02 0. -1.
</event>
<event>
 5    1  0.1141524E-008  0.3852522E+03  0.7957747E-01  0.3428603E+00
         13   -1    0    0    0    0  0.00000000000E+00  0.00000000000E+00  0.14999999963E+04  0.15000000000E+04  0.10566000000E+00 0. -1.
        994   -1    0    0    0    0 -0.00000000000E+00 -0.00000000000E+00  0.11368683772E-12  0.17120000000E+03  0.17120000000E+03 0.  0.
         13    1    1    2    0    0  0.10862203930E+02  0.11118815741E+02  0.75766465426E+02  0.77344579544E+02  0.10566000000E+00 0. -1.
        994    1    1    2    0    0 -0.12911126370E+02 -0.13614814387E+02  0.26626762472E+01  0.17224572622E+03  0.17120000000E+03 0.  0.
        998    1    1    2    0    0  0.20489224400E+01  0.24959986460E+01  0.14215708546E+04  0.14216096942E+04  0.10000000000E+02 0. -1.
</event>
<event>
 5    1  0.1068111E-008  0.3705509E+03  0.7957747E-01  0.3493363E+00
         13   -1    0    0    0    0  0.00000000000E+00  0.00000000000E+00  0.14999999963E+04  0.15000000000E+04  0.10566000000E+00 0. -1.
        994   -1    0    0    0    0 -0.00000000000E+00 -0.00000000000E+00  0.11368683772E-12  0.17120000000E+03  0.17120000000E+03 0.  0.
         13    1    1    2    0    0 -0.21532884571E+02 -0.60431024061E+02  0.25040497257E+03  0.25849223439E+03  0.10566000000E+00 0. -1.
        994    1    1    2    0    0  0.24715325527E+01  0.20938921453E+02  0.10517066422E+02  0.17281375984E+03  0.17120000000E+03 0.  0.
        998    1    1    2    0    0  0.19061352018E+02  0.39492102609E+02  0.12390779573E+04  0.12398940058E+04  0.10000000000E+02 0. -1.
</event>
<event>
 5    1  0.1068111E-008  0.3797172E+03  0.7957747E-01  0.3452391E+00
         13   -1    0    0    0    0  0.00000000000E+00  0.00000000000E+00  0.14999999963E+04  0.15000000000E+04  0.10566000000E+00 0.  1.
        994   -1    0    0    0    0 -0.00000000000E+00 -0.00000000000E+00  0.11368683772E-12  0.17120000000E+03  0.17120000000E+03 0.  0.
         13    1    1    2    0    0  0.54693530976E+01 -0.22317895943E+02  0.59078917541E+02  0.63390314437E+02  0.10566000000E+00 0.  1.
        994    1    1    2    0    0 -0.86402105493E+01  0.17797283720E+02  0.55866826112E+01  0.17242983375E+03  0.17120000000E+03 0.  0.
        998    1    1    2    0    0  0.31708574517E+01  0.45206122226E+01  0.14353343961E+04  0.14353798518E+04  0.10000000000E+02 0.  1.
</event>
<event>
 5    1  0.1068111E-008  0.3757808E+03  0.7957747E-01  0.3469738E+00
         13   -1    0    0    0    0  0.00000000000E+00  0.00000000000E+00  0.14999999963E+04  0.15000000000E+04  0.10566000000E+00 0.  1.
        994   -1    0    0    0    0 -0.00000000000E+00 -0.00000000000E+00  0.11368683772E-12  0.17120000000E+03  0.17120000000E+03 0.  0.
         13    1    1    2    0    0  0.65307760131E+02 -0.65030560140E+01  0.29461547420E+03  0.30183717808E+03  0.10566000000E+00 0.  1.
        994    1    1    2    0    0 -0.60954734617E+02 -0.24407385873E+02  0.21037418612E+02  0.18456222024E+03  0.17120000000E+03 0.  0.
        998    1    1    2    0    0 -0.43530255142E+01  0.30910441887E+02  0.11843471035E+04  0.11848006017E+04  0.10000000000E+02 0.  1.
</event>
<event>
 5    1  0.1068111E-008  0.3753061E+03  0.7957747E-01  0.3471855E+00
         13   -1    0    0    0    0  0.00000000000E+00  0.00000000000E+00  0.14999999963E+04  0.15000000000E+04  0.10566000000E+00 0. -1.
        994   -1    0    0    0    0 -0.00000000000E+00 -0.00000000000E+00  0.11368683772E-12  0.17120000000E+03  0.17120000000E+03 0.  0.
         13    1    1    2    0    0  0.26644469648E+02 -0.21387836616E+00  0.54366284961E+02  0.60544839675E+02  0.10566000000E+00 0. -1.
        994    1    1    2    0    0 -0.34117901125E+01 -0.47140745544E+01  0.66366471169E+01  0.17142738374E+03  0.17120000000E+03 0.  0.
        998    1    1    2    0    0 -0.23232679535E+02  0.49279529206E+01  0.14389970642E+04  0.14392277766E+04  0.10000000000E+02 0. -1.
</event>
<event>
 5    1  0.1068111E-008  0.3794156E+03  0.7957747E-01  0.3453707E+00
         13   -1    0    0    0    0  0.00000000000E+00  0.00000000000E+00  0.14999999963E+04  0.15000000000E+04  0.10566000000E+00 0. -1.
        994   -1    0    0    0    0 -0.00000000000E+00 -0.00000000000E+00  0.11368683772E-12  0.17120000000E+03  0.17120000000E+03 0.  0.
         13    1    1    2    0    0  0.24523305571E+02  0.14669499096E+02  0.88224531852E+02  0.92737079447E+02  0.10566000000E+00 0. -1.
        994    1    1    2    0    0 -0.17164811154E+02 -0.16763316326E+02  0.63588696252E+01  0.17298992670E+03  0.17120000000E+03 0.  0.
        998    1    1    2    0    0 -0.73584944164E+01  0.20938172296E+01  0.14054165948E+04  0.14054729939E+04  0.10000000000E+02 0. -1.
</event>
<event>
 5    1  0.1068111E-008  0.3845520E+03  0.7957747E-01  0.3431575E+00
         13   -1    0    0    0    0  0.00000000000E+00  0.00000000000E+00  0.14999999963E+04  0.15000000000E+04  0.10566000000E+00 0.  1.
        994   -1    0    0    0    0 -0.00000000000E+00 -0.00000000000E+00  0.11368683772E-12  0.17120000000E+03  0.17120000000E+03 0.  0.
         13    1    1    2    0    0 -0.16535927228E+01 -0.19646342167E+02  0.96504191526E+02  0.98497630812E+02  0.10566000000E+00 0.  1.
        994    1    1    2    0    0 -0.52513105358E+01  0.24484401001E+02  0.39206505911E+01  0.17306609621E+03  0.17120000000E+03 0.  0.
        998    1    1    2    0    0  0.69049032587E+01 -0.48380588337E+01  0.13995751542E+04  0.13996362730E+04  0.10000000000E+02 0.  1.
</event>
<event>
 5    1  0.1068111E-008  0.3832448E+03  0.7957747E-01  0.3437150E+00
         13   -1    0    0    0    0  0.00000000000E+00  0.00000000000E+00  0.14999999963E+04  0.15000000000E+04  0.10566000000E+00 0.  1.
        994   -1    0    0    0    0 -0.00000000000E+00 -0.00000000000E+00  0.11368683772E-12  0.17120000000E+03  0.17120000000E+03 0.  0.
         13    1    1    2    0    0  0.13615394567E+02  0.16256609921E+02  0.98757031344E+02  0.10100801324E+03  0.10566000000E+00 0.  1.
        994    1    1    2    0    0 -0.31960486031E+01  0.58994199513E+01  0.26529778839E+01  0.17135196577E+03  0.17120000000E+03 0.  0.
        998    1    1    2    0    0 -0.10419345964E+02 -0.22156029873E+02  0.13985899871E+04  0.13988400210E+04  0.10000000000E+02 0.  1.
</event>
<event>
 5    1  0.1068111E-008  0.3754297E+03  0.7957747E-01  0.3471303E+00
         13   -1    0    0    0    0  0.00000000000E+00  0.00000000000E+00  0.14999999963E+04  0.15000000000E+04  0.10566000000E+00 0. -1.
        994   -1    0    0    0    0 -0.00000000000E+00 -0.00000000000E+00  0.11368683772E-12  0.17120000000E+03  0.17120000000E+03 0.  0.
         13    1    1    2    0    0  0.53808123319E+02 -0.67774243281E+02  0.25719528263E+03  0.27136338507E+03  0.10566000000E+00 0. -1.
        994    1    1    2    0    0 -0.62033718161E+02  0.26101824037E+02  0.30163160106E+02  0.18641014896E+03  0.17120000000E+03 0.  0.
        998    1    1    2    0    0  0.82255948421E+01  0.41672419243E+02  0.12126415535E+04  0.12134264660E+04  0.10000000000E+02 0. -1.
</event>
<event>
 5    1  0.1068111E-008  0.3724006E+03  0.7957747E-01  0.3484931E+00
         13   -1    0    0    0    0  0.00000000000E+00  0.00000000000E+00  0.14999999963E+04  0.15000000000E+04  0.10566000000E+00 0.  1.
        994   -1    0    0    0    0 -0.00000000000E+00 -0.00000000000E+00  0.11368683772E-12  0.17120000000E+03  0.17120000000E+03 0.  0.
         13    1    1    2    0    0  0.73937770892E+02  0.37984840608E+02  0.35778644752E+03  0.36731566162E+03  0.10566000000E+00 0.  1.
        994    1    1    2    0    0 -0.12249633561E+02 -0.18376752507E+01  0.12754947376E+02  0.17212076939E+03  0.17120000000E+03 0.  0.
        998    1    1    2    0    0 -0.61688137330E+02 -0.36147165357E+02  0.11294586014E+04  0.11317635690E+04  0.10000000000E+02 0.  1.
</event>
<event>
 5    1  0.1068111E-008  0.3812898E+03  0.7957747E-01  0.3445562E+00
         13   -1    0    0    0    0  0.00000000000E+00  0.00000000000E+00  0.14999999963E+04  0.15000000000E+04  0.10566000000E+00 0. -1.
        994   -1    0    0    0    0 -0.00000000000E+00 -0.00000000000E+00  0.11368683772E-12  0.17120000000E+03  0.17120000000E+03 0.  0.
         13    1    1    2    0    0  0.15836852989E+02  0.16959488614E+02  0.79289171155E+02  0.82614853344E+02  0.10566000000E+00 0. -1.
        994    1    1    2    0    0 -0.46383773529E+01 -0.43053870146E+01  0.36168066056E+01  0.17135510553E+03  0.17120000000E+03 0.  0.
        998    1    1    2    0    0 -0.11198475636E+02 -0.12654101599E+02  0.14170940185E+04  0.14172300411E+04  0.10000000000E+02 0. -1.
</event>
<event>
 5    1  0.1068111E-008  0.3888177E+03  0.7957747E-01  0.3413640E+00
         13   -1    0    0    0    0  0.00000000000E+00  0.00000000000E+00  0.14999999963E+04  0.15000000000E+04  0.10566000000E+00 0.  1.
        994   -1    0    0    0    0 -0.00000000000E+00 -0.00000000000E+00  0.11368683772E-12  0.17120000000E+03  0.17120000000E+03 0.  0.
         13    1    1    2    0    0 -0.44323277204E+02 -0.66511402711E+00  0.38467361976E+02  0.58691944764E+02  0.10566000000E+00 0.  1.
        994    1    1    2    0    0  0.31153643030E+02 -0.17424599485E+02  0.26044148944E+02  0.17681036122E+03  0.17120000000E+03 0.  0.
        998    1    1    2    0    0  0.13169634175E+02  0.18089713512E+02  0.14354884854E+04  0.14356976940E+04  0.10000000000E+02 0.  1.
</event>
<event>
 5    1  0.1068111E-008  0.3754784E+03  0.7957747E-01  0.3471086E+00
         13   -1    0    0    0    0  0.00000000000E+00  0.00000000000E+00  0.14999999963E+04  0.15000000000E+04  0.10566000000E+00 0. -1.
        994   -1    0    0    0    0 -0.00000000000E+00 -0.00000000000E+00  0.11368683772E-12  0.17120000000E+03  0.17120000000E+03 0.  0.
         13    1    1    2    0    0  0.20432001712E+02  0.26385189161E+02  0.94590230175E+02  0.10030437533E+03  0.10566000000E+00 0. -1.
        994    1    1    2    0    0  0.40127545598E+01  0.55962981634E+01  0.65942283217E+01  0.17146528686E+03  0.17120000000E+03 0.  0.
        998    1    1    2    0    0 -0.24444756272E+02 -0.31981487324E+02  0.13988155378E+04  0.13994303378E+04  0.10000000000E+02 0. -1.
</event>
<event>
 5    1  0.1068111E-008  0.3846204E+03  0.7957747E-01  0.3431284E+00
         13   -1    0    0    0    0  0.00000000000E+00  0.00000000000E+00  0.14999999963E+04  0.15000000000E+04  0.10566000000E+00 0. -1.
        994   -1    0    0    0    0 -0.00000000000E+00 -0.00000000000E+00  0.11368683772E-12  0.17120000000E+03  0.17120000000E+03 0.  0.
         13    1    1    2    0    0  0.16849392476E+02  0.12783203790E+02  0.12556949607E+03  0.12733821828E+03  0.10566000000E+00 0. -1.
        994    1    1    2    0    0 -0.16350538465E+02  0.36596210035E+01  0.27436287937E+01  0.17203982223E+03  0.17120000000E+03 0.  0.
        998    1    1    2    0    0 -0.49885401130E+00 -0.16442824794E+02  0.13716868714E+04  0.13718219595E+04  0.10000000000E+02 0. -1.
</event>
<event>
 5    1  0.1068111E-008  0.3779054E+03  0.7957747E-01  0.3460330E+00
         13   -1    0    0    0    0  0.00000000000E+00  0.00000000000E+00  0.14999999963E+04  0.15000000000E+04  0.10566000000E+00 0. -1.
        994   -1    0    0    0    0 -0.00000000000E+00 -0.00000000000E+00  0.11368683772E-12  0.17120000000E+03  0.17120000000E+03 0.  0.
         13    1    1    2    0    0  0.53041126487E+02 -0.12615127890E+02  0.24906850911E+03  0.25496595056E+03  0.10566000000E+00 0. -1.
        994    1    1    2    0    0 -0.48606089166E+02  0.77493560350E+01  0.13393022815E+02  0.17863767095E+03  0.17120000000E+03 0.  0.
        998    1    1    2    0    0 -0.44350373210E+01  0.48657718548E+01  0.12375384644E+04  0.12375963785E+04  0.10000000000E+02 0. -1.
</event>
<event>
 5    1  0.1068111E-008  0.3740565E+03  0.7957747E-01  0.3477453E+00
         13   -1    0    0    0    0  0.00000000000E+00  0.00000000000E+00  0.14999999963E+04  0.15000000000E+04  0.10566000000E+00 0. -1.
        994   -1    0    0    0    0 -0.00000000000E+00 -0.00000000000E+00  0.11368683772E-12  0.17120000000E+03  0.17120000000E+03 0.  0.
         13    1    1    2    0    0 -0.13527775286E+02 -0.58720253834E+02  0.31651760916E+03  0.32220254032E+03  0.10566000000E+00 0. -1.
        994    1    1    2    0    0 -0.60939681798E+01  0.66590942553E+01  0.74419245564E+01  0.17159924891E+03  0.17120000000E+03 0.  0.
        998    1    1    2    0    0  0.19621743466E+02  0.52061159579E+02  0.11760404626E+04  0.11773982108E+04  0.10000000000E+02 0. -1.
</event>
<event>
 5    1  0.1068111E-008  0.3854037E+03  0.7957747E-01  0.3427962E+00
         13   -1    0    0    0    0  0.00000000000E+00  0.00000000000E+00  0.14999999963E+04  0.15000000000E+04  0.10566000000E+00 0.  1.
        994   -1    0    0    0    0 -0.00000000000E+00 -0.00000000000E+00  0.11368683772E-12  0.17120000000E+03  0.17120000000E+03 0.  0.
         13    1    1    2    0    0 -0.10588316516E+02  0.38668008530E+01  0.47126720147E+02  0.48456201991E+02  0.10566000000E+00 0.  1.
        994    1    1    2    0    0  0.21617000364E+01  0.11564064311E+02  0.18845294414E+01  0.17161407862E+03  0.17120000000E+03 0.  0.
        998    1    1    2    0    0  0.84266164798E+01 -0.15430865164E+02  0.14509887467E+04  0.14511297194E+04  0.10000000000E+02 0.  1.
</event>
<event>
 5    1  0.1068111E-008  0.3715393E+03  0.7957747E-01  0.3488846E+00
         13   -1    0    0    0    0  0.00000000000E+00  0.00000000000E+00  0.14999999963E+04  0.15000000000E+04  0.10566000000E+00 0. -1.
        994   -1    0    0    0    0 -0.00000000000E+00 -0.00000000000E+00  0.11368683772E-12  0.17120000000E+03  0.17120000000E+03 0.  0.
         13    1    1    2    0    0 -0.65168064770E+02  0.33112930144E+02  0.35915364911E+03  0.36651698139E+03  0.10566000000E+00 0. -1.
        994    1    1    2    0    0  0.22013582730E+02 -0.10122871689E+02  0.10488487811E+02  0.17322389769E+03  0.17120000000E+03 0.  0.
        998    1    1    2    0    0  0.43154482040E+02 -0.22990058456E+02  0.11303578594E+04  0.11314591209E+04  0.10000000000E+02 0. -1.
</event>
<event>
 5    1  0.1068111E-008  0.3792854E+03  0.7957747E-01  0.3454276E+00
         13   -1    0    0    0    0  0.00000000000E+00  0.00000000000E+00  0.14999999963E+04  0.15000000000E+04  0.10566000000E+00 0. -1.
        994   -1    0    0    0    0 -0.00000000000E+00 -0.00000000000E+00  0.11368683772E-12  0.17120000000E+03  0.17120000000E+03 0.  0.
         13    1    1    2    0    0 -0.11980357871E+02  0.24982124956E+01  0.14438954224E+02  0.18927879002E+02  0.10566000000E+00 0. -1.
        994    1    1    2    0    0  0.14672395444E+02 -0.10303957721E+02  0.55721566101E+01  0.17222641976E+03  0.17120000000E+03 0.  0.
        998    1    1    2    0    0 -0.26920375735E+01  0.78057452259E+01  0.14799888854E+04  0.14800457012E+04  0.10000000000E+02 0. -1.
</event>
<event>
 5    1  0.1275728E-008  0.3839428E+03  0.7957747E-01  0.3434168E+00
         13   -1    0    0    0    0  0.00000000000E+00  0.00000000000E+00  0.14999999963E+04  0.15000000000E+04  0.10566000000E+00 0.  1.
        994   -1    0    0    0    0 -0.00000000000E+00 -0.00000000000E+00  0.11368683772E-12  0.17120000000E+03  0.17120000000E+03 0.  0.
         13    1    1    2    0    0  0.15790063177E+02 -0.57627120104E+01  0.62773071632E+02  0.64984649195E+02  0.10566000000E+00 0.  1.
        994    1    1    2    0    0 -0.17642937582E+02  0.29049209946E+01  0.32116494052E+01  0.17216116433E+03  0.17120000000E+03 0.  0.
        998    1    1    2    0    0  0.18528744055E+01  0.28577910158E+01  0.14340152752E+04  0.14340541865E+04  0.10000000000E+02 0.  1.
</event>
<event>
 5    1  0.1068111E-008  0.3708073E+03  0.7957747E-01  0.3492189E+00
         13   -1    0    0    0    0  0.00000000000E+00  0.00000000000E+00  0.14999999963E+04  0.15000000000E+04  0.10566000000E+00 0. -1.
        994   -1    0    0    0    0 -0.00000000000E+00 -0.00000000000E+00  0.11368683772E-12  0.17120000000E+03  0.17120000000E+03 0.  0.
         13    1    1    2    0    0 -0.56213079436E+02  0.28871013921E+02  0.19003181776E+03  0.20026369784E+03  0.10566000000E+00 0. -1.
        994    1    1    2    0    0  0.58323807490E+02 -0.35777157036E+02  0.25167757555E+02  0.18607667104E+03  0.17120000000E+03 0.  0.
        998    1    1    2    0    0 -0.21107280533E+01  0.69061431150E+01  0.12848004210E+04  0.12848596311E+04  0.10000000000E+02 0. -1.
</event>
<event>
 5    1  0.1068111E-008  0.3843722E+03  0.7957747E-01  0.3432339E+00
         13   -1    0    0    0    0  0.00000000000E+00  0.00000000000E+00  0.14999999963E+04  0.15000000000E+04  0.10566000000E+00 0.  1.
        994   -1    0    0    0    0 -0.00000000000E+00 -0.00000000000E+00  0.11368683772E-12  0.17120000000E+03  0.17120000000E+03 0.  0.
         13    1    1    2    0    0  0.12572357264E+02 -0.10735113645E+01  0.40188416245E+02  0.42122874524E+02  0.10566000000E+00 0.  1.
        994    1    1    2    0    0 -0.11083923384E+02 -0.35691333435E+01  0.23890943414E+01  0.17161217860E+03  0.17120000000E+03 0.  0.
        998    1    1    2    0    0 -0.14884338803E+01  0.46426447080E+01  0.14574224857E+04  0.14574649469E+04  0.10000000000E+02 0.  1.
</event>
<event>
 5    1  0.1068111E-008  0.3892048E+03  0.7957747E-01  0.3412032E+00
         13   -1    0    0    0    0  0.00000000000E+00  0.00000000000E+00  0.14999999963E+04  0.15000000000E+04  0.10566000000E+00 0.  1.
        994   -1    0    0    0    0 -0.00000000000E+00 -0.00000000000E+00  0.11368683772E-12  0.17120000000E+03  0.17120000000E+03 0.  0.
         13    1    1    2    0    0  0.70207659155E+02  0.17615097153E+02  0.11475368283E+03  0.13567544339E+03  0.10566000000E+00 0.  1.
        994    1    1    2    0    0 -0.51073194529E+02 -0.47919647323E+01  0.31414685636E+02  0.18146006888E+03  0.17120000000E+03 0.  0.
        998    1    1    2    0    0 -0.19134464626E+02 -0.12823132421E+02  0.13538316278E+04  0.13540644877E+04  0.10000000000E+02 0.  1.
</event>
<event>
 5    1  0.1068111E-008  0.3810503E+03  0.7957747E-01  0.3446598E+00
         13   -1    0    0    0    0  0.00000000000E+00  0.00000000000E+00  0.14999999963E+04  0.15000000000E+04  0.10566000000E+00 0. -1.
        994   -1    0    0    0    0 -0.00000000000E+00 -0.00000000000E+00  0.11368683772E-12  0.17120000000E+03  0.17120000000E+03 0.  0.
         13    1    1    2    0    0  0.27973420778E+02 -0.30137976934E+02  0.20628128103E+03  0.21033969666E+03  0.10566000000E+00 0. -1.
        994    1    1    2    0    0 -0.20533247397E+02  0.34909267606E+02  0.90875960003E+01  0.17615985812E+03  0.17120000000E+03 0.  0.
        998    1    1    2    0    0 -0.74401733817E+01 -0.47712906727E+01  0.12846311192E+04  0.12847004452E+04  0.10000000000E+02 0. -1.
</event>
<event>
 5    1  0.1068111E-008  0.3712083E+03  0.7957747E-01  0.3490356E+00
         13   -1    0    0    0    0  0.00000000000E+00  0.00000000000E+00  0.14999999963E+04  0.15000000000E+04  0.10566000000E+00 0. -1.
        994   -1    0    0    0    0 -0.00000000000E+00 -0.00000000000E+00  0.11368683772E-12  0.17120000000E+03  0.17120000000E+03 0.  0.
         13    1    1    2    0    0  0.26903667460E+02 -0.77721427005E+02  0.24437331432E+03  0.25784250125E+03  0.10566000000E+00 0. -1.
        994    1    1    2    0    0 -0.28636110674E+02  0.74511666042E+02  0.34299755997E+02  0.19198418808E+03  0.17120000000E+03 0.  0.
        998    1    1    2    0    0  0.17324432143E+01  0.32097609627E+01  0.12213269260E+04  0.12213733107E+04  0.10000000000E+02 0. -1.
</event>
<event>
 5    1  0.1068111E-008  0.3765799E+03  0.7957747E-01  0.3466187E+00
         13   -1    0    0    0    0  0.00000000000E+00  0.00000000000E+00  0.14999999963E+04  0.15000000000E+04  0.10566000000E+00 0.  1.
        994   -1    0    0    0    0 -0.00000000000E+00 -0.00000000000E+00  0.11368683772E-12  0.17120000000E+03  0.17120000000E+03 0.  0.
         13    1    1    2    0    0 -0.31252238040E+02  0.59961249650E+02  0.36888514656E+03  0.37503108719E+03  0.10566000000E+00 0.  1.
        994    1    1    2    0    0  0.10051071205E+03 -0.12771415001E+02  0.41408007138E+02  0.20319836450E+03  0.17120000000E+03 0.  0.
        998    1    1    2    0    0 -0.69258474012E+02 -0.47189834649E+02  0.10897068426E+04  0.10929705483E+04  0.10000000000E+02 0.  1.
</event>
<event>
 5    1  0.1068111E-008  0.3741051E+03  0.7957747E-01  0.3477235E+00
         13   -1    0    0    0    0  0.00000000000E+00  0.00000000000E+00  0.14999999963E+04  0.15000000000E+04  0.10566000000E+00 0.  1.
        994   -1    0    0    0    0 -0.00000000000E+00 -0.00000000000E+00  0.11368683772E-12  0.17120000000E+03  0.17120000000E+03 0.  0.
         13    1    1    2    0    0  0.47748046690E+01  0.13440788882E+02  0.16861786069E+01  0.14363423259E+02  0.10566000000E+00 0.  1.
        994    1    1    2    0    0 -0.61337674980E+01 -0.14306810531E+02  0.13986020974E+02  0.17247422043E+03  0.17120000000E+03 0.  0.
        998    1    1    2    0    0  0.13589628290E+01  0.86602164883E+00  0.14843277967E+04  0.14843623563E+04  0.10000000000E+02 0.  1.
</event>
<event>
 5    1  0.1068111E-008  0.3836065E+03  0.7957747E-01  0.3435604E+00
         13   -1    0    0    0    0  0.00000000000E+00  0.00000000000E+00  0.14999999963E+04  0.15000000000E+04  0.10566000000E+00 0.  1.
        994   -1    0    0    0    0 -0.00000000000E+00 -0.00000000000E+00  0.11368683772E-12  0.17120000000E+03  0.17120000000E+03 0.  0.
         13    1    1    2    0    0  0.12607222348E+02  0.18106074886E+02  0.97125399075E+02  0.99599830887E+02  0.10566000000E+00 0.  1.
        994    1    1    2    0    0 -0.15513600455E+02 -0.19145975782E+02  0.43322213954E+01  0.17301863579E+03  0.17120000000E+03 0.  0.
        998    1    1    2    0    0  0.29063781066E+01  0.10399008956E+01  0.13985423758E+04  0.13985815333E+04  0.10000000000E+02 0.  1.
</event>
<event>
 5    1  0.1068111E-008  0.3826199E+03  0.7957747E-01  0.3439829E+00
         13   -1    0    0    0    0  0.00000000000E+00  0.00000000000E+00  0.14999999963E+04  0.15000000000E+04  0.10566000000E+00 0. -1.
        994   -1    0    0    0    0 -0.00000000000E+00 -0.00000000000E+00  0.11368683772E-12  0.17120000000E+03  0.17120000000E+03 0.  0.
         13    1    1    2    0    0 -0.42223038220E+01  0.13940150816E+02  0.42100200991E+02  0.44548779353E+02  0.10566000000E+00 0. -1.
        994    1    1    2    0    0 -0.44038185132E+02  0.10413754386E+02  0.96331892205E+01  0.17734160923E+03  0.17120000000E+03 0.  0.
        998    1    1    2    0    0  0.48260488954E+02 -0.24353905202E+02  0.14482666061E+04  0.14493096114E+04  0.10000000000E+02 0. -1.
</event>
<event>
 5    1  0.1068111E-008  0.3840950E+03  0.7957747E-01  0.3433520E+00
         13   -1    0    0    0    0  0.00000000000E+00  0.00000000000E+00  0.14999999963E+04  0.15000000000E+04  0.10566000000E+00 0. -1.
        994   -1    0    0    0    0 -0.00000000000E+00 -0.00000000000E+00  0.11368683772E-12  0.17120000000E+03  0.17120000000E+03 0.  0.
         13    1    1    2    0    0 -0.94527820568E+01  0.17934311511E+02  0.10179875726E+03  0.10379784565E+03  0.10566000000E+00 0. -1.
        994    1    1    2    0    0  0.99129812495E+01 -0.38750851105E+01  0.24538717102E+01  0.17154808355E+03  0.17120000000E+03 0.  0.
        998    1    1    2    0    0 -0.46019919279E+00 -0.14059226400E+02  0.13957473673E+04  0.13958540708E+04  0.10000000000E+02 0. -1.
</event>
<event>
 5    1  0.1110075E-008  0.3848126E+03  0.7957747E-01  0.3430468E+00
         13   -1    0    0    0    0  0.00000000000E+00  0.00000000000E+00  0.14999999963E+04  0.15000000000E+04  0.10566000000E+00 0.  1.
        994   -1    0    0    0    0 -0.00000000000E+00 -0.00000000000E+00  0.11368683772E-12  0.17120000000E+03  0.17120000000E+03 0.  0.
         13    1    1    2    0    0 -0.12545436886E+02  0.74018110922E+01  0.62071622580E+02  0.63757919413E+02  0.10566000000E+00 0.  1.
        994    1    1    2    0    0 -0.11843514990E+02 -0.39324096629E+02  0.72932227980E+01  0.17620807167E+03  0.17120000000E+03 0.  0.
        998    1    1    2    0    0  0.24388951876E+02  0.31922285536E+02  0.14306351509E+04  0.14312340089E+04  0.10000000000E+02 0.  1.
</event>
<event>
 5    1  0.1068111E-008  0.3736195E+03  0.7957747E-01  0.3479420E+00
         13   -1    0    0    0    0  0.00000000000E+00  0.00000000000E+00  0.14999999963E+04  0.15000000000E+04  0.10566000000E+00 0. -1.
        994   -1    0    0    0    0 -0.00000000000E+00 -0.00000000000E+00  0.11368683772E-12  0.17120000000E+03  0.17120000000E+03 0.  0.
         13    1    1    2    0    0 -0.39053764326E+02  0.36567535758E+02  0.16234182469E+03  0.17093057184E+03  0.10566000000E+00 0. -1.
        994    1    1    2    0    0  0.12002686579E+02 -0.83056516653E+02  0.31835555095E+02  0.19330129853E+03  0.17120000000E+03 0.  0.
        998    1    1    2    0    0  0.27051077746E+02  0.46488980895E+02  0.13058226165E+04  0.13069681296E+04  0.10000000000E+02 0. -1.
</event>
<event>
 5    1  0.1068111E-008  0.3819421E+03  0.7957747E-01  0.3442745E+00
         13   -1    0    0    0    0  0.00000000000E+00  0.00000000000E+00  0.14999999963E+04  0.15000000000E+04  0.10566000000E+00 0. -1.
        994   -1    0    0    0    0 -0.00000000000E+00 -0.00000000000E+00  0.11368683772E-12  0.17120000000E+03  0.17120000000E+03 0.  0.
         13    1    1    2    0    0  0.10528262797E+02  0.36344534443E+02  0.40657026154E+02  0.55540745774E+02  0.10566000000E+00 0. -1.
        994    1    1    2    0    0  0.53531859055E+02  0.31862508404E+02  0.31701696624E+02  0.18491975812E+03  0.17120000000E+03 0.  0.
        998    1    1    2    0    0 -0.64060121852E+02 -0.68207042846E+02  0.14276412735E+04  0.14307394961E+04  0.10000000000E+02 0. -1.
</event>
<event>
 5    1  0.1068111E-008  0.3841963E+03  0.7957747E-01  0.3433088E+00
         13   -1    0    0    0    0  0.00000000000E+00  0.00000000000E+00  0.14999999963E+04  0.15000000000E+04  0.10566000000E+00 0.  1.
        994   -1    0    0    0    0 -0.00000000000E+00 -0.00000000000E+00  0.11368683772E-12  0.17120000000E+03  0.17120000000E+03 0.  0.
         13    1    1    2    0    0 -0.12984539038E+02 -0.62359819119E+01  0.54661501289E+02  0.56527662358E+02  0.10566000000E+00 0.  1.
        994    1    1    2    0    0 -0.99368530568E-01 -0.10001754689E+02  0.23596463502E+01  0.17150817153E+03  0.17120000000E+03 0.  0.
        998    1    1    2    0    0  0.13083907568E+02  0.16237736601E+02  0.14429788486E+04  0.14431641661E+04  0.10000000000E+02 0.  1.
</event>
<event>
 5    1  0.1068111E-008  0.3823516E+03  0.7957747E-01  0.3440983E+00
         13   -1    0    0    0    0  0.00000000000E+00  0.00000000000E+00  0.14999999963E+04  0.15000000000E+04  0.10566000000E+00 0. -1.
        994   -1    0    0    0    0 -0.00000000000E+00 -0.00000000000E+00  0.11368683772E-12  0.17120000000E+03  0.17120000000E+03 0.  0.
         13    1    1    2    0    0  0.36749540701E+01  0.15884159245E+02  0.44474980639E+02  0.47369260805E+02  0.10566000000E+00 0. -1.
        994    1    1    2    0    0 -0.11434277327E+02 -0.60966614916E+01  0.35079580413E+01  0.17172553028E+03  0.17120000000E+03 0.  0.
        998    1    1    2    0    0  0.77593232569E+01 -0.97874977535E+01  0.14520170576E+04  0.14521052089E+04  0.10000000000E+02 0. -1.
</event>
<event>
 5    1  0.1068111E-008  0.3784011E+03  0.7957747E-01  0.3458150E+00
         13   -1    0    0    0    0  0.00000000000E+00  0.00000000000E+00  0.14999999963E+04  0.15000000000E+04  0.10566000000E+00 0. -1.
        994   -1    0    0    0    0 -0.00000000000E+00 -0.00000000000E+00  0.11368683772E-12  0.17120000000E+03  0.17120000000E+03 0.  0.
         13    1    1    2    0    0 -0.27498873311E+02  0.28464336362E+02  0.15748923977E+03  0.16238620103E+03  0.10566000000E+00 0. -1.
        994    1    1    2    0    0  0.17278872764E+02 -0.14499847865E+02  0.66542273676E+01  0.17280776538E+03  0.17120000000E+03 0.  0.
        998    1    1    2    0    0  0.10220000547E+02 -0.13964488497E+02  0.13358565291E+04  0.13360060336E+04  0.10000000000E+02 0. -1.
</event>
<event>
 5    1  0.1068111E-008  0.3689867E+03  0.7957747E-01  0.3500561E+00
         13   -1    0    0    0    0  0.00000000000E+00  0.00000000000E+00  0.14999999963E+04  0.15000000000E+04  0.10566000000E+00 0. -1.
        994   -1    0    0    0    0 -0.00000000000E+00 -0.00000000000E+00  0.11368683772E-12  0.17120000000E+03  0.17120000000E+03 0.  0.
         13    1    1    2    0    0 -0.28455183720E+02  0.80711490925E+01  0.37749978808E+02  0.47957408106E+02  0.10566000000E+00 0. -1.
        994    1    1    2    0    0  0.19372354612E+02 -0.12335024008E+02  0.12243552718E+02  0.17316692965E+03  0.17120000000E+03 0.  0.
        998    1    1    2    0    0  0.90828291078E+01  0.42638749159E+01  0.14500064648E+04  0.14500756622E+04  0.10000000000E+02 0. -1.
</event>
<event>
 5    1  0.1068111E-008  0.2792949E+03  0.7957747E-01  0.4055905E+00
         13   -1    0    0    0    0  0.00000000000E+00  0.00000000000E+00  0.14999999963E+04  0.15000000000E+04  0.10566000000E+00 0. -1.
        994   -1    0    0    0    0 -0.00000000000E+00 -0.00000000000E+00  0.11368683772E-12  0.17120000000E+03  0.17120000000E+03 0.  0.
         13    1    1    2    0    0  0.49407239138E+02  0.14805974402E+03  0.72796572114E+03  0.74451115868E+03  0.10566000000E+00 0. -1.
        994    1    1    2    0    0 -0.33485050364E+02 -0.14189054622E+02  0.36436701291E+02  0.17877262394E+03  0.17120000000E+03 0.  0.
        998    1    1    2    0    0 -0.15922188774E+02 -0.13387068939E+03  0.73559757384E+03  0.74791621738E+03  0.10000000000E+02 0. -1.
</event>
<event>
 5    1  0.1096057E-008  0.3852123E+03  0.7957747E-01  0.3428772E+00
         13   -1    0    0    0    0  0.00000000000E+00  0.00000000000E+00  0.14999999963E+04  0.15000000000E+04  0.10566000000E+00 0.  1.
        994   -1    0    0    0    0 -0.00000000000E+00 -0.00000000000E+00  0.11368683772E-12  0.17120000000E+03  0.17120000000E+03 0.  0.
         13    1    1    2    0    0 -0.13560118821E+02  0.16008853456E+00  0.59472954725E+02  0.60999557036E+02  0.10566000000E+00 0.  1.
        994    1    1    2    0    0  0.11513988082E+02 -0.21845130750E+01  0.19762672759E+01  0.17161203236E+03  0.17120000000E+03 0.  0.
        998    1    1    2    0    0  0.20461307393E+01  0.20244245405E+01  0.14385507743E+04  0.14385884106E+04  0.10000000000E+02 0.  1.
</event>
<event>
 5    1  0.1068111E-008  0.3847858E+03  0.7957747E-01  0.3430581E+00
         13   -1    0    0    0    0  0.00000000000E+00  0.00000000000E+00  0.14999999963E+04  0.15000000000E+04  0.10566000000E+00 0.  1.
        994   -1    0    0    0    0 -0.00000000000E+00 -0.00000000000E+00  0.11368683772E-12  0.17120000000E+03  0.17120000000E+03 0.  0.
         13    1    1    2    0    0  0.22138338789E+02 -0.11597067787E+03  0.23550243218E+03  0.26344014670E+03  0.10566000000E+00 0.  1.
        994    1    1    2    0    0 -0.51464684790E+02  0.15683433838E+03  0.12793613072E+03  0.27004206528E+03  0.17120000000E+03 0.  0.
        998    1    1    2    0    0  0.29326346002E+02 -0.40863660515E+02  0.11365614334E+04  0.11377177880E+04  0.10000000000E+02 0.  1.
</event>
<event>
 5    1  0.1068111E-008  0.3847546E+03  0.7957747E-01  0.3430713E+00
         13   -1    0    0    0    0  0.00000000000E+00  0.00000000000E+00  0.14999999963E+04  0.15000000000E+04  0.10566000000E+00 0. -1.
        994   -1    0    0    0    0 -0.00000000000E+00 -0.00000000000E+00  0.11368683772E-12  0.17120000000E+03  0.17120000000E+03 0.  0.
         13    1    1    2    0    0  0.15933635264E+02  0.30233208555E+01  0.84194056394E+02  0.85741888817E+02  0.10566000000E+00 0. -1.
        994    1    1    2    0    0  0.61781335791E+01 -0.16069716960E+01  0.18861431470E+01  0.17132935892E+03  0.17120000000E+03 0.  0.
        998    1    1    2    0    0 -0.22111768844E+02 -0.14163491595E+01  0.14139197967E+04  0.14141287523E+04  0.10000000000E+02 0. -1.
</event>
<event>
 5    1  0.1068111E-008  0.3814576E+03  0.7957747E-01  0.3444836E+00
         13   -1    0    0    0    0  0.00000000000E+00  0.00000000000E+00  0.14999999963E+04  0.15000000000E+04  0.10566000000E+00 0.  1.
        994   -1    0    0    0    0 -0.00000000000E+00 -0.00000000000E+00  0.11368683772E-12  0.17120000000E+03  0.17120000000E+03 0.  0.
         13    1    1    2    0    0 -0.21385994936E+02 -0.12128825674E+02  0.95121089863E+02  0.98247148012E+02  0.10566000000E+00 0.  1.
        994    1    1    2    0    0 -0.20666986324E+01  0.50794382175E+01  0.34992306069E+01  0.17132354348E+03  0.17120000000E+03 0.  0.
        998    1    1    2    0    0  0.23452693568E+02  0.70493874568E+01  0.14013796758E+04  0.14016293085E+04  0.10000000000E+02 0.  1.
</event>
<event>
 5    1  0.1068111E-008  0.3789939E+03  0.7957747E-01  0.3455551E+00
         13   -1    0    0    0    0  0.00000000000E+00  0.00000000000E+00  0.14999999963E+04  0.15000000000E+04  0.10566000000E+00 0.  1.
        994   -1    0    0    0    0 -0.00000000000E+00 -0.00000000000E+00  0.11368683772E-12  0.17120000000E+03  0.17120000000E+03 0.  0.
         13    1    1    2    0    0 -0.55567282589E+01 -0.97435504120E+01  0.11629990428E+02  0.16158027261E+02  0.10566000000E+00 0.  1.
        994    1    1    2    0    0 -0.35311470089E+01  0.57997501367E+01  0.47965401521E+01  0.17140172957E+03  0.17120000000E+03 0.  0.
        998    1    1    2    0    0  0.90878752678E+01  0.39438002753E+01  0.14835734657E+04  0.14836402432E+04  0.10000000000E+02 0.  1.
</event>
<event>
 5    1  0.1068111E-008  0.3705512E+03  0.7957747E-01  0.3493362E+00
         13   -1    0    0    0    0  0.00000000000E+00  0.00000000000E+00  0.14999999963E+04  0.15000000000E+04  0.10566000000E+00 0.  1.
        994   -1    0    0    0    0 -0.00000000000E+00 -0.00000000000E+00  0.11368683772E-12  0.17120000000E+03  0.17120000000E+03 0.  0.
         13    1    1    2    0    0  0.57302986038E+02  0.13114566905E+03  0.61515544711E+03  0.63158455807E+03  0.10566000000E+00 0.  1.
        994    1    1    2    0    0 -0.73625772975E+02 -0.12588363244E+03  0.86391614051E+02  0.24091574117E+03  0.17120000000E+03 0.  0.
        998    1    1    2    0    0  0.16322786937E+02 -0.52620366119E+01  0.79845293512E+03  0.79869970077E+03  0.10000000000E+02 0.  1.
</event>
<event>
 5    1  0.1068111E-008  0.3836549E+03  0.7957747E-01  0.3435397E+00
         13   -1    0    0    0    0  0.00000000000E+00  0.00000000000E+00  0.14999999963E+04  0.15000000000E+04  0.10566000000E+00 0. -1.
        994   -1    0    0    0    0 -0.00000000000E+00 -0.00000000000E+00  0.11368683772E-12  0.17120000000E+03  0.17120000000E+03 0.  0.
         13    1    1    2    0    0  0.16251131984E+02 -0.79163413893E+01  0.68914277306E+02  0.71245747469E+02  0.10566000000E+00 0. -1.
        994    1    1    2    0    0 -0.16837641195E+02  0.15501195597E+01  0.32443746319E+01  0.17206357836E+03  0.17120000000E+03 0.  0.
        998    1    1    2    0    0  0.58650921133E+00  0.63662218296E+01  0.14278413443E+04  0.14278906742E+04  0.10000000000E+02 0. -1.
</event>
<event>
 5    1  0.1068111E-008  0.3775838E+03  0.7957747E-01  0.3461747E+00
         13   -1    0    0    0    0  0.00000000000E+00  0.00000000000E+00  0.14999999963E+04  0.15000000000E+04  0.10566000000E+00 0. -1.
        994   -1    0    0    0    0 -0.00000000000E+00 -0.00000000000E+00  0.11368683772E-12  0.17120000000E+03  0.17120000000E+03 0.  0.
         13    1    1    2    0    0 -0.48238540444E+02  0.10677705018E+02  0.18285861279E+03  0.18941555797E+03  0.10566000000E+00 0. -1.
        994    1    1    2    0    0  0.58098983010E+02 -0.32078405963E+02  0.20347090577E+02  0.18473754370E+03  0.17120000000E+03 0.  0.
        998    1    1    2    0    0 -0.98604425660E+01  0.21400700945E+02  0.12967942929E+04  0.12970468983E+04  0.10000000000E+02 0. -1.
</event>
<event>
 5    1  0.1068111E-008  0.3848392E+03  0.7957747E-01  0.3430354E+00
         13   -1    0    0    0    0  0.00000000000E+00  0.00000000000E+00  0.14999999963E+04  0.15000000000E+04  0.10566000000E+00 0.  1.
        994   -1    0    0    0    0 -0.00000000000E+00 -0.00000000000E+00  0.11368683772E-12  0.17120000000E+03  0.17120000000E+03 0.  0.
         13    1    1    2    0    0  0.89404921211E+01  0.89747711729E+01  0.46120673461E+02  0.47828930591E+02  0.10566000000E+00 0.  1.
        994    1    1    2    0    0 -0.83381989192E+01 -0.74530325713E+01  0.21216295369E+01  0.17157801307E+03  0.17120000000E+03 0.  0.
        998    1    1    2    0    0 -0.60229320188E+00 -0.15217386016E+01  0.14517576933E+04  0.14517930563E+04  0.10000000000E+02 0.  1.
</event>
<event>
 5    1  0.1068111E-008  0.3726455E+03  0.7957747E-01  0.3483820E+00
         13   -1    0    0    0    0  0.00000000000E+00  0.00000000000E+00  0.14999999963E+04  0.15000000000E+04  0.10566000000E+00 0. -1.
        994   -1    0    0    0    0 -0.00000000000E+00 -0.00000000000E+00  0.11368683772E-12  0.17120000000E+03  0.17120000000E+03 0.  0.
         13    1    1    2    0    0 -0.37520555236E+01  0.64239233876E+02  0.32149977524E+03  0.32787630859E+03  0.10566000000E+00 0. -1.
        994    1    1    2    0    0 -0.15772478217E+01 -0.88872517496E+01  0.81719939892E+01  0.17163243411E+03  0.17120000000E+03 0.  0.
        998    1    1    2    0    0  0.53293033452E+01 -0.55351982126E+02  0.11703282270E+04  0.11716912573E+04  0.10000000000E+02 0. -1.
</event>
<event>
 5    1  0.1068111E-008  0.3847117E+03  0.7957747E-01  0.3430896E+00
         13   -1    0    0    0    0  0.00000000000E+00  0.00000000000E+00  0.14999999963E+04  0.15000000000E+04  0.10566000000E+00 0.  1.
        994   -1    0    0    0    0 -0.00000000000E+00 -0.00000000000E+00  0.11368683772E-12  0.17120000000E+03  0.17120000000E+03 0.  0.
         13    1    1    2    0    0 -0.97600701249E+01  0.14921582133E+02  0.87277084060E+02  0.89079813360E+02  0.10566000000E+00 0.  1.
        994    1    1    2    0    0  0.67851920933E+01 -0.13584724527E+02  0.25327270195E+01  0.17189077427E+03  0.17120000000E+03 0.  0.
        998    1    1    2    0    0  0.29748780316E+01 -0.13368576059E+01  0.14101901852E+04  0.14102294124E+04  0.10000000000E+02 0.  1.
</event>
<event>
 5    1  0.1068111E-008  0.3850355E+03  0.7957747E-01  0.3429522E+00
         13   -1    0    0    0    0  0.00000000000E+00  0.00000000000E+00  0.14999999963E+04  0.15000000000E+04  0.10566000000E+00 0. -1.
        994   -1    0    0    0    0 -0.00000000000E+00 -0.00000000000E+00  0.11368683772E-12  0.17120000000E+03  0.17120000000E+03 0.  0.
         13    1    1    2    0    0  0.12075614171E+02  0.39682308566E+01  0.51309075748E+02  0.52860190426E+02  0.10566000000E+00 0. -1.
        994    1    1    2    0    0 -0.50518750517E+01  0.19498860284E+01  0.17089583131E+01  0.17129414478E+03  0.17120000000E+03 0.  0.
        998    1    1    2    0    0 -0.70237391192E+01 -0.59181168849E+01  0.14469819622E+04  0.14470456648E+04  0.10000000000E+02 0. -1.
</event>
<event>
 5    1  0.1068111E-008  0.3815188E+03  0.7957747E-01  0.3444572E+00
         13   -1    0    0    0    0  0.00000000000E+00  0.00000000000E+00  0.14999999963E+04  0.15000000000E+04  0.10566000000E+00 0.  1.
        994   -1    0    0    0    0 -0.00000000000E+00 -0.00000000000E+00  0.11368683772E-12  0.17120000000E+03  0.17120000000E+03 0.  0.
         13    1    1    2    0    0 -0.81702076111E+00  0.16239249792E+02  0.38400949267E+02  0.41701616580E+02  0.10566000000E+00 0.  1.
        994    1    1    2    0    0 -0.11187594040E+02 -0.87106279465E+01  0.40374194825E+01  0.17183357662E+03  0.17120000000E+03 0.  0.
        998    1    1    2    0    0  0.12004614801E+02 -0.75286218460E+01  0.14575616275E+04  0.14576648068E+04  0.10000000000E+02 0.  1.
</event>
<event>
 5    1  0.1068111E-008  0.3858806E+03  0.7957747E-01  0.3425946E+00
         13   -1    0    0    0    0  0.00000000000E+00  0.00000000000E+00  0.14999999963E+04  0.15000000000E+04  0.10566000000E+00 0. -1.
        994   -1    0    0    0    0 -0.00000000000E+00 -0.00000000000E+00  0.11368683772E-12  0.17120000000E+03  0.17120000000E+03 0.  0.
         13    1    1    2    0    0 -0.11576506635E+02 -0.12984303557E+01  0.57648048922E+02  0.58813349979E+02  0.10566000000E+00 0. -1.
        994    1    1    2    0    0  0.76872372885E+01 -0.36480995674E+01  0.14310340350E+01  0.17141729815E+03  0.17120000000E+03 0.  0.
        998    1    1    2    0    0  0.38892693466E+01  0.49465299231E+01  0.14409209133E+04  0.14409693519E+04  0.10000000000E+02 0. -1.
</event>
<event>
 5    1  0.1068111E-008  0.3735852E+03  0.7957747E-01  0.3479575E+00
         13   -1    0    0    0    0  0.00000000000E+00  0.00000000000E+00  0.14999999963E+04  0.15000000000E+04  0.10566000000E+00 0.  1.
        994   -1    0    0    0    0 -0.00000000000E+00 -0.00000000000E+00  0.11368683772E-12  0.17120000000E+03  0.17120000000E+03 0.  0.
         13    1    1    2    0    0 -0.25066469616E+02 -0.51340378922E+02  0.24696904419E+03  0.25349138518E+03  0.10566000000E+00 0.  1.
        994    1    1    2    0    0  0.24436878610E+02  0.40419570760E+01  0.95053046111E+01  0.17324343932E+03  0.17120000000E+03 0.  0.
        998    1    1    2    0    0  0.62959100573E+00  0.47298421846E+02  0.12435256475E+04  0.12444651755E+04  0.10000000000E+02 0. -1.
</event>
<event>
 5    1  0.1068111E-008  0.3837768E+03  0.7957747E-01  0.3434876E+00
         13   -1    0    0    0    0  0.00000000000E+00  0.00000000000E+00  0.14999999963E+04  0.15000000000E+04  0.10566000000E+00 0. -1.
        994   -1    0    0    0    0 -0.00000000000E+00 -0.00000000000E+00  0.11368683772E-12  0.17120000000E+03  0.17120000000E+03 0.  0.
         13    1    1    2    0    0  0.11150247304E+02  0.10422198014E+02  0.50834412960E+02  0.53076350020E+02  0.10566000000E+00 0. -1.
        994    1    1    2    0    0 -0.79500250302E+01 -0.10123317042E+02  0.27858843428E+01  0.17170581119E+03  0.17120000000E+03 0.  0.
        998    1    1    2    0    0 -0.32002222733E+01 -0.29888097192E+00  0.14463796990E+04  0.14464178388E+04  0.10000000000E+02 0. -1.
</event>
<event>
 5    1  0.1068111E-008  0.3765415E+03  0.7957747E-01  0.3466357E+00
         13   -1    0    0    0    0  0.00000000000E+00  0.00000000000E+00  0.14999999963E+04  0.15000000000E+04  0.10566000000E+00 0.  1.
        994   -1    0    0    0    0 -0.00000000000E+00 -0.00000000000E+00  0.11368683772E-12  0.17120000000E+03  0.17120000000E+03 0.  0.
         13    1    1    2    0    0  0.97347985517E+01  0.84169326228E+01  0.11715806014E+02  0.17403514939E+02  0.10566000000E+00 0.  1.
        994    1    1    2    0    0 -0.15324576896E+01  0.36850062264E+01  0.59431348256E+01  0.17134960913E+03  0.17120000000E+03 0.  0.
        998    1    1    2    0    0 -0.82023408621E+01 -0.12101938849E+02  0.14823410554E+04  0.14824468759E+04  0.10000000000E+02 0.  1.
</event>
<event>
 5    1  0.1068111E-008  0.3688728E+03  0.7957747E-01  0.3501087E+00
         13   -1    0    0    0    0  0.00000000000E+00  0.00000000000E+00  0.14999999963E+04  0.15000000000E+04  0.10566000000E+00 0. -1.
        994   -1    0    0    0    0 -0.00000000000E+00 -0.00000000000E+00  0.11368683772E-12  0.17120000000E+03  0.17120000000E+03 0.  0.
         13    1    1    2    0    0  0.21420010741E+02  0.12658735859E+01  0.17673563330E+02  0.27799016186E+02  0.10566000000E+00 0. -1.
        994    1    1    2    0    0 -0.19036514118E+02 -0.84273738234E+00  0.11609395198E+02  0.17264795722E+03  0.17120000000E+03 0.  0.
        998    1    1    2    0    0 -0.23834966230E+01 -0.42313620360E+00  0.14707170378E+04  0.14707530266E+04  0.10000000000E+02 0. -1.
</event>
<event>
 5    1  0.1111432E-008  0.3864546E+03  0.7957747E-01  0.3423526E+00
         13   -1    0    0    0    0  0.00000000000E+00  0.00000000000E+00  0.14999999963E+04  0.15000000000E+04  0.10566000000E+00 0.  1.
        994   -1    0    0    0    0 -0.00000000000E+00 -0.00000000000E+00  0.11368683772E-12  0.17120000000E+03  0.17120000000E+03 0.  0.
         13    1    1    2    0    0 -0.16266721704E+01 -0.10490611293E+02  0.62433347939E+02  0.63329559343E+02  0.10566000000E+00 0.  1.
        994    1    1    2    0    0  0.98698254832E+00  0.86054784019E+01  0.11552734997E+01  0.17142287785E+03  0.17120000000E+03 0.  0.
        998    1    1    2    0    0  0.63968962205E+00  0.18851328907E+01  0.14364113748E+04  0.14364475628E+04  0.10000000000E+02 0.  1.
</event>
<event>
 5    1  0.1068111E-008  0.3838318E+03  0.7957747E-01  0.3434642E+00
         13   -1    0    0    0    0  0.00000000000E+00  0.00000000000E+00  0.14999999963E+04  0.15000000000E+04  0.10566000000E+00 0. -1.
        994   -1    0    0    0    0 -0.00000000000E+00 -0.00000000000E+00  0.11368683772E-12  0.17120000000E+03  0.17120000000E+03 0.  0.
         13    1    1    2    0    0  0.61025351527E+02 -0.69442687013E+02  0.19615259924E+03  0.21684610594E+03  0.10566000000E+00 0. -1.
        994    1    1    2    0    0 -0.56321409696E+02  0.73290008042E+02  0.50571659116E+02  0.20102352891E+03  0.17120000000E+03 0.  0.
        998    1    1    2    0    0 -0.47039418315E+01 -0.38473210293E+01  0.12532757379E+04  0.12533303651E+04  0.10000000000E+02 0. -1.
</event>
<event>
 5    1  0.1068111E-008  0.3829833E+03  0.7957747E-01  0.3438271E+00
         13   -1    0    0    0    0  0.00000000000E+00  0.00000000000E+00  0.14999999963E+04  0.15000000000E+04  0.10566000000E+00 0.  1.
        994   -1    0    0    0    0 -0.00000000000E+00 -0.00000000000E+00  0.11368683772E-12  0.17120000000E+03  0.17120000000E+03 0.  0.
         13    1    1    2    0    0  0.13501986113E+01 -0.25164653814E+02  0.12630889853E+03  0.12879841556E+03  0.10566000000E+00 0.  1.
        994    1    1    2    0    0  0.11135483235E+02  0.86768323063E+01  0.32946845257E+01  0.17181263444E+03  0.17120000000E+03 0.  0.
        998    1    1    2    0    0 -0.12485681846E+02  0.16487821508E+02  0.13703964132E+04  0.13705889500E+04  0.10000000000E+02 0.  1.
</event>
<event>
 5    1  0.1068111E-008  0.3809812E+03  0.7957747E-01  0.3446897E+00
         13   -1    0    0    0    0  0.00000000000E+00  0.00000000000E+00  0.14999999963E+04  0.15000000000E+04  0.10566000000E+00 0. -1.
        994   -1    0    0    0    0 -0.00000000000E+00 -0.00000000000E+00  0.11368683772E-12  0.17120000000E+03  0.17120000000E+03 0.  0.
         13    1    1    2    0    0  0.38359230113E+02  0.18794642647E+01  0.16983032152E+03  0.17411867273E+03  0.10566000000E+00 0. -1.
        994    1    1    2    0    0 -0.46887922683E+02 -0.80795066192E+00  0.11001380166E+02  0.17784712661E+03  0.17120000000E+03 0.  0.
        998    1    1    2    0    0  0.85286925696E+01 -0.10715136027E+01  0.13191682946E+04  0.13192342007E+04  0.10000000000E+02 0. -1.
</event>
<event>
 5    1  0.1068111E-008  0.3767402E+03  0.7957747E-01  0.3465476E+00
         13   -1    0    0    0    0  0.00000000000E+00  0.00000000000E+00  0.14999999963E+04  0.15000000000E+04  0.10566000000E+00 0. -1.
        994   -1    0    0    0    0 -0.00000000000E+00 -0.00000000000E+00  0.11368683772E-12  0.17120000000E+03  0.17120000000E+03 0.  0.
         13    1    1    2    0    0 -0.22676295094E+02  0.22265601090E+02  0.80326087753E+02  0.86384390308E+02  0.10566000000E+00 0. -1.
        994    1    1    2    0    0  0.21431288572E+01 -0.47073208101E+02  0.13328697142E+02  0.17806620704E+03  0.17120000000E+03 0.  0.
        998    1    1    2    0    0  0.20533166237E+02  0.24807607012E+02  0.14063452114E+04  0.14067494027E+04  0.10000000000E+02 0. -1.
</event>
<event>
 5    1  0.1068111E-008  0.3804718E+03  0.7957747E-01  0.3449107E+00
         13   -1    0    0    0    0  0.00000000000E+00  0.00000000000E+00  0.14999999963E+04  0.15000000000E+04  0.10566000000E+00 0.  1.
        994   -1    0    0    0    0 -0.00000000000E+00 -0.00000000000E+00  0.11368683772E-12  0.17120000000E+03  0.17120000000E+03 0.  0.
         13    1    1    2    0    0 -0.19814174324E+02 -0.20344460492E+01  0.48432114314E+02  0.52368132828E+02  0.10566000000E+00 0.  1.
        994    1    1    2    0    0  0.18379941592E+02  0.44885366217E+01  0.50908900628E+01  0.17231751616E+03  0.17120000000E+03 0.  0.
        998    1    1    2    0    0  0.14342327321E+01 -0.24540905726E+01  0.14464769919E+04  0.14465143510E+04  0.10000000000E+02 0.  1.
</event>
<event>
 5    1  0.1068111E-008  0.3756460E+03  0.7957747E-01  0.3470339E+00
         13   -1    0    0    0    0  0.00000000000E+00  0.00000000000E+00  0.14999999963E+04  0.15000000000E+04  0.10566000000E+00 0. -1.
        994   -1    0    0    0    0 -0.00000000000E+00 -0.00000000000E+00  0.11368683772E-12  0.17120000000E+03  0.17120000000E+03 0.  0.
         13    1    1    2    0    0 -0.47297857672E+02  0.97107388477E+02  0.62049106510E+03  0.62982228070E+03  0.10566000000E+00 0. -1.
        994    1    1    2    0    0  0.58680756654E+02 -0.78902814055E+02  0.39883162413E+02  0.20141795330E+03  0.17120000000E+03 0.  0.
        998    1    1    2    0    0 -0.11382898982E+02 -0.18204574422E+02  0.83962576876E+03  0.83995976600E+03  0.10000000000E+02 0. -1.
</event>
<event>
 5    1  0.1068111E-008  0.3846133E+03  0.7957747E-01  0.3431314E+00
         13   -1    0    0    0    0  0.00000000000E+00  0.00000000000E+00  0.14999999963E+04  0.15000000000E+04  0.10566000000E+00 0. -1.
        994   -1    0    0    0    0 -0.00000000000E+00 -0.00000000000E+00  0.11368683772E-12  0.17120000000E+03  0.17120000000E+03 0.  0.
         13    1    1    2    0    0  0.39636488705E+01 -0.10394445394E+02  0.34790565352E+02  0.36526012772E+02  0.10566000000E+00 0. -1.
        994    1    1    2    0    0 -0.45118227007E+01 -0.17984643249E+01  0.18999343208E+01  0.17127942307E+03  0.17120000000E+03 0.  0.
        998    1    1    2    0    0  0.54817383010E+00  0.12192909719E+02  0.14633094966E+04  0.14633945642E+04  0.10000000000E+02 0. -1.
</event>
<event>
 5    1  0.1068111E-008  0.3832695E+03  0.7957747E-01  0.3437045E+00
         13   -1    0    0    0    0  0.00000000000E+00  0.00000000000E+00  0.14999999963E+04  0.15000000000E+04  0.10566000000E+00 0. -1.
        994   -1    0    0    0    0 -0.00000000000E+00 -0.00000000000E+00  0.11368683772E-12  0.17120000000E+03  0.17120000000E+03 0.  0.
         13    1    1    2    0    0 -0.26720170195E+02  0.37682242025E+01  0.12988776203E+03  0.13266125621E+03  0.10566000000E+00 0. -1.
        994    1    1    2    0    0  0.30586028760E+02 -0.12135109052E+02  0.60809111080E+01  0.17443962711E+03  0.17120000000E+03 0.  0.
        998    1    1    2    0    0 -0.38658585648E+01  0.83668848498E+01  0.13640313231E+04  0.13640991167E+04  0.10000000000E+02 0. -1.
</event>
<event>
 5    1  0.1068111E-008  0.3764837E+03  0.7957747E-01  0.3466614E+00
         13   -1    0    0    0    0  0.00000000000E+00  0.00000000000E+00  0.14999999963E+04  0.15000000000E+04  0.10566000000E+00 0.  1.
        994   -1    0    0    0    0 -0.00000000000E+00 -0.00000000000E+00  0.11368683772E-12  0.17120000000E+03  0.17120000000E+03 0.  0.
         13    1    1    2    0    0 -0.35601000557E+01  0.18878137262E+02  0.29381786821E+02  0.35104970299E+02  0.10566000000E+00 0.  1.
        994    1    1    2    0    0 -0.60326530176E+01 -0.62890235318E+01  0.61757133754E+01  0.17153286611E+03  0.17120000000E+03 0.  0.
        998    1    1    2    0    0  0.95927530733E+01 -0.12589113730E+02  0.14644424961E+04  0.14645621636E+04  0.10000000000E+02 0.  1.
</event>
<event>
 5    1  0.1068111E-008  0.2779377E+03  0.7957747E-01  0.4067308E+00
         13   -1    0    0    0    0  0.00000000000E+00  0.00000000000E+00  0.14999999963E+04  0.15000000000E+04  0.10566000000E+00 0. -1.
        994   -1    0    0    0    0 -0.00000000000E+00 -0.00000000000E+00  0.11368683772E-12  0.17120000000E+03  0.17120000000E+03 0.  0.
         13    1    1    2    0    0 -0.16892429749E+03  0.15122597650E+02  0.50200396055E+03  0.52987932477E+03  0.10566000000E+00 0. -1.
        994    1    1    2    0    0  0.17205579446E+03 -0.66277772833E+01  0.13421650761E+03  0.27743582096E+03  0.17120000000E+03 0.  0.
        998    1    1    2    0    0 -0.31314969674E+01 -0.84948203667E+01  0.86377952811E+03  0.86388485427E+03  0.10000000000E+02 0. -1.
</event>
<event>
 5    1  0.1068111E-008  0.3777988E+03  0.7957747E-01  0.3460800E+00
         13   -1    0    0    0    0  0.00000000000E+00  0.00000000000E+00  0.14999999963E+04  0.15000000000E+04  0.10566000000E+00 0.  1.
        994   -1    0    0    0    0 -0.00000000000E+00 -0.00000000000E+00  0.11368683772E-12  0.17120000000E+03  0.17120000000E+03 0.  0.
         13    1    1    2    0    0  0.42285756195E+02 -0.24559364487E+02  0.20013570245E+03  0.20602319801E+03  0.10566000000E+00 0.  1.
        994    1    1    2    0    0 -0.39911304058E+02  0.24514766271E+02  0.12672077719E+02  0.17794355147E+03  0.17120000000E+03 0.  0.
        998    1    1    2    0    0 -0.23744521373E+01  0.44598216336E-01  0.12871922161E+04  0.12872332505E+04  0.10000000000E+02 0.  0.
</event>
<event>
 5    1  0.1068111E-008  0.3830377E+03  0.7957747E-01  0.3438037E+00
         13   -1    0    0    0    0  0.00000000000E+00  0.00000000000E+00  0.14999999963E+04  0.15000000000E+04  0.10566000000E+00 0.  1.
        994   -1    0    0    0    0 -0.00000000000E+00 -0.00000000000E+00  0.11368683772E-12  0.17120000000E+03  0.17120000000E+03 0.  0.
         13    1    1    2    0    0 -0.13965105762E+02 -0.81406457414E+01  0.45247330256E+02  0.48048166992E+02  0.10566000000E+00 0.  1.
        994    1    1    2    0    0  0.50149383629E+02 -0.23168530645E+02  0.12774292109E+02  0.18034512477E+03  0.17120000000E+03 0.  0.
        998    1    1    2    0    0 -0.36184277867E+02  0.31309176386E+02  0.14419783739E+04  0.14428067082E+04  0.10000000000E+02 0.  1.
</event>
<event>
 5    1  0.1068111E-008  0.3799917E+03  0.7957747E-01  0.3451195E+00
         13   -1    0    0    0    0  0.00000000000E+00  0.00000000000E+00  0.14999999963E+04  0.15000000000E+04  0.10566000000E+00 0. -1.
        994   -1    0    0    0    0 -0.00000000000E+00 -0.00000000000E+00  0.11368683772E-12  0.17120000000E+03  0.17120000000E+03 0.  0.
         13    1    1    2    0    0 -0.81450815611E+01 -0.25000463407E+02  0.75701430855E+02  0.80137901905E+02  0.10566000000E+00 0. -1.
        994    1    1    2    0    0  0.16023660483E+02  0.31053902113E+02  0.82302704816E+01  0.17492364015E+03  0.17120000000E+03 0.  0.
        998    1    1    2    0    0 -0.78785789221E+01 -0.60534387054E+01  0.14160682949E+04  0.14161384579E+04  0.10000000000E+02 0. -1.
</event>
<event>
 5    1  0.1068111E-008  0.4027622E+03  0.7957747E-01  0.3357665E+00
         13   -1    0    0    0    0  0.00000000000E+00  0.00000000000E+00  0.14999999963E+04  0.15000000000E+04  0.10566000000E+00 0.  1.
        994   -1    0    0    0    0 -0.00000000000E+00 -0.00000000000E+00  0.11368683772E-12  0.17120000000E+03  0.17120000000E+03 0.  0.
         13    1    1    2    0    0  0.36385166241E+02  0.29147853338E+02  0.25185752686E+02  0.52988781634E+02  0.10566000000E+00 0.  1.
        994    1    1    2    0    0 -0.35204944808E+02 -0.31506991974E+02  0.38328408769E+02  0.18168815482E+03  0.17120000000E+03 0.  0.
        998    1    1    2    0    0 -0.11802214333E+01  0.23591386364E+01  0.14364858348E+04  0.14365230635E+04  0.10000000000E+02 0.  1.
</event>
<event>
 5    1  0.1068111E-008  0.3785666E+03  0.7957747E-01  0.3457424E+00
         13   -1    0    0    0    0  0.00000000000E+00  0.00000000000E+00  0.14999999963E+04  0.15000000000E+04  0.10566000000E+00 0.  1.
        994   -1    0    0    0    0 -0.00000000000E+00 -0.00000000000E+00  0.11368683772E-12  0.17120000000E+03  0.17120000000E+03 0.  0.
         13    1    1    2    0    0  0.43482290441E+02  0.22650420472E+02  0.25349608764E+03  0.25819378138E+03  0.10566000000E+00 0.  1.
        994    1    1    2    0    0 -0.21744594748E+02 -0.10364256499E+02  0.68098538360E+01  0.17302040146E+03  0.17120000000E+03 0.  0.
        998    1    1    2    0    0 -0.21737695693E+02 -0.12286163974E+02  0.12396940548E+04  0.12399858172E+04  0.10000000000E+02 0.  1.
</event>
<event>
 5    1  0.1068111E-008  0.3734877E+03  0.7957747E-01  0.3480014E+00
         13   -1    0    0    0    0  0.00000000000E+00  0.00000000000E+00  0.14999999963E+04  0.15000000000E+04  0.10566000000E+00 0.  1.
        994   -1    0    0    0    0 -0.00000000000E+00 -0.00000000000E+00  0.11368683772E-12  0.17120000000E+03  0.17120000000E+03 0.  0.
         13    1    1    2    0    0 -0.10787423373E+02 -0.79884973711E+01  0.86583084749E+01  0.15973793005E+02  0.10566000000E+00 0.  1.
        994    1    1    2    0    0  0.10831356309E+02  0.63219308893E+01  0.79949511455E+01  0.17184482632E+03  0.17120000000E+03 0.  0.
        998    1    1    2    0    0 -0.43932935325E-01  0.16665664818E+01  0.14833467367E+04  0.14833813807E+04  0.10000000000E+02 0.  1.
</event>
<event>
 5    1  0.1068111E-008  0.3850421E+03  0.7957747E-01  0.3429494E+00
         13   -1    0    0    0    0  0.00000000000E+00  0.00000000000E+00  0.14999999963E+04  0.15000000000E+04  0.10566000000E+00 0.  1.
        994   -1    0    0    0    0 -0.00000000000E+00 -0.00000000000E+00  0.11368683772E-12  0.17120000000E+03  0.17120000000E+03 0.  0.
         13    1    1    2    0    0 -0.96889502160E+01  0.34307833685E+01  0.31751619315E+02  0.33373979744E+02  0.10566000000E+00 0.  1.
        994    1    1    2    0    0  0.87035770364E+01 -0.14737692880E+02  0.25731093245E+01  0.17207269608E+03  0.17120000000E+03 0.  0.
        998    1    1    2    0    0  0.98537317960E+00  0.11306909512E+02  0.14656752676E+04  0.14657533242E+04  0.10000000000E+02 0.  1.
</event>
<event>
 5    1  0.1068111E-008  0.3842855E+03  0.7957747E-01  0.3432708E+00
         13   -1    0    0    0    0  0.00000000000E+00  0.00000000000E+00  0.14999999963E+04  0.15000000000E+04  0.10566000000E+00 0. -1.
        994   -1    0    0    0    0 -0.00000000000E+00 -0.00000000000E+00  0.11368683772E-12  0.17120000000E+03  0.17120000000E+03 0.  0.
         13    1    1    2    0    0  0.14904599368E+02 -0.81733655805E+00  0.50098291399E+02  0.52274899201E+02  0.10566000000E+00 0. -1.
        994    1    1    2    0    0 -0.30424304605E+02  0.18092235371E+02  0.61263643584E+01  0.17492838429E+03  0.17120000000E+03 0.  0.
        998    1    1    2    0    0  0.15519705238E+02 -0.17274898813E+02  0.14437753405E+04  0.14439967165E+04  0.10000000000E+02 0. -1.
</event>
<event>
 5    1  0.1068111E-008  0.3813866E+03  0.7957747E-01  0.3445143E+00
         13   -1    0    0    0    0  0.00000000000E+00  0.00000000000E+00  0.14999999963E+04  0.15000000000E+04  0.10566000000E+00 0. -1.
        994   -1    0    0    0    0 -0.00000000000E+00 -0.00000000000E+00  0.11368683772E-12  0.17120000000E+03  0.17120000000E+03 0.  0.
         13    1    1    2    0    0 -0.20380231741E+02 -0.35045399455E+01  0.59494318183E+02  0.62985877037E+02  0.10566000000E+00 0. -1.
        994    1    1    2    0    0  0.17750448163E+02  0.10648637098E+02  0.48619278838E+01  0.17251536229E+03  0.17120000000E+03 0.  0.
        998    1    1    2    0    0  0.26297835782E+01 -0.71440971523E+01  0.14356437502E+04  0.14356987607E+04  0.10000000000E+02 0. -1.
</event>
<event>
 5    1  0.1068111E-008  0.3861774E+03  0.7957747E-01  0.3424694E+00
         13   -1    0    0    0    0  0.00000000000E+00  0.00000000000E+00  0.14999999963E+04  0.15000000000E+04  0.10566000000E+00 0. -1.
        994   -1    0    0    0    0 -0.00000000000E+00 -0.00000000000E+00  0.11368683772E-12  0.17120000000E+03  0.17120000000E+03 0.  0.
         13    1    1    2    0    0  0.93382993087E+01 -0.47842299908E+01  0.56884299489E+02  0.57843991762E+02  0.10566000000E+00 0. -1.
        994    1    1    2    0    0  0.40290713276E+01  0.46834774277E+01  0.11717687515E+01  0.17131544419E+03  0.17120000000E+03 0.  0.
        998    1    1    2    0    0 -0.13367370636E+02  0.10075256310E+00  0.14419439280E+04  0.14420405640E+04  0.10000000000E+02 0. -1.
</event>
<event>
 5    1  0.1068111E-008  0.3725631E+03  0.7957747E-01  0.3484193E+00
         13   -1    0    0    0    0  0.00000000000E+00  0.00000000000E+00  0.14999999963E+04  0.15000000000E+04  0.10566000000E+00 0. -1.
        994   -1    0    0    0    0 -0.00000000000E+00 -0.00000000000E+00  0.11368683772E-12  0.17120000000E+03  0.17120000000E+03 0.  0.
         13    1    1    2    0    0 -0.13202363095E+02 -0.42287547686E+01  0.84170701388E+01  0.16218600184E+02  0.10566000000E+00 0. -1.
        994    1    1    2    0    0  0.13024765898E+02  0.10033876020E+02  0.88624954384E+01  0.17221587331E+03  0.17120000000E+03 0.  0.
        998    1    1    2    0    0  0.17759719615E+00 -0.58051212517E+01  0.14827204307E+04  0.14827655265E+04  0.10000000000E+02 0. -1.
</event>
<event>
 5    1  0.1068111E-008  0.3835173E+03  0.7957747E-01  0.3435985E+00
         13   -1    0    0    0    0  0.00000000000E+00  0.00000000000E+00  0.14999999963E+04  0.15000000000E+04  0.10566000000E+00 0.  1.
        994   -1    0    0    0    0 -0.00000000000E+00 -0.00000000000E+00  0.11368683772E-12  0.17120000000E+03  0.17120000000E+03 0.  0.
         13    1    1    2    0    0 -0.14918632962E+02 -0.10601134750E+02  0.73964423951E+02  0.76195123478E+02  0.10566000000E+00 0.  1.
        994    1    1    2    0    0 -0.49354517693E+00  0.50051316038E+01  0.24516450657E+01  0.17129140519E+03  0.17120000000E+03 0.  0.
        998    1    1    2    0    0  0.15412178139E+02  0.55960031463E+01  0.14235839273E+04  0.14237134713E+04  0.10000000000E+02 0.  1.
</event>
<event>
 5    1  0.1068111E-008  0.3812916E+03  0.7957747E-01  0.3445554E+00
         13   -1    0    0    0    0  0.00000000000E+00  0.00000000000E+00  0.14999999963E+04  0.15000000000E+04  0.10566000000E+00 0. -1.
        994   -1    0    0    0    0 -0.00000000000E+00 -0.00000000000E+00  0.11368683772E-12  0.17120000000E+03  0.17120000000E+03 0.  0.
         13    1    1    2    0    0  0.84239013589E+01  0.31592381468E+02  0.13126653977E+03  0.13527733109E+03  0.10566000000E+00 0. -1.
        994    1    1    2    0    0 -0.16434786296E+02 -0.40458957614E+02  0.98566780231E+01  0.17695655838E+03  0.17120000000E+03 0.  0.
        998    1    1    2    0    0  0.80108849375E+01  0.88665761462E+01  0.13588767785E+04  0.13589661105E+04  0.10000000000E+02 0. -1.
</event>
<event>
 5    1  0.1068111E-008  0.3697672E+03  0.7957747E-01  0.3496962E+00
         13   -1    0    0    0    0  0.00000000000E+00  0.00000000000E+00  0.14999999963E+04  0.15000000000E+04  0.10566000000E+00 0. -1.
        994   -1    0    0    0    0 -0.00000000000E+00 -0.00000000000E+00  0.11368683772E-12  0.17120000000E+03  0.17120000000E+03 0.  0.
         13    1    1    2    0    0  0.28813265137E+02 -0.76492751172E+01  0.37209721471E+02  0.47679033061E+02  0.10566000000E+00 0. -1.
        994    1    1    2    0    0 -0.18664455791E+02 -0.76967796363E+01  0.12240818594E+02  0.17282036907E+03  0.17120000000E+03 0.  0.
        998    1    1    2    0    0 -0.10148809346E+02  0.15346054754E+02  0.14505494562E+04  0.14507005979E+04  0.10000000000E+02 0. -1.
</event>
<event>
 5    1  0.1068111E-008  0.3857829E+03  0.7957747E-01  0.3426359E+00
         13   -1    0    0    0    0  0.00000000000E+00  0.00000000000E+00  0.14999999963E+04  0.15000000000E+04  0.10566000000E+00 0.  1.
        994   -1    0    0    0    0 -0.00000000000E+00 -0.00000000000E+00  0.11368683772E-12  0.17120000000E+03  0.17120000000E+03 0.  0.
         13    1    1    2    0    0  0.10598671865E+02 -0.32883896539E+01  0.58462381451E+02  0.59506357314E+02  0.10566000000E+00 0.  1.
        994    1    1    2    0    0  0.11938576445E+02 -0.11008906887E+02  0.21075344359E+01  0.17198141568E+03  0.17120000000E+03 0.  0.
        998    1    1    2    0    0 -0.22537248310E+02  0.14297296541E+02  0.14394300804E+04  0.14397122270E+04  0.10000000000E+02 0.  1.
</event>
<event>
 5    1  0.1068111E-008  0.3808676E+03  0.7957747E-01  0.3447390E+00
         13   -1    0    0    0    0  0.00000000000E+00  0.00000000000E+00  0.14999999963E+04  0.15000000000E+04  0.10566000000E+00 0. -1.
        994   -1    0    0    0    0 -0.00000000000E+00 -0.00000000000E+00  0.11368683772E-12  0.17120000000E+03  0.17120000000E+03 0.  0.
         13    1    1    2    0    0  0.13959322351E+02  0.91283561654E+00  0.25290091813E+02  0.28901485383E+02  0.10566000000E+00 0. -1.
        994    1    1    2    0    0 -0.61570666080E+01  0.41530200299E+01  0.38797289956E+01  0.17140492800E+03  0.17120000000E+03 0.  0.
        998    1    1    2    0    0 -0.78022557433E+01 -0.50658556464E+01  0.14708301755E+04  0.14708935866E+04  0.10000000000E+02 0. -1.
</event>
<event>
 5    1  0.1068111E-008  0.3835442E+03  0.7957747E-01  0.3435870E+00
         13   -1    0    0    0    0  0.00000000000E+00  0.00000000000E+00  0.14999999963E+04  0.15000000000E+04  0.10566000000E+00 0.  1.
        994   -1    0    0    0    0 -0.00000000000E+00 -0.00000000000E+00  0.11368683772E-12  0.17120000000E+03  0.17120000000E+03 0.  0.
         13    1    1    2    0    0 -0.26058802806E+02 -0.98309201691E+00  0.12837944976E+03  0.13100122884E+03  0.10566000000E+00 0.  1.
        994    1    1    2    0    0  0.32000136484E+02 -0.13255681030E+02  0.63289110731E+01  0.17478334283E+03  0.17120000000E+03 0.  0.
        998    1    1    2    0    0 -0.59413336775E+01  0.14238773047E+02  0.13652916354E+04  0.13654154283E+04  0.10000000000E+02 0.  1.
</event>
<event>
 5    1  0.1068111E-008  0.3712892E+03  0.7957747E-01  0.3489987E+00
         13   -1    0    0    0    0  0.00000000000E+00  0.00000000000E+00  0.14999999963E+04  0.15000000000E+04  0.10566000000E+00 0. -1.
        994   -1    0    0    0    0 -0.00000000000E+00 -0.00000000000E+00  0.11368683772E-12  0.17120000000E+03  0.17120000000E+03 0.  0.
         13    1    1    2    0    0 -0.95020991629E+02  0.12318445835E+02  0.41607053185E+03  0.42696069093E+03  0.10566000000E+00 0. -1.
        994    1    1    2    0    0  0.52777346420E+02  0.26764031106E+02  0.24023193766E+02  0.18272469865E+03  0.17120000000E+03 0.  0.
        998    1    1    2    0    0  0.42243645208E+02 -0.39082476941E+02  0.10599062707E+04  0.10615146104E+04  0.10000000000E+02 0. -1.
</event>
<event>
 5    1  0.1068111E-008  0.3795882E+03  0.7957747E-01  0.3452953E+00
         13   -1    0    0    0    0  0.00000000000E+00  0.00000000000E+00  0.14999999963E+04  0.15000000000E+04  0.10566000000E+00 0.  1.
        994   -1    0    0    0    0 -0.00000000000E+00 -0.00000000000E+00  0.11368683772E-12  0.17120000000E+03  0.17120000000E+03 0.  0.
         13    1    1    2    0    0  0.43873095670E+02  0.10109454952E+02  0.26374035295E+03  0.26755566625E+03  0.10566000000E+00 0.  1.
        994    1    1    2    0    0 -0.11013942841E+02 -0.97455785211E+00  0.47505034748E+01  0.17162244604E+03  0.17120000000E+03 0.  0.
        998    1    1    2    0    0 -0.32859152828E+02 -0.91348971001E+01  0.12315091399E+04  0.12320218877E+04  0.10000000000E+02 0.  1.
</event>
<event>
 5    1  0.1068111E-008  0.2685556E+03  0.7957747E-01  0.4149688E+00
         13   -1    0    0    0    0  0.00000000000E+00  0.00000000000E+00  0.14999999963E+04  0.15000000000E+04  0.10566000000E+00 0. -1.
        994   -1    0    0    0    0 -0.00000000000E+00 -0.00000000000E+00  0.11368683772E-12  0.17120000000E+03  0.17120000000E+03 0.  0.
         13    1    1    2    0    0 -0.38424726162E+02  0.11927740473E+03  0.69116056532E+03  0.70242899789E+03  0.10566000000E+00 0. -1.
        994    1    1    2    0    0 -0.19680362159E+01  0.29664391540E+02  0.31994597427E+02  0.17668317282E+03  0.17120000000E+03 0.  0.
        998    1    1    2    0    0  0.40392762378E+02 -0.14894179627E+03  0.77684483353E+03  0.79208782929E+03  0.10000000000E+02 0. -1.
</event>
<event>
 5    1  0.1068111E-008  0.3825550E+03  0.7957747E-01  0.3440108E+00
         13   -1    0    0    0    0  0.00000000000E+00  0.00000000000E+00  0.14999999963E+04  0.15000000000E+04  0.10566000000E+00 0. -1.
        994   -1    0    0    0    0 -0.00000000000E+00 -0.00000000000E+00  0.11368683772E-12  0.17120000000E+03  0.17120000000E+03 0.  0.
         13    1    1    2    0    0 -0.14488099602E+02  0.50232088124E+01  0.40245116498E+02  0.43067600616E+02  0.10566000000E+00 0. -1.
        994    1    1    2    0    0  0.13287764632E+02  0.55370528434E+01  0.35361297276E+01  0.17184053031E+03  0.17120000000E+03 0.  0.
        998    1    1    2    0    0  0.12003349698E+01 -0.10560261656E+02  0.14562187501E+04  0.14562918691E+04  0.10000000000E+02 0. -1.
</event>
<event>
 5    1  0.1068111E-008  0.3812896E+03  0.7957747E-01  0.3445562E+00
         13   -1    0    0    0    0  0.00000000000E+00  0.00000000000E+00  0.14999999963E+04  0.15000000000E+04  0.10566000000E+00 0.  1.
        994   -1    0    0    0    0 -0.00000000000E+00 -0.00000000000E+00  0.11368683772E-12  0.17120000000E+03  0.17120000000E+03 0.  0.
         13    1    1    2    0    0  0.12253633004E+02 -0.11090917853E+02  0.37608380300E+02  0.41079939307E+02  0.10566000000E+00 0.  1.
        994    1    1    2    0    0 -0.10821778547E+02  0.79889447082E+01  0.40860640527E+01  0.17177622085E+03  0.17120000000E+03 0.  0.
        998    1    1    2    0    0 -0.14318544564E+01  0.31019731448E+01  0.14583055519E+04  0.14583438398E+04  0.10000000000E+02 0.  1.
</event>
<event>
 5    1  0.1068111E-008  0.3831065E+03  0.7957747E-01  0.3437743E+00
         13   -1    0    0    0    0  0.00000000000E+00  0.00000000000E+00  0.14999999963E+04  0.15000000000E+04  0.10566000000E+00 0.  1.
        994   -1    0    0    0    0 -0.00000000000E+00 -0.00000000000E+00  0.11368683772E-12  0.17120000000E+03  0.17120000000E+03 0.  0.
         13    1    1    2    0    0 -0.18438846831E+02 -0.63301058365E+01  0.73134264103E+02  0.75688130260E+02  0.10566000000E+00 0.  1.
        994    1    1    2    0    0  0.14675352847E+02 -0.41867764346E+01  0.33441767994E+01  0.17191136843E+03  0.17120000000E+03 0.  0.
        998    1    1    2    0    0  0.37634939843E+01  0.10516882271E+02  0.14235215554E+04  0.14236005013E+04  0.10000000000E+02 0.  1.
</event>
<event>
 5    1  0.1068111E-008  0.3822587E+03  0.7957747E-01  0.3441382E+00
         13   -1    0    0    0    0  0.00000000000E+00  0.00000000000E+00  0.14999999963E+04  0.15000000000E+04  0.10566000000E+00 0. -1.
        994   -1    0    0    0    0 -0.00000000000E+00 -0.00000000000E+00  0.11368683772E-12  0.17120000000E+03  0.17120000000E+03 0.  0.
         13    1    1    2    0    0  0.14670524906E+02 -0.10925340527E+02  0.56168592851E+02  0.59072069149E+02  0.10566000000E+00 0. -1.
        994    1    1    2    0    0 -0.30049827720E+01  0.69979671145E+01  0.31897571401E+01  0.17139899654E+03  0.17120000000E+03 0.  0.
        998    1    1    2    0    0 -0.11665542134E+02  0.39273734128E+01  0.14406416463E+04  0.14407289343E+04  0.10000000000E+02 0. -1.
</event>
<event>
 5    1  0.1068111E-008  0.3825532E+03  0.7957747E-01  0.3440116E+00
         13   -1    0    0    0    0  0.00000000000E+00  0.00000000000E+00  0.14999999963E+04  0.15000000000E+04  0.10566000000E+00 0.  1.
        994   -1    0    0    0    0 -0.00000000000E+00 -0.00000000000E+00  0.11368683772E-12  0.17120000000E+03  0.17120000000E+03 0.  0.
         13    1    1    2    0    0  0.10912488882E+02  0.55815180584E+02  0.86004751656E+02  0.10310793019E+03  0.10566000000E+00 0.  1.
        994    1    1    2    0    0  0.77591372855E+01 -0.37808813578E+02  0.23205405085E+02  0.17702440911E+03  0.17120000000E+03 0.  0.
        998    1    1    2    0    0 -0.18671626167E+02 -0.18006367006E+02  0.13907898395E+04  0.13910676607E+04  0.10000000000E+02 0.  1.
</event>
<event>
 5    1  0.1068111E-008  0.3837490E+03  0.7957747E-01  0.3434995E+00
         13   -1    0    0    0    0  0.00000000000E+00  0.00000000000E+00  0.14999999963E+04  0.15000000000E+04  0.10566000000E+00 0.  1.
        994   -1    0    0    0    0 -0.00000000000E+00 -0.00000000000E+00  0.11368683772E-12  0.17120000000E+03  0.17120000000E+03 0.  0.
         13    1    1    2    0    0 -0.92046489381E+01 -0.92494604228E+01  0.36337089986E+02  0.38609239217E+02  0.10566000000E+00 0.  1.
        994    1    1    2    0    0  0.73575522966E+01  0.12860749278E+02  0.29777677388E+01  0.17186576026E+03  0.17120000000E+03 0.  0.
        998    1    1    2    0    0  0.18470966415E+01 -0.36112888554E+01  0.14606851386E+04  0.14607250005E+04  0.10000000000E+02 0.  1.
</event>
<event>
 5    1  0.1068111E-008  0.3852947E+03  0.7957747E-01  0.3428423E+00
         13   -1    0    0    0    0  0.00000000000E+00  0.00000000000E+00  0.14999999963E+04  0.15000000000E+04  0.10566000000E+00 0. -1.
        994   -1    0    0    0    0 -0.00000000000E+00 -0.00000000000E+00  0.11368683772E-12  0.17120000000E+03  0.17120000000E+03 0.  0.
         13    1    1    2    0    0  0.53415330510E+01  0.20670880857E+02  0.12748116998E+03  0.12925663292E+03  0.10566000000E+00 0. -1.
        994    1    1    2    0    0 -0.13676537479E+02 -0.31871743473E+02  0.54458876405E+01  0.17476256293E+03  0.17120000000E+03 0.  0.
        998    1    1    2    0    0  0.83350044275E+01  0.11200862616E+02  0.13670729387E+04  0.13671808042E+04  0.10000000000E+02 0. -1.
</event>
<event>
 5    1  0.1068111E-008  0.3792227E+03  0.7957747E-01  0.3454550E+00
         13   -1    0    0    0    0  0.00000000000E+00  0.00000000000E+00  0.14999999963E+04  0.15000000000E+04  0.10566000000E+00 0.  1.
        994   -1    0    0    0    0 -0.00000000000E+00 -0.00000000000E+00  0.11368683772E-12  0.17120000000E+03  0.17120000000E+03 0.  0.
         13    1    1    2    0    0 -0.26005974904E+02 -0.40102890985E+02  0.21601107433E+03  0.22123595547E+03  0.10566000000E+00 0.  1.
        994    1    1    2    0    0  0.22169463965E+02  0.42977211326E+02  0.12403887980E+02  0.17833065430E+03  0.17120000000E+03 0.  0.
        998    1    1    2    0    0  0.38365109392E+01 -0.28743203409E+01  0.12715850340E+04  0.12716333902E+04  0.10000000000E+02 0.  1.
</event>
<event>
 5    1  0.1068111E-008  0.3845872E+03  0.7957747E-01  0.3431425E+00
         13   -1    0    0    0    0  0.00000000000E+00  0.00000000000E+00  0.14999999963E+04  0.15000000000E+04  0.10566000000E+00 0.  1.
        994   -1    0    0    0    0 -0.00000000000E+00 -0.00000000000E+00  0.11368683772E-12  0.17120000000E+03  0.17120000000E+03 0.  0.
         13    1    1    2    0    0 -0.12804278081E+02 -0.38941255299E+00  0.46051671336E+02  0.47800301005E+02  0.10566000000E+00 0.  1.
        994    1    1    2    0    0  0.14260375963E+01  0.75363548594E+01  0.20289757139E+01  0.17138374185E+03  0.17120000000E+03 0.  0.
        998    1    1    2    0    0  0.11378240484E+02 -0.71469423064E+01  0.14519193492E+04  0.14520159571E+04  0.10000000000E+02 0.  1.
</event>
<event>
 5    1  0.1068111E-008  0.3916798E+03  0.7957747E-01  0.3401827E+00
         13   -1    0    0    0    0  0.00000000000E+00  0.00000000000E+00  0.14999999963E+04  0.15000000000E+04  0.10566000000E+00 0.  1.
        994   -1    0    0    0    0 -0.00000000000E+00 -0.00000000000E+00  0.11368683772E-12  0.17120000000E+03  0.17120000000E+03 0.  0.
         13    1    1    2    0    0 -0.16637077273E+02 -0.10174660873E+02 -0.16087369117E+01  0.19568220731E+02  0.10566000000E+00 0.  1.
        994    1    1    2    0    0  0.21087436465E+01 -0.90013236316E+01  0.23221369997E+02  0.17301486252E+03  0.17120000000E+03 0.  0.
        998    1    1    2    0    0  0.14528333626E+02  0.19175984505E+02  0.14783873632E+04  0.14786169168E+04  0.10000000000E+02 0.  1.
</event>
<event>
 5    1  0.1068111E-008  0.3853676E+03  0.7957747E-01  0.3428115E+00
         13   -1    0    0    0    0  0.00000000000E+00  0.00000000000E+00  0.14999999963E+04  0.15000000000E+04  0.10566000000E+00 0. -1.
        994   -1    0    0    0    0 -0.00000000000E+00 -0.00000000000E+00  0.11368683772E-12  0.17120000000E+03  0.17120000000E+03 0.  0.
         13    1    1    2    0    0 -0.10980042263E+01  0.13218672726E+02  0.58304063633E+02  0.59793928806E+02  0.10566000000E+00 0. -1.
        994    1    1    2    0    0  0.84647899553E+01 -0.15344883310E+02  0.24571858204E+01  0.17211216074E+03  0.17120000000E+03 0.  0.
        998    1    1    2    0    0 -0.73667857290E+01  0.21262105836E+01  0.14392387468E+04  0.14392939105E+04  0.10000000000E+02 0. -1.
</event>
<event>
 5    1  0.1068111E-008  0.3815628E+03  0.7957747E-01  0.3444382E+00
         13   -1    0    0    0    0  0.00000000000E+00  0.00000000000E+00  0.14999999963E+04  0.15000000000E+04  0.10566000000E+00 0. -1.
        994   -1    0    0    0    0 -0.00000000000E+00 -0.00000000000E+00  0.11368683772E-12  0.17120000000E+03  0.17120000000E+03 0.  0.
         13    1    1    2    0    0 -0.23059853955E+02  0.93501156241E+01  0.96206195046E+02  0.99372152316E+02  0.10566000000E+00 0. -1.
        994    1    1    2    0    0  0.53095390517E+01 -0.33384977527E+01  0.34771870346E+01  0.17135013161E+03  0.17120000000E+03 0.  0.
        998    1    1    2    0    0  0.17750314903E+02 -0.60116178715E+01  0.14003166142E+04  0.14004777161E+04  0.10000000000E+02 0. -1.
</event>
<event>
 5    1  0.1068111E-008  0.3685115E+03  0.7957747E-01  0.3502760E+00
         13   -1    0    0    0    0  0.00000000000E+00  0.00000000000E+00  0.14999999963E+04  0.15000000000E+04  0.10566000000E+00 0.  1.
        994   -1    0    0    0    0 -0.00000000000E+00 -0.00000000000E+00  0.11368683772E-12  0.17120000000E+03  0.17120000000E+03 0.  0.
         13    1    1    2    0    0 -0.75170002943E+02 -0.80935800372E+02  0.38180462171E+03  0.39746183898E+03  0.10566000000E+00 0.  1.
        994    1    1    2    0    0  0.99941997198E+02  0.80995301064E+02  0.70135213891E+02  0.22533759080E+03  0.17120000000E+03 0.  0.
        998    1    1    2    0    0 -0.24771994255E+02 -0.59500692481E-01  0.10480601607E+04  0.10484005702E+04  0.10000000000E+02 0.  1.
</event>
<event>
 5    1  0.1068111E-008  0.3834861E+03  0.7957747E-01  0.3436118E+00
         13   -1    0    0    0    0  0.00000000000E+00  0.00000000000E+00  0.14999999963E+04  0.15000000000E+04  0.10566000000E+00 0.  1.
        994   -1    0    0    0    0 -0.00000000000E+00 -0.00000000000E+00  0.11368683772E-12  0.17120000000E+03  0.17120000000E+03 0.  0.
         13    1    1    2    0    0  0.12641823169E+02 -0.70344661850E+01  0.43784724070E+02  0.46113041902E+02  0.10566000000E+00 0.  1.
        994    1    1    2    0    0 -0.74131617307E+01  0.72060377517E+00  0.25669896092E+01  0.17138116487E+03  0.17120000000E+03 0.  0.
        998    1    1    2    0    0 -0.52286614386E+01  0.63138624098E+01  0.14536482826E+04  0.14537057932E+04  0.10000000000E+02 0.  1.
</event>
<event>
 5    1  0.1068111E-008  0.3792301E+03  0.7957747E-01  0.3454518E+00
         13   -1    0    0    0    0  0.00000000000E+00  0.00000000000E+00  0.14999999963E+04  0.15000000000E+04  0.10566000000E+00 0. -1.
        994   -1    0    0    0    0 -0.00000000000E+00 -0.00000000000E+00  0.11368683772E-12  0.17120000000E+03  0.17120000000E+03 0.  0.
         13    1    1    2    0    0  0.65725194582E+01 -0.18479858740E+02  0.40464553063E+02  0.44967704074E+02  0.10566000000E+00 0. -1.
        994    1    1    2    0    0  0.69169651038E+00  0.16561141796E+02  0.54436152388E+01  0.17208667237E+03  0.17120000000E+03 0.  0.
        998    1    1    2    0    0 -0.72642159686E+01  0.19187169434E+01  0.14540918280E+04  0.14541456236E+04  0.10000000000E+02 0. -1.
</event>
<event>
 5    1  0.1068111E-008  0.3819071E+03  0.7957747E-01  0.3442897E+00
         13   -1    0    0    0    0  0.00000000000E+00  0.00000000000E+00  0.14999999963E+04  0.15000000000E+04  0.10566000000E+00 0. -1.
        994   -1    0    0    0    0 -0.00000000000E+00 -0.00000000000E+00  0.11368683772E-12  0.17120000000E+03  0.17120000000E+03 0.  0.
         13    1    1    2    0    0 -0.13400379500E+02  0.90023308190E+01  0.41535858728E+02  0.44562886522E+02  0.10566000000E+00 0. -1.
        994    1    1    2    0    0 -0.55689735950E+01 -0.94520004654E+01  0.35734709323E+01  0.17158835472E+03  0.17120000000E+03 0.  0.
        998    1    1    2    0    0  0.18969353095E+02  0.44966964645E+00  0.14548906666E+04  0.14550487588E+04  0.10000000000E+02 0. -1.
</event>
<event>
 5    1  0.1068111E-008  0.3776827E+03  0.7957747E-01  0.3461311E+00
         13   -1    0    0    0    0  0.00000000000E+00  0.00000000000E+00  0.14999999963E+04  0.15000000000E+04  0.10566000000E+00 0. -1.
        994   -1    0    0    0    0 -0.00000000000E+00 -0.00000000000E+00  0.11368683772E-12  0.17120000000E+03  0.17120000000E+03 0.  0.
         13    1    1    2    0    0  0.11315157096E+02 -0.16582533897E+01  0.98598578383E+01  0.15100018048E+02  0.10566000000E+00 0. -1.
        994    1    1    2    0    0 -0.12897696657E+02 -0.66523706981E+01  0.60172764430E+01  0.17191931896E+03  0.17120000000E+03 0.  0.
        998    1    1    2    0    0  0.15825395608E+01  0.83106240878E+01  0.14841228620E+04  0.14841806630E+04  0.10000000000E+02 0. -1.
</event>
<event>
 5    1  0.1068111E-008  0.3754684E+03  0.7957747E-01  0.3471130E+00
         13   -1    0    0    0    0  0.00000000000E+00  0.00000000000E+00  0.14999999963E+04  0.15000000000E+04  0.10566000000E+00 0. -1.
        994   -1    0    0    0    0 -0.00000000000E+00 -0.00000000000E+00  0.11368683772E-12  0.17120000000E+03  0.17120000000E+03 0.  0.
         13    1    1    2    0    0 -0.23772337960E+02  0.30860306451E+02  0.12078390470E+03  0.12691038320E+03  0.10566000000E+00 0. -1.
        994    1    1    2    0    0  0.93409204995E+01 -0.10670850078E+02  0.71212383174E+01  0.17193391717E+03  0.17120000000E+03 0.  0.
        998    1    1    2    0    0  0.14431417461E+02 -0.20189456373E+02  0.13720948533E+04  0.13723556996E+04  0.10000000000E+02 0. -1.
</event>
<event>
 5    1  0.1068111E-008  0.3829436E+03  0.7957747E-01  0.3438441E+00
         13   -1    0    0    0    0  0.00000000000E+00  0.00000000000E+00  0.14999999963E+04  0.15000000000E+04  0.10566000000E+00 0. -1.
        994   -1    0    0    0    0 -0.00000000000E+00 -0.00000000000E+00  0.11368683772E-12  0.17120000000E+03  0.17120000000E+03 0.  0.
         13    1    1    2    0    0  0.95277829020E+01 -0.75318809922E+01  0.26929225500E+02  0.29541533954E+02  0.10566000000E+00 0. -1.
        994    1    1    2    0    0  0.46354847645E+00  0.12817516610E+02  0.31993594061E+01  0.17170957897E+03  0.17120000000E+03 0.  0.
        998    1    1    2    0    0 -0.99913313784E+01 -0.52856356178E+01  0.14698714114E+04  0.14699488871E+04  0.10000000000E+02 0. -1.
</event>
<event>
 5    1  0.1068111E-008  0.3849010E+03  0.7957747E-01  0.3430092E+00
         13   -1    0    0    0    0  0.00000000000E+00  0.00000000000E+00  0.14999999963E+04  0.15000000000E+04  0.10566000000E+00 0. -1.
        994   -1    0    0    0    0 -0.00000000000E+00 -0.00000000000E+00  0.11368683772E-12  0.17120000000E+03  0.17120000000E+03 0.  0.
         13    1    1    2    0    0 -0.11822868126E+02  0.10911241809E+02  0.77246427886E+02  0.78904101247E+02  0.10566000000E+00 0. -1.
        994    1    1    2    0    0  0.79630544480E+01 -0.62726917548E+01  0.20173873884E+01  0.17151171024E+03  0.17120000000E+03 0.  0.
        998    1    1    2    0    0  0.38598136776E+01 -0.46385500543E+01  0.14207361810E+04  0.14207841885E+04  0.10000000000E+02 0. -1.
</event>
<event>
 5    1  0.1068111E-008  0.3831512E+03  0.7957747E-01  0.3437551E+00
         13   -1    0    0    0    0  0.00000000000E+00  0.00000000000E+00  0.14999999963E+04  0.15000000000E+04  0.10566000000E+00 0. -1.
        994   -1    0    0    0    0 -0.00000000000E+00 -0.00000000000E+00  0.11368683772E-12  0.17120000000E+03  0.17120000000E+03 0.  0.
         13    1    1    2    0    0  0.59399675572E+01 -0.19160707007E+02  0.75157261581E+02  0.77788437702E+02  0.10566000000E+00 0. -1.
        994    1    1    2    0    0 -0.13600966428E+02  0.16697002584E+02  0.40867138069E+01  0.17259755912E+03  0.17120000000E+03 0.  0.
        998    1    1    2    0    0  0.76609988703E+01  0.24637044235E+01  0.14207560209E+04  0.14208140032E+04  0.10000000000E+02 0. -1.
</event>
<event>
 5    1  0.1068111E-008  0.3856360E+03  0.7957747E-01  0.3426979E+00
         13   -1    0    0    0    0  0.00000000000E+00  0.00000000000E+00  0.14999999963E+04  0.15000000000E+04  0.10566000000E+00 0.  1.
        994   -1    0    0    0    0 -0.00000000000E+00 -0.00000000000E+00  0.11368683772E-12  0.17120000000E+03  0.17120000000E+03 0.  0.
         13    1    1    2    0    0 -0.35084854087E+01 -0.11753979441E+02  0.59135099642E+02  0.60394011924E+02  0.10566000000E+00 0.  1.
        994    1    1    2    0    0 -0.52656452777E+01  0.61010844849E+01  0.15278853257E+01  0.17139639636E+03  0.17120000000E+03 0.  0.
        998    1    1    2    0    0  0.87741306865E+01  0.56528949562E+01  0.14393370113E+04  0.14394095917E+04  0.10000000000E+02 0.  1.
</event>
<event>
 5    1  0.1068111E-008  0.3851077E+03  0.7957747E-01  0.3429216E+00
         13   -1    0    0    0    0  0.00000000000E+00  0.00000000000E+00  0.14999999963E+04  0.15000000000E+04  0.10566000000E+00 0.  1.
        994   -1    0    0    0    0 -0.00000000000E+00 -0.00000000000E+00  0.11368683772E-12  0.17120000000E+03  0.17120000000E+03 0.  0.
         13    1    1    2    0    0 -0.36835982638E+01  0.10214747856E+02  0.36335334787E+02  0.37923313252E+02  0.10566000000E+00 0.  1.
        994    1    1    2    0    0  0.94993569817E+01 -0.10037721563E+02  0.22048224519E+01  0.17177105367E+03  0.17120000000E+03 0.  0.
        998    1    1    2    0    0 -0.58157587179E+01 -0.17702629349E+00  0.14614598390E+04  0.14615056331E+04  0.10000000000E+02 0.  1.
</event>
<event>
 5    1  0.1068111E-008  0.3744344E+03  0.7957747E-01  0.3475756E+00
         13   -1    0    0    0    0  0.00000000000E+00  0.00000000000E+00  0.14999999963E+04  0.15000000000E+04  0.10566000000E+00 0. -1.
        994   -1    0    0    0    0 -0.00000000000E+00 -0.00000000000E+00  0.11368683772E-12  0.17120000000E+03  0.17120000000E+03 0.  0.
         13    1    1    2    0    0 -0.46183937568E+02  0.13748718958E+02  0.14721787489E+03  0.15490350937E+03  0.10566000000E+00 0. -1.
        994    1    1    2    0    0  0.46034158380E+02 -0.22778723730E+02  0.16007409144E+02  0.17945386911E+03  0.17120000000E+03 0.  0.
        998    1    1    2    0    0  0.14977918756E+00  0.90300047716E+01  0.13367747122E+04  0.13368426215E+04  0.10000000000E+02 0. -1.
</event>
<event>
 5    1  0.1068111E-008  0.3717592E+03  0.7957747E-01  0.3487845E+00
         13   -1    0    0    0    0  0.00000000000E+00  0.00000000000E+00  0.14999999963E+04  0.15000000000E+04  0.10566000000E+00 0. -1.
        994   -1    0    0    0    0 -0.00000000000E+00 -0.00000000000E+00  0.11368683772E-12  0.17120000000E+03  0.17120000000E+03 0.  0.
         13    1    1    2    0    0  0.96829684189E+02 -0.36342008203E+02  0.22744816827E+03  0.24985877954E+03  0.10566000000E+00 0. -1.
        994    1    1    2    0    0 -0.18955198571E+03  0.34386068023E+02  0.15675486329E+03  0.30165192545E+03  0.17120000000E+03 0.  0.
        998    1    1    2    0    0  0.92722301517E+02  0.19559401794E+01  0.11157969647E+04  0.11196892950E+04  0.10000000000E+02 0. -1.
</event>
<event>
 5    1  0.1068111E-008  0.3834769E+03  0.7957747E-01  0.3436157E+00
         13   -1    0    0    0    0  0.00000000000E+00  0.00000000000E+00  0.14999999963E+04  0.15000000000E+04  0.10566000000E+00 0.  1.
        994   -1    0    0    0    0 -0.00000000000E+00 -0.00000000000E+00  0.11368683772E-12  0.17120000000E+03  0.17120000000E+03 0.  0.
         13    1    1    2    0    0 -0.96643686024E+01 -0.52202844084E+01  0.24370542805E+02  0.26731739757E+02  0.10566000000E+00 0.  1.
        994    1    1    2    0    0  0.69921429652E+01  0.52854855581E+01  0.26421526200E+01  0.17144458986E+03  0.17120000000E+03 0.  0.
        998    1    1    2    0    0  0.26722256372E+01 -0.65201149692E-01  0.14729873009E+04  0.14730236704E+04  0.10000000000E+02 0.  1.
</event>
<event>
 5    1  0.1068111E-008  0.3776700E+03  0.7957747E-01  0.3461367E+00
         13   -1    0    0    0    0  0.00000000000E+00  0.00000000000E+00  0.14999999963E+04  0.15000000000E+04  0.10566000000E+00 0.  1.
        994   -1    0    0    0    0 -0.00000000000E+00 -0.00000000000E+00  0.11368683772E-12  0.17120000000E+03  0.17120000000E+03 0.  0.
         13    1    1    2    0    0  0.65185570997E+01 -0.22478047210E+02  0.51141476806E+02  0.56242475114E+02  0.10566000000E+00 0.  1.
        994    1    1    2    0    0 -0.12556462913E+02  0.24023919343E+01  0.58647225509E+01  0.17177680640E+03  0.17120000000E+03 0.  0.
        998    1    1    2    0    0  0.60379058129E+01  0.20075655276E+02  0.14429937969E+04  0.14431807185E+04  0.10000000000E+02 0.  1.
</event>
<event>
 5    1  0.1068111E-008  0.3716211E+03  0.7957747E-01  0.3488474E+00
         13   -1    0    0    0    0  0.00000000000E+00  0.00000000000E+00  0.14999999963E+04  0.15000000000E+04  0.10566000000E+00 0. -1.
        994   -1    0    0    0    0 -0.00000000000E+00 -0.00000000000E+00  0.11368683772E-12  0.17120000000E+03  0.17120000000E+03 0.  0.
         13    1    1    2    0    0 -0.40338130017E+02  0.28588953676E+02  0.17227458402E+03  0.17922900566E+03  0.10566000000E+00 0. -1.
        994    1    1    2    0    0 -0.21944319276E+01  0.10538483345E+02  0.88227042695E+01  0.17176482548E+03  0.17120000000E+03 0.  0.
        998    1    1    2    0    0  0.42532561944E+02 -0.39127437021E+02  0.13189027080E+04  0.13202061689E+04  0.10000000000E+02 0. -1.
</event>
<event>
 5    1  0.1068111E-008  0.3685833E+03  0.7957747E-01  0.3502427E+00
         13   -1    0    0    0    0  0.00000000000E+00  0.00000000000E+00  0.14999999963E+04  0.15000000000E+04  0.10566000000E+00 0.  1.
        994   -1    0    0    0    0 -0.00000000000E+00 -0.00000000000E+00  0.11368683772E-12  0.17120000000E+03  0.17120000000E+03 0.  0.
         13    1    1    2    0    0  0.33320942000E+02  0.35237116024E+02  0.12125080809E+03  0.13058985086E+03  0.10566000000E+00 0.  1.
        994    1    1    2    0    0  0.78290539825E+01 -0.21049855939E+02  0.11948228055E+02  0.17307972347E+03  0.17120000000E+03 0.  0.
        998    1    1    2    0    0 -0.41149995983E+02 -0.14187260086E+02  0.13668009601E+04  0.13675304257E+04  0.10000000000E+02 0.  1.
</event>
<event>
 5    1  0.1068111E-008  0.3767227E+03  0.7957747E-01  0.3465554E+00
         13   -1    0    0    0    0  0.00000000000E+00  0.00000000000E+00  0.14999999963E+04  0.15000000000E+04  0.10566000000E+00 0. -1.
        994   -1    0    0    0    0 -0.00000000000E+00 -0.00000000000E+00  0.11368683772E-12  0.17120000000E+03  0.17120000000E+03 0.  0.
         13    1    1    2    0    0 -0.48439674257E+01 -0.14288881502E+02  0.16984952356E+02  0.22718625081E+02  0.10566000000E+00 0. -1.
        994    1    1    2    0    0  0.31205084127E+01  0.13867015853E+02  0.64797941112E+01  0.17191119636E+03  0.17120000000E+03 0.  0.
        998    1    1    2    0    0  0.17234590130E+01  0.42186564882E+00  0.14765352498E+04  0.14765701786E+04  0.10000000000E+02 0. -1.
</event>
<event>
 5    1  0.1068111E-008  0.3708752E+03  0.7957747E-01  0.3491878E+00
         13   -1    0    0    0    0  0.00000000000E+00  0.00000000000E+00  0.14999999963E+04  0.15000000000E+04  0.10566000000E+00 0. -1.
        994   -1    0    0    0    0 -0.00000000000E+00 -0.00000000000E+00  0.11368683772E-12  0.17120000000E+03  0.17120000000E+03 0.  0.
         13    1    1    2    0    0 -0.13147004318E+02 -0.54557735664E+00  0.57386423953E+01  0.14355645502E+02  0.10566000000E+00 0. -1.
        994    1    1    2    0    0  0.13469738460E+02  0.24772113687E+01  0.94591938928E+01  0.17200722886E+03  0.17120000000E+03 0.  0.
        998    1    1    2    0    0 -0.32273414201E+00 -0.19316340120E+01  0.14848021600E+04  0.14848371256E+04  0.10000000000E+02 0. -1.
</event>
<event>
 5    1  0.1068111E-008  0.3764636E+03  0.7957747E-01  0.3466703E+00
         13   -1    0    0    0    0  0.00000000000E+00  0.00000000000E+00  0.14999999963E+04  0.15000000000E+04  0.10566000000E+00 0.  1.
        994   -1    0    0    0    0 -0.00000000000E+00 -0.00000000000E+00  0.11368683772E-12  0.17120000000E+03  0.17120000000E+03 0.  0.
         13    1    1    2    0    0 -0.26401786192E+02 -0.44733371139E+02  0.25347274117E+03  0.25874035342E+03  0.10566000000E+00 0.  1.
        994    1    1    2    0    0  0.89522948452E+01  0.10807089831E+02  0.65954696502E+01  0.17190077659E+03  0.17120000000E+03 0.  0.
        998    1    1    2    0    0  0.17449491346E+02  0.33926281308E+02  0.12399317855E+04  0.12405588700E+04  0.10000000000E+02 0.  1.
</event>
<event>
 5    1  0.1068111E-008  0.3838506E+03  0.7957747E-01  0.3434562E+00
         13   -1    0    0    0    0  0.00000000000E+00  0.00000000000E+00  0.14999999963E+04  0.15000000000E+04  0.10566000000E+00 0. -1.
        994   -1    0    0    0    0 -0.00000000000E+00 -0.00000000000E+00  0.11368683772E-12  0.17120000000E+03  0.17120000000E+03 0.  0.
         13    1    1    2    0    0  0.18343171010E+01 -0.13115705648E+02  0.37433078962E+02  0.39706838434E+02  0.10566000000E+00 0. -1.
        994    1    1    2    0    0 -0.35857022648E+01  0.19757461920E+02  0.35340059028E+01  0.17240981341E+03  0.17120000000E+03 0.  0.
        998    1    1    2    0    0  0.17513851639E+01 -0.66417562727E+01  0.14590329114E+04  0.14590833482E+04  0.10000000000E+02 0. -1.
</event>
<event>
 5    1  0.1068111E-008  0.3794043E+03  0.7957747E-01  0.3453757E+00
         13   -1    0    0    0    0  0.00000000000E+00  0.00000000000E+00  0.14999999963E+04  0.15000000000E+04  0.10566000000E+00 0.  1.
        994   -1    0    0    0    0 -0.00000000000E+00 -0.00000000000E+00  0.11368683772E-12  0.17120000000E+03  0.17120000000E+03 0.  0.
         13    1    1    2    0    0 -0.45253107429E+02 -0.18694675959E+02  0.21566583304E+03  0.22115401273E+03  0.10566000000E+00 0.  1.
        994    1    1    2    0    0  0.60105572306E+02  0.87991218620E+01  0.16895000420E+02  0.18244173154E+03  0.17120000000E+03 0.  0.
        998    1    1    2    0    0 -0.14852464877E+02  0.98955540969E+01  0.12674391628E+04  0.12676042557E+04  0.10000000000E+02 0.  1.
</event>
<event>
 5    1  0.1068111E-008  0.3750613E+03  0.7957747E-01  0.3472949E+00
         13   -1    0    0    0    0  0.00000000000E+00  0.00000000000E+00  0.14999999963E+04  0.15000000000E+04  0.10566000000E+00 0. -1.
        994   -1    0    0    0    0 -0.00000000000E+00 -0.00000000000E+00  0.11368683772E-12  0.17120000000E+03  0.17120000000E+03 0.  0.
         13    1    1    2    0    0 -0.18095503187E+00 -0.43659872779E+02  0.14227138078E+03  0.14881993881E+03  0.10566000000E+00 0. -1.
        994    1    1    2    0    0  0.17243236471E+02  0.24448911746E+02  0.96951703572E+01  0.17406468573E+03  0.17120000000E+03 0.  0.
        998    1    1    2    0    0 -0.17062281439E+02  0.19210961033E+02  0.13480334451E+04  0.13483153755E+04  0.10000000000E+02 0. -1.
</event>
<event>
 5    1  0.1068111E-008  0.3809618E+03  0.7957747E-01  0.3446981E+00
         13   -1    0    0    0    0  0.00000000000E+00  0.00000000000E+00  0.14999999963E+04  0.15000000000E+04  0.10566000000E+00 0.  1.
        994   -1    0    0    0    0 -0.00000000000E+00 -0.00000000000E+00  0.11368683772E-12  0.17120000000E+03  0.17120000000E+03 0.  0.
         13    1    1    2    0    0  0.64487059052E+01  0.18189191722E+02  0.49293426724E+02  0.52936618569E+02  0.10566000000E+00 0.  1.
        994    1    1    2    0    0 -0.55395571126E+01 -0.13768063929E+02  0.43827197965E+01  0.17189791887E+03  0.17120000000E+03 0.  0.
        998    1    1    2    0    0 -0.90914879258E+00 -0.44211277933E+01  0.14463238498E+04  0.14463654626E+04  0.10000000000E+02 0.  1.
</event>
<event>
 5    1  0.1068111E-008  0.3686188E+03  0.7957747E-01  0.3502263E+00
         13   -1    0    0    0    0  0.00000000000E+00  0.00000000000E+00  0.14999999963E+04  0.15000000000E+04  0.10566000000E+00 0.  1.
        994   -1    0    0    0    0 -0.00000000000E+00 -0.00000000000E+00  0.11368683772E-12  0.17120000000E+03  0.17120000000E+03 0.  0.
         13    1    1    2    0    0 -0.10637993001E+02  0.10621071283E+03  0.62588894158E+03  0.63492587030E+03  0.10566000000E+00 0.  1.
        994    1    1    2    0    0  0.14527157671E+02 -0.52772100505E+02  0.20474618843E+02  0.18089937236E+03  0.17120000000E+03 0.  0.
        998    1    1    2    0    0 -0.38891646702E+01 -0.53438612326E+02  0.85363643585E+03  0.85537475735E+03  0.10000000000E+02 0. -1.
</event>
<event>
 5    1  0.1068111E-008  0.3767306E+03  0.7957747E-01  0.3465519E+00
         13   -1    0    0    0    0  0.00000000000E+00  0.00000000000E+00  0.14999999963E+04  0.15000000000E+04  0.10566000000E+00 0.  1.
        994   -1    0    0    0    0 -0.00000000000E+00 -0.00000000000E+00  0.11368683772E-12  0.17120000000E+03  0.17120000000E+03 0.  0.
         13    1    1    2    0    0 -0.33891591364E+01 -0.14016712322E+02  0.15427407148E+02  0.21118017883E+02  0.10566000000E+00 0.  1.
        994    1    1    2    0    0 -0.27804723706E+00  0.10522496481E+02  0.61672355294E+01  0.17163413133E+03  0.17120000000E+03 0.  0.
        998    1    1    2    0    0  0.36672063734E+01  0.34942158412E+01  0.14784053536E+04  0.14784478508E+04  0.10000000000E+02 0.  1.
</event>
<event>
 5    1  0.1068111E-008  0.3794441E+03  0.7957747E-01  0.3453582E+00
         13   -1    0    0    0    0  0.00000000000E+00  0.00000000000E+00  0.14999999963E+04  0.15000000000E+04  0.10566000000E+00 0. -1.
        994   -1    0    0    0    0 -0.00000000000E+00 -0.00000000000E+00  0.11368683772E-12  0.17120000000E+03  0.17120000000E+03 0.  0.
         13    1    1    2    0    0  0.46095991023E+02  0.44524111912E+02  0.10819738151E+03  0.12575341530E+03  0.10566000000E+00 0. -1.
        994    1    1    2    0    0 -0.57256893881E+02 -0.55939462284E+02  0.39576022690E+02  0.19308877986E+03  0.17120000000E+03 0.  0.
        998    1    1    2    0    0  0.11160902858E+02  0.11415350372E+02  0.13522265921E+04  0.13523578048E+04  0.10000000000E+02 0. -1.
</event>
<event>
 5    1  0.1068111E-008  0.3857262E+03  0.7957747E-01  0.3426598E+00
         13   -1    0    0    0    0  0.00000000000E+00  0.00000000000E+00  0.14999999963E+04  0.15000000000E+04  0.10566000000E+00 0. -1.
        994   -1    0    0    0    0 -0.00000000000E+00 -0.00000000000E+00  0.11368683772E-12  0.17120000000E+03  0.17120000000E+03 0.  0.
         13    1    1    2    0    0  0.15978058536E+02 -0.58688419456E+01  0.97030544547E+02  0.98512331205E+02  0.10566000000E+00 0. -1.
        994    1    1    2    0    0 -0.34576044457E+02 -0.34051969453E+01  0.52404604130E+01  0.17476842004E+03  0.17120000000E+03 0.  0.
        998    1    1    2    0    0  0.18597985921E+02  0.92740388908E+01  0.13977289913E+04  0.13979192488E+04  0.10000000000E+02 0. -1.
</event>
<event>
 5    1  0.1068111E-008  0.3757186E+03  0.7957747E-01  0.3470015E+00
         13   -1    0    0    0    0  0.00000000000E+00  0.00000000000E+00  0.14999999963E+04  0.15000000000E+04  0.10566000000E+00 0.  1.
        994   -1    0    0    0    0 -0.00000000000E+00 -0.00000000000E+00  0.11368683772E-12  0.17120000000E+03  0.17120000000E+03 0.  0.
         13    1    1    2    0    0 -0.10500505118E+02  0.22343143613E+02  0.48770165675E+02  0.54662756043E+02  0.10566000000E+00 0.  1.
        994    1    1    2    0    0  0.16715211287E+02  0.11486670392E+02  0.77062587875E+01  0.17256931451E+03  0.17120000000E+03 0.  0.
        998    1    1    2    0    0 -0.62147061694E+01 -0.33829814006E+02  0.14435235718E+04  0.14439679294E+04  0.10000000000E+02 0.  1.
</event>
<event>
 5    1  0.1068111E-008  0.3771751E+03  0.7957747E-01  0.3463552E+00
         13   -1    0    0    0    0  0.00000000000E+00  0.00000000000E+00  0.14999999963E+04  0.15000000000E+04  0.10566000000E+00 0.  1.
        994   -1    0    0    0    0 -0.00000000000E+00 -0.00000000000E+00  0.11368683772E-12  0.17120000000E+03  0.17120000000E+03 0.  0.
         13    1    1    2    0    0  0.32170578735E+02  0.18167776369E+02  0.12320654954E+03  0.12862689939E+03  0.10566000000E+00 0.  1.
        994    1    1    2    0    0 -0.52111465771E+02  0.48709309663E+02  0.22933157217E+02  0.18687849371E+03  0.17120000000E+03 0.  0.
        998    1    1    2    0    0  0.19940887035E+02 -0.66877086032E+02  0.13538602895E+04  0.13556946069E+04  0.10000000000E+02 0.  1.
</event>
<event>
 5    1  0.1068111E-008  0.3825239E+03  0.7957747E-01  0.3440242E+00
         13   -1    0    0    0    0  0.00000000000E+00  0.00000000000E+00  0.14999999963E+04  0.15000000000E+04  0.10566000000E+00 0.  1.
        994   -1    0    0    0    0 -0.00000000000E+00 -0.00000000000E+00  0.11368683772E-12  0.17120000000E+03  0.17120000000E+03 0.  0.
         13    1    1    2    0    0 -0.16513859065E+02 -0.15330377116E+02  0.83680041157E+02  0.86660766531E+02  0.10566000000E+00 0.  1.
        994    1    1    2    0    0  0.14306922172E+02  0.18010268348E+02  0.46204258656E+01  0.17280001772E+03  0.17120000000E+03 0.  0.
        998    1    1    2    0    0  0.22069368924E+01 -0.26798912320E+01  0.14116995293E+04  0.14117392158E+04  0.10000000000E+02 0.  1.
</event>
<event>
 5    1  0.1068111E-008  0.3856593E+03  0.7957747E-01  0.3426881E+00
         13   -1    0    0    0    0  0.00000000000E+00  0.00000000000E+00  0.14999999963E+04  0.15000000000E+04  0.10566000000E+00 0.  1.
        994   -1    0    0    0    0 -0.00000000000E+00 -0.00000000000E+00  0.11368683772E-12  0.17120000000E+03  0.17120000000E+03 0.  0.
         13    1    1    2    0    0  0.54375887317E+01 -0.13803870661E+02  0.79121124215E+02  0.80500171910E+02  0.10566000000E+00 0.  1.
        994    1    1    2    0    0 -0.31569527088E+02  0.92420609264E+01  0.48621444104E+01  0.17439934398E+03  0.17120000000E+03 0.  0.
        998    1    1    2    0    0  0.26131938356E+02  0.45618097346E+01  0.14160167277E+04  0.14163004841E+04  0.10000000000E+02 0.  1.
</event>
<event>
 5    1  0.1068111E-008  0.3841680E+03  0.7957747E-01  0.3433208E+00
         13   -1    0    0    0    0  0.00000000000E+00  0.00000000000E+00  0.14999999963E+04  0.15000000000E+04  0.10566000000E+00 0.  1.
        994   -1    0    0    0    0 -0.00000000000E+00 -0.00000000000E+00  0.11368683772E-12  0.17120000000E+03  0.17120000000E+03 0.  0.
         13    1    1    2    0    0  0.16038752293E+02  0.84008928329E+01  0.82003270656E+02  0.83978355174E+02  0.10566000000E+00 0.  1.
        994    1    1    2    0    0 -0.31379286766E+01 -0.10248451958E+02  0.24226760980E+01  0.17155228568E+03  0.17120000000E+03 0.  0.
        998    1    1    2    0    0 -0.12900823616E+02  0.18475591252E+01  0.14155740495E+04  0.14156693591E+04  0.10000000000E+02 0.  1.
</event>
<event>
 5    1  0.1068111E-008  0.4028278E+03  0.7957747E-01  0.3357411E+00
         13   -1    0    0    0    0  0.00000000000E+00  0.00000000000E+00  0.14999999963E+04  0.15000000000E+04  0.10566000000E+00 0. -1.
        994   -1    0    0    0    0 -0.00000000000E+00 -0.00000000000E+00  0.11368683772E-12  0.17120000000E+03  0.17120000000E+03 0.  0.
         13    1    1    2    0    0  0.13555378582E+02  0.68678919285E+02  0.72279837992E+02  0.10062270314E+03  0.10566000000E+00 0. -1.
        994    1    1    2    0    0  0.62593542347E+02 -0.67759417910E+02  0.64051100980E+02  0.20474685296E+03  0.17120000000E+03 0.  0.
        998    1    1    2    0    0 -0.76148920928E+02 -0.91950137496E+00  0.13636690573E+04  0.13658304439E+04  0.10000000000E+02 0. -1.
</event>
<event>
 5    1  0.1068111E-008  0.3825832E+03  0.7957747E-01  0.3439987E+00
         13   -1    0    0    0    0  0.00000000000E+00  0.00000000000E+00  0.14999999963E+04  0.15000000000E+04  0.10566000000E+00 0.  1.
        994   -1    0    0    0    0 -0.00000000000E+00 -0.00000000000E+00  0.11368683772E-12  0.17120000000E+03  0.17120000000E+03 0.  0.
         13    1    1    2    0    0  0.99218035633E+00  0.12054089474E+02  0.25089475963E+02  0.27852799914E+02  0.10566000000E+00 0.  1.
        994    1    1    2    0    0 -0.39466707609E+00 -0.43201791756E+01  0.28971843453E+01  0.17127945991E+03  0.17120000000E+03 0.  0.
        998    1    1    2    0    0 -0.59751328023E+00 -0.77339102982E+01  0.14720133360E+04  0.14720677402E+04  0.10000000000E+02 0.  1.
</event>
<event>
 5    1  0.1068111E-008  0.3835057E+03  0.7957747E-01  0.3436034E+00
         13   -1    0    0    0    0  0.00000000000E+00  0.00000000000E+00  0.14999999963E+04  0.15000000000E+04  0.10566000000E+00 0.  1.
        994   -1    0    0    0    0 -0.00000000000E+00 -0.00000000000E+00  0.11368683772E-12  0.17120000000E+03  0.17120000000E+03 0.  0.
         13    1    1    2    0    0  0.17023062750E+02  0.31539760314E+01  0.67635757058E+02  0.69816466732E+02  0.10566000000E+00 0.  1.
        994    1    1    2    0    0 -0.19962950805E+00  0.16410793669E+02  0.32644588960E+01  0.17201584431E+03  0.17120000000E+03 0.  0.
        998    1    1    2    0    0 -0.16823433242E+02 -0.19564769700E+02  0.14290997803E+04  0.14293676890E+04  0.10000000000E+02 0.  1.
</event>
<event>
 5    1  0.1068111E-008  0.3845477E+03  0.7957747E-01  0.3431593E+00
         13   -1    0    0    0    0  0.00000000000E+00  0.00000000000E+00  0.14999999963E+04  0.15000000000E+04  0.10566000000E+00 0. -1.
        994   -1    0    0    0    0 -0.00000000000E+00 -0.00000000000E+00  0.11368683772E-12  0.17120000000E+03  0.17120000000E+03 0.  0.
         13    1    1    2    0    0 -0.84488909872E+01 -0.56168949115E+01  0.28070225364E+02  0.29847646195E+02  0.10566000000E+00 0. -1.
        994    1    1    2    0    0 -0.15716627106E+02  0.24710495218E+02  0.46845253392E+01  0.17374983660E+03  0.17120000000E+03 0.  0.
        998    1    1    2    0    0  0.24165518093E+02 -0.19093600306E+02  0.14672452456E+04  0.14676025172E+04  0.10000000000E+02 0. -1.
</event>
<event>
 5    1  0.1068111E-008  0.3961386E+03  0.7957747E-01  0.3383764E+00
         13   -1    0    0    0    0  0.00000000000E+00  0.00000000000E+00  0.14999999963E+04  0.15000000000E+04  0.10566000000E+00 0.  1.
        994   -1    0    0    0    0 -0.00000000000E+00 -0.00000000000E+00  0.11368683772E-12  0.17120000000E+03  0.17120000000E+03 0.  0.
         13    1    1    2    0    0 -0.19460904568E+02  0.17145318869E+02  0.23152971626E+01  0.26039595440E+02  0.10566000000E+00 0.  1.
        994    1    1    2    0    0  0.13014437768E+02 -0.15991938849E+02  0.27131374427E+02  0.17455849786E+03  0.17120000000E+03 0.  0.
        998    1    1    2    0    0  0.64464668000E+01 -0.11533800192E+01  0.14705533247E+04  0.14706019067E+04  0.10000000000E+02 0.  1.
</event>
<event>
 5    1  0.1068111E-008  0.3767832E+03  0.7957747E-01  0.3465286E+00
         13   -1    0    0    0    0  0.00000000000E+00  0.00000000000E+00  0.14999999963E+04  0.15000000000E+04  0.10566000000E+00 0.  1.
        994   -1    0    0    0    0 -0.00000000000E+00 -0.00000000000E+00  0.11368683772E-12  0.17120000000E+03  0.17120000000E+03 0.  0.
         13    1    1    2    0    0 -0.90045801374E+01 -0.19835623131E+02  0.37851504742E+02  0.43672439636E+02  0.10566000000E+00 0.  1.
        994    1    1    2    0    0  0.44120321010E+01  0.23515802422E+02  0.77025527862E+01  0.17303533833E+03  0.17120000000E+03 0.  0.
        998    1    1    2    0    0  0.45925480365E+01 -0.36801792910E+01  0.14544459388E+04  0.14544922220E+04  0.10000000000E+02 0.  1.
</event>
<event>
 5    1  0.1068111E-008  0.3832251E+03  0.7957747E-01  0.3437235E+00
         13   -1    0    0    0    0  0.00000000000E+00  0.00000000000E+00  0.14999999963E+04  0.15000000000E+04  0.10566000000E+00 0. -1.
        994   -1    0    0    0    0 -0.00000000000E+00 -0.00000000000E+00  0.11368683772E-12  0.17120000000E+03  0.17120000000E+03 0.  0.
         13    1    1    2    0    0 -0.71318398039E+01 -0.18507122036E+02  0.89793953053E+02  0.91958370331E+02  0.10566000000E+00 0. -1.
        994    1    1    2    0    0 -0.49795752902E+01 -0.97783254948E+01  0.29122949096E+01  0.17157602770E+03  0.17120000000E+03 0.  0.
        998    1    1    2    0    0  0.12111415094E+02  0.28285447531E+02  0.14072937483E+04  0.14076656020E+04  0.10000000000E+02 0. -1.
</event>
<event>
 5    1  0.1068111E-008  0.3839666E+03  0.7957747E-01  0.3434067E+00
         13   -1    0    0    0    0  0.00000000000E+00  0.00000000000E+00  0.14999999963E+04  0.15000000000E+04  0.10566000000E+00 0.  1.
        994   -1    0    0    0    0 -0.00000000000E+00 -0.00000000000E+00  0.11368683772E-12  0.17120000000E+03  0.17120000000E+03 0.  0.
         13    1    1    2    0    0  0.12708263800E+02 -0.14221077709E+02  0.94648074423E+02  0.96550547259E+02  0.10566000000E+00 0.  1.
        994    1    1    2    0    0  0.16685651287E+01 -0.46766827287E+01  0.22254493891E+01  0.17128645042E+03  0.17120000000E+03 0.  0.
        998    1    1    2    0    0 -0.14376828929E+02  0.18897760437E+02  0.14031264725E+04  0.14033630023E+04  0.10000000000E+02 0.  1.
</event>
<event>
 5    1  0.1068111E-008  0.3843966E+03  0.7957747E-01  0.3432235E+00
         13   -1    0    0    0    0  0.00000000000E+00  0.00000000000E+00  0.14999999963E+04  0.15000000000E+04  0.10566000000E+00 0. -1.
        994   -1    0    0    0    0 -0.00000000000E+00 -0.00000000000E+00  0.11368683772E-12  0.17120000000E+03  0.17120000000E+03 0.  0.
         13    1    1    2    0    0 -0.16032467075E+02 -0.83189367993E+01  0.82798981234E+02  0.84746251643E+02  0.10566000000E+00 0. -1.
        994    1    1    2    0    0  0.12009910173E+02  0.78080742768E+01  0.26064597467E+01  0.17181803630E+03  0.17120000000E+03 0.  0.
        998    1    1    2    0    0  0.40225569026E+01  0.51086252254E+00  0.14145945553E+04  0.14146357121E+04  0.10000000000E+02 0. -1.
</event>
<event>
 5    1  0.1068111E-008  0.3063477E+03  0.7957747E-01  0.3851719E+00
         13   -1    0    0    0    0  0.00000000000E+00  0.00000000000E+00  0.14999999963E+04  0.15000000000E+04  0.10566000000E+00 0. -1.
        994   -1    0    0    0    0 -0.00000000000E+00 -0.00000000000E+00  0.11368683772E-12  0.17120000000E+03  0.17120000000E+03 0.  0.
         13    1    1    2    0    0  0.17838600547E+03 -0.28867568561E+02  0.72485199032E+03  0.74703769818E+03  0.10566000000E+00 0. -1.
        994    1    1    2    0    0 -0.15673624063E+03  0.33272059167E+02  0.11075154320E+03  0.25932339534E+03  0.17120000000E+03 0.  0.
        998    1    1    2    0    0 -0.21649764839E+02 -0.44044906063E+01  0.66439646275E+03  0.66483890648E+03  0.10000000000E+02 0.  1.
</event>
<event>
 5    1  0.1068111E-008  0.3835937E+03  0.7957747E-01  0.3435659E+00
         13   -1    0    0    0    0  0.00000000000E+00  0.00000000000E+00  0.14999999963E+04  0.15000000000E+04  0.10566000000E+00 0.  1.
        994   -1    0    0    0    0 -0.00000000000E+00 -0.00000000000E+00  0.11368683772E-12  0.17120000000E+03  0.17120000000E+03 0.  0.
         13    1    1    2    0    0  0.90499923355E+01 -0.80873478981E+01  0.32288600055E+02  0.34494527317E+02  0.10566000000E+00 0.  1.
        994    1    1    2    0    0 -0.25546635513E+01 -0.71411565225E+01  0.25200226073E+01  0.17138644327E+03  0.17120000000E+03 0.  0.
        998    1    1    2    0    0 -0.64953287842E+01  0.15228504421E+02  0.14651913736E+04  0.14653190294E+04  0.10000000000E+02 0.  1.
</event>
<event>
 5    1  0.1068111E-008  0.3810472E+03  0.7957747E-01  0.3446611E+00
         13   -1    0    0    0    0  0.00000000000E+00  0.00000000000E+00  0.14999999963E+04  0.15000000000E+04  0.10566000000E+00 0.  1.
        994   -1    0    0    0    0 -0.00000000000E+00 -0.00000000000E+00  0.11368683772E-12  0.17120000000E+03  0.17120000000E+03 0.  0.
         13    1    1    2    0    0  0.10488399147E+02 -0.11319467819E+02  0.32532921035E+02  0.36007485103E+02  0.10566000000E+00 0.  1.
        994    1    1    2    0    0 -0.76230377552E+01 -0.41434433946E+01  0.38562903733E+01  0.17146308583E+03  0.17120000000E+03 0.  0.
        998    1    1    2    0    0 -0.28653613920E+01  0.15462911213E+02  0.14636107849E+04  0.14637294291E+04  0.10000000000E+02 0.  1.
</event>
<event>
 5    1  0.1068111E-008  0.3754711E+03  0.7957747E-01  0.3471119E+00
         13   -1    0    0    0    0  0.00000000000E+00  0.00000000000E+00  0.14999999963E+04  0.15000000000E+04  0.10566000000E+00 0. -1.
        994   -1    0    0    0    0 -0.00000000000E+00 -0.00000000000E+00  0.11368683772E-12  0.17120000000E+03  0.17120000000E+03 0.  0.
         13    1    1    2    0    0 -0.14046801815E+02 -0.24089853319E+01  0.12809132443E+02  0.19162486518E+02  0.10566000000E+00 0. -1.
        994    1    1    2    0    0  0.14441578012E+02  0.33530418502E+00  0.71455224495E+01  0.17195688441E+03  0.17120000000E+03 0.  0.
        998    1    1    2    0    0 -0.39477619692E+00  0.20736811468E+01  0.14800453414E+04  0.14800806291E+04  0.10000000000E+02 0. -1.
</event>
<event>
 5    1  0.1068111E-008  0.3716984E+03  0.7957747E-01  0.3488122E+00
         13   -1    0    0    0    0  0.00000000000E+00  0.00000000000E+00  0.14999999963E+04  0.15000000000E+04  0.10566000000E+00 0. -1.
        994   -1    0    0    0    0 -0.00000000000E+00 -0.00000000000E+00  0.11368683772E-12  0.17120000000E+03  0.17120000000E+03 0.  0.
         13    1    1    2    0    0  0.48392028860E+02 -0.45548483597E+02  0.35465938574E+03  0.36083201614E+03  0.10566000000E+00 0. -1.
        994    1    1    2    0    0  0.18831350890E+02  0.21349298494E+02  0.11174886662E+02  0.17391012166E+03  0.17120000000E+03 0.  0.
        998    1    1    2    0    0 -0.67223379751E+02  0.24199185102E+02  0.11341657239E+04  0.11364578622E+04  0.10000000000E+02 0. -1.
</event>
<event>
 5    1  0.1068111E-008  0.3844948E+03  0.7957747E-01  0.3431817E+00
         13   -1    0    0    0    0  0.00000000000E+00  0.00000000000E+00  0.14999999963E+04  0.15000000000E+04  0.10566000000E+00 0. -1.
        994   -1    0    0    0    0 -0.00000000000E+00 -0.00000000000E+00  0.11368683772E-12  0.17120000000E+03  0.17120000000E+03 0.  0.
         13    1    1    2    0    0  0.14147484986E+02  0.61912894261E+01  0.62966704269E+02  0.64832865175E+02  0.10566000000E+00 0. -1.
        994    1    1    2    0    0 -0.63020062725E+01 -0.12344129350E+02  0.25141614771E+01  0.17177850221E+03  0.17120000000E+03 0.  0.
        998    1    1    2    0    0 -0.78454787138E+01  0.61528399235E+01  0.14345191305E+04  0.14345886326E+04  0.10000000000E+02 0. -1.
</event>
<event>
 5    1  0.1068111E-008  0.3775589E+03  0.7957747E-01  0.3461857E+00
         13   -1    0    0    0    0  0.00000000000E+00  0.00000000000E+00  0.14999999963E+04  0.15000000000E+04  0.10566000000E+00 0. -1.
        994   -1    0    0    0    0 -0.00000000000E+00 -0.00000000000E+00  0.11368683772E-12  0.17120000000E+03  0.17120000000E+03 0.  0.
         13    1    1    2    0    0  0.19701463817E+02  0.65689717777E+01  0.38527552163E+02  0.43768510444E+02  0.10566000000E+00 0. -1.
        994    1    1    2    0    0 -0.10207128536E+02  0.26064534361E+00  0.57219120747E+01  0.17159963195E+03  0.17120000000E+03 0.  0.
        998    1    1    2    0    0 -0.94943352809E+01 -0.68296171213E+01  0.14557505320E+04  0.14558318576E+04  0.10000000000E+02 0. -1.
</event>
<event>
 5    1  0.1068111E-008  0.3850177E+03  0.7957747E-01  0.3429597E+00
         13   -1    0    0    0    0  0.00000000000E+00  0.00000000000E+00  0.14999999963E+04  0.15000000000E+04  0.10566000000E+00 0. -1.
        994   -1    0    0    0    0 -0.00000000000E+00 -0.00000000000E+00  0.11368683772E-12  0.17120000000E+03  0.17120000000E+03 0.  0.
         13    1    1    2    0    0 -0.96899585460E+01  0.99100639194E+01  0.56204879089E+02  0.57888723090E+02  0.10566000000E+00 0. -1.
        994    1    1    2    0    0  0.12968425727E+02 -0.12735315953E+02  0.27084955664E+01  0.17218346113E+03  0.17120000000E+03 0.  0.
        998    1    1    2    0    0 -0.32784671811E+01  0.28252520332E+01  0.14410866216E+04  0.14411278158E+04  0.10000000000E+02 0. -1.
</event>
<event>
 5    1  0.1068111E-008  0.3851140E+03  0.7957747E-01  0.3429189E+00
         13   -1    0    0    0    0  0.00000000000E+00  0.00000000000E+00  0.14999999963E+04  0.15000000000E+04  0.10566000000E+00 0. -1.
        994   -1    0    0    0    0 -0.00000000000E+00 -0.00000000000E+00  0.11368683772E-12  0.17120000000E+03  0.17120000000E+03 0.  0.
         13    1    1    2    0    0 -0.76246061178E+01 -0.89202056414E+01  0.43861222747E+02  0.45403994451E+02  0.10566000000E+00 0. -1.
        994    1    1    2    0    0  0.39079287902E+01  0.62008693078E+01  0.17502037143E+01  0.17136576642E+03  0.17120000000E+03 0.  0.
        998    1    1    2    0    0  0.37166773276E+01  0.27193363336E+01  0.14543885698E+04  0.14544302391E+04  0.10000000000E+02 0. -1.
</event>
<event>
 5    1  0.1068111E-008  0.3860025E+03  0.7957747E-01  0.3425432E+00
         13   -1    0    0    0    0  0.00000000000E+00  0.00000000000E+00  0.14999999963E+04  0.15000000000E+04  0.10566000000E+00 0. -1.
        994   -1    0    0    0    0 -0.00000000000E+00 -0.00000000000E+00  0.11368683772E-12  0.17120000000E+03  0.17120000000E+03 0.  0.
         13    1    1    2    0    0  0.12224642938E+02 -0.39968389305E-01  0.68310378529E+02  0.69395694904E+02  0.10566000000E+00 0. -1.
        994    1    1    2    0    0 -0.51507247589E+01  0.78248666317E+01  0.14209494639E+01  0.17146200046E+03  0.17120000000E+03 0.  0.
        998    1    1    2    0    0 -0.70739181794E+01 -0.77848982424E+01  0.14302686683E+04  0.14303423046E+04  0.10000000000E+02 0. -1.
</event>
<event>
 5    1  0.1068111E-008  0.3716197E+03  0.7957747E-01  0.3488480E+00
         13   -1    0    0    0    0  0.00000000000E+00  0.00000000000E+00  0.14999999963E+04  0.15000000000E+04  0.10566000000E+00 0. -1.
        994   -1    0    0    0    0 -0.00000000000E+00 -0.00000000000E+00  0.11368683772E-12  0.17120000000E+03  0.17120000000E+03 0.  0.
         13    1    1    2    0    0  0.14245863386E+02 -0.12502524466E+02  0.17466368225E+02  0.25774850623E+02  0.10566000000E+00 0. -1.
        994    1    1    2    0    0 -0.13006159870E+02  0.13686596741E+02  0.96516164826E+01  0.17250819350E+03  0.17120000000E+03 0.  0.
        998    1    1    2    0    0 -0.12397035153E+01 -0.11840722756E+01  0.14728820116E+04  0.14729169559E+04  0.10000000000E+02 0. -1.
</event>
<event>
 5    1  0.1068111E-008  0.3829153E+03  0.7957747E-01  0.3438562E+00
         13   -1    0    0    0    0  0.00000000000E+00  0.00000000000E+00  0.14999999963E+04  0.15000000000E+04  0.10566000000E+00 0. -1.
        994   -1    0    0    0    0 -0.00000000000E+00 -0.00000000000E+00  0.11368683772E-12  0.17120000000E+03  0.17120000000E+03 0.  0.
         13    1    1    2    0    0 -0.14703607209E+02  0.16848310756E+02  0.91926755439E+02  0.94607616870E+02  0.10566000000E+00 0. -1.
        994    1    1    2    0    0  0.10692336270E+02 -0.11568772063E+02  0.34907861437E+01  0.17195868146E+03  0.17120000000E+03 0.  0.
        998    1    1    2    0    0  0.40112709398E+01 -0.52795386931E+01  0.14045824547E+04  0.14046337017E+04  0.10000000000E+02 0. -1.
</event>
<event>
 5    1  0.1068111E-008  0.3824307E+03  0.7957747E-01  0.3440643E+00
         13   -1    0    0    0    0  0.00000000000E+00  0.00000000000E+00  0.14999999963E+04  0.15000000000E+04  0.10566000000E+00 0.  1.
        994   -1    0    0    0    0 -0.00000000000E+00 -0.00000000000E+00  0.11368683772E-12  0.17120000000E+03  0.17120000000E+03 0.  0.
         13    1    1    2    0    0  0.96397005686E+00 -0.26140186887E+02  0.13948052761E+03  0.14191218184E+03  0.10566000000E+00 0.  1.
        994    1    1    2    0    0  0.32596070000E+00 -0.84981904546E+01  0.31510403233E+01  0.17144006109E+03  0.17120000000E+03 0.  0.
        998    1    1    2    0    0 -0.12899307569E+01  0.34638377342E+02  0.13573684283E+04  0.13578477571E+04  0.10000000000E+02 0.  1.
</event>
<event>
 5    1  0.1068111E-008  0.3763855E+03  0.7957747E-01  0.3467049E+00
         13   -1    0    0    0    0  0.00000000000E+00  0.00000000000E+00  0.14999999963E+04  0.15000000000E+04  0.10566000000E+00 0. -1.
        994   -1    0    0    0    0 -0.00000000000E+00 -0.00000000000E+00  0.11368683772E-12  0.17120000000E+03  0.17120000000E+03 0.  0.
         13    1    1    2    0    0 -0.16130152464E+02  0.38234760128E+02  0.15846915803E+03  0.16381258777E+03  0.10566000000E+00 0. -1.
        994    1    1    2    0    0  0.18591125794E+01 -0.48497633346E+01  0.60602499780E+01  0.17138594789E+03  0.17120000000E+03 0.  0.
        998    1    1    2    0    0  0.14271039884E+02 -0.33384996794E+02  0.13354705883E+04  0.13360014643E+04  0.10000000000E+02 0. -1.
</event>
<event>
 5    1  0.1068111E-008  0.3834387E+03  0.7957747E-01  0.3436321E+00
         13   -1    0    0    0    0  0.00000000000E+00  0.00000000000E+00  0.14999999963E+04  0.15000000000E+04  0.10566000000E+00 0.  1.
        994   -1    0    0    0    0 -0.00000000000E+00 -0.00000000000E+00  0.11368683772E-12  0.17120000000E+03  0.17120000000E+03 0.  0.
         13    1    1    2    0    0 -0.12813639888E+01 -0.17924826746E+02  0.73731419898E+02  0.75889885702E+02  0.10566000000E+00 0.  1.
        994    1    1    2    0    0  0.13646501642E+01 -0.66739014399E+01  0.25606740376E+01  0.17135460391E+03  0.17120000000E+03 0.  0.
        998    1    1    2    0    0 -0.83286175357E-01  0.24598728186E+02  0.14237079023E+04  0.14239555104E+04  0.10000000000E+02 0.  1.
</event>
<event>
 5    1  0.1068111E-008  0.3816132E+03  0.7957747E-01  0.3444164E+00
         13   -1    0    0    0    0  0.00000000000E+00  0.00000000000E+00  0.14999999963E+04  0.15000000000E+04  0.10566000000E+00 0.  1.
        994   -1    0    0    0    0 -0.00000000000E+00 -0.00000000000E+00  0.11368683772E-12  0.17120000000E+03  0.17120000000E+03 0.  0.
         13    1    1    2    0    0 -0.11178812855E+02 -0.98283829881E+01  0.32214506959E+02  0.35487301837E+02  0.10566000000E+00 0.  1.
        994    1    1    2    0    0  0.93874994912E+01  0.33045688857E+01  0.36504427260E+01  0.17152787253E+03  0.17120000000E+03 0.  0.
        998    1    1    2    0    0  0.17913133637E+01  0.65238141023E+01  0.14641350466E+04  0.14641848256E+04  0.10000000000E+02 0.  1.
</event>
<event>
 5    1  0.1068111E-008  0.3769292E+03  0.7957747E-01  0.3464639E+00
         13   -1    0    0    0    0  0.00000000000E+00  0.00000000000E+00  0.14999999963E+04  0.15000000000E+04  0.10566000000E+00 0.  1.
        994   -1    0    0    0    0 -0.00000000000E+00 -0.00000000000E+00  0.11368683772E-12  0.17120000000E+03  0.17120000000E+03 0.  0.
         13    1    1    2    0    0  0.20119973360E+02  0.64741783106E+01  0.36529190769E+02  0.42203332274E+02  0.10566000000E+00 0.  1.
        994    1    1    2    0    0 -0.16692230836E+02 -0.75277695416E+01  0.68245488911E+01  0.17231167213E+03  0.17120000000E+03 0.  0.
        998    1    1    2    0    0 -0.34277425231E+01  0.10535912310E+01  0.14566462566E+04  0.14566849956E+04  0.10000000000E+02 0.  1.
</event>
<event>
 5    1  0.1068111E-008  0.3852478E+03  0.7957747E-01  0.3428622E+00
         13   -1    0    0    0    0  0.00000000000E+00  0.00000000000E+00  0.14999999963E+04  0.15000000000E+04  0.10566000000E+00 0.  1.
        994   -1    0    0    0    0 -0.00000000000E+00 -0.00000000000E+00  0.11368683772E-12  0.17120000000E+03  0.17120000000E+03 0.  0.
         13    1    1    2    0    0 -0.55084351643E+01  0.87012646794E+01  0.35326500833E+02  0.36797115241E+02  0.10566000000E+00 0.  1.
        994    1    1    2    0    0  0.27418784414E+01 -0.51055000705E+01  0.16175122880E+01  0.17130569277E+03  0.17120000000E+03 0.  0.
        998    1    1    2    0    0  0.27665567229E+01 -0.35957646089E+01  0.14630559832E+04  0.14630971920E+04  0.10000000000E+02 0.  1.
</event>
<event>
 5    1  0.1068111E-008  0.3848475E+03  0.7957747E-01  0.3430319E+00
         13   -1    0    0    0    0  0.00000000000E+00  0.00000000000E+00  0.14999999963E+04  0.15000000000E+04  0.10566000000E+00 0.  1.
        994   -1    0    0    0    0 -0.00000000000E+00 -0.00000000000E+00  0.11368683772E-12  0.17120000000E+03  0.17120000000E+03 0.  0.
         13    1    1    2    0    0  0.65915203059E+01 -0.22628640601E+02  0.12770766078E+03  0.12986439582E+03  0.10566000000E+00 0.  1.
        994    1    1    2    0    0 -0.64051146331E+01  0.43596364829E+02  0.81207774767E+01  0.17696625539E+03  0.17120000000E+03 0.  0.
        998    1    1    2    0    0 -0.18640567285E+00 -0.20967724228E+02  0.13641715580E+04  0.13643693488E+04  0.10000000000E+02 0.  1.
</event>
<event>
 5    1  0.1068111E-008  0.3814133E+03  0.7957747E-01  0.3445028E+00
         13   -1    0    0    0    0  0.00000000000E+00  0.00000000000E+00  0.14999999963E+04  0.15000000000E+04  0.10566000000E+00 0.  1.
        994   -1    0    0    0    0 -0.00000000000E+00 -0.00000000000E+00  0.11368683772E-12  0.17120000000E+03  0.17120000000E+03 0.  0.
         13    1    1    2    0    0 -0.80108416707E+01  0.68925675990E+01  0.15224051797E+02  0.18532781484E+02  0.10566000000E+00 0.  1.
        994    1    1    2    0    0  0.25575893133E+01  0.45056810835E+01  0.35107239401E+01  0.17131435319E+03  0.17120000000E+03 0.  0.
        998    1    1    2    0    0  0.54532523574E+01 -0.11398248682E+02  0.14812652205E+04  0.14813528653E+04  0.10000000000E+02 0.  1.
</event>
<event>
 5    1  0.1068111E-008  0.3838850E+03  0.7957747E-01  0.3434415E+00
         13   -1    0    0    0    0  0.00000000000E+00  0.00000000000E+00  0.14999999963E+04  0.15000000000E+04  0.10566000000E+00 0.  1.
        994   -1    0    0    0    0 -0.00000000000E+00 -0.00000000000E+00  0.11368683772E-12  0.17120000000E+03  0.17120000000E+03 0.  0.
         13    1    1    2    0    0  0.69882506322E+01  0.11166686725E+02  0.39124731464E+02  0.41283002743E+02  0.10566000000E+00 0.  1.
        994    1    1    2    0    0 -0.44785356009E+01 -0.78583796477E+01  0.24548051785E+01  0.17145634278E+03  0.17120000000E+03 0.  0.
        998    1    1    2    0    0 -0.25097150312E+01 -0.33083070773E+01  0.14584204596E+04  0.14584606545E+04  0.10000000000E+02 0.  1.
</event>
<event>
 5    1  0.1068111E-008  0.3842123E+03  0.7957747E-01  0.3433020E+00
         13   -1    0    0    0    0  0.00000000000E+00  0.00000000000E+00  0.14999999963E+04  0.15000000000E+04  0.10566000000E+00 0.  1.
        994   -1    0    0    0    0 -0.00000000000E+00 -0.00000000000E+00  0.11368683772E-12  0.17120000000E+03  0.17120000000E+03 0.  0.
         13    1    1    2    0    0 -0.10789696558E+02 -0.39965779169E+01  0.32711596616E+02  0.34676359440E+02  0.10566000000E+00 0.  1.
        994    1    1    2    0    0  0.11971671133E+01  0.94574153831E+01  0.23213878591E+01  0.17148091660E+03  0.17120000000E+03 0.  0.
        998    1    1    2    0    0  0.95925294444E+01 -0.54608374663E+01  0.14649670118E+04  0.14650427240E+04  0.10000000000E+02 0.  1.
</event>
<event>
 5    1  0.1068111E-008  0.3806575E+03  0.7957747E-01  0.3448301E+00
         13   -1    0    0    0    0  0.00000000000E+00  0.00000000000E+00  0.14999999963E+04  0.15000000000E+04  0.10566000000E+00 0.  1.
        994   -1    0    0    0    0 -0.00000000000E+00 -0.00000000000E+00  0.11368683772E-12  0.17120000000E+03  0.17120000000E+03 0.  0.
         13    1    1    2    0    0  0.28001981213E+02  0.16642386888E+02  0.15638754373E+03  0.15974402960E+03  0.10566000000E+00 0.  1.
        994    1    1    2    0    0  0.48001753585E+01 -0.10886345017E+02  0.42739218709E+01  0.17166613119E+03  0.17120000000E+03 0.  0.
        998    1    1    2    0    0 -0.32802156571E+02 -0.57560418707E+01  0.13393385307E+04  0.13397898392E+04  0.10000000000E+02 0.  1.
</event>
<event>
 5    1  0.1068111E-008  0.3730709E+03  0.7957747E-01  0.3481895E+00
         13   -1    0    0    0    0  0.00000000000E+00  0.00000000000E+00  0.14999999963E+04  0.15000000000E+04  0.10566000000E+00 0. -1.
        994   -1    0    0    0    0 -0.00000000000E+00 -0.00000000000E+00  0.11368683772E-12  0.17120000000E+03  0.17120000000E+03 0.  0.
         13    1    1    2    0    0  0.38037567753E+02  0.13592471481E+02  0.10354374133E+03  0.11114373295E+03  0.10566000000E+00 0. -1.
        994    1    1    2    0    0 -0.26742504315E+02  0.32845172304E+00  0.10123844571E+02  0.17357189187E+03  0.17120000000E+03 0.  0.
        998    1    1    2    0    0 -0.11295063437E+02 -0.13920923204E+02  0.13863324104E+04  0.13864843752E+04  0.10000000000E+02 0. -1.
</event>
<event>
 5    1  0.1068111E-008  0.3826182E+03  0.7957747E-01  0.3439837E+00
         13   -1    0    0    0    0  0.00000000000E+00  0.00000000000E+00  0.14999999963E+04  0.15000000000E+04  0.10566000000E+00 0. -1.
        994   -1    0    0    0    0 -0.00000000000E+00 -0.00000000000E+00  0.11368683772E-12  0.17120000000E+03  0.17120000000E+03 0.  0.
         13    1    1    2    0    0  0.21845995534E+02 -0.70675199230E+01  0.89183827167E+02  0.92092147064E+02  0.10566000000E+00 0. -1.
        994    1    1    2    0    0 -0.22656650835E+02 -0.13340589339E+01  0.45263453402E+01  0.17275714556E+03  0.17120000000E+03 0.  0.
        998    1    1    2    0    0  0.81065530035E+00  0.84015788569E+01  0.14062898238E+04  0.14063507074E+04  0.10000000000E+02 0. -1.
</event>
<event>
 5    1  0.1068111E-008  0.3827485E+03  0.7957747E-01  0.3439278E+00
         13   -1    0    0    0    0  0.00000000000E+00  0.00000000000E+00  0.14999999963E+04  0.15000000000E+04  0.10566000000E+00 0. -1.
        994   -1    0    0    0    0 -0.00000000000E+00 -0.00000000000E+00  0.11368683772E-12  0.17120000000E+03  0.17120000000E+03 0.  0.
         13    1    1    2    0    0  0.42808005314E+01  0.13810101016E+02  0.36383984484E+02  0.39151623647E+02  0.10566000000E+00 0. -1.
        994    1    1    2    0    0 -0.52904908796E+01 -0.13594760154E+02  0.34574159677E+01  0.17185517310E+03  0.17120000000E+03 0.  0.
        998    1    1    2    0    0  0.10096903482E+01 -0.21534086167E+00  0.14601585958E+04  0.14601932032E+04  0.10000000000E+02 0. -1.
</event>
<event>
 5    1  0.1068111E-008  0.3842780E+03  0.7957747E-01  0.3432740E+00
         13   -1    0    0    0    0  0.00000000000E+00  0.00000000000E+00  0.14999999963E+04  0.15000000000E+04  0.10566000000E+00 0. -1.
        994   -1    0    0    0    0 -0.00000000000E+00 -0.00000000000E+00  0.11368683772E-12  0.17120000000E+03  0.17120000000E+03 0.  0.
         13    1    1    2    0    0 -0.13352576324E+02 -0.17012661217E+02  0.12241814231E+03  0.12431385549E+03  0.10566000000E+00 0. -1.
        994    1    1    2    0    0  0.12317414320E+02  0.72471893907E+00  0.24910561477E+01  0.17166213698E+03  0.17120000000E+03 0.  0.
        998    1    1    2    0    0  0.10351620044E+01  0.16287942278E+02  0.13750907978E+04  0.13752240075E+04  0.10000000000E+02 0. -1.
</event>
<event>
 5    1  0.1068111E-008  0.3785146E+03  0.7957747E-01  0.3457652E+00
         13   -1    0    0    0    0  0.00000000000E+00  0.00000000000E+00  0.14999999963E+04  0.15000000000E+04  0.10566000000E+00 0. -1.
        994   -1    0    0    0    0 -0.00000000000E+00 -0.00000000000E+00  0.11368683772E-12  0.17120000000E+03  0.17120000000E+03 0.  0.
         13    1    1    2    0    0 -0.72322884424E+00 -0.14981896243E+02  0.20851320479E+02  0.25685969025E+02  0.10566000000E+00 0. -1.
        994    1    1    2    0    0 -0.91261819822E+00  0.12725595764E+02  0.54318508496E+01  0.17176064352E+03  0.17120000000E+03 0.  0.
        998    1    1    2    0    0  0.16358470425E+01  0.22563004792E+01  0.14737168250E+04  0.14737533875E+04  0.10000000000E+02 0. -1.
</event>
<event>
 5    1  0.1068111E-008  0.3703584E+03  0.7957747E-01  0.3494245E+00
         13   -1    0    0    0    0  0.00000000000E+00  0.00000000000E+00  0.14999999963E+04  0.15000000000E+04  0.10566000000E+00 0. -1.
        994   -1    0    0    0    0 -0.00000000000E+00 -0.00000000000E+00  0.11368683772E-12  0.17120000000E+03  0.17120000000E+03 0.  0.
         13    1    1    2    0    0  0.62716644227E+01 -0.14026396614E+02  0.86282863763E+01  0.17621920056E+02  0.10566000000E+00 0. -1.
        994    1    1    2    0    0 -0.87639489926E+01  0.23094263288E+02  0.11191778834E+02  0.17333449660E+03  0.17120000000E+03 0.  0.
        998    1    1    2    0    0  0.24922845700E+01 -0.90678666738E+01  0.14801799311E+04  0.14802435833E+04  0.10000000000E+02 0. -1.
</event>
<event>
 5    1  0.1068111E-008  0.3828292E+03  0.7957747E-01  0.3438931E+00
         13   -1    0    0    0    0  0.00000000000E+00  0.00000000000E+00  0.14999999963E+04  0.15000000000E+04  0.10566000000E+00 0.  1.
        994   -1    0    0    0    0 -0.00000000000E+00 -0.00000000000E+00  0.11368683772E-12  0.17120000000E+03  0.17120000000E+03 0.  0.
         13    1    1    2    0    0  0.29696580756E+02 -0.28701145441E+01  0.16758662299E+03  0.17022165501E+03  0.10566000000E+00 0.  1.
        994    1    1    2    0    0 -0.13435953787E+02  0.14598703725E+02  0.40165854606E+01  0.17239263315E+03  0.17120000000E+03 0.  0.
        998    1    1    2    0    0 -0.16260626968E+02 -0.11728589181E+02  0.13283967878E+04  0.13285857118E+04  0.10000000000E+02 0.  1.
</event>
<event>
 5    1  0.1068111E-008  0.3838303E+03  0.7957747E-01  0.3434648E+00
         13   -1    0    0    0    0  0.00000000000E+00  0.00000000000E+00  0.14999999963E+04  0.15000000000E+04  0.10566000000E+00 0.  1.
        994   -1    0    0    0    0 -0.00000000000E+00 -0.00000000000E+00  0.11368683772E-12  0.17120000000E+03  0.17120000000E+03 0.  0.
         13    1    1    2    0    0 -0.16291012892E+02  0.14234331236E+02  0.10426068504E+03  0.10648152372E+03  0.10566000000E+00 0.  1.
        994    1    1    2    0    0  0.12535748745E+02 -0.83255925363E+01  0.29599360271E+01  0.17188560646E+03  0.17120000000E+03 0.  0.
        998    1    1    2    0    0  0.37552641470E+01 -0.59087386996E+01  0.13927793752E+04  0.13928328698E+04  0.10000000000E+02 0.  0.
</event>
<event>
 5    1  0.1068111E-008  0.3798782E+03  0.7957747E-01  0.3451689E+00
         13   -1    0    0    0    0  0.00000000000E+00  0.00000000000E+00  0.14999999963E+04  0.15000000000E+04  0.10566000000E+00 0. -1.
        994   -1    0    0    0    0 -0.00000000000E+00 -0.00000000000E+00  0.11368683772E-12  0.17120000000E+03  0.17120000000E+03 0.  0.
         13    1    1    2    0    0  0.67258478889E+02  0.70714181705E+01  0.12757067803E+03  0.14438835478E+03  0.10566000000E+00 0. -1.
        994    1    1    2    0    0 -0.59182904983E+02 -0.18020463886E+02  0.30256369683E+02  0.18453249380E+03  0.17120000000E+03 0.  0.
        998    1    1    2    0    0 -0.80755739067E+01  0.10949045716E+02  0.13421729486E+04  0.13422791514E+04  0.10000000000E+02 0. -1.
</event>
<event>
 5    1  0.1068111E-008  0.3820733E+03  0.7957747E-01  0.3442180E+00
         13   -1    0    0    0    0  0.00000000000E+00  0.00000000000E+00  0.14999999963E+04  0.15000000000E+04  0.10566000000E+00 0.  1.
        994   -1    0    0    0    0 -0.00000000000E+00 -0.00000000000E+00  0.11368683772E-12  0.17120000000E+03  0.17120000000E+03 0.  0.
         13    1    1    2    0    0 -0.10058750454E+02 -0.25823687761E+01  0.15976650140E+02  0.19055487476E+02  0.10566000000E+00 0.  1.
        994    1    1    2    0    0  0.11255478258E+02  0.56430243735E+01  0.36167216982E+01  0.17170046648E+03  0.17120000000E+03 0.  0.
        998    1    1    2    0    0 -0.11967278032E+01 -0.30606555975E+01  0.14804066244E+04  0.14804440460E+04  0.10000000000E+02 0.  1.
</event>
<event>
 5    1  0.1068111E-008  0.3827438E+03  0.7957747E-01  0.3439298E+00
         13   -1    0    0    0    0  0.00000000000E+00  0.00000000000E+00  0.14999999963E+04  0.15000000000E+04  0.10566000000E+00 0.  1.
        994   -1    0    0    0    0 -0.00000000000E+00 -0.00000000000E+00  0.11368683772E-12  0.17120000000E+03  0.17120000000E+03 0.  0.
         13    1    1    2    0    0  0.95291490166E+01  0.28786025016E+02  0.17631185225E+03  0.17890030834E+03  0.10566000000E+00 0.  1.
        994    1    1    2    0    0  0.25119486755E+01 -0.12220003495E+02  0.32702234548E+01  0.17168509759E+03  0.17120000000E+03 0.  0.
        998    1    1    2    0    0 -0.12041097692E+02 -0.16566021521E+02  0.13204179206E+04  0.13206145941E+04  0.10000000000E+02 0.  1.
</event>
<event>
 5    1  0.1068111E-008  0.3699895E+03  0.7957747E-01  0.3495939E+00
         13   -1    0    0    0    0  0.00000000000E+00  0.00000000000E+00  0.14999999963E+04  0.15000000000E+04  0.10566000000E+00 0. -1.
        994   -1    0    0    0    0 -0.00000000000E+00 -0.00000000000E+00  0.11368683772E-12  0.17120000000E+03  0.17120000000E+03 0.  0.
         13    1    1    2    0    0 -0.14648308249E+02  0.74065104858E+01  0.83215450332E+01  0.18403494449E+02  0.10566000000E+00 0. -1.
        994    1    1    2    0    0 -0.23105268524E+02  0.37353822965E+02  0.17707804574E+02  0.17762929901E+03  0.17120000000E+03 0.  0.
        998    1    1    2    0    0  0.37753576773E+02 -0.44760333450E+02  0.14739706467E+04  0.14751672065E+04  0.10000000000E+02 0. -1.
</event>
<event>
 5    1  0.1068111E-008  0.3765228E+03  0.7957747E-01  0.3466440E+00
         13   -1    0    0    0    0  0.00000000000E+00  0.00000000000E+00  0.14999999963E+04  0.15000000000E+04  0.10566000000E+00 0. -1.
        994   -1    0    0    0    0 -0.00000000000E+00 -0.00000000000E+00  0.11368683772E-12  0.17120000000E+03  0.17120000000E+03 0.  0.
         13    1    1    2    0    0 -0.21617231373E+02 -0.40877389172E+02  0.23707731050E+03  0.24154487773E+03  0.10566000000E+00 0. -1.
        994    1    1    2    0    0 -0.17745461495E+02 -0.35975580556E+01  0.70082955649E+01  0.17229741738E+03  0.17120000000E+03 0.  0.
        998    1    1    2    0    0  0.39362692868E+02  0.44474947228E+02  0.12559143902E+04  0.12573577049E+04  0.10000000000E+02 0. -1.
</event>
<event>
 5    1  0.1068111E-008  0.3782383E+03  0.7957747E-01  0.3458866E+00
         13   -1    0    0    0    0  0.00000000000E+00  0.00000000000E+00  0.14999999963E+04  0.15000000000E+04  0.10566000000E+00 0.  1.
        994   -1    0    0    0    0 -0.00000000000E+00 -0.00000000000E+00  0.11368683772E-12  0.17120000000E+03  0.17120000000E+03 0.  0.
         13    1    1    2    0    0 -0.46474602741E+01 -0.91428406595E+01  0.82035346948E+01  0.13133909085E+02  0.10566000000E+00 0.  1.
        994    1    1    2    0    0  0.62405831713E+01  0.45542913481E+01  0.52258279103E+01  0.17145388804E+03  0.17120000000E+03 0.  0.
        998    1    1    2    0    0 -0.15931228973E+01  0.45885493114E+01  0.14865706337E+04  0.14866122029E+04  0.10000000000E+02 0.  1.
</event>
<event>
 5    1  0.1068111E-008  0.3811564E+03  0.7957747E-01  0.3446139E+00
         13   -1    0    0    0    0  0.00000000000E+00  0.00000000000E+00  0.14999999963E+04  0.15000000000E+04  0.10566000000E+00 0.  1.
        994   -1    0    0    0    0 -0.00000000000E+00 -0.00000000000E+00  0.11368683772E-12  0.17120000000E+03  0.17120000000E+03 0.  0.
         13    1    1    2    0    0 -0.10638246238E+01  0.42247479554E+02  0.24972463008E+03  0.25327531124E+03  0.10566000000E+00 0.  1.
        994    1    1    2    0    0  0.66861619550E+01 -0.24371542157E+02  0.56803547250E+01  0.17314844284E+03  0.17120000000E+03 0.  0.
        998    1    1    2    0    0 -0.56223373312E+01 -0.17875937397E+02  0.12445950115E+04  0.12447762459E+04  0.10000000000E+02 0.  1.
</event>
<event>
 5    1  0.1371439E-008  0.3860812E+03  0.7957747E-01  0.3425100E+00
         13   -1    0    0    0    0  0.00000000000E+00  0.00000000000E+00  0.14999999963E+04  0.15000000000E+04  0.10566000000E+00 0. -1.
        994   -1    0    0    0    0 -0.00000000000E+00 -0.00000000000E+00  0.11368683772E-12  0.17120000000E+03  0.17120000000E+03 0.  0.
         13    1    1    2    0    0  0.91571430334E+01 -0.70744760131E+01  0.51050942370E+02  0.52346073017E+02  0.10566000000E+00 0. -1.
        994    1    1    2    0    0 -0.27268205063E+02  0.25700471640E+02  0.57092458660E+01  0.17534567214E+03  0.17120000000E+03 0.  0.
        998    1    1    2    0    0  0.18111062029E+02 -0.18625995627E+02  0.14432398080E+04  0.14435082548E+04  0.10000000000E+02 0. -1.
</event>
<event>
 5    1  0.1068111E-008  0.3779036E+03  0.7957747E-01  0.3460338E+00
         13   -1    0    0    0    0  0.00000000000E+00  0.00000000000E+00  0.14999999963E+04  0.15000000000E+04  0.10566000000E+00 0. -1.
        994   -1    0    0    0    0 -0.00000000000E+00 -0.00000000000E+00  0.11368683772E-12  0.17120000000E+03  0.17120000000E+03 0.  0.
         13    1    1    2    0    0 -0.21892373640E+02  0.25668939157E+02  0.10651760815E+03  0.11173263834E+03  0.10566000000E+00 0. -1.
        994    1    1    2    0    0  0.12307092950E+02 -0.19390135314E+02  0.69726668467E+01  0.17287423165E+03  0.17120000000E+03 0.  0.
        998    1    1    2    0    0  0.95852806897E+01 -0.62788038429E+01  0.13865097213E+04  0.13865931300E+04  0.10000000000E+02 0. -1.
</event>
<event>
 5    1  0.1068111E-008  0.3833764E+03  0.7957747E-01  0.3436587E+00
         13   -1    0    0    0    0  0.00000000000E+00  0.00000000000E+00  0.14999999963E+04  0.15000000000E+04  0.10566000000E+00 0. -1.
        994   -1    0    0    0    0 -0.00000000000E+00 -0.00000000000E+00  0.11368683772E-12  0.17120000000E+03  0.17120000000E+03 0.  0.
         13    1    1    2    0    0 -0.13423607819E+02  0.19692305916E+02  0.11163462834E+03  0.11415025873E+03  0.10566000000E+00 0. -1.
        994    1    1    2    0    0  0.52272621753E+01 -0.20763245519E+02  0.39554509288E+01  0.17257903183E+03  0.17120000000E+03 0.  0.
        998    1    1    2    0    0  0.81963456434E+01  0.10709396027E+01  0.13844099170E+04  0.13844707094E+04  0.10000000000E+02 0. -1.
</event>
<event>
 5    1  0.1068111E-008  0.3735171E+03  0.7957747E-01  0.3479881E+00
         13   -1    0    0    0    0  0.00000000000E+00  0.00000000000E+00  0.14999999963E+04  0.15000000000E+04  0.10566000000E+00 0.  1.
        994   -1    0    0    0    0 -0.00000000000E+00 -0.00000000000E+00  0.11368683772E-12  0.17120000000E+03  0.17120000000E+03 0.  0.
         13    1    1    2    0    0 -0.54289696088E+02 -0.39138924696E+02  0.28600044024E+03  0.29372689613E+03  0.10566000000E+00 0.  1.
        994    1    1    2    0    0  0.52486606260E+02  0.48981819547E+01  0.16995653368E+02  0.17993645616E+03  0.17120000000E+03 0.  0.
        998    1    1    2    0    0  0.18030898285E+01  0.34240742741E+02  0.11970039027E+04  0.11975366477E+04  0.10000000000E+02 0.  1.
</event>
<event>
 5    1  0.1068111E-008  0.3821961E+03  0.7957747E-01  0.3441652E+00
         13   -1    0    0    0    0  0.00000000000E+00  0.00000000000E+00  0.14999999963E+04  0.15000000000E+04  0.10566000000E+00 0. -1.
        994   -1    0    0    0    0 -0.00000000000E+00 -0.00000000000E+00  0.11368683772E-12  0.17120000000E+03  0.17120000000E+03 0.  0.
         13    1    1    2    0    0 -0.61802289522E+01  0.37368440741E+02  0.20461736040E+03  0.20809341877E+03  0.10566000000E+00 0. -1.
        994    1    1    2    0    0  0.13996045048E+02 -0.37116058529E+02  0.82684662793E+01  0.17592981161E+03  0.17120000000E+03 0.  0.
        998    1    1    2    0    0 -0.78158160954E+01 -0.25238221244E+00  0.12871141696E+04  0.12871767696E+04  0.10000000000E+02 0. -1.
</event>
<event>
 5    1  0.1068111E-008  0.3805248E+03  0.7957747E-01  0.3448877E+00
         13   -1    0    0    0    0  0.00000000000E+00  0.00000000000E+00  0.14999999963E+04  0.15000000000E+04  0.10566000000E+00 0. -1.
        994   -1    0    0    0    0 -0.00000000000E+00 -0.00000000000E+00  0.11368683772E-12  0.17120000000E+03  0.17120000000E+03 0.  0.
         13    1    1    2    0    0  0.14031931380E+02 -0.39667179260E+00  0.22589154611E+02  0.26595742457E+02  0.10566000000E+00 0. -1.
        994    1    1    2    0    0 -0.29269052958E+02  0.49214157681E+01  0.68136941533E+01  0.17388721696E+03  0.17120000000E+03 0.  0.
        998    1    1    2    0    0  0.15237121578E+02 -0.45247439755E+01  0.14705971475E+04  0.14707170406E+04  0.10000000000E+02 0. -1.
</event>
<event>
 5    1  0.1068111E-008  0.3799871E+03  0.7957747E-01  0.3451215E+00
         13   -1    0    0    0    0  0.00000000000E+00  0.00000000000E+00  0.14999999963E+04  0.15000000000E+04  0.10566000000E+00 0. -1.
        994   -1    0    0    0    0 -0.00000000000E+00 -0.00000000000E+00  0.11368683772E-12  0.17120000000E+03  0.17120000000E+03 0.  0.
         13    1    1    2    0    0 -0.10320814856E+02 -0.48824073898E+01  0.15239417852E+02  0.19042272493E+02  0.10566000000E+00 0. -1.
        994    1    1    2    0    0 -0.12060011592E+02 -0.40122527357E+02  0.10030002234E+02  0.17653697071E+03  0.17120000000E+03 0.  0.
        998    1    1    2    0    0  0.22380826448E+02  0.45004934746E+02  0.14747305762E+04  0.14756207568E+04  0.10000000000E+02 0. -1.
</event>
<event>
 5    1  0.1068111E-008  0.3864897E+03  0.7957747E-01  0.3423379E+00
         13   -1    0    0    0    0  0.00000000000E+00  0.00000000000E+00  0.14999999963E+04  0.15000000000E+04  0.10566000000E+00 0.  1.
        994   -1    0    0    0    0 -0.00000000000E+00 -0.00000000000E+00  0.11368683772E-12  0.17120000000E+03  0.17120000000E+03 0.  0.
         13    1    1    2    0    0  0.43098114928E+00 -0.10769261756E+02  0.64726446057E+02  0.65617731802E+02  0.10566000000E+00 0.  1.
        994    1    1    2    0    0  0.16007235297E+02  0.11538507204E+02  0.21677037691E+01  0.17234705588E+03  0.17120000000E+03 0.  0.
        998    1    1    2    0    0 -0.16438216446E+02 -0.76924544749E+00  0.14331058465E+04  0.14332352123E+04  0.10000000000E+02 0.  1.
</event>
<event>
 5    1  0.1068111E-008  0.3831975E+03  0.7957747E-01  0.3437353E+00
         13   -1    0    0    0    0  0.00000000000E+00  0.00000000000E+00  0.14999999963E+04  0.15000000000E+04  0.10566000000E+00 0. -1.
        994   -1    0    0    0    0 -0.00000000000E+00 -0.00000000000E+00  0.11368683772E-12  0.17120000000E+03  0.17120000000E+03 0.  0.
         13    1    1    2    0    0  0.56322277633E+01 -0.12403281643E+02  0.35726182804E+02  0.38235254502E+02  0.10566000000E+00 0. -1.
        994    1    1    2    0    0 -0.64720727283E+01  0.86174492442E+01  0.29120249365E+01  0.17156359767E+03  0.17120000000E+03 0.  0.
        998    1    1    2    0    0  0.83984496501E+00  0.37858323989E+01  0.14613617885E+04  0.14614011478E+04  0.10000000000E+02 0. -1.
</event>
<event>
 5    1  0.1068111E-008  0.3852629E+03  0.7957747E-01  0.3428558E+00
         13   -1    0    0    0    0  0.00000000000E+00  0.00000000000E+00  0.14999999963E+04  0.15000000000E+04  0.10566000000E+00 0.  1.
        994   -1    0    0    0    0 -0.00000000000E+00 -0.00000000000E+00  0.11368683772E-12  0.17120000000E+03  0.17120000000E+03 0.  0.
         13    1    1    2    0    0  0.13735457026E+02  0.73229726037E+01  0.81146543159E+02  0.82626033054E+02  0.10566000000E+00 0.  1.
        994    1    1    2    0    0 -0.91811364178E+01 -0.38228913920E+01  0.18247426500E+01  0.17149833075E+03  0.17120000000E+03 0.  0.
        998    1    1    2    0    0 -0.45543206078E+01 -0.35000812117E+01  0.14170287105E+04  0.14170756362E+04  0.10000000000E+02 0.  1.
</event>
<event>
 5    1  0.1381287E-008  0.3857799E+03  0.7957747E-01  0.3426371E+00
         13   -1    0    0    0    0  0.00000000000E+00  0.00000000000E+00  0.14999999963E+04  0.15000000000E+04  0.10566000000E+00 0.  1.
        994   -1    0    0    0    0 -0.00000000000E+00 -0.00000000000E+00  0.11368683772E-12  0.17120000000E+03  0.17120000000E+03 0.  0.
         13    1    1    2    0    0 -0.10466026441E+02 -0.20548968221E+01  0.45671556390E+02  0.46900560098E+02  0.10566000000E+00 0.  1.
        994    1    1    2    0    0  0.78301182695E+01  0.56504906030E+01  0.15493498232E+01  0.17147909284E+03  0.17120000000E+03 0.  0.
        998    1    1    2    0    0  0.26359081719E+01 -0.35955937810E+01  0.14527790901E+04  0.14528203471E+04  0.10000000000E+02 0.  1.
</event>
<event>
 5    1  0.1068111E-008  0.3805161E+03  0.7957747E-01  0.3448914E+00
         13   -1    0    0    0    0  0.00000000000E+00  0.00000000000E+00  0.14999999963E+04  0.15000000000E+04  0.10566000000E+00 0. -1.
        994   -1    0    0    0    0 -0.00000000000E+00 -0.00000000000E+00  0.11368683772E-12  0.17120000000E+03  0.17120000000E+03 0.  0.
         13    1    1    2    0    0  0.18843008113E+02 -0.16556524583E+02  0.82003710666E+02  0.85754283788E+02  0.10566000000E+00 0. -1.
        994    1    1    2    0    0 -0.76551831665E+01  0.67103505355E+01  0.42187575297E+01  0.17155427290E+03  0.17120000000E+03 0.  0.
        998    1    1    2    0    0 -0.11187824947E+02  0.98461740470E+01  0.14137775281E+04  0.14138914433E+04  0.10000000000E+02 0. -1.
</event>
<event>
 5    1  0.1068111E-008  0.3727309E+03  0.7957747E-01  0.3483434E+00
         13   -1    0    0    0    0  0.00000000000E+00  0.00000000000E+00  0.14999999963E+04  0.15000000000E+04  0.10566000000E+00 0.  1.
        994   -1    0    0    0    0 -0.00000000000E+00 -0.00000000000E+00  0.11368683772E-12  0.17120000000E+03  0.17120000000E+03 0.  0.
         13    1    1    2    0    0 -0.51564895731E+02  0.36868830066E+01  0.15662245580E+03  0.16493373337E+03  0.10566000000E+00 0.  1.
        994    1    1    2    0    0  0.44885364255E+02  0.28895100491E+01  0.14810324623E+02  0.17762835052E+03  0.17120000000E+03 0.  0.
        998    1    1    2    0    0  0.66795314757E+01 -0.65763930558E+01  0.13285672159E+04  0.13286379161E+04  0.10000000000E+02 0.  1.
</event>
<event>
 5    1  0.1068111E-008  0.3748182E+03  0.7957747E-01  0.3474036E+00
         13   -1    0    0    0    0  0.00000000000E+00  0.00000000000E+00  0.14999999963E+04  0.15000000000E+04  0.10566000000E+00 0. -1.
        994   -1    0    0    0    0 -0.00000000000E+00 -0.00000000000E+00  0.11368683772E-12  0.17120000000E+03  0.17120000000E+03 0.  0.
         13    1    1    2    0    0 -0.66218858490E+02 -0.38538277637E+02  0.34554143258E+03  0.35393365035E+03  0.10566000000E+00 0. -1.
        994    1    1    2    0    0  0.75407990152E+02  0.14801944481E+02  0.27131386535E+02  0.18960752800E+03  0.17120000000E+03 0.  0.
        998    1    1    2    0    0 -0.91891316616E+01  0.23736333156E+02  0.11273271772E+04  0.11276588216E+04  0.10000000000E+02 0. -1.
</event>
<event>
 5    1  0.1068111E-008  0.3693906E+03  0.7957747E-01  0.3498696E+00
         13   -1    0    0    0    0  0.00000000000E+00  0.00000000000E+00  0.14999999963E+04  0.15000000000E+04  0.10566000000E+00 0.  1.
        994   -1    0    0    0    0 -0.00000000000E+00 -0.00000000000E+00  0.11368683772E-12  0.17120000000E+03  0.17120000000E+03 0.  0.
         13    1    1    2    0    0 -0.48843183409E+01 -0.36949826821E+02  0.61810153163E+02  0.72177922288E+02  0.10566000000E+00 0.  1.
        994    1    1    2    0    0 -0.57307761138E+02  0.29624383442E+02  0.25279915874E+02  0.18468973368E+03  0.17120000000E+03 0.  0.
        998    1    1    2    0    0  0.62192079479E+02  0.73254433784E+01  0.14129099272E+04  0.14143323440E+04  0.10000000000E+02 0.  1.
</event>
<event>
 5    1  0.1068111E-008  0.3837112E+03  0.7957747E-01  0.3435157E+00
         13   -1    0    0    0    0  0.00000000000E+00  0.00000000000E+00  0.14999999963E+04  0.15000000000E+04  0.10566000000E+00 0.  1.
        994   -1    0    0    0    0 -0.00000000000E+00 -0.00000000000E+00  0.11368683772E-12  0.17120000000E+03  0.17120000000E+03 0.  0.
         13    1    1    2    0    0 -0.18648818093E+02  0.27873479389E+01  0.87675459988E+02  0.89680238475E+02  0.10566000000E+00 0.  1.
        994    1    1    2    0    0 -0.60344970084E+01  0.46642514660E+01  0.24634901186E+01  0.17138751174E+03  0.17120000000E+03 0.  0.
        998    1    1    2    0    0  0.24683315102E+02 -0.74515994049E+01  0.14098610462E+04  0.14101322498E+04  0.10000000000E+02 0.  1.
</event>
<event>
 5    1  0.1068111E-008  0.3818868E+03  0.7957747E-01  0.3442984E+00
         13   -1    0    0    0    0  0.00000000000E+00  0.00000000000E+00  0.14999999963E+04  0.15000000000E+04  0.10566000000E+00 0. -1.
        994   -1    0    0    0    0 -0.00000000000E+00 -0.00000000000E+00  0.11368683772E-12  0.17120000000E+03  0.17120000000E+03 0.  0.
         13    1    1    2    0    0 -0.17547211313E+02  0.23055263808E+02  0.14321755992E+03  0.14611889148E+03  0.10566000000E+00 0. -1.
        994    1    1    2    0    0  0.43279930668E+01 -0.22792442826E+01  0.32631970686E+01  0.17130094843E+03  0.17120000000E+03 0.  0.
        998    1    1    2    0    0  0.13219218246E+02 -0.20776019525E+02  0.13535192393E+04  0.13537801601E+04  0.10000000000E+02 0. -1.
</event>
<event>
 5    1  0.1068111E-008  0.3760785E+03  0.7957747E-01  0.3468414E+00
         13   -1    0    0    0    0  0.00000000000E+00  0.00000000000E+00  0.14999999963E+04  0.15000000000E+04  0.10566000000E+00 0.  1.
        994   -1    0    0    0    0 -0.00000000000E+00 -0.00000000000E+00  0.11368683772E-12  0.17120000000E+03  0.17120000000E+03 0.  0.
         13    1    1    2    0    0 -0.23925554712E+02  0.54466708863E+02  0.26346461864E+03  0.27009752124E+03  0.10566000000E+00 0.  1.
        994    1    1    2    0    0  0.72880530413E+01 -0.47116471586E+02  0.13863721426E+02  0.17825465038E+03  0.17120000000E+03 0.  0.
        998    1    1    2    0    0  0.16637501671E+02 -0.73502372766E+01  0.12226716562E+04  0.12228478284E+04  0.10000000000E+02 0.  1.
</event>
<event>
 5    1  0.1068111E-008  0.3859339E+03  0.7957747E-01  0.3425721E+00
         13   -1    0    0    0    0  0.00000000000E+00  0.00000000000E+00  0.14999999963E+04  0.15000000000E+04  0.10566000000E+00 0. -1.
        994   -1    0    0    0    0 -0.00000000000E+00 -0.00000000000E+00  0.11368683772E-12  0.17120000000E+03  0.17120000000E+03 0.  0.
         13    1    1    2    0    0  0.98468513143E+01 -0.55049747046E+01  0.57196687013E+02  0.58298691209E+02  0.10566000000E+00 0. -1.
        994    1    1    2    0    0 -0.41626766438E+01 -0.27543970786E+01  0.12488532681E+01  0.17127730210E+03  0.17120000000E+03 0.  0.
        998    1    1    2    0    0 -0.56841746704E+01  0.82593717832E+01  0.14415544560E+04  0.14416240067E+04  0.10000000000E+02 0. -1.
</event>
<event>
 5    1  0.1068111E-008  0.3851017E+03  0.7957747E-01  0.3429241E+00
         13   -1    0    0    0    0  0.00000000000E+00  0.00000000000E+00  0.14999999963E+04  0.15000000000E+04  0.10566000000E+00 0. -1.
        994   -1    0    0    0    0 -0.00000000000E+00 -0.00000000000E+00  0.11368683772E-12  0.17120000000E+03  0.17120000000E+03 0.  0.
         13    1    1    2    0    0 -0.22192701926E+03  0.95397474108E+02  0.10645632500E+04  0.10916259453E+04  0.10566000000E+00 0. -1.
        994    1    1    2    0    0  0.23436129551E+03 -0.10210835030E+03  0.25866183019E+03  0.40195362224E+03  0.17120000000E+03 0.  0.
        998    1    1    2    0    0 -0.12434276252E+02  0.67108761922E+01  0.17677491606E+03  0.17762043248E+03  0.10000000000E+02 0.  1.
</event>
<event>
 5    1  0.1068111E-008  0.3694244E+03  0.7957747E-01  0.3498540E+00
         13   -1    0    0    0    0  0.00000000000E+00  0.00000000000E+00  0.14999999963E+04  0.15000000000E+04  0.10566000000E+00 0. -1.
        994   -1    0    0    0    0 -0.00000000000E+00 -0.00000000000E+00  0.11368683772E-12  0.17120000000E+03  0.17120000000E+03 0.  0.
         13    1    1    2    0    0 -0.95870200791E+02 -0.24673007122E+02  0.36652833514E+03  0.37966153914E+03  0.10566000000E+00 0. -1.
        994    1    1    2    0    0  0.94493080660E+02 -0.46678965294E+01  0.42551257432E+02  0.20017687444E+03  0.17120000000E+03 0.  0.
        998    1    1    2    0    0  0.13771201305E+01  0.29340903652E+02  0.10909204037E+04  0.10913615864E+04  0.10000000000E+02 0. -1.
</event>
<event>
 5    1  0.1068111E-008  0.3850788E+03  0.7957747E-01  0.3429338E+00
         13   -1    0    0    0    0  0.00000000000E+00  0.00000000000E+00  0.14999999963E+04  0.15000000000E+04  0.10566000000E+00 0.  1.
        994   -1    0    0    0    0 -0.00000000000E+00 -0.00000000000E+00  0.11368683772E-12  0.17120000000E+03  0.17120000000E+03 0.  0.
         13    1    1    2    0    0  0.19633601872E+02 -0.51131942045E+01  0.12175336021E+03  0.12343222822E+03  0.10566000000E+00 0.  1.
        994    1    1    2    0    0 -0.17989854771E+02  0.95128848425E+01  0.29537897252E+01  0.17243055044E+03  0.17120000000E+03 0.  0.
        998    1    1    2    0    0 -0.16437471017E+01 -0.43996906380E+01  0.13752928463E+04  0.13753372213E+04  0.10000000000E+02 0.  1.
</event>
<event>
 5    1  0.1068111E-008  0.3750067E+03  0.7957747E-01  0.3473193E+00
         13   -1    0    0    0    0  0.00000000000E+00  0.00000000000E+00  0.14999999963E+04  0.15000000000E+04  0.10566000000E+00 0. -1.
        994   -1    0    0    0    0 -0.00000000000E+00 -0.00000000000E+00  0.11368683772E-12  0.17120000000E+03  0.17120000000E+03 0.  0.
         13    1    1    2    0    0 -0.79474856108E+02 -0.42003745328E+02  0.43143354419E+03  0.44069885590E+03  0.10566000000E+00 0. -1.
        994    1    1    2    0    0  0.79988000010E+02  0.37867152265E+02  0.33781498080E+02  0.19565947710E+03  0.17120000000E+03 0.  0.
        998    1    1    2    0    0 -0.51314390262E+00  0.41365930631E+01  0.10347849540E+04  0.10348416670E+04  0.10000000000E+02 0.  0.
</event>
<event>
 5    1  0.1068111E-008  0.3821732E+03  0.7957747E-01  0.3441750E+00
         13   -1    0    0    0    0  0.00000000000E+00  0.00000000000E+00  0.14999999963E+04  0.15000000000E+04  0.10566000000E+00 0.  1.
        994   -1    0    0    0    0 -0.00000000000E+00 -0.00000000000E+00  0.11368683772E-12  0.17120000000E+03  0.17120000000E+03 0.  0.
         13    1    1    2    0    0 -0.19514146253E+02 -0.37994985174E+01  0.63445884274E+02  0.66487814585E+02  0.10566000000E+00 0.  1.
        994    1    1    2    0    0  0.12842747546E+02  0.11008557741E+02  0.39903882099E+01  0.17207988757E+03  0.17120000000E+03 0.  0.
        998    1    1    2    0    0  0.66713987067E+01 -0.72090592235E+01  0.14325637238E+04  0.14326322978E+04  0.10000000000E+02 0.  1.
</event>
<event>
 5    1  0.1303117E-008  0.3863288E+03  0.7957747E-01  0.3424056E+00
         13   -1    0    0    0    0  0.00000000000E+00  0.00000000000E+00  0.14999999963E+04  0.15000000000E+04  0.10566000000E+00 0. -1.
        994   -1    0    0    0    0 -0.00000000000E+00 -0.00000000000E+00  0.11368683772E-12  0.17120000000E+03  0.17120000000E+03 0.  0.
         13    1    1    2    0    0  0.82436557495E+01  0.62570889339E+01  0.56563579145E+02  0.57502684039E+02  0.10566000000E+00 0. -1.
        994    1    1    2    0    0 -0.14222375904E+01 -0.79384450677E+01  0.11848281656E+01  0.17139394822E+03  0.17120000000E+03 0.  0.
        998    1    1    2    0    0 -0.68214181591E+01  0.16813561338E+01  0.14422515890E+04  0.14423033677E+04  0.10000000000E+02 0. -1.
</event>
<event>
 5    1  0.1068111E-008  0.3797029E+03  0.7957747E-01  0.3452453E+00
         13   -1    0    0    0    0  0.00000000000E+00  0.00000000000E+00  0.14999999963E+04  0.15000000000E+04  0.10566000000E+00 0. -1.
        994   -1    0    0    0    0 -0.00000000000E+00 -0.00000000000E+00  0.11368683772E-12  0.17120000000E+03  0.17120000000E+03 0.  0.
         13    1    1    2    0    0  0.33207619473E+02  0.18834323829E+02  0.22505964168E+03  0.22827468371E+03  0.10566000000E+00 0. -1.
        994    1    1    2    0    0  0.19796644463E+02 -0.95051823332E+01  0.58985694361E+01  0.17270347056E+03  0.17120000000E+03 0.  0.
        998    1    1    2    0    0 -0.53004263935E+02 -0.93291414957E+01  0.12690417852E+04  0.12702218457E+04  0.10000000000E+02 0. -1.
</event>
<event>
 5    1  0.1068111E-008  0.3784243E+03  0.7957747E-01  0.3458048E+00
         13   -1    0    0    0    0  0.00000000000E+00  0.00000000000E+00  0.14999999963E+04  0.15000000000E+04  0.10566000000E+00 0. -1.
        994   -1    0    0    0    0 -0.00000000000E+00 -0.00000000000E+00  0.11368683772E-12  0.17120000000E+03  0.17120000000E+03 0.  0.
         13    1    1    2    0    0 -0.41813803538E+02 -0.31831296845E+02  0.22175189959E+03  0.22789370716E+03  0.10566000000E+00 0. -1.
        994    1    1    2    0    0  0.43074377415E+02  0.47092616361E+02  0.18742303261E+02  0.18366771746E+03  0.17120000000E+03 0.  0.
        998    1    1    2    0    0 -0.12605738769E+01 -0.15261319516E+02  0.12595057934E+04  0.12596385754E+04  0.10000000000E+02 0. -1.
</event>
<event>
 5    1  0.1068111E-008  0.3821611E+03  0.7957747E-01  0.3441802E+00
         13   -1    0    0    0    0  0.00000000000E+00  0.00000000000E+00  0.14999999963E+04  0.15000000000E+04  0.10566000000E+00 0. -1.
        994   -1    0    0    0    0 -0.00000000000E+00 -0.00000000000E+00  0.11368683772E-12  0.17120000000E+03  0.17120000000E+03 0.  0.
         13    1    1    2    0    0  0.20023704750E+02 -0.95849064249E+01  0.87645955965E+02  0.90413737585E+02  0.10566000000E+00 0. -1.
        994    1    1    2    0    0  0.48632618659E+01  0.42238376190E+01  0.31839141277E+01  0.17135072054E+03  0.17120000000E+03 0.  0.
        998    1    1    2    0    0 -0.24886966616E+02  0.53610688058E+01  0.14091701262E+04  0.14094355419E+04  0.10000000000E+02 0. -1.
</event>
<event>
 5    1  0.1068111E-008  0.3785600E+03  0.7957747E-01  0.3457453E+00
         13   -1    0    0    0    0  0.00000000000E+00  0.00000000000E+00  0.14999999963E+04  0.15000000000E+04  0.10566000000E+00 0.  1.
        994   -1    0    0    0    0 -0.00000000000E+00 -0.00000000000E+00  0.11368683772E-12  0.17120000000E+03  0.17120000000E+03 0.  0.
         13    1    1    2    0    0  0.22437358243E+02 -0.50323641441E+02  0.27827623299E+03  0.28367865084E+03  0.10566000000E+00 0.  1.
        994    1    1    2    0    0 -0.12294877134E+02  0.43678551963E+02  0.11809068985E+02  0.17750457463E+03  0.17120000000E+03 0.  0.
        998    1    1    2    0    0 -0.10142481109E+02  0.66450894779E+01  0.12099146943E+04  0.12100167745E+04  0.10000000000E+02 0.  1.
</event>
<event>
 5    1  0.1068111E-008  0.3832156E+03  0.7957747E-01  0.3437275E+00
         13   -1    0    0    0    0  0.00000000000E+00  0.00000000000E+00  0.14999999963E+04  0.15000000000E+04  0.10566000000E+00 0.  1.
        994   -1    0    0    0    0 -0.00000000000E+00 -0.00000000000E+00  0.11368683772E-12  0.17120000000E+03  0.17120000000E+03 0.  0.
         13    1    1    2    0    0 -0.13650803489E+02 -0.23657344462E+02  0.12947167689E+03  0.13232135378E+03  0.10566000000E+00 0.  1.
        994    1    1    2    0    0  0.19149181580E+02  0.28840465643E+02  0.64930202328E+01  0.17478576294E+03  0.17120000000E+03 0.  0.
        998    1    1    2    0    0 -0.54983780911E+01 -0.51831211804E+01  0.13640352992E+04  0.13640928833E+04  0.10000000000E+02 0.  1.
</event>
<event>
 5    1  0.1068111E-008  0.3750699E+03  0.7957747E-01  0.3472910E+00
         13   -1    0    0    0    0  0.00000000000E+00  0.00000000000E+00  0.14999999963E+04  0.15000000000E+04  0.10566000000E+00 0.  1.
        994   -1    0    0    0    0 -0.00000000000E+00 -0.00000000000E+00  0.11368683772E-12  0.17120000000E+03  0.17120000000E+03 0.  0.
         13    1    1    2    0    0  0.17386794333E+03 -0.10725922838E+03  0.94971088290E+03  0.97143469984E+03  0.10566000000E+00 0.  1.
        994    1    1    2    0    0 -0.18544125282E+03  0.84853220622E+02  0.16441370117E+03  0.31293742574E+03  0.17120000000E+03 0.  0.
        998    1    1    2    0    0  0.11573309494E+02  0.22406007758E+02  0.38587541222E+03  0.38682787442E+03  0.10000000000E+02 0.  1.
</event>
<event>
 5    1  0.1068111E-008  0.3789737E+03  0.7957747E-01  0.3455639E+00
         13   -1    0    0    0    0  0.00000000000E+00  0.00000000000E+00  0.14999999963E+04  0.15000000000E+04  0.10566000000E+00 0. -1.
        994   -1    0    0    0    0 -0.00000000000E+00 -0.00000000000E+00  0.11368683772E-12  0.17120000000E+03  0.17120000000E+03 0.  0.
         13    1    1    2    0    0  0.12939365889E+01 -0.15783844257E+02  0.25667466339E+02  0.30160139318E+02  0.10566000000E+00 0. -1.
        994    1    1    2    0    0 -0.51765905551E+01  0.17164284747E+01  0.47518936344E+01  0.17135274643E+03  0.17120000000E+03 0.  0.
        998    1    1    2    0    0  0.38826539662E+01  0.14067415782E+02  0.14695806363E+04  0.14696871143E+04  0.10000000000E+02 0. -1.
</event>
<event>
 5    1  0.1068111E-008  0.3723223E+03  0.7957747E-01  0.3485286E+00
         13   -1    0    0    0    0  0.00000000000E+00  0.00000000000E+00  0.14999999963E+04  0.15000000000E+04  0.10566000000E+00 0. -1.
        994   -1    0    0    0    0 -0.00000000000E+00 -0.00000000000E+00  0.11368683772E-12  0.17120000000E+03  0.17120000000E+03 0.  0.
         13    1    1    2    0    0 -0.35049518008E+02 -0.49299903833E+02  0.28658150401E+03  0.29289574738E+03  0.10566000000E+00 0. -1.
        994    1    1    2    0    0  0.15014906921E+02 -0.10089522105E+02  0.91835795546E+01  0.17239786547E+03  0.17120000000E+03 0.  0.
        998    1    1    2    0    0  0.20034611087E+02  0.59389425938E+02  0.12042349127E+04  0.12059063871E+04  0.10000000000E+02 0. -1.
</event>
<event>
 5    1  0.1068111E-008  0.3735741E+03  0.7957747E-01  0.3479625E+00
         13   -1    0    0    0    0  0.00000000000E+00  0.00000000000E+00  0.14999999963E+04  0.15000000000E+04  0.10566000000E+00 0. -1.
        994   -1    0    0    0    0 -0.00000000000E+00 -0.00000000000E+00  0.11368683772E-12  0.17120000000E+03  0.17120000000E+03 0.  0.
         13    1    1    2    0    0  0.66448563382E+01 -0.84719084568E+01  0.43327529198E+01  0.11606518020E+02  0.10566000000E+00 0. -1.
        994    1    1    2    0    0 -0.79254384926E+01  0.98873350957E+01  0.79614275005E+01  0.17185283326E+03  0.17120000000E+03 0.  0.
        998    1    1    2    0    0  0.12805821544E+01 -0.14154266388E+01  0.14877058159E+04  0.14877406487E+04  0.10000000000E+02 0. -1.
</event>
<event>
 5    1  0.1068111E-008  0.3841751E+03  0.7957747E-01  0.3433178E+00
         13   -1    0    0    0    0  0.00000000000E+00  0.00000000000E+00  0.14999999963E+04  0.15000000000E+04  0.10566000000E+00 0. -1.
        994   -1    0    0    0    0 -0.00000000000E+00 -0.00000000000E+00  0.11368683772E-12  0.17120000000E+03  0.17120000000E+03 0.  0.
         13    1    1    2    0    0  0.15655057056E+02 -0.32695579982E+02  0.24353646240E+02  0.43671420987E+02  0.10566000000E+00 0. -1.
        994    1    1    2    0    0 -0.56620680514E+02  0.58488067847E+02  0.43456107531E+02  0.19448554914E+03  0.17120000000E+03 0.  0.
        998    1    1    2    0    0  0.40965623458E+02 -0.25792487866E+02  0.14321902425E+04  0.14330430299E+04  0.10000000000E+02 0. -1.
</event>
<event>
 5    1  0.1068111E-008  0.3738947E+03  0.7957747E-01  0.3478181E+00
         13   -1    0    0    0    0  0.00000000000E+00  0.00000000000E+00  0.14999999963E+04  0.15000000000E+04  0.10566000000E+00 0.  1.
        994   -1    0    0    0    0 -0.00000000000E+00 -0.00000000000E+00  0.11368683772E-12  0.17120000000E+03  0.17120000000E+03 0.  0.
         13    1    1    2    0    0  0.25512602825E+02 -0.60689985736E+02  0.38199261446E+03  0.38762422000E+03  0.10566000000E+00 0.  1.
        994    1    1    2    0    0 -0.10082270487E+02  0.57672869254E+01  0.77078474970E+01  0.17176659946E+03  0.17120000000E+03 0.  0.
        998    1    1    2    0    0 -0.15430332337E+02  0.54922698810E+02  0.11102995343E+04  0.11118091805E+04  0.10000000000E+02 0.  1.
</event>
<event>
 5    1  0.1068111E-008  0.3740379E+03  0.7957747E-01  0.3477537E+00
         13   -1    0    0    0    0  0.00000000000E+00  0.00000000000E+00  0.14999999963E+04  0.15000000000E+04  0.10566000000E+00 0.  1.
        994   -1    0    0    0    0 -0.00000000000E+00 -0.00000000000E+00  0.11368683772E-12  0.17120000000E+03  0.17120000000E+03 0.  0.
         13    1    1    2    0    0  0.42427310964E+02  0.15349188552E+02  0.13323043824E+03  0.14066284208E+03  0.10566000000E+00 0.  1.
        994    1    1    2    0    0 -0.34651563391E+02 -0.12103821400E+02  0.11781926963E+02  0.17548643008E+03  0.17120000000E+03 0.  0.
        998    1    1    2    0    0 -0.77757475727E+01 -0.32453671524E+01  0.13549876311E+04  0.13550507278E+04  0.10000000000E+02 0.  1.
</event>
<event>
 5    1  0.1068111E-008  0.3731506E+03  0.7957747E-01  0.3481535E+00
         13   -1    0    0    0    0  0.00000000000E+00  0.00000000000E+00  0.14999999963E+04  0.15000000000E+04  0.10566000000E+00 0.  1.
        994   -1    0    0    0    0 -0.00000000000E+00 -0.00000000000E+00  0.11368683772E-12  0.17120000000E+03  0.17120000000E+03 0.  0.
         13    1    1    2    0    0  0.61821745170E+02 -0.15813239637E+00  0.15077498558E+03  0.16295723557E+03  0.10566000000E+00 0.  1.
        994    1    1    2    0    0 -0.32679445288E+02  0.15097645495E+01  0.16407158407E+02  0.17506815924E+03  0.17120000000E+03 0.  0.
        998    1    1    2    0    0 -0.29142299882E+02 -0.13516321531E+01  0.13328178523E+04  0.13331746052E+04  0.10000000000E+02 0.  1.
</event>
<event>
 5    1  0.1068111E-008  0.3831612E+03  0.7957747E-01  0.3437508E+00
         13   -1    0    0    0    0  0.00000000000E+00  0.00000000000E+00  0.14999999963E+04  0.15000000000E+04  0.10566000000E+00 0.  1.
        994   -1    0    0    0    0 -0.00000000000E+00 -0.00000000000E+00  0.11368683772E-12  0.17120000000E+03  0.17120000000E+03 0.  0.
         13    1    1    2    0    0  0.10778167871E+02 -0.12879775198E+01  0.21916321761E+02  0.24457393816E+02  0.10566000000E+00 0.  1.
        994    1    1    2    0    0 -0.12015421587E+02  0.24278028947E+00  0.30237861091E+01  0.17164793206E+03  0.17120000000E+03 0.  0.
        998    1    1    2    0    0  0.12372537162E+01  0.10451972303E+01  0.14750598884E+04  0.14750946741E+04  0.10000000000E+02 0.  1.
</event>
<event>
 5    1  0.1068111E-008  0.3830447E+03  0.7957747E-01  0.3438007E+00
         13   -1    0    0    0    0  0.00000000000E+00  0.00000000000E+00  0.14999999963E+04  0.15000000000E+04  0.10566000000E+00 0.  1.
        994   -1    0    0    0    0 -0.00000000000E+00 -0.00000000000E+00  0.11368683772E-12  0.17120000000E+03  0.17120000000E+03 0.  0.
         13    1    1    2    0    0  0.61281576835E+01  0.13694753378E+02  0.41402971376E+02  0.44037686014E+02  0.10566000000E+00 0.  1.
        994    1    1    2    0    0 -0.81661607238E+01 -0.13697589699E+02  0.34461539416E+01  0.17197565561E+03  0.17120000000E+03 0.  0.
        998    1    1    2    0    0  0.20380030402E+01  0.28363204706E-02  0.14551508710E+04  0.14551866584E+04  0.10000000000E+02 0.  1.
</event>
<event>
 5    1  0.1068111E-008  0.3849074E+03  0.7957747E-01  0.3430065E+00
         13   -1    0    0    0    0  0.00000000000E+00  0.00000000000E+00  0.14999999963E+04  0.15000000000E+04  0.10566000000E+00 0. -1.
        994   -1    0    0    0    0 -0.00000000000E+00 -0.00000000000E+00  0.11368683772E-12  0.17120000000E+03  0.17120000000E+03 0.  0.
         13    1    1    2    0    0 -0.13196450922E+03  0.17945359617E+03  0.11409723049E+04  0.11625128114E+04  0.10566000000E+00 0. -1.
        994    1    1    2    0    0  0.13086890899E+03 -0.18968581208E+03  0.20205467574E+03  0.35105969668E+03  0.17120000000E+03 0.  0.
        998    1    1    2    0    0  0.10956002286E+01  0.10232215901E+02  0.15697301563E+03  0.15762749195E+03  0.10000000000E+02 0.  0.
</event>
<event>
 5    1  0.1068111E-008  0.3847368E+03  0.7957747E-01  0.3430789E+00
         13   -1    0    0    0    0  0.00000000000E+00  0.00000000000E+00  0.14999999963E+04  0.15000000000E+04  0.10566000000E+00 0.  1.
        994   -1    0    0    0    0 -0.00000000000E+00 -0.00000000000E+00  0.11368683772E-12  0.17120000000E+03  0.17120000000E+03 0.  0.
         13    1    1    2    0    0  0.43882901224E+01  0.12243983855E+02  0.43879992884E+02  0.45767206277E+02  0.10566000000E+00 0.  1.
        994    1    1    2    0    0 -0.17194575862E+02 -0.21483374148E+02  0.42570865598E+01  0.17344956497E+03  0.17120000000E+03 0.  0.
        998    1    1    2    0    0  0.12806285739E+02  0.92393902931E+01  0.14518629168E+04  0.14519832287E+04  0.10000000000E+02 0.  1.
</event>
<event>
 5    1  0.1068111E-008  0.3816141E+03  0.7957747E-01  0.3444160E+00
         13   -1    0    0    0    0  0.00000000000E+00  0.00000000000E+00  0.14999999963E+04  0.15000000000E+04  0.10566000000E+00 0.  1.
        994   -1    0    0    0    0 -0.00000000000E+00 -0.00000000000E+00  0.11368683772E-12  0.17120000000E+03  0.17120000000E+03 0.  0.
         13    1    1    2    0    0  0.17433990563E+01  0.20017552343E+02  0.59276745764E+02  0.62589820214E+02  0.10566000000E+00 0.  1.
        994    1    1    2    0    0  0.34175890631E+02 -0.18103708625E+02  0.83101870822E+01  0.17571065698E+03  0.17120000000E+03 0.  0.
        998    1    1    2    0    0 -0.35919289687E+02 -0.19138437177E+01  0.14324130634E+04  0.14328995228E+04  0.10000000000E+02 0.  1.
</event>
<event>
 5    1  0.1068111E-008  0.3830923E+03  0.7957747E-01  0.3437803E+00
         13   -1    0    0    0    0  0.00000000000E+00  0.00000000000E+00  0.14999999963E+04  0.15000000000E+04  0.10566000000E+00 0.  1.
        994   -1    0    0    0    0 -0.00000000000E+00 -0.00000000000E+00  0.11368683772E-12  0.17120000000E+03  0.17120000000E+03 0.  0.
         13    1    1    2    0    0 -0.83184922653E+01  0.12276789093E+02  0.45566650523E+02  0.47919178498E+02  0.10566000000E+00 0.  1.
        994    1    1    2    0    0 -0.12757482398E+02  0.28410351014E+01  0.31457211254E+01  0.17172699380E+03  0.17120000000E+03 0.  0.
        998    1    1    2    0    0  0.21075974664E+02 -0.15117824194E+02  0.14512876246E+04  0.14515538277E+04  0.10000000000E+02 0.  1.
</event>
<event>
 5    1  0.1068111E-008  0.3819904E+03  0.7957747E-01  0.3442537E+00
         13   -1    0    0    0    0  0.00000000000E+00  0.00000000000E+00  0.14999999963E+04  0.15000000000E+04  0.10566000000E+00 0.  1.
        994   -1    0    0    0    0 -0.00000000000E+00 -0.00000000000E+00  0.11368683772E-12  0.17120000000E+03  0.17120000000E+03 0.  0.
         13    1    1    2    0    0 -0.26292310603E+02  0.32215043784E+01  0.12688900783E+03  0.12962443890E+03  0.10566000000E+00 0.  1.
        994    1    1    2    0    0 -0.26959269983E+01  0.90007113926E+01  0.34250025059E+01  0.17149184083E+03  0.17120000000E+03 0.  0.
        998    1    1    2    0    0  0.28988237601E+02 -0.12222215771E+02  0.13696859859E+04  0.13700837203E+04  0.10000000000E+02 0.  1.
</event>
<event>
 5    1  0.1068111E-008  0.3693828E+03  0.7957747E-01  0.3498732E+00
         13   -1    0    0    0    0  0.00000000000E+00  0.00000000000E+00  0.14999999963E+04  0.15000000000E+04  0.10566000000E+00 0.  1.
        994   -1    0    0    0    0 -0.00000000000E+00 -0.00000000000E+00  0.11368683772E-12  0.17120000000E+03  0.17120000000E+03 0.  0.
         13    1    1    2    0    0  0.86205200255E+02  0.21200194615E+02  0.27518297718E+03  0.28914782879E+03  0.10566000000E+00 0.  1.
        994    1    1    2    0    0 -0.97398187724E+02 -0.30126902851E+02  0.47806395482E+02  0.20491200232E+03  0.17120000000E+03 0.  0.
        998    1    1    2    0    0  0.11192987469E+02  0.89267082361E+01  0.11770106236E+04  0.11771401689E+04  0.10000000000E+02 0.  1.
</event>
<event>
 5    1  0.1068111E-008  0.3700118E+03  0.7957747E-01  0.3495836E+00
         13   -1    0    0    0    0  0.00000000000E+00  0.00000000000E+00  0.14999999963E+04  0.15000000000E+04  0.10566000000E+00 0.  1.
        994   -1    0    0    0    0 -0.00000000000E+00 -0.00000000000E+00  0.11368683772E-12  0.17120000000E+03  0.17120000000E+03 0.  0.
         13    1    1    2    0    0  0.67484610945E+02  0.86431430083E+01  0.24174612791E+03  0.25113756820E+03  0.10566000000E+00 0.  1.
        994    1    1    2    0    0 -0.13197768694E+02  0.21608775854E+01  0.11570594617E+02  0.17211092107E+03  0.17120000000E+03 0.  0.
        998    1    1    2    0    0 -0.54286842251E+02 -0.10804020594E+02  0.12466832738E+04  0.12479515107E+04  0.10000000000E+02 0.  1.
</event>
<event>
 5    1  0.1068111E-008  0.3767768E+03  0.7957747E-01  0.3465314E+00
         13   -1    0    0    0    0  0.00000000000E+00  0.00000000000E+00  0.14999999963E+04  0.15000000000E+04  0.10566000000E+00 0.  1.
        994   -1    0    0    0    0 -0.00000000000E+00 -0.00000000000E+00  0.11368683772E-12  0.17120000000E+03  0.17120000000E+03 0.  0.
         13    1    1    2    0    0  0.59364026331E+02  0.19961433788E+01  0.30432183148E+03  0.31006428445E+03  0.10566000000E+00 0.  1.
        994    1    1    2    0    0 -0.33446488663E+02 -0.12955079061E+02  0.10128461609E+02  0.17520995238E+03  0.17120000000E+03 0.  0.
        998    1    1    2    0    0 -0.25917537668E+02  0.10958935682E+02  0.11855497032E+04  0.11859257632E+04  0.10000000000E+02 0.  1.
</event>
<event>
 5    1  0.1068111E-008  0.3798062E+03  0.7957747E-01  0.3452003E+00
         13   -1    0    0    0    0  0.00000000000E+00  0.00000000000E+00  0.14999999963E+04  0.15000000000E+04  0.10566000000E+00 0.  1.
        994   -1    0    0    0    0 -0.00000000000E+00 -0.00000000000E+00  0.11368683772E-12  0.17120000000E+03  0.17120000000E+03 0.  0.
         13    1    1    2    0    0  0.11217062410E+02 -0.68798040186E+01  0.19311077216E+02  0.23368420138E+02  0.10566000000E+00 0.  1.
        994    1    1    2    0    0  0.21735524243E+01 -0.26680854870E+01  0.42706282012E+01  0.17128783166E+03  0.17120000000E+03 0.  0.
        998    1    1    2    0    0 -0.13390614834E+02  0.95478895056E+01  0.14764182909E+04  0.14765437482E+04  0.10000000000E+02 0.  1.
</event>
<event>
 5    1  0.1068111E-008  0.3840810E+03  0.7957747E-01  0.3433579E+00
         13   -1    0    0    0    0  0.00000000000E+00  0.00000000000E+00  0.14999999963E+04  0.15000000000E+04  0.10566000000E+00 0.  1.
        994   -1    0    0    0    0 -0.00000000000E+00 -0.00000000000E+00  0.11368683772E-12  0.17120000000E+03  0.17120000000E+03 0.  0.
         13    1    1    2    0    0 -0.71763578894E+01  0.15528660204E+02  0.66760625910E+02  0.68917572043E+02  0.10566000000E+00 0.  1.
        994    1    1    2    0    0  0.12926808576E+02 -0.14677734651E+02  0.33498889727E+01  0.17234616338E+03  0.17120000000E+03 0.  0.
        998    1    1    2    0    0 -0.57504506863E+01 -0.85092555310E+00  0.14298894814E+04  0.14299362646E+04  0.10000000000E+02 0.  1.
</event>
<event>
 5    1  0.1068111E-008  0.3777063E+03  0.7957747E-01  0.3461207E+00
         13   -1    0    0    0    0  0.00000000000E+00  0.00000000000E+00  0.14999999963E+04  0.15000000000E+04  0.10566000000E+00 0. -1.
        994   -1    0    0    0    0 -0.00000000000E+00 -0.00000000000E+00  0.11368683772E-12  0.17120000000E+03  0.17120000000E+03 0.  0.
         13    1    1    2    0    0 -0.93066991684E+02  0.28419035511E+02  0.55433895023E+03  0.56281505793E+03  0.10566000000E+00 0. -1.
        994    1    1    2    0    0  0.90393587511E+02 -0.36877237289E+02  0.38103911794E+02  0.20072936852E+03  0.17120000000E+03 0.  0.
        998    1    1    2    0    0  0.26734041730E+01  0.84582017780E+01  0.90755713425E+03  0.90765557355E+03  0.10000000000E+02 0. -1.
</event>
<event>
 5    1  0.1068111E-008  0.3830954E+03  0.7957747E-01  0.3437790E+00
         13   -1    0    0    0    0  0.00000000000E+00  0.00000000000E+00  0.14999999963E+04  0.15000000000E+04  0.10566000000E+00 0. -1.
        994   -1    0    0    0    0 -0.00000000000E+00 -0.00000000000E+00  0.11368683772E-12  0.17120000000E+03  0.17120000000E+03 0.  0.
         13    1    1    2    0    0 -0.38908731093E+01 -0.13882663359E+02  0.45928398988E+02  0.48138303181E+02  0.10566000000E+00 0. -1.
        994    1    1    2    0    0 -0.43559779439E+02 -0.11908136234E+02  0.93562524466E+01  0.17730267215E+03  0.17120000000E+03 0.  0.
        998    1    1    2    0    0  0.47450652548E+02  0.25790799593E+02  0.14447153448E+04  0.14457590247E+04  0.10000000000E+02 0. -1.
</event>
<event>
 5    1  0.1068111E-008  0.3775915E+03  0.7957747E-01  0.3461713E+00
         13   -1    0    0    0    0  0.00000000000E+00  0.00000000000E+00  0.14999999963E+04  0.15000000000E+04  0.10566000000E+00 0. -1.
        994   -1    0    0    0    0 -0.00000000000E+00 -0.00000000000E+00  0.11368683772E-12  0.17120000000E+03  0.17120000000E+03 0.  0.
         13    1    1    2    0    0  0.81296603930E+02 -0.64121955533E+02  0.60509794867E+03  0.61389274441E+03  0.10566000000E+00 0. -1.
        994    1    1    2    0    0 -0.79386375758E+02  0.62069757985E+02  0.40375646451E+02  0.20271774550E+03  0.17120000000E+03 0.  0.
        998    1    1    2    0    0 -0.19102281718E+01  0.20521975475E+01  0.85452640115E+03  0.85458951009E+03  0.10000000000E+02 0.  0.
</event>
<event>
 5    1  0.1068111E-008  0.3939996E+03  0.7957747E-01  0.3392378E+00
         13   -1    0    0    0    0  0.00000000000E+00  0.00000000000E+00  0.14999999963E+04  0.15000000000E+04  0.10566000000E+00 0. -1.
        994   -1    0    0    0    0 -0.00000000000E+00 -0.00000000000E+00  0.11368683772E-12  0.17120000000E+03  0.17120000000E+03 0.  0.
         13    1    1    2    0    0  0.16226993582E+02  0.52882618870E+02  0.59269101782E+02  0.81072339854E+02  0.10566000000E+00 0. -1.
        994    1    1    2    0    0  0.17349011748E+02 -0.15109977374E+02  0.26265535478E+02  0.17472440579E+03  0.17120000000E+03 0.  0.
        998    1    1    2    0    0 -0.33576005330E+02 -0.37772641495E+02  0.14144653590E+04  0.14154032544E+04  0.10000000000E+02 0. -1.
</event>
<event>
 5    1  0.1068111E-008  0.3701777E+03  0.7957747E-01  0.3495075E+00
         13   -1    0    0    0    0  0.00000000000E+00  0.00000000000E+00  0.14999999963E+04  0.15000000000E+04  0.10566000000E+00 0. -1.
        994   -1    0    0    0    0 -0.00000000000E+00 -0.00000000000E+00  0.11368683772E-12  0.17120000000E+03  0.17120000000E+03 0.  0.
         13    1    1    2    0    0  0.94249435913E+01 -0.20500002501E+02  0.23337423433E+02  0.32461148482E+02  0.10566000000E+00 0. -1.
        994    1    1    2    0    0 -0.10812802664E+02  0.23078629439E+02  0.11423987358E+02  0.17346321606E+03  0.17120000000E+03 0.  0.
        998    1    1    2    0    0  0.13878590729E+01 -0.25786269377E+01  0.14652385855E+04  0.14652756355E+04  0.10000000000E+02 0. -1.
</event>
<event>
 5    1  0.1068111E-008  0.3849819E+03  0.7957747E-01  0.3429749E+00
         13   -1    0    0    0    0  0.00000000000E+00  0.00000000000E+00  0.14999999963E+04  0.15000000000E+04  0.10566000000E+00 0. -1.
        994   -1    0    0    0    0 -0.00000000000E+00 -0.00000000000E+00  0.11368683772E-12  0.17120000000E+03  0.17120000000E+03 0.  0.
         13    1    1    2    0    0 -0.13990229702E+02  0.12003190028E+02  0.10231403440E+03  0.10396141542E+03  0.10566000000E+00 0. -1.
        994    1    1    2    0    0  0.11255321066E+02 -0.75266491192E+01  0.22423054598E+01  0.17174923765E+03  0.17120000000E+03 0.  0.
        998    1    1    2    0    0  0.27349086360E+01 -0.44765409093E+01  0.13954436564E+04  0.13954893469E+04  0.10000000000E+02 0. -1.
</event>
<event>
 5    1  0.1176956E-008  0.3862726E+03  0.7957747E-01  0.3424293E+00
         13   -1    0    0    0    0  0.00000000000E+00  0.00000000000E+00  0.14999999963E+04  0.15000000000E+04  0.10566000000E+00 0.  1.
        994   -1    0    0    0    0 -0.00000000000E+00 -0.00000000000E+00  0.11368683772E-12  0.17120000000E+03  0.17120000000E+03 0.  0.
         13    1    1    2    0    0  0.65357619949E+00  0.11554438019E+02  0.67972331008E+02  0.68950570313E+02  0.10566000000E+00 0.  1.
        994    1    1    2    0    0  0.28634746408E+01 -0.81269316536E+01  0.12428184352E+01  0.17142120961E+03  0.17120000000E+03 0.  0.
        998    1    1    2    0    0 -0.35170508403E+01 -0.34275063654E+01  0.14307848468E+04  0.14308282201E+04  0.10000000000E+02 0.  1.
</event>
<event>
 5    1  0.1345231E-008  0.3857602E+03  0.7957747E-01  0.3426455E+00
         13   -1    0    0    0    0  0.00000000000E+00  0.00000000000E+00  0.14999999963E+04  0.15000000000E+04  0.10566000000E+00 0. -1.
        994   -1    0    0    0    0 -0.00000000000E+00 -0.00000000000E+00  0.11368683772E-12  0.17120000000E+03  0.17120000000E+03 0.  0.
         13    1    1    2    0    0  0.12875894602E+02  0.22916778424E+01  0.67779269100E+02  0.69029565643E+02  0.10566000000E+00 0. -1.
        994    1    1    2    0    0 -0.10324011658E+02 -0.31607422526E+01  0.16357094747E+01  0.17154792640E+03  0.17120000000E+03 0.  0.
        998    1    1    2    0    0 -0.25518829437E+01  0.86906441020E+00  0.14305850177E+04  0.14306225080E+04  0.10000000000E+02 0. -1.
</event>
<event>
 5    1  0.1068111E-008  0.3729919E+03  0.7957747E-01  0.3482253E+00
         13   -1    0    0    0    0  0.00000000000E+00  0.00000000000E+00  0.14999999963E+04  0.15000000000E+04  0.10566000000E+00 0. -1.
        994   -1    0    0    0    0 -0.00000000000E+00 -0.00000000000E+00  0.11368683772E-12  0.17120000000E+03  0.17120000000E+03 0.  0.
         13    1    1    2    0    0  0.91554247151E+01  0.16025700327E+02  0.79928703345E+01  0.20113229798E+02  0.10566000000E+00 0. -1.
        994    1    1    2    0    0 -0.62155060481E+01 -0.14148456153E+02  0.13373799688E+02  0.17241551509E+03  0.17120000000E+03 0.  0.
        998    1    1    2    0    0 -0.29399186671E+01 -0.18772441740E+01  0.14786333263E+04  0.14786712551E+04  0.10000000000E+02 0. -1.
</event>
<event>
 5    1  0.1068111E-008  0.3831278E+03  0.7957747E-01  0.3437651E+00
         13   -1    0    0    0    0  0.00000000000E+00  0.00000000000E+00  0.14999999963E+04  0.15000000000E+04  0.10566000000E+00 0. -1.
        994   -1    0    0    0    0 -0.00000000000E+00 -0.00000000000E+00  0.11368683772E-12  0.17120000000E+03  0.17120000000E+03 0.  0.
         13    1    1    2    0    0  0.15512160654E+02  0.58451781414E+01  0.53206768106E+02  0.55729386970E+02  0.10566000000E+00 0. -1.
        994    1    1    2    0    0 -0.88212329730E+01 -0.36937170275E+01  0.28651835722E+01  0.17149083641E+03  0.17120000000E+03 0.  0.
        998    1    1    2    0    0 -0.66909276805E+01 -0.21514611140E+01  0.14439280446E+04  0.14439797766E+04  0.10000000000E+02 0. -1.
</event>
<event>
 5    1  0.1068111E-008  0.3783278E+03  0.7957747E-01  0.3458472E+00
         13   -1    0    0    0    0  0.00000000000E+00  0.00000000000E+00  0.14999999963E+04  0.15000000000E+04  0.10566000000E+00 0.  1.
        994   -1    0    0    0    0 -0.00000000000E+00 -0.00000000000E+00  0.11368683772E-12  0.17120000000E+03  0.17120000000E+03 0.  0.
         13    1    1    2    0    0 -0.49010461274E+02 -0.68801625519E+02  0.22689238674E+03  0.24210711537E+03  0.10566000000E+00 0.  1.
        994    1    1    2    0    0  0.50394729013E+02  0.27397720103E+02  0.27358314137E+02  0.18261484368E+03  0.17120000000E+03 0.  0.
        998    1    1    2    0    0 -0.13842677394E+01  0.41403905416E+02  0.12457492954E+04  0.12464780409E+04  0.10000000000E+02 0.  1.
</event>
<event>
 5    1  0.1068111E-008  0.3745088E+03  0.7957747E-01  0.3475423E+00
         13   -1    0    0    0    0  0.00000000000E+00  0.00000000000E+00  0.14999999963E+04  0.15000000000E+04  0.10566000000E+00 0. -1.
        994   -1    0    0    0    0 -0.00000000000E+00 -0.00000000000E+00  0.11368683772E-12  0.17120000000E+03  0.17120000000E+03 0.  0.
         13    1    1    2    0    0 -0.71188905698E+02 -0.82404850425E+02  0.29578168345E+03  0.31519079158E+03  0.10566000000E+00 0. -1.
        994    1    1    2    0    0  0.77655156437E+02  0.22245777900E+03  0.22841868185E+03  0.37013824576E+03  0.17120000000E+03 0.  0.
        998    1    1    2    0    0 -0.64662507390E+01 -0.14005292857E+03  0.97579963098E+03  0.98587096266E+03  0.10000000000E+02 0. -1.
</event>
<event>
 5    1  0.1068111E-008  0.3832954E+03  0.7957747E-01  0.3436934E+00
         13   -1    0    0    0    0  0.00000000000E+00  0.00000000000E+00  0.14999999963E+04  0.15000000000E+04  0.10566000000E+00 0.  1.
        994   -1    0    0    0    0 -0.00000000000E+00 -0.00000000000E+00  0.11368683772E-12  0.17120000000E+03  0.17120000000E+03 0.  0.
         13    1    1    2    0    0 -0.35356636144E+01 -0.12779248343E+02  0.34517395198E+02  0.36976639121E+02  0.10566000000E+00 0.  1.
        994    1    1    2    0    0  0.15634908707E+00  0.10598462656E+02  0.28504536113E+01  0.17155149939E+03  0.17120000000E+03 0.  0.
        998    1    1    2    0    0  0.33793145274E+01  0.21807856871E+01  0.14626321475E+04  0.14626718615E+04  0.10000000000E+02 0.  1.
</event>
<event>
 5    1  0.1068111E-008  0.3852217E+03  0.7957747E-01  0.3428732E+00
         13   -1    0    0    0    0  0.00000000000E+00  0.00000000000E+00  0.14999999963E+04  0.15000000000E+04  0.10566000000E+00 0.  1.
        994   -1    0    0    0    0 -0.00000000000E+00 -0.00000000000E+00  0.11368683772E-12  0.17120000000E+03  0.17120000000E+03 0.  0.
         13    1    1    2    0    0  0.74469932203E+01 -0.14349909940E+02  0.87445197911E+02  0.88927225444E+02  0.10566000000E+00 0.  1.
        994    1    1    2    0    0 -0.30499762176E+01  0.80575656443E+01  0.17640717906E+01  0.17142572347E+03  0.17120000000E+03 0.  0.
        998    1    1    2    0    0 -0.43970170026E+01  0.62923442953E+01  0.14107907266E+04  0.14108470511E+04  0.10000000000E+02 0.  1.
</event>
<event>
 5    1  0.1384460E-008  0.3857834E+03  0.7957747E-01  0.3426356E+00
         13   -1    0    0    0    0  0.00000000000E+00  0.00000000000E+00  0.14999999963E+04  0.15000000000E+04  0.10566000000E+00 0. -1.
        994   -1    0    0    0    0 -0.00000000000E+00 -0.00000000000E+00  0.11368683772E-12  0.17120000000E+03  0.17120000000E+03 0.  0.
         13    1    1    2    0    0 -0.11365768181E+02 -0.20500761266E+01  0.53318298615E+02  0.54554886396E+02  0.10566000000E+00 0. -1.
        994    1    1    2    0    0  0.94177734469E+01  0.50967878973E+01  0.16179175255E+01  0.17154220869E+03  0.17120000000E+03 0.  0.
        998    1    1    2    0    0  0.19479947342E+01 -0.30467117707E+01  0.14450637801E+04  0.14451029049E+04  0.10000000000E+02 0. -1.
</event>
<event>
 5    1  0.1068111E-008  0.3848693E+03  0.7957747E-01  0.3430227E+00
         13   -1    0    0    0    0  0.00000000000E+00  0.00000000000E+00  0.14999999963E+04  0.15000000000E+04  0.10566000000E+00 0. -1.
        994   -1    0    0    0    0 -0.00000000000E+00 -0.00000000000E+00  0.11368683772E-12  0.17120000000E+03  0.17120000000E+03 0.  0.
         13    1    1    2    0    0  0.10269194385E+02 -0.56295634830E+01  0.37857956414E+02  0.39628075479E+02  0.10566000000E+00 0. -1.
        994    1    1    2    0    0 -0.16614158538E+02  0.13008648373E+02  0.31613009192E+01  0.17252445919E+03  0.17120000000E+03 0.  0.
        998    1    1    2    0    0  0.63449641534E+01 -0.73790848902E+01  0.14589807389E+04  0.14590474653E+04  0.10000000000E+02 0. -1.
</event>
<event>
 5    1  0.1068111E-008  0.3721882E+03  0.7957747E-01  0.3485894E+00
         13   -1    0    0    0    0  0.00000000000E+00  0.00000000000E+00  0.14999999963E+04  0.15000000000E+04  0.10566000000E+00 0.  1.
        994   -1    0    0    0    0 -0.00000000000E+00 -0.00000000000E+00  0.11368683772E-12  0.17120000000E+03  0.17120000000E+03 0.  0.
         13    1    1    2    0    0  0.16277829289E+01  0.27259074629E+02  0.43675577241E+02  0.51509941159E+02  0.10566000000E+00 0.  1.
        994    1    1    2    0    0  0.11202661786E+02 -0.10659126858E+02  0.89507686650E+01  0.17212981402E+03  0.17120000000E+03 0.  0.
        998    1    1    2    0    0 -0.12830444715E+02 -0.16599947771E+02  0.14473736504E+04  0.14475602448E+04  0.10000000000E+02 0.  1.
</event>
<event>
 5    1  0.1068111E-008  0.3806729E+03  0.7957747E-01  0.3448234E+00
         13   -1    0    0    0    0  0.00000000000E+00  0.00000000000E+00  0.14999999963E+04  0.15000000000E+04  0.10566000000E+00 0.  1.
        994   -1    0    0    0    0 -0.00000000000E+00 -0.00000000000E+00  0.11368683772E-12  0.17120000000E+03  0.17120000000E+03 0.  0.
         13    1    1    2    0    0  0.26457726575E+01 -0.19211208488E+02  0.53628560159E+02  0.57027223966E+02  0.10566000000E+00 0.  1.
        994    1    1    2    0    0 -0.22887198258E+02 -0.16941000592E+02  0.65030692591E+01  0.17367369189E+03  0.17120000000E+03 0.  0.
        998    1    1    2    0    0  0.20241425600E+02  0.36152209080E+02  0.14398683669E+04  0.14404990841E+04  0.10000000000E+02 0.  1.
</event>
<event>
 5    1  0.1082036E-008  0.3845153E+03  0.7957747E-01  0.3431731E+00
         13   -1    0    0    0    0  0.00000000000E+00  0.00000000000E+00  0.14999999963E+04  0.15000000000E+04  0.10566000000E+00 0. -1.
        994   -1    0    0    0    0 -0.00000000000E+00 -0.00000000000E+00  0.11368683772E-12  0.17120000000E+03  0.17120000000E+03 0.  0.
         13    1    1    2    0    0 -0.17066398630E+02  0.53867241430E+00  0.73015480722E+02  0.74985490058E+02  0.10566000000E+00 0. -1.
        994    1    1    2    0    0  0.21042555330E+02 -0.13062985197E+01  0.33364413555E+01  0.17252555576E+03  0.17120000000E+03 0.  0.
        998    1    1    2    0    0 -0.39761566999E+01  0.76762610541E+00  0.14236480742E+04  0.14236889542E+04  0.10000000000E+02 0. -1.
</event>
<event>
 5    1  0.1068111E-008  0.3827361E+03  0.7957747E-01  0.3439331E+00
         13   -1    0    0    0    0  0.00000000000E+00  0.00000000000E+00  0.14999999963E+04  0.15000000000E+04  0.10566000000E+00 0.  1.
        994   -1    0    0    0    0 -0.00000000000E+00 -0.00000000000E+00  0.11368683772E-12  0.17120000000E+03  0.17120000000E+03 0.  0.
         13    1    1    2    0    0 -0.27522313200E+02 -0.18299814076E+02  0.18302039200E+03  0.18598074086E+03  0.10566000000E+00 0.  1.
        994    1    1    2    0    0  0.17458082163E+02  0.25162511962E+02  0.58718912449E+01  0.17401682605E+03  0.17120000000E+03 0.  0.
        998    1    1    2    0    0  0.10064231036E+02 -0.68626978864E+01  0.13111077130E+04  0.13112024331E+04  0.10000000000E+02 0.  1.
</event>
<event>
 5    1  0.1068111E-008  0.3838783E+03  0.7957747E-01  0.3434443E+00
         13   -1    0    0    0    0  0.00000000000E+00  0.00000000000E+00  0.14999999963E+04  0.15000000000E+04  0.10566000000E+00 0.  1.
        994   -1    0    0    0    0 -0.00000000000E+00 -0.00000000000E+00  0.11368683772E-12  0.17120000000E+03  0.17120000000E+03 0.  0.
         13    1    1    2    0    0  0.18885374857E+01 -0.12436529368E+02  0.35868280336E+02  0.38010242500E+02  0.10566000000E+00 0.  1.
        994    1    1    2    0    0  0.13431229890E+01  0.68331105690E+01  0.23481387315E+01  0.17135766436E+03  0.17120000000E+03 0.  0.
        998    1    1    2    0    0 -0.32316604747E+01  0.56034187993E+01  0.14617835772E+04  0.14618320931E+04  0.10000000000E+02 0.  1.
</event>
<event>
 5    1  0.1068111E-008  0.3821925E+03  0.7957747E-01  0.3441667E+00
         13   -1    0    0    0    0  0.00000000000E+00  0.00000000000E+00  0.14999999963E+04  0.15000000000E+04  0.10566000000E+00 0. -1.
        994   -1    0    0    0    0 -0.00000000000E+00 -0.00000000000E+00  0.11368683772E-12  0.17120000000E+03  0.17120000000E+03 0.  0.
         13    1    1    2    0    0  0.12802776520E+02  0.65041164589E+01  0.33242427873E+02  0.36211666524E+02  0.10566000000E+00 0. -1.
        994    1    1    2    0    0 -0.69924246679E+01 -0.20473653815E+01  0.32066887027E+01  0.17138497180E+03  0.17120000000E+03 0.  0.
        998    1    1    2    0    0 -0.58103518518E+01 -0.44567510774E+01  0.14635508797E+04  0.14636033617E+04  0.10000000000E+02 0. -1.
</event>
<event>
 5    1  0.1068111E-008  0.3723256E+03  0.7957747E-01  0.3485271E+00
         13   -1    0    0    0    0  0.00000000000E+00  0.00000000000E+00  0.14999999963E+04  0.15000000000E+04  0.10566000000E+00 0.  1.
        994   -1    0    0    0    0 -0.00000000000E+00 -0.00000000000E+00  0.11368683772E-12  0.17120000000E+03  0.17120000000E+03 0.  0.
         13    1    1    2    0    0  0.31095913952E+02 -0.51111492305E+02  0.25653096216E+03  0.26341504554E+03  0.10566000000E+00 0.  1.
        994    1    1    2    0    0 -0.15486878968E+01  0.11414253853E+02  0.85137949319E+01  0.17179816160E+03  0.17120000000E+03 0.  0.
        998    1    1    2    0    0 -0.29547226056E+02  0.39697238452E+02  0.12349552392E+04  0.12359867929E+04  0.10000000000E+02 0.  1.
</event>
<event>
 5    1  0.1068111E-008  0.3693616E+03  0.7957747E-01  0.3498830E+00
         13   -1    0    0    0    0  0.00000000000E+00  0.00000000000E+00  0.14999999963E+04  0.15000000000E+04  0.10566000000E+00 0.  1.
        994   -1    0    0    0    0 -0.00000000000E+00 -0.00000000000E+00  0.11368683772E-12  0.17120000000E+03  0.17120000000E+03 0.  0.
         13    1    1    2    0    0  0.25284269309E+02  0.31056583094E+02  0.84904849687E+02  0.93875717267E+02  0.10566000000E+00 0.  1.
        994    1    1    2    0    0 -0.26869055126E+02  0.10822668555E+02  0.12516295790E+02  0.17408381297E+03  0.17120000000E+03 0.  0.
        998    1    1    2    0    0  0.15847858167E+01 -0.41879251649E+02  0.14025788508E+04  0.14032404698E+04  0.10000000000E+02 0.  1.
</event>
<event>
 5    1  0.1068111E-008  0.3835241E+03  0.7957747E-01  0.3435956E+00
         13   -1    0    0    0    0  0.00000000000E+00  0.00000000000E+00  0.14999999963E+04  0.15000000000E+04  0.10566000000E+00 0. -1.
        994   -1    0    0    0    0 -0.00000000000E+00 -0.00000000000E+00  0.11368683772E-12  0.17120000000E+03  0.17120000000E+03 0.  0.
         13    1    1    2    0    0 -0.25499796877E+02 -0.19554692924E+00  0.12551402240E+03  0.12807833096E+03  0.10566000000E+00 0. -1.
        994    1    1    2    0    0  0.27433340394E+02 -0.49384356000E+01  0.49363927990E+01  0.17352459274E+03  0.17120000000E+03 0.  0.
        998    1    1    2    0    0 -0.19335435165E+01  0.51339825293E+01  0.13695495811E+04  0.13695970763E+04  0.10000000000E+02 0. -1.
</event>
<event>
 5    1  0.1068111E-008  0.3762908E+03  0.7957747E-01  0.3467470E+00
         13   -1    0    0    0    0  0.00000000000E+00  0.00000000000E+00  0.14999999963E+04  0.15000000000E+04  0.10566000000E+00 0.  1.
        994   -1    0    0    0    0 -0.00000000000E+00 -0.00000000000E+00  0.11368683772E-12  0.17120000000E+03  0.17120000000E+03 0.  0.
         13    1    1    2    0    0 -0.79412795377E+02  0.34274655007E+02  0.30951765426E+03  0.32137568904E+03  0.10566000000E+00 0.  1.
        994    1    1    2    0    0  0.23072227151E+02  0.51709821310E+01  0.16305658238E+02  0.17359257246E+03  0.17120000000E+03 0.  0.
        998    1    1    2    0    0  0.56340568227E+02 -0.39445637138E+02  0.11741766838E+04  0.11762317385E+04  0.10000000000E+02 0.  1.
</event>
<event>
 5    1  0.1068111E-008  0.3802433E+03  0.7957747E-01  0.3450100E+00
         13   -1    0    0    0    0  0.00000000000E+00  0.00000000000E+00  0.14999999963E+04  0.15000000000E+04  0.10566000000E+00 0.  1.
        994   -1    0    0    0    0 -0.00000000000E+00 -0.00000000000E+00  0.11368683772E-12  0.17120000000E+03  0.17120000000E+03 0.  0.
         13    1    1    2    0    0  0.36469097741E+01 -0.17905258023E+02  0.39989196819E+02  0.43966410384E+02  0.10566000000E+00 0.  1.
        994    1    1    2    0    0  0.10579259110E+02  0.15428216571E+02  0.51801468208E+01  0.17229690801E+03  0.17120000000E+03 0.  0.
        998    1    1    2    0    0 -0.14226168884E+02  0.24770414519E+01  0.14548306526E+04  0.14549366816E+04  0.10000000000E+02 0.  1.
</event>
<event>
 5    1  0.1068111E-008  0.3842964E+03  0.7957747E-01  0.3432662E+00
         13   -1    0    0    0    0  0.00000000000E+00  0.00000000000E+00  0.14999999963E+04  0.15000000000E+04  0.10566000000E+00 0.  1.
        994   -1    0    0    0    0 -0.00000000000E+00 -0.00000000000E+00  0.11368683772E-12  0.17120000000E+03  0.17120000000E+03 0.  0.
         13    1    1    2    0    0  0.12319804638E+02  0.77819665346E+00  0.37696573813E+02  0.39666434396E+02  0.10566000000E+00 0.  1.
        994    1    1    2    0    0 -0.11200771769E+02  0.10411967195E+02  0.27511168996E+01  0.17190367941E+03  0.17120000000E+03 0.  0.
        998    1    1    2    0    0 -0.11190328689E+01 -0.11190163848E+02  0.14595523056E+04  0.14596298862E+04  0.10000000000E+02 0.  1.
</event>
<event>
 5    1  0.1068111E-008  0.3826027E+03  0.7957747E-01  0.3439904E+00
         13   -1    0    0    0    0  0.00000000000E+00  0.00000000000E+00  0.14999999963E+04  0.15000000000E+04  0.10566000000E+00 0. -1.
        994   -1    0    0    0    0 -0.00000000000E+00 -0.00000000000E+00  0.11368683772E-12  0.17120000000E+03  0.17120000000E+03 0.  0.
         13    1    1    2    0    0 -0.39144523872E+02 -0.15583498611E+02  0.22721649138E+03  0.23108977541E+03  0.10566000000E+00 0. -1.
        994    1    1    2    0    0  0.52254953893E+02  0.32177613111E+02  0.15408973036E+02  0.18251809620E+03  0.17120000000E+03 0.  0.
        998    1    1    2    0    0 -0.13110430021E+02 -0.16594114499E+02  0.12573745319E+04  0.12575921284E+04  0.10000000000E+02 0. -1.
</event>
<event>
 5    1  0.1068111E-008  0.3838747E+03  0.7957747E-01  0.3434459E+00
         13   -1    0    0    0    0  0.00000000000E+00  0.00000000000E+00  0.14999999963E+04  0.15000000000E+04  0.10566000000E+00 0.  1.
        994   -1    0    0    0    0 -0.00000000000E+00 -0.00000000000E+00  0.11368683772E-12  0.17120000000E+03  0.17120000000E+03 0.  0.
         13    1    1    2    0    0  0.34944478729E+01  0.94769159138E+01  0.22219346823E+02  0.24407655324E+02  0.10566000000E+00 0.  1.
        994    1    1    2    0    0 -0.16759563543E+01 -0.11993779399E+02  0.26740928996E+01  0.17164862466E+03  0.17120000000E+03 0.  0.
        998    1    1    2    0    0 -0.18184915185E+01  0.25168634850E+01  0.14751065566E+04  0.14751437200E+04  0.10000000000E+02 0.  1.
</event>
<event>
 5    1  0.1068111E-008  0.3781612E+03  0.7957747E-01  0.3459205E+00
         13   -1    0    0    0    0  0.00000000000E+00  0.00000000000E+00  0.14999999963E+04  0.15000000000E+04  0.10566000000E+00 0. -1.
        994   -1    0    0    0    0 -0.00000000000E+00 -0.00000000000E+00  0.11368683772E-12  0.17120000000E+03  0.17120000000E+03 0.  0.
         13    1    1    2    0    0  0.39693741545E+02 -0.19435461120E+02  0.22749244795E+03  0.23174588520E+03  0.10566000000E+00 0. -1.
        994    1    1    2    0    0 -0.61578443512E+01 -0.74451813831E+01  0.53783042840E+01  0.17155674260E+03  0.17120000000E+03 0.  0.
        998    1    1    2    0    0 -0.33535897194E+02  0.26880642503E+02  0.12671292440E+04  0.12678973722E+04  0.10000000000E+02 0. -1.
</event>
<event>
 5    1  0.1068111E-008  0.3756964E+03  0.7957747E-01  0.3470114E+00
         13   -1    0    0    0    0  0.00000000000E+00  0.00000000000E+00  0.14999999963E+04  0.15000000000E+04  0.10566000000E+00 0. -1.
        994   -1    0    0    0    0 -0.00000000000E+00 -0.00000000000E+00  0.11368683772E-12  0.17120000000E+03  0.17120000000E+03 0.  0.
         13    1    1    2    0    0  0.99652406773E+01  0.40921689770E+02  0.14072436438E+03  0.14689196237E+03  0.10566000000E+00 0. -1.
        994    1    1    2    0    0 -0.22469064002E+02 -0.16770850266E+02  0.89920671256E+01  0.17371360778E+03  0.17120000000E+03 0.  0.
        998    1    1    2    0    0  0.12503823325E+02 -0.24150839504E+02  0.13502835648E+04  0.13505944299E+04  0.10000000000E+02 0. -1.
</event>
<event>
 5    1  0.1068111E-008  0.3794905E+03  0.7957747E-01  0.3453380E+00
         13   -1    0    0    0    0  0.00000000000E+00  0.00000000000E+00  0.14999999963E+04  0.15000000000E+04  0.10566000000E+00 0. -1.
        994   -1    0    0    0    0 -0.00000000000E+00 -0.00000000000E+00  0.11368683772E-12  0.17120000000E+03  0.17120000000E+03 0.  0.
         13    1    1    2    0    0  0.21619929998E+02 -0.48963960132E+01  0.52712336567E+02  0.57183893339E+02  0.10566000000E+00 0. -1.
        994    1    1    2    0    0 -0.21541334829E+02  0.62050914296E+01  0.60751243477E+01  0.17276828239E+03  0.17120000000E+03 0.  0.
        998    1    1    2    0    0 -0.78595169471E-01 -0.13086954163E+01  0.14412125354E+04  0.14412478243E+04  0.10000000000E+02 0. -1.
</event>
<event>
 5    1  0.1068111E-008  0.3728563E+03  0.7957747E-01  0.3482866E+00
         13   -1    0    0    0    0  0.00000000000E+00  0.00000000000E+00  0.14999999963E+04  0.15000000000E+04  0.10566000000E+00 0.  1.
        994   -1    0    0    0    0 -0.00000000000E+00 -0.00000000000E+00  0.11368683772E-12  0.17120000000E+03  0.17120000000E+03 0.  0.
         13    1    1    2    0    0  0.13334704559E+02  0.78408234798E+01  0.12519571532E+02  0.19900846562E+02  0.10566000000E+00 0.  1.
        994    1    1    2    0    0  0.95530881679E+01  0.49636187530E+01  0.81806357379E+01  0.17173311214E+03  0.17120000000E+03 0.  0.
        998    1    1    2    0    0 -0.22887792726E+02 -0.12804442233E+02  0.14792997890E+04  0.14795660413E+04  0.10000000000E+02 0.  1.
</event>
<event>
 5    1  0.1068111E-008  0.3753639E+03  0.7957747E-01  0.3471597E+00
         13   -1    0    0    0    0  0.00000000000E+00  0.00000000000E+00  0.14999999963E+04  0.15000000000E+04  0.10566000000E+00 0. -1.
        994   -1    0    0    0    0 -0.00000000000E+00 -0.00000000000E+00  0.11368683772E-12  0.17120000000E+03  0.17120000000E+03 0.  0.
         13    1    1    2    0    0  0.23880586534E+02  0.54301631682E+01  0.16946688906E+02  0.29782050201E+02  0.10566000000E+00 0. -1.
        994    1    1    2    0    0  0.48979787329E+01  0.32812532484E+02  0.17735334452E+02  0.17528443905E+03  0.17120000000E+03 0.  0.
        998    1    1    2    0    0 -0.28778565267E+02 -0.38242695652E+02  0.14653179729E+04  0.14661335108E+04  0.10000000000E+02 0. -1.
</event>
<event>
 5    1  0.1068111E-008  0.3763831E+03  0.7957747E-01  0.3467060E+00
         13   -1    0    0    0    0  0.00000000000E+00  0.00000000000E+00  0.14999999963E+04  0.15000000000E+04  0.10566000000E+00 0.  1.
        994   -1    0    0    0    0 -0.00000000000E+00 -0.00000000000E+00  0.11368683772E-12  0.17120000000E+03  0.17120000000E+03 0.  0.
         13    1    1    2    0    0  0.81095416304E+02  0.12585858043E+02  0.38555370321E+03  0.39419099380E+03  0.10566000000E+00 0.  1.
        994    1    1    2    0    0 -0.88002359079E+02 -0.18579020696E+02  0.33850835193E+02  0.19632858747E+03  0.17120000000E+03 0.  0.
        998    1    1    2    0    0  0.69069427751E+01  0.59931626532E+01  0.10805954579E+04  0.10806804187E+04  0.10000000000E+02 0.  1.
</event>
<event>
 5    1  0.1068111E-008  0.3852700E+03  0.7957747E-01  0.3428528E+00
         13   -1    0    0    0    0  0.00000000000E+00  0.00000000000E+00  0.14999999963E+04  0.15000000000E+04  0.10566000000E+00 0.  1.
        994   -1    0    0    0    0 -0.00000000000E+00 -0.00000000000E+00  0.11368683772E-12  0.17120000000E+03  0.17120000000E+03 0.  0.
         13    1    1    2    0    0  0.65115159154E+01 -0.11738620205E+02  0.62661230892E+02  0.64083040383E+02  0.10566000000E+00 0.  1.
        994    1    1    2    0    0  0.58981837248E+01  0.70362071724E+01  0.17731575672E+01  0.17145518619E+03  0.17120000000E+03 0.  0.
        998    1    1    2    0    0 -0.12409699640E+02  0.47024130327E+01  0.14355656078E+04  0.14356617734E+04  0.10000000000E+02 0.  1.
</event>
<event>
 5    1  0.1068111E-008  0.3818286E+03  0.7957747E-01  0.3443235E+00
         13   -1    0    0    0    0  0.00000000000E+00  0.00000000000E+00  0.14999999963E+04  0.15000000000E+04  0.10566000000E+00 0.  1.
        994   -1    0    0    0    0 -0.00000000000E+00 -0.00000000000E+00  0.11368683772E-12  0.17120000000E+03  0.17120000000E+03 0.  0.
         13    1    1    2    0    0 -0.62833085332E+01  0.18167438487E+02  0.54331707807E+02  0.57632294979E+02  0.10566000000E+00 0.  1.
        994    1    1    2    0    0  0.50757113685E+01 -0.20735971528E+02  0.47287628538E+01  0.17259068503E+03  0.17120000000E+03 0.  0.
        998    1    1    2    0    0  0.12075971646E+01  0.25685330409E+01  0.14409395256E+04  0.14409770200E+04  0.10000000000E+02 0.  1.
</event>
<event>
 5    1  0.1068111E-008  0.3844595E+03  0.7957747E-01  0.3431968E+00
         13   -1    0    0    0    0  0.00000000000E+00  0.00000000000E+00  0.14999999963E+04  0.15000000000E+04  0.10566000000E+00 0.  1.
        994   -1    0    0    0    0 -0.00000000000E+00 -0.00000000000E+00  0.11368683772E-12  0.17120000000E+03  0.17120000000E+03 0.  0.
         13    1    1    2    0    0  0.49208182636E+01  0.16027883945E+02  0.75085827701E+02  0.76935038842E+02  0.10566000000E+00 0.  1.
        994    1    1    2    0    0 -0.17818373917E+01 -0.79604567677E+01  0.21180036102E+01  0.17140732118E+03  0.17120000000E+03 0.  0.
        998    1    1    2    0    0 -0.31389808719E+01 -0.80674271777E+01  0.14227961650E+04  0.14228576400E+04  0.10000000000E+02 0.  1.
</event>
<event>
 5    1  0.1068111E-008  0.3792960E+03  0.7957747E-01  0.3454230E+00
         13   -1    0    0    0    0  0.00000000000E+00  0.00000000000E+00  0.14999999963E+04  0.15000000000E+04  0.10566000000E+00 0. -1.
        994   -1    0    0    0    0 -0.00000000000E+00 -0.00000000000E+00  0.11368683772E-12  0.17120000000E+03  0.17120000000E+03 0.  0.
         13    1    1    2    0    0 -0.14591709375E+03  0.86513243638E+02  0.10097393060E+04  0.10238895530E+04  0.10566000000E+00 0. -1.
        994    1    1    2    0    0  0.13825265073E+03 -0.89462341265E+02  0.10147543117E+03  0.25830990897E+03  0.17120000000E+03 0.  0.
        998    1    1    2    0    0  0.76644430181E+01  0.29490976265E+01  0.38878525911E+03  0.38900053800E+03  0.10000000000E+02 0. -1.
</event>
<event>
 5    1  0.1068111E-008  0.3755757E+03  0.7957747E-01  0.3470652E+00
         13   -1    0    0    0    0  0.00000000000E+00  0.00000000000E+00  0.14999999963E+04  0.15000000000E+04  0.10566000000E+00 0.  1.
        994   -1    0    0    0    0 -0.00000000000E+00 -0.00000000000E+00  0.11368683772E-12  0.17120000000E+03  0.17120000000E+03 0.  0.
         13    1    1    2    0    0  0.53694759846E+02  0.57278853574E+02  0.37574089888E+03  0.38385573925E+03  0.10566000000E+00 0.  1.
        994    1    1    2    0    0 -0.42937179453E+02 -0.60908013250E+02  0.25463143385E+02  0.18844415387E+03  0.17120000000E+03 0.  0.
        998    1    1    2    0    0 -0.10757580393E+02  0.36291596756E+01  0.10987959540E+04  0.10989001069E+04  0.10000000000E+02 0.  1.
</event>
<event>
 5    1  0.1068111E-008  0.3853703E+03  0.7957747E-01  0.3428103E+00
         13   -1    0    0    0    0  0.00000000000E+00  0.00000000000E+00  0.14999999963E+04  0.15000000000E+04  0.10566000000E+00 0.  1.
        994   -1    0    0    0    0 -0.00000000000E+00 -0.00000000000E+00  0.11368683772E-12  0.17120000000E+03  0.17120000000E+03 0.  0.
         13    1    1    2    0    0  0.33872626690E-01 -0.13328236951E+02  0.62277604585E+02  0.63687944264E+02  0.10566000000E+00 0.  1.
        994    1    1    2    0    0  0.19331648446E+01  0.72659488667E+01  0.16320896084E+01  0.17137279497E+03  0.17120000000E+03 0.  0.
        998    1    1    2    0    0 -0.19670374713E+01  0.60622880847E+01  0.14360903021E+04  0.14361392608E+04  0.10000000000E+02 0.  1.
</event>
<event>
 5    1  0.1068111E-008  0.3790642E+03  0.7957747E-01  0.3455243E+00
         13   -1    0    0    0    0  0.00000000000E+00  0.00000000000E+00  0.14999999963E+04  0.15000000000E+04  0.10566000000E+00 0.  1.
        994   -1    0    0    0    0 -0.00000000000E+00 -0.00000000000E+00  0.11368683772E-12  0.17120000000E+03  0.17120000000E+03 0.  0.
         13    1    1    2    0    0 -0.90838593308E+01 -0.32616361445E+02  0.12837561512E+03  0.13276540685E+03  0.10566000000E+00 0.  1.
        994    1    1    2    0    0  0.10968574957E+02  0.97787719735E+01  0.53306877370E+01  0.17191215853E+03  0.17120000000E+03 0.  0.
        998    1    1    2    0    0 -0.18847156266E+01  0.22837589472E+02  0.13662936934E+04  0.13665224346E+04  0.10000000000E+02 0.  1.
</event>
<event>
 5    1  0.1068111E-008  0.3853248E+03  0.7957747E-01  0.3428296E+00
         13   -1    0    0    0    0  0.00000000000E+00  0.00000000000E+00  0.14999999963E+04  0.15000000000E+04  0.10566000000E+00 0. -1.
        994   -1    0    0    0    0 -0.00000000000E+00 -0.00000000000E+00  0.11368683772E-12  0.17120000000E+03  0.17120000000E+03 0.  0.
         13    1    1    2    0    0 -0.14582895701E+02  0.49967560490E+01  0.92948053631E+02  0.94217727928E+02  0.10566000000E+00 0. -1.
        994    1    1    2    0    0 -0.75236236945E+01 -0.17790934440E+01  0.16653460250E+01  0.17138256465E+03  0.17120000000E+03 0.  0.
        998    1    1    2    0    0  0.22106519395E+02 -0.32176626050E+01  0.14053865966E+04  0.14055997074E+04  0.10000000000E+02 0. -1.
</event>
<event>
 5    1  0.1068111E-008  0.3836471E+03  0.7957747E-01  0.3435430E+00
         13   -1    0    0    0    0  0.00000000000E+00  0.00000000000E+00  0.14999999963E+04  0.15000000000E+04  0.10566000000E+00 0. -1.
        994   -1    0    0    0    0 -0.00000000000E+00 -0.00000000000E+00  0.11368683772E-12  0.17120000000E+03  0.17120000000E+03 0.  0.
         13    1    1    2    0    0 -0.39768280661E+01 -0.15511756243E+02  0.54437814330E+02  0.56744308404E+02  0.10566000000E+00 0. -1.
        994    1    1    2    0    0  0.25338723016E+01  0.12701220651E+02  0.28575856340E+01  0.17171297945E+03  0.17120000000E+03 0.  0.
        998    1    1    2    0    0  0.14429557645E+01  0.28105355923E+01  0.14427045963E+04  0.14427427121E+04  0.10000000000E+02 0. -1.
</event>
<event>
 5    1  0.1068111E-008  0.3849955E+03  0.7957747E-01  0.3429691E+00
         13   -1    0    0    0    0  0.00000000000E+00  0.00000000000E+00  0.14999999963E+04  0.15000000000E+04  0.10566000000E+00 0.  1.
        994   -1    0    0    0    0 -0.00000000000E+00 -0.00000000000E+00  0.11368683772E-12  0.17120000000E+03  0.17120000000E+03 0.  0.
         13    1    1    2    0    0 -0.11484149023E+02  0.15549752183E+02  0.10973117155E+03  0.11142092104E+03  0.10566000000E+00 0.  1.
        994    1    1    2    0    0  0.14011203336E+02 -0.11371567869E+02  0.27039908377E+01  0.17216961968E+03  0.17120000000E+03 0.  0.
        998    1    1    2    0    0 -0.25270543124E+01 -0.41781843149E+01  0.13875648339E+04  0.13876094593E+04  0.10000000000E+02 0.  1.
</event>
<event>
 5    1  0.1068111E-008  0.3700126E+03  0.7957747E-01  0.3495833E+00
         13   -1    0    0    0    0  0.00000000000E+00  0.00000000000E+00  0.14999999963E+04  0.15000000000E+04  0.10566000000E+00 0.  1.
        994   -1    0    0    0    0 -0.00000000000E+00 -0.00000000000E+00  0.11368683772E-12  0.17120000000E+03  0.17120000000E+03 0.  0.
         13    1    1    2    0    0 -0.45976044548E+02 -0.20031099012E+02  0.11939738941E+03  0.12950208247E+03  0.10566000000E+00 0.  1.
        994    1    1    2    0    0  0.53241717505E+02  0.19611232528E+02  0.20476817941E+02  0.18151589737E+03  0.17120000000E+03 0.  0.
        998    1    1    2    0    0 -0.72656729568E+01  0.41986648466E+00  0.13601257889E+04  0.13601820202E+04  0.10000000000E+02 0.  1.
</event>
<event>
 5    1  0.1068111E-008  0.3811270E+03  0.7957747E-01  0.3446266E+00
         13   -1    0    0    0    0  0.00000000000E+00  0.00000000000E+00  0.14999999963E+04  0.15000000000E+04  0.10566000000E+00 0. -1.
        994   -1    0    0    0    0 -0.00000000000E+00 -0.00000000000E+00  0.11368683772E-12  0.17120000000E+03  0.17120000000E+03 0.  0.
         13    1    1    2    0    0  0.88320926807E+02 -0.37338533036E+02  0.22980229137E+03  0.24900573577E+03  0.10566000000E+00 0. -1.
        994    1    1    2    0    0 -0.82306834944E+02  0.38628782838E+02  0.47683952600E+02  0.19962414002E+03  0.17120000000E+03 0.  0.
        998    1    1    2    0    0 -0.60140918630E+01 -0.12902498020E+01  0.12225137523E+04  0.12225701242E+04  0.10000000000E+02 0. -1.
</event>
<event>
 5    1  0.1068111E-008  0.3807488E+03  0.7957747E-01  0.3447905E+00
         13   -1    0    0    0    0  0.00000000000E+00  0.00000000000E+00  0.14999999963E+04  0.15000000000E+04  0.10566000000E+00 0.  1.
        994   -1    0    0    0    0 -0.00000000000E+00 -0.00000000000E+00  0.11368683772E-12  0.17120000000E+03  0.17120000000E+03 0.  0.
         13    1    1    2    0    0 -0.33576327428E+02  0.13014644814E+02  0.20276469591E+03  0.20593757262E+03  0.10566000000E+00 0.  1.
        994    1    1    2    0    0 -0.43184605861E+01 -0.11675817208E+02  0.42726001243E+01  0.17170518024E+03  0.17120000000E+03 0.  0.
        998    1    1    2    0    0  0.37894788015E+02 -0.13388276059E+01  0.12929627002E+04  0.12935572471E+04  0.10000000000E+02 0.  1.
</event>
<event>
 5    1  0.1068111E-008  0.3820787E+03  0.7957747E-01  0.3442157E+00
         13   -1    0    0    0    0  0.00000000000E+00  0.00000000000E+00  0.14999999963E+04  0.15000000000E+04  0.10566000000E+00 0. -1.
        994   -1    0    0    0    0 -0.00000000000E+00 -0.00000000000E+00  0.11368683772E-12  0.17120000000E+03  0.17120000000E+03 0.  0.
         13    1    1    2    0    0  0.24999710800E+02 -0.66867613850E+00  0.99598775272E+02  0.10269060263E+03  0.10566000000E+00 0. -1.
        994    1    1    2    0    0 -0.16444041762E+02  0.63039420254E+01  0.41178891237E+01  0.17215267412E+03  0.17120000000E+03 0.  0.
        998    1    1    2    0    0 -0.85556690387E+01 -0.56352658869E+01  0.13962833319E+04  0.13963567233E+04  0.10000000000E+02 0. -1.
</event>
<event>
 5    1  0.1068111E-008  0.3699811E+03  0.7957747E-01  0.3495978E+00
         13   -1    0    0    0    0  0.00000000000E+00  0.00000000000E+00  0.14999999963E+04  0.15000000000E+04  0.10566000000E+00 0.  1.
        994   -1    0    0    0    0 -0.00000000000E+00 -0.00000000000E+00  0.11368683772E-12  0.17120000000E+03  0.17120000000E+03 0.  0.
         13    1    1    2    0    0  0.34619482532E+02  0.44440460047E+01  0.50593783425E+02  0.61465439078E+02  0.10566000000E+00 0.  1.
        994    1    1    2    0    0 -0.30056056087E+02 -0.51054303837E+01  0.14184751011E+02  0.17447085455E+03  0.17120000000E+03 0.  0.
        998    1    1    2    0    0 -0.45634264446E+01  0.66138437903E+00  0.14352214618E+04  0.14352637064E+04  0.10000000000E+02 0.  1.
</event>
<event>
 5    1  0.1068111E-008  0.3839230E+03  0.7957747E-01  0.3434253E+00
         13   -1    0    0    0    0  0.00000000000E+00  0.00000000000E+00  0.14999999963E+04  0.15000000000E+04  0.10566000000E+00 0. -1.
        994   -1    0    0    0    0 -0.00000000000E+00 -0.00000000000E+00  0.11368683772E-12  0.17120000000E+03  0.17120000000E+03 0.  0.
         13    1    1    2    0    0  0.12357981880E+02  0.62392977447E+01  0.43934161231E+02  0.46063762759E+02  0.10566000000E+00 0. -1.
        994    1    1    2    0    0 -0.10557878964E+02  0.26173699294E+01  0.25563510426E+01  0.17156425725E+03  0.17120000000E+03 0.  0.
        998    1    1    2    0    0 -0.18001029158E+01 -0.88566676741E+01  0.14535094840E+04  0.14535719800E+04  0.10000000000E+02 0. -1.
</event>
<event>
 5    1  0.1068111E-008  0.3689770E+03  0.7957747E-01  0.3500606E+00
         13   -1    0    0    0    0  0.00000000000E+00  0.00000000000E+00  0.14999999963E+04  0.15000000000E+04  0.10566000000E+00 0.  1.
        994   -1    0    0    0    0 -0.00000000000E+00 -0.00000000000E+00  0.11368683772E-12  0.17120000000E+03  0.17120000000E+03 0.  0.
         13    1    1    2    0    0  0.43698186667E+01 -0.13041949797E+02  0.43040160240E+01  0.14412615573E+02  0.10566000000E+00 0.  1.
        994    1    1    2    0    0 -0.17052493725E+01  0.12991797376E+02  0.10997193744E+02  0.17205252961E+03  0.17120000000E+03 0.  0.
        998    1    1    2    0    0 -0.26645692942E+01  0.50152420831E-01  0.14846987865E+04  0.14847348548E+04  0.10000000000E+02 0.  1.
</event>
<event>
 5    1  0.1068111E-008  0.3704394E+03  0.7957747E-01  0.3493874E+00
         13   -1    0    0    0    0  0.00000000000E+00  0.00000000000E+00  0.14999999963E+04  0.15000000000E+04  0.10566000000E+00 0. -1.
        994   -1    0    0    0    0 -0.00000000000E+00 -0.00000000000E+00  0.11368683772E-12  0.17120000000E+03  0.17120000000E+03 0.  0.
         13    1    1    2    0    0 -0.91670750482E+00 -0.53585200419E+02  0.13767710529E+03  0.14774034838E+03  0.10566000000E+00 0. -1.
        994    1    1    2    0    0 -0.12735547903E+02  0.61096111241E+02  0.22609088396E+02  0.18361791815E+03  0.17120000000E+03 0.  0.
        998    1    1    2    0    0  0.13652255408E+02 -0.75109108216E+01  0.13397138026E+04  0.13398417335E+04  0.10000000000E+02 0. -1.
</event>
<event>
 5    1  0.1068111E-008  0.3835418E+03  0.7957747E-01  0.3435880E+00
         13   -1    0    0    0    0  0.00000000000E+00  0.00000000000E+00  0.14999999963E+04  0.15000000000E+04  0.10566000000E+00 0.  1.
        994   -1    0    0    0    0 -0.00000000000E+00 -0.00000000000E+00  0.11368683772E-12  0.17120000000E+03  0.17120000000E+03 0.  0.
         13    1    1    2    0    0  0.49567484004E+01  0.88693705847E+01  0.21628250020E+02  0.23896180704E+02  0.10566000000E+00 0.  1.
        994    1    1    2    0    0 -0.44319571833E+01  0.29504980386E+01  0.24495100502E+01  0.17130028541E+03  0.17120000000E+03 0.  0.
        998    1    1    2    0    0 -0.52479121714E+00 -0.11819868623E+02  0.14759222362E+04  0.14760035339E+04  0.10000000000E+02 0.  1.
</event>
<event>
 5    1  0.1068111E-008  0.3852131E+03  0.7957747E-01  0.3428769E+00
         13   -1    0    0    0    0  0.00000000000E+00  0.00000000000E+00  0.14999999963E+04  0.15000000000E+04  0.10566000000E+00 0.  1.
        994   -1    0    0    0    0 -0.00000000000E+00 -0.00000000000E+00  0.11368683772E-12  0.17120000000E+03  0.17120000000E+03 0.  0.
         13    1    1    2    0    0 -0.15031622959E+02 -0.83400049722E+00  0.73852590310E+02  0.75371490002E+02  0.10566000000E+00 0.  1.
        994    1    1    2    0    0  0.11263031049E+02 -0.17719060492E+01  0.19517127784E+01  0.17159033977E+03  0.17120000000E+03 0.  0.
        998    1    1    2    0    0  0.37685919093E+01  0.26059065464E+01  0.14241956932E+04  0.14242381702E+04  0.10000000000E+02 0.  1.
</event>
<event>
 5    1  0.1068111E-008  0.3768795E+03  0.7957747E-01  0.3464860E+00
         13   -1    0    0    0    0  0.00000000000E+00  0.00000000000E+00  0.14999999963E+04  0.15000000000E+04  0.10566000000E+00 0.  1.
        994   -1    0    0    0    0 -0.00000000000E+00 -0.00000000000E+00  0.11368683772E-12  0.17120000000E+03  0.17120000000E+03 0.  0.
         13    1    1    2    0    0 -0.16525326215E+02  0.26128274937E+02  0.83242146047E+02  0.88797743216E+02  0.10566000000E+00 0.  1.
        994    1    1    2    0    0  0.12787511252E+02 -0.86756875552E+01  0.65237161148E+01  0.17201972814E+03  0.17120000000E+03 0.  0.
        998    1    1    2    0    0  0.37378149623E+01 -0.17452587381E+02  0.14102341341E+04  0.14103825286E+04  0.10000000000E+02 0.  1.
</event>
<event>
 5    1  0.1068111E-008  0.3831894E+03  0.7957747E-01  0.3437387E+00
         13   -1    0    0    0    0  0.00000000000E+00  0.00000000000E+00  0.14999999963E+04  0.15000000000E+04  0.10566000000E+00 0.  1.
        994   -1    0    0    0    0 -0.00000000000E+00 -0.00000000000E+00  0.11368683772E-12  0.17120000000E+03  0.17120000000E+03 0.  0.
         13    1    1    2    0    0 -0.10437696589E+02 -0.19069058826E+01  0.21092800628E+02  0.23611421019E+02  0.10566000000E+00 0.  1.
        994    1    1    2    0    0  0.11324883511E+02 -0.19255191891E+01  0.29683754766E+01  0.17161064030E+03  0.17120000000E+03 0.  0.
        998    1    1    2    0    0 -0.88718692167E+00  0.38324250717E+01  0.14759388202E+04  0.14759779387E+04  0.10000000000E+02 0.  1.
</event>
<event>
 5    1  0.1068111E-008  0.3853282E+03  0.7957747E-01  0.3428281E+00
         13   -1    0    0    0    0  0.00000000000E+00  0.00000000000E+00  0.14999999963E+04  0.15000000000E+04  0.10566000000E+00 0.  1.
        994   -1    0    0    0    0 -0.00000000000E+00 -0.00000000000E+00  0.11368683772E-12  0.17120000000E+03  0.17120000000E+03 0.  0.
         13    1    1    2    0    0 -0.17827412313E+02  0.45074509956E+01  0.10643799276E+03  0.10801477311E+03  0.10566000000E+00 0.  1.
        994    1    1    2    0    0  0.19946792120E+02 -0.87566603369E+01  0.30277965887E+01  0.17260695574E+03  0.17120000000E+03 0.  0.
        998    1    1    2    0    0 -0.21193798077E+01  0.42492093413E+01  0.13905342069E+04  0.13905782712E+04  0.10000000000E+02 0.  1.
</event>
<event>
 5    1  0.1068111E-008  0.3844925E+03  0.7957747E-01  0.3431827E+00
         13   -1    0    0    0    0  0.00000000000E+00  0.00000000000E+00  0.14999999963E+04  0.15000000000E+04  0.10566000000E+00 0.  1.
        994   -1    0    0    0    0 -0.00000000000E+00 -0.00000000000E+00  0.11368683772E-12  0.17120000000E+03  0.17120000000E+03 0.  0.
         13    1    1    2    0    0 -0.38911396364E+02 -0.27944972406E+03  0.10161480154E+04  0.10545914116E+04  0.10566000000E+00 0.  1.
        994    1    1    2    0    0  0.45353109409E+02  0.28815164687E+03  0.36799530655E+03  0.49981822873E+03  0.17120000000E+03 0.  0.
        998    1    1    2    0    0 -0.64417130450E+01 -0.87019228061E+01  0.11585667429E+03  0.11679035964E+03  0.10000000000E+02 0. -1.
</event>
<event>
 5    1  0.1068111E-008  0.3741566E+03  0.7957747E-01  0.3477003E+00
         13   -1    0    0    0    0  0.00000000000E+00  0.00000000000E+00  0.14999999963E+04  0.15000000000E+04  0.10566000000E+00 0. -1.
        994   -1    0    0    0    0 -0.00000000000E+00 -0.00000000000E+00  0.11368683772E-12  0.17120000000E+03  0.17120000000E+03 0.  0.
         13    1    1    2    0    0 -0.52581647905E+02 -0.16322775705E+02  0.14724507321E+03  0.15720173489E+03  0.10566000000E+00 0. -1.
        994    1    1    2    0    0  0.91438156438E+02  0.64245115560E+02  0.50955710206E+02  0.21069953899E+03  0.17120000000E+03 0.  0.
        998    1    1    2    0    0 -0.38856508533E+02 -0.47922339855E+02  0.13017992129E+04  0.13032987261E+04  0.10000000000E+02 0. -1.
</event>
<event>
 5    1  0.1068111E-008  0.3825356E+03  0.7957747E-01  0.3440192E+00
         13   -1    0    0    0    0  0.00000000000E+00  0.00000000000E+00  0.14999999963E+04  0.15000000000E+04  0.10566000000E+00 0.  1.
        994   -1    0    0    0    0 -0.00000000000E+00 -0.00000000000E+00  0.11368683772E-12  0.17120000000E+03  0.17120000000E+03 0.  0.
         13    1    1    2    0    0  0.24468435153E+01 -0.13025874127E+02  0.30114467718E+02  0.32902169684E+02  0.10566000000E+00 0.  1.
        994    1    1    2    0    0  0.29660520033E+01  0.58444166564E+01  0.30010367058E+01  0.17135168774E+03  0.17120000000E+03 0.  0.
        998    1    1    2    0    0 -0.54128955186E+01  0.71814574704E+01  0.14668844919E+04  0.14669461426E+04  0.10000000000E+02 0.  1.
</event>
<event>
 5    1  0.1068111E-008  0.3798950E+03  0.7957747E-01  0.3451616E+00
         13   -1    0    0    0    0  0.00000000000E+00  0.00000000000E+00  0.14999999963E+04  0.15000000000E+04  0.10566000000E+00 0.  1.
        994   -1    0    0    0    0 -0.00000000000E+00 -0.00000000000E+00  0.11368683772E-12  0.17120000000E+03  0.17120000000E+03 0.  0.
         13    1    1    2    0    0  0.12707207517E+02  0.15641852202E+03  0.90966110611E+03  0.92309889301E+03  0.10566000000E+00 0.  1.
        994    1    1    2    0    0 -0.46333452968E+02 -0.16369048962E+03  0.10796711903E+03  0.26440065062E+03  0.17120000000E+03 0.  0.
        998    1    1    2    0    0  0.33626245451E+02  0.72719676057E+01  0.48237177114E+03  0.48370045636E+03  0.10000000000E+02 0.  1.
</event>
<event>
 5    1  0.1068111E-008  0.3863030E+03  0.7957747E-01  0.3424165E+00
         13   -1    0    0    0    0  0.00000000000E+00  0.00000000000E+00  0.14999999963E+04  0.15000000000E+04  0.10566000000E+00 0. -1.
        994   -1    0    0    0    0 -0.00000000000E+00 -0.00000000000E+00  0.11368683772E-12  0.17120000000E+03  0.17120000000E+03 0.  0.
         13    1    1    2    0    0  0.92538389442E+01  0.91924996642E+01  0.77204578975E+02  0.78298746887E+02  0.10566000000E+00 0. -1.
        994    1    1    2    0    0 -0.21953687409E+02 -0.11495041466E+02  0.29982450132E+01  0.17301020156E+03  0.17120000000E+03 0.  0.
        998    1    1    2    0    0  0.12699848465E+02  0.23025418016E+01  0.14197971723E+04  0.14198910516E+04  0.10000000000E+02 0. -1.
</event>
<event>
 5    1  0.1068111E-008  0.3853891E+03  0.7957747E-01  0.3428024E+00
         13   -1    0    0    0    0  0.00000000000E+00  0.00000000000E+00  0.14999999963E+04  0.15000000000E+04  0.10566000000E+00 0. -1.
        994   -1    0    0    0    0 -0.00000000000E+00 -0.00000000000E+00  0.11368683772E-12  0.17120000000E+03  0.17120000000E+03 0.  0.
         13    1    1    2    0    0  0.25866292384E+01  0.14711768793E+02  0.77651925356E+02  0.79075656604E+02  0.10566000000E+00 0. -1.
        994    1    1    2    0    0 -0.10669017143E+02 -0.86820900088E+01  0.20587651822E+01  0.17176403910E+03  0.17120000000E+03 0.  0.
        998    1    1    2    0    0  0.80823879046E+01 -0.60296787840E+01  0.14202893057E+04  0.14203603043E+04  0.10000000000E+02 0. -1.
</event>
<event>
 5    1  0.1068111E-008  0.3851542E+03  0.7957747E-01  0.3429018E+00
         13   -1    0    0    0    0  0.00000000000E+00  0.00000000000E+00  0.14999999963E+04  0.15000000000E+04  0.10566000000E+00 0. -1.
        994   -1    0    0    0    0 -0.00000000000E+00 -0.00000000000E+00  0.11368683772E-12  0.17120000000E+03  0.17120000000E+03 0.  0.
         13    1    1    2    0    0  0.90624104386E+01  0.13747897603E+02  0.85467527892E+02  0.87039309851E+02  0.10566000000E+00 0. -1.
        994    1    1    2    0    0 -0.11132136211E+02 -0.91171080073E+01  0.22344457635E+01  0.17181815638E+03  0.17120000000E+03 0.  0.
        998    1    1    2    0    0  0.20697257723E+01 -0.46307895953E+01  0.14122980226E+04  0.14123425338E+04  0.10000000000E+02 0. -1.
</event>
<event>
 5    1  0.1068111E-008  0.3783968E+03  0.7957747E-01  0.3458169E+00
         13   -1    0    0    0    0  0.00000000000E+00  0.00000000000E+00  0.14999999963E+04  0.15000000000E+04  0.10566000000E+00 0.  1.
        994   -1    0    0    0    0 -0.00000000000E+00 -0.00000000000E+00  0.11368683772E-12  0.17120000000E+03  0.17120000000E+03 0.  0.
         13    1    1    2    0    0 -0.23000026196E+02  0.57846164660E+02  0.36489497559E+03  0.37016690066E+03  0.10566000000E+00 0.  1.
        994    1    1    2    0    0  0.31944013340E+02 -0.33534554874E+02  0.12187404458E+02  0.17777221151E+03  0.17120000000E+03 0.  0.
        998    1    1    2    0    0 -0.89439871432E+01 -0.24311609785E+02  0.11229176162E+04  0.11232608878E+04  0.10000000000E+02 0.  1.
</event>
<event>
 5    1  0.1068111E-008  0.3817752E+03  0.7957747E-01  0.3443465E+00
         13   -1    0    0    0    0  0.00000000000E+00  0.00000000000E+00  0.14999999963E+04  0.15000000000E+04  0.10566000000E+00 0.  1.
        994   -1    0    0    0    0 -0.00000000000E+00 -0.00000000000E+00  0.11368683772E-12  0.17120000000E+03  0.17120000000E+03 0.  0.
         13    1    1    2    0    0 -0.19164558455E+02 -0.85028127289E+01  0.66303545694E+02  0.69539553211E+02  0.10566000000E+00 0.  1.
        994    1    1    2    0    0  0.14700322400E+02  0.34728953953E+01  0.39983616307E+01  0.17191156848E+03  0.17120000000E+03 0.  0.
        998    1    1    2    0    0  0.44642360552E+01  0.50299173336E+01  0.14296980890E+04  0.14297488783E+04  0.10000000000E+02 0.  1.
</event>
<event>
 5    1  0.1068111E-008  0.3840093E+03  0.7957747E-01  0.3433885E+00
         13   -1    0    0    0    0  0.00000000000E+00  0.00000000000E+00  0.14999999963E+04  0.15000000000E+04  0.10566000000E+00 0. -1.
        994   -1    0    0    0    0 -0.00000000000E+00 -0.00000000000E+00  0.11368683772E-12  0.17120000000E+03  0.17120000000E+03 0.  0.
         13    1    1    2    0    0  0.65750553744E+01 -0.16931546239E+02  0.81299018470E+02  0.83303362354E+02  0.10566000000E+00 0. -1.
        994    1    1    2    0    0 -0.43772713765E+01  0.22161863681E+01  0.22022214497E+01  0.17128444695E+03  0.17120000000E+03 0.  0.
        998    1    1    2    0    0 -0.21977839979E+01  0.14715359871E+02  0.14164987564E+04  0.14166121907E+04  0.10000000000E+02 0. -1.
</event>
<event>
 5    1  0.1068111E-008  0.3690427E+03  0.7957747E-01  0.3500302E+00
         13   -1    0    0    0    0  0.00000000000E+00  0.00000000000E+00  0.14999999963E+04  0.15000000000E+04  0.10566000000E+00 0.  1.
        994   -1    0    0    0    0 -0.00000000000E+00 -0.00000000000E+00  0.11368683772E-12  0.17120000000E+03  0.17120000000E+03 0.  0.
         13    1    1    2    0    0  0.43119359883E+02 -0.29741585650E+02  0.13378326795E+03  0.14367259677E+03  0.10566000000E+00 0.  1.
        994    1    1    2    0    0 -0.23797095686E+02  0.32347873730E+02  0.15385722439E+02  0.17651868783E+03  0.17120000000E+03 0.  0.
        998    1    1    2    0    0 -0.19322264196E+02 -0.26062880804E+01  0.13508310059E+04  0.13510087154E+04  0.10000000000E+02 0.  1.
</event>
<event>
 5    1  0.1068111E-008  0.3841977E+03  0.7957747E-01  0.3433082E+00
         13   -1    0    0    0    0  0.00000000000E+00  0.00000000000E+00  0.14999999963E+04  0.15000000000E+04  0.10566000000E+00 0. -1.
        994   -1    0    0    0    0 -0.00000000000E+00 -0.00000000000E+00  0.11368683772E-12  0.17120000000E+03  0.17120000000E+03 0.  0.
         13    1    1    2    0    0 -0.98759069843E+01  0.68951751915E+01  0.34856011879E+02  0.36878580611E+02  0.10566000000E+00 0. -1.
        994    1    1    2    0    0  0.94337820962E+01 -0.55490063353E+01  0.24240497813E+01  0.17156661602E+03  0.17120000000E+03 0.  0.
        998    1    1    2    0    0  0.44212488811E+00 -0.13461688563E+01  0.14627199346E+04  0.14627548034E+04  0.10000000000E+02 0. -1.
</event>
<event>
 5    1  0.1068111E-008  0.3832724E+03  0.7957747E-01  0.3437032E+00
         13   -1    0    0    0    0  0.00000000000E+00  0.00000000000E+00  0.14999999963E+04  0.15000000000E+04  0.10566000000E+00 0. -1.
        994   -1    0    0    0    0 -0.00000000000E+00 -0.00000000000E+00  0.11368683772E-12  0.17120000000E+03  0.17120000000E+03 0.  0.
         13    1    1    2    0    0  0.11330329961E+02 -0.28008552614E+01  0.26728965397E+02  0.29166246287E+02  0.10566000000E+00 0. -1.
        994    1    1    2    0    0 -0.53367536282E+01  0.22657502684E+01  0.26014833425E+01  0.17131789830E+03  0.17120000000E+03 0.  0.
        998    1    1    2    0    0 -0.59935763332E+01  0.53510499308E+00  0.14706695475E+04  0.14707158554E+04  0.10000000000E+02 0. -1.
</event>
<event>
 5    1  0.1373553E-008  0.3851647E+03  0.7957747E-01  0.3428974E+00
         13   -1    0    0    0    0  0.00000000000E+00  0.00000000000E+00  0.14999999963E+04  0.15000000000E+04  0.10566000000E+00 0. -1.
        994   -1    0    0    0    0 -0.00000000000E+00 -0.00000000000E+00  0.11368683772E-12  0.17120000000E+03  0.17120000000E+03 0.  0.
         13    1    1    2    0    0 -0.55992128989E+01  0.10571993820E+02  0.46491272013E+02  0.48005913967E+02  0.10566000000E+00 0. -1.
        994    1    1    2    0    0 -0.31129755756E+01 -0.95771907741E+01  0.18818176768E+01  0.17150625189E+03  0.17120000000E+03 0.  0.
        998    1    1    2    0    0  0.87121884745E+01 -0.99480304591E+00  0.14516269066E+04  0.14516878341E+04  0.10000000000E+02 0. -1.
</event>
<event>
 5    1  0.1068111E-008  0.3809897E+03  0.7957747E-01  0.3446860E+00
         13   -1    0    0    0    0  0.00000000000E+00  0.00000000000E+00  0.14999999963E+04  0.15000000000E+04  0.10566000000E+00 0. -1.
        994   -1    0    0    0    0 -0.00000000000E+00 -0.00000000000E+00  0.11368683772E-12  0.17120000000E+03  0.17120000000E+03 0.  0.
         13    1    1    2    0    0 -0.18412518535E+02 -0.17396846802E+02  0.86283362842E+02  0.89924974200E+02  0.10566000000E+00 0. -1.
        994    1    1    2    0    0  0.10363312590E+00  0.25620051027E+02  0.58245717788E+01  0.17320439772E+03  0.17120000000E+03 0.  0.
        998    1    1    2    0    0  0.18308885409E+02 -0.82232042250E+01  0.14078920617E+04  0.14080706281E+04  0.10000000000E+02 0. -1.
</event>
<event>
 5    1  0.1068111E-008  0.3827115E+03  0.7957747E-01  0.3439436E+00
         13   -1    0    0    0    0  0.00000000000E+00  0.00000000000E+00  0.14999999963E+04  0.15000000000E+04  0.10566000000E+00 0.  1.
        994   -1    0    0    0    0 -0.00000000000E+00 -0.00000000000E+00  0.11368683772E-12  0.17120000000E+03  0.17120000000E+03 0.  0.
         13    1    1    2    0    0 -0.20230994860E+02  0.24937101413E+02  0.17777211161E+03  0.18064907143E+03  0.10566000000E+00 0.  1.
        994    1    1    2    0    0  0.15856031943E+02 -0.17810676548E+02  0.46569121150E+01  0.17291547293E+03  0.17120000000E+03 0.  0.
        998    1    1    2    0    0  0.43749629169E+01 -0.71264248655E+01  0.13175709726E+04  0.13176354556E+04  0.10000000000E+02 0.  1.
</event>
<event>
 5    1  0.1068111E-008  0.3764442E+03  0.7957747E-01  0.3466789E+00
         13   -1    0    0    0    0  0.00000000000E+00  0.00000000000E+00  0.14999999963E+04  0.15000000000E+04  0.10566000000E+00 0.  1.
        994   -1    0    0    0    0 -0.00000000000E+00 -0.00000000000E+00  0.11368683772E-12  0.17120000000E+03  0.17120000000E+03 0.  0.
         13    1    1    2    0    0  0.11590296166E+02 -0.57850133444E+02  0.25549487252E+03  0.26221863769E+03  0.10566000000E+00 0.  1.
        994    1    1    2    0    0 -0.13645526236E+02  0.50453648516E+02  0.15236268293E+02  0.17964786363E+03  0.17120000000E+03 0.  0.
        998    1    1    2    0    0  0.20552300693E+01  0.73964849283E+01  0.12292688555E+04  0.12293334987E+04  0.10000000000E+02 0.  1.
</event>
<event>
 5    1  0.1068111E-008  0.3796696E+03  0.7957747E-01  0.3452598E+00
         13   -1    0    0    0    0  0.00000000000E+00  0.00000000000E+00  0.14999999963E+04  0.15000000000E+04  0.10566000000E+00 0.  1.
        994   -1    0    0    0    0 -0.00000000000E+00 -0.00000000000E+00  0.11368683772E-12  0.17120000000E+03  0.17120000000E+03 0.  0.
         13    1    1    2    0    0  0.23529386003E+01 -0.10003732603E+02  0.10460133901E+02  0.14664124635E+02  0.10566000000E+00 0.  1.
        994    1    1    2    0    0 -0.90683367221E+00  0.38095051261E+01  0.43513277456E+01  0.17130005467E+03  0.17120000000E+03 0.  0.
        998    1    1    2    0    0 -0.14461049281E+01  0.61942274774E+01  0.14851885346E+04  0.14852358207E+04  0.10000000000E+02 0.  1.
</event>
<event>
 5    1  0.1068111E-008  0.3787541E+03  0.7957747E-01  0.3456601E+00
         13   -1    0    0    0    0  0.00000000000E+00  0.00000000000E+00  0.14999999963E+04  0.15000000000E+04  0.10566000000E+00 0.  1.
        994   -1    0    0    0    0 -0.00000000000E+00 -0.00000000000E+00  0.11368683772E-12  0.17120000000E+03  0.17120000000E+03 0.  0.
         13    1    1    2    0    0 -0.30008620124E+02 -0.30420264857E+02  0.19354918511E+03  0.19821000988E+03  0.10566000000E+00 0.  1.
        994    1    1    2    0    0  0.20301616028E+02  0.10996232525E+02  0.65548037071E+01  0.17287416867E+03  0.17120000000E+03 0.  0.
        998    1    1    2    0    0  0.97070040967E+01  0.19424032332E+02  0.12998960075E+04  0.13001158214E+04  0.10000000000E+02 0.  1.
</event>
<event>
 5    1  0.1068111E-008  0.3831551E+03  0.7957747E-01  0.3437535E+00
         13   -1    0    0    0    0  0.00000000000E+00  0.00000000000E+00  0.14999999963E+04  0.15000000000E+04  0.10566000000E+00 0.  1.
        994   -1    0    0    0    0 -0.00000000000E+00 -0.00000000000E+00  0.11368683772E-12  0.17120000000E+03  0.17120000000E+03 0.  0.
         13    1    1    2    0    0  0.12644034181E+02  0.82104670090E+01  0.44618641514E+02  0.47096896962E+02  0.10566000000E+00 0.  1.
        994    1    1    2    0    0 -0.88807284361E+01  0.28048512504E+01  0.28358919781E+01  0.17147657803E+03  0.17120000000E+03 0.  0.
        998    1    1    2    0    0 -0.37633057453E+01 -0.11015318259E+02  0.14525454628E+04  0.14526265250E+04  0.10000000000E+02 0.  1.
</event>
<event>
 5    1  0.1068111E-008  0.3790325E+03  0.7957747E-01  0.3455382E+00
         13   -1    0    0    0    0  0.00000000000E+00  0.00000000000E+00  0.14999999963E+04  0.15000000000E+04  0.10566000000E+00 0. -1.
        994   -1    0    0    0    0 -0.00000000000E+00 -0.00000000000E+00  0.11368683772E-12  0.17120000000E+03  0.17120000000E+03 0.  0.
         13    1    1    2    0    0  0.53839434923E+01  0.14651243480E+02  0.24360928343E+02  0.28932884004E+02  0.10566000000E+00 0. -1.
        994    1    1    2    0    0 -0.10768577788E+02 -0.89024305417E+01  0.52772952053E+01  0.17185024115E+03  0.17120000000E+03 0.  0.
        998    1    1    2    0    0  0.53846342960E+01 -0.57488129384E+01  0.14703617727E+04  0.14704168749E+04  0.10000000000E+02 0. -1.
</event>
<event>
 5    1  0.1068111E-008  0.3379580E+03  0.7957747E-01  0.3657491E+00
         13   -1    0    0    0    0  0.00000000000E+00  0.00000000000E+00  0.14999999963E+04  0.15000000000E+04  0.10566000000E+00 0.  1.
        994   -1    0    0    0    0 -0.00000000000E+00 -0.00000000000E+00  0.11368683772E-12  0.17120000000E+03  0.17120000000E+03 0.  0.
         13    1    1    2    0    0 -0.46257552003E+02 -0.18801441007E+03  0.10204423970E+04  0.10386490631E+04  0.10566000000E+00 0.  1.
        994    1    1    2    0    0 -0.53747618545E+01  0.15142170682E+03  0.10329406579E+03  0.25087153164E+03  0.17120000000E+03 0.  0.
        998    1    1    2    0    0  0.51632313857E+02  0.36592703256E+02  0.37626353351E+03  0.38167940528E+03  0.10000000000E+02 0.  1.
</event>
<event>
 5    1  0.1068111E-008  0.3842630E+03  0.7957747E-01  0.3432804E+00
         13   -1    0    0    0    0  0.00000000000E+00  0.00000000000E+00  0.14999999963E+04  0.15000000000E+04  0.10566000000E+00 0. -1.
        994   -1    0    0    0    0 -0.00000000000E+00 -0.00000000000E+00  0.11368683772E-12  0.17120000000E+03  0.17120000000E+03 0.  0.
         13    1    1    2    0    0 -0.52886989131E+01 -0.10340341537E+02  0.34348541969E+02  0.36259157446E+02  0.10566000000E+00 0. -1.
        994    1    1    2    0    0 -0.55253999427E+01  0.37026197568E+01  0.21423284174E+01  0.17134254874E+03  0.17120000000E+03 0.  0.
        998    1    1    2    0    0  0.10814098856E+02  0.66377217802E+01  0.14635091259E+04  0.14635982938E+04  0.10000000000E+02 0. -1.
</event>
<event>
 5    1  0.1068111E-008  0.3782595E+03  0.7957747E-01  0.3458772E+00
         13   -1    0    0    0    0  0.00000000000E+00  0.00000000000E+00  0.14999999963E+04  0.15000000000E+04  0.10566000000E+00 0. -1.
        994   -1    0    0    0    0 -0.00000000000E+00 -0.00000000000E+00  0.11368683772E-12  0.17120000000E+03  0.17120000000E+03 0.  0.
         13    1    1    2    0    0 -0.13349562345E+02  0.27056455784E+01  0.15963604434E+02  0.20985212969E+02  0.10566000000E+00 0. -1.
        994    1    1    2    0    0  0.15305562702E+02 -0.19203676048E+02  0.70445475108E+01  0.17309565874E+03  0.17120000000E+03 0.  0.
        998    1    1    2    0    0 -0.19560003570E+01  0.16498030470E+02  0.14769918443E+04  0.14771191283E+04  0.10000000000E+02 0. -1.
</event>
<event>
 5    1  0.1068111E-008  0.3732491E+03  0.7957747E-01  0.3481091E+00
         13   -1    0    0    0    0  0.00000000000E+00  0.00000000000E+00  0.14999999963E+04  0.15000000000E+04  0.10566000000E+00 0. -1.
        994   -1    0    0    0    0 -0.00000000000E+00 -0.00000000000E+00  0.11368683772E-12  0.17120000000E+03  0.17120000000E+03 0.  0.
         13    1    1    2    0    0  0.32819955858E+02  0.18151467865E+02  0.87393219318E+02  0.95101058012E+02  0.10566000000E+00 0. -1.
        994    1    1    2    0    0 -0.24569745182E+02 -0.20296938501E+02  0.11061357652E+02  0.17449192452E+03  0.17120000000E+03 0.  0.
        998    1    1    2    0    0 -0.82502106753E+01  0.21454706361E+01  0.14015454193E+04  0.14016070175E+04  0.10000000000E+02 0. -1.
</event>
<event>
 5    1  0.1068111E-008  0.3731148E+03  0.7957747E-01  0.3481697E+00
         13   -1    0    0    0    0  0.00000000000E+00  0.00000000000E+00  0.14999999963E+04  0.15000000000E+04  0.10566000000E+00 0. -1.
        994   -1    0    0    0    0 -0.00000000000E+00 -0.00000000000E+00  0.11368683772E-12  0.17120000000E+03  0.17120000000E+03 0.  0.
         13    1    1    2    0    0 -0.26676958816E+01  0.95647244111E+02  0.32781051565E+03  0.34148976154E+03  0.10566000000E+00 0. -1.
        994    1    1    2    0    0 -0.23605083082E+02 -0.72410391529E+02  0.33391532062E+02  0.19032839820E+03  0.17120000000E+03 0.  0.
        998    1    1    2    0    0  0.26272778964E+02 -0.23236852581E+02  0.11387979486E+04  0.11393818403E+04  0.10000000000E+02 0. -1.
</event>
<event>
 5    1  0.1068111E-008  0.3696772E+03  0.7957747E-01  0.3497376E+00
         13   -1    0    0    0    0  0.00000000000E+00  0.00000000000E+00  0.14999999963E+04  0.15000000000E+04  0.10566000000E+00 0. -1.
        994   -1    0    0    0    0 -0.00000000000E+00 -0.00000000000E+00  0.11368683772E-12  0.17120000000E+03  0.17120000000E+03 0.  0.
         13    1    1    2    0    0 -0.41062688814E+02 -0.23388025051E+02  0.10982124445E+03  0.11955693633E+03  0.10566000000E+00 0. -1.
        994    1    1    2    0    0  0.26502624234E+01  0.42782357867E+01  0.10856707059E+02  0.17161770095E+03  0.17120000000E+03 0.  0.
        998    1    1    2    0    0  0.38412426391E+02  0.19109789265E+02  0.13793220448E+04  0.13800253627E+04  0.10000000000E+02 0. -1.
</event>
<event>
 5    1  0.1068111E-008  0.3706113E+03  0.7957747E-01  0.3493086E+00
         13   -1    0    0    0    0  0.00000000000E+00  0.00000000000E+00  0.14999999963E+04  0.15000000000E+04  0.10566000000E+00 0.  1.
        994   -1    0    0    0    0 -0.00000000000E+00 -0.00000000000E+00  0.11368683772E-12  0.17120000000E+03  0.17120000000E+03 0.  0.
         13    1    1    2    0    0  0.73730914175E+02  0.48464001110E+02  0.30031481074E+03  0.31300799323E+03  0.10566000000E+00 0.  1.
        994    1    1    2    0    0 -0.69222222249E+02 -0.28082884986E+02  0.31078288818E+02  0.18935592021E+03  0.17120000000E+03 0.  0.
        998    1    1    2    0    0 -0.45086919255E+01 -0.20381116124E+02  0.11686068967E+04  0.11688360866E+04  0.10000000000E+02 0.  1.
</event>
<event>
 5    1  0.1068111E-008  0.3741542E+03  0.7957747E-01  0.3477014E+00
         13   -1    0    0    0    0  0.00000000000E+00  0.00000000000E+00  0.14999999963E+04  0.15000000000E+04  0.10566000000E+00 0. -1.
        994   -1    0    0    0    0 -0.00000000000E+00 -0.00000000000E+00  0.11368683772E-12  0.17120000000E+03  0.17120000000E+03 0.  0.
         13    1    1    2    0    0  0.14145991150E+03  0.56162742844E+01  0.70201832448E+03  0.71615095348E+03  0.10566000000E+00 0. -1.
        994    1    1    2    0    0 -0.14336204261E+03  0.20141895986E+02  0.82301737830E+02  0.23883338813E+03  0.17120000000E+03 0.  0.
        998    1    1    2    0    0  0.19021311151E+01 -0.25758170271E+02  0.71567993397E+03  0.71621565839E+03  0.10000000000E+02 0. -1.
</event>
<event>
 5    1  0.1068111E-008  0.3830228E+03  0.7957747E-01  0.3438101E+00
         13   -1    0    0    0    0  0.00000000000E+00  0.00000000000E+00  0.14999999963E+04  0.15000000000E+04  0.10566000000E+00 0.  1.
        994   -1    0    0    0    0 -0.00000000000E+00 -0.00000000000E+00  0.11368683772E-12  0.17120000000E+03  0.17120000000E+03 0.  0.
         13    1    1    2    0    0  0.23670698711E+01  0.18827447953E+02  0.71754561301E+02  0.74221318014E+02  0.10566000000E+00 0.  1.
        994    1    1    2    0    0 -0.93195997723E+01 -0.14145679491E+01  0.29091345479E+01  0.17148399052E+03  0.17120000000E+03 0.  0.
        998    1    1    2    0    0  0.69525299012E+01 -0.17412880004E+02  0.14253363004E+04  0.14254946915E+04  0.10000000000E+02 0.  1.
</event>
<event>
 5    1  0.1068111E-008  0.3818215E+03  0.7957747E-01  0.3443265E+00
         13   -1    0    0    0    0  0.00000000000E+00  0.00000000000E+00  0.14999999963E+04  0.15000000000E+04  0.10566000000E+00 0.  1.
        994   -1    0    0    0    0 -0.00000000000E+00 -0.00000000000E+00  0.11368683772E-12  0.17120000000E+03  0.17120000000E+03 0.  0.
         13    1    1    2    0    0 -0.36787551395E+01  0.95226004030E+01  0.14840137093E+02  0.18012606440E+02  0.10566000000E+00 0.  1.
        994    1    1    2    0    0  0.56081890057E+01 -0.63744762240E+01  0.34560497510E+01  0.17144523910E+03  0.17120000000E+03 0.  0.
        998    1    1    2    0    0 -0.19294338662E+01 -0.31481241790E+01  0.14817038094E+04  0.14817421545E+04  0.10000000000E+02 0.  1.
</event>
<event>
 5    1  0.1068111E-008  0.3853737E+03  0.7957747E-01  0.3428089E+00
         13   -1    0    0    0    0  0.00000000000E+00  0.00000000000E+00  0.14999999963E+04  0.15000000000E+04  0.10566000000E+00 0.  1.
        994   -1    0    0    0    0 -0.00000000000E+00 -0.00000000000E+00  0.11368683772E-12  0.17120000000E+03  0.17120000000E+03 0.  0.
         13    1    1    2    0    0 -0.14981684525E+02 -0.17898716632E+01  0.89666226062E+02  0.90926881460E+02  0.10566000000E+00 0.  1.
        994    1    1    2    0    0 -0.57185330234E+01 -0.21321922993E+00  0.15522825528E+01  0.17130264640E+03  0.17120000000E+03 0.  0.
        998    1    1    2    0    0  0.20700217548E+02  0.20030908931E+01  0.14087814877E+04  0.14089704721E+04  0.10000000000E+02 0.  1.
</event>
<event>
 5    1  0.1068111E-008  0.3769520E+03  0.7957747E-01  0.3464538E+00
         13   -1    0    0    0    0  0.00000000000E+00  0.00000000000E+00  0.14999999963E+04  0.15000000000E+04  0.10566000000E+00 0.  1.
        994   -1    0    0    0    0 -0.00000000000E+00 -0.00000000000E+00  0.11368683772E-12  0.17120000000E+03  0.17120000000E+03 0.  0.
         13    1    1    2    0    0  0.18181969362E+02 -0.29727322208E+02  0.11427562424E+03  0.11947061210E+03  0.10566000000E+00 0.  1.
        994    1    1    2    0    0  0.16933190504E+01  0.50309444961E+01  0.57748796843E+01  0.17137959904E+03  0.17120000000E+03 0.  0.
        998    1    1    2    0    0 -0.19875288413E+02  0.24696377712E+02  0.13799494924E+04  0.13803497889E+04  0.10000000000E+02 0.  1.
</event>
<event>
 5    1  0.1068111E-008  0.3831424E+03  0.7957747E-01  0.3437589E+00
         13   -1    0    0    0    0  0.00000000000E+00  0.00000000000E+00  0.14999999963E+04  0.15000000000E+04  0.10566000000E+00 0. -1.
        994   -1    0    0    0    0 -0.00000000000E+00 -0.00000000000E+00  0.11368683772E-12  0.17120000000E+03  0.17120000000E+03 0.  0.
         13    1    1    2    0    0 -0.12645260331E+02 -0.54336625688E+01  0.34157260901E+02  0.36826036089E+02  0.10566000000E+00 0. -1.
        994    1    1    2    0    0  0.23469888831E+02  0.81364566015E+01  0.45994221300E+01  0.17305384218E+03  0.17120000000E+03 0.  0.
        998    1    1    2    0    0 -0.10824628501E+02 -0.27027940327E+01  0.14612433132E+04  0.14613201217E+04  0.10000000000E+02 0. -1.
</event>
<event>
 5    1  0.1068111E-008  0.3849150E+03  0.7957747E-01  0.3430033E+00
         13   -1    0    0    0    0  0.00000000000E+00  0.00000000000E+00  0.14999999963E+04  0.15000000000E+04  0.10566000000E+00 0.  1.
        994   -1    0    0    0    0 -0.00000000000E+00 -0.00000000000E+00  0.11368683772E-12  0.17120000000E+03  0.17120000000E+03 0.  0.
         13    1    1    2    0    0  0.14992162428E+01 -0.17660661114E+02  0.90648752261E+02  0.92365329269E+02  0.10566000000E+00 0.  1.
        994    1    1    2    0    0  0.11553643298E+02  0.17516582931E+02  0.31221478885E+01  0.17250943498E+03  0.17120000000E+03 0.  0.
        998    1    1    2    0    0 -0.13052859541E+02  0.14407818352E+00  0.14062290961E+04  0.14063252357E+04  0.10000000000E+02 0.  1.
</event>
<event>
 5    1  0.1068111E-008  0.3771060E+03  0.7957747E-01  0.3463857E+00
         13   -1    0    0    0    0  0.00000000000E+00  0.00000000000E+00  0.14999999963E+04  0.15000000000E+04  0.10566000000E+00 0.  1.
        994   -1    0    0    0    0 -0.00000000000E+00 -0.00000000000E+00  0.11368683772E-12  0.17120000000E+03  0.17120000000E+03 0.  0.
         13    1    1    2    0    0  0.21652590317E+02  0.22374773700E+02  0.86647089325E+02  0.92071680869E+02  0.10566000000E+00 0.  1.
        994    1    1    2    0    0 -0.11086914395E+02 -0.79315067919E+01  0.62286850325E+01  0.17185477878E+03  0.17120000000E+03 0.  0.
        998    1    1    2    0    0 -0.10565675922E+02 -0.14443266908E+02  0.14071242219E+04  0.14072735404E+04  0.10000000000E+02 0.  1.
</event>
<event>
 5    1  0.1068111E-008  0.2932172E+03  0.7957747E-01  0.3945664E+00
         13   -1    0    0    0    0  0.00000000000E+00  0.00000000000E+00  0.14999999963E+04  0.15000000000E+04  0.10566000000E+00 0. -1.
        994   -1    0    0    0    0 -0.00000000000E+00 -0.00000000000E+00  0.11368683772E-12  0.17120000000E+03  0.17120000000E+03 0.  0.
         13    1    1    2    0    0  0.14318124318E+03  0.92892869473E+01  0.74247816800E+03  0.75621491679E+03  0.10566000000E+00 0. -1.
        994    1    1    2    0    0 -0.70994440294E+02  0.16358938318E+02  0.36210430118E+02  0.18954804316E+03  0.17120000000E+03 0.  0.
        998    1    1    2    0    0 -0.72186802882E+02 -0.25648225265E+02  0.72131139816E+03  0.72543704006E+03  0.10000000000E+02 0. -1.
</event>
<event>
 5    1  0.1068111E-008  0.3688595E+03  0.7957747E-01  0.3501149E+00
         13   -1    0    0    0    0  0.00000000000E+00  0.00000000000E+00  0.14999999963E+04  0.15000000000E+04  0.10566000000E+00 0.  1.
        994   -1    0    0    0    0 -0.00000000000E+00 -0.00000000000E+00  0.11368683772E-12  0.17120000000E+03  0.17120000000E+03 0.  0.
         13    1    1    2    0    0 -0.17464626624E+02  0.21880033088E+02  0.35917296076E+02  0.45539129905E+02  0.10566000000E+00 0.  1.
        994    1    1    2    0    0  0.11439414677E+02 -0.13439828017E+02  0.10948444261E+02  0.17245520467E+03  0.17120000000E+03 0.  0.
        998    1    1    2    0    0  0.60252119467E+01 -0.84402050705E+01  0.14531342559E+04  0.14532056654E+04  0.10000000000E+02 0.  1.
</event>
<event>
 5    1  0.1068111E-008  0.3775593E+03  0.7957747E-01  0.3461855E+00
         13   -1    0    0    0    0  0.00000000000E+00  0.00000000000E+00  0.14999999963E+04  0.15000000000E+04  0.10566000000E+00 0.  1.
        994   -1    0    0    0    0 -0.00000000000E+00 -0.00000000000E+00  0.11368683772E-12  0.17120000000E+03  0.17120000000E+03 0.  0.
         13    1    1    2    0    0 -0.16153259471E+02  0.13724463979E+02  0.41968153129E+02  0.47017291969E+02  0.10566000000E+00 0.  1.
        994    1    1    2    0    0  0.26916478221E+00  0.53902694885E+01  0.54684711340E+01  0.17137231874E+03  0.17120000000E+03 0.  0.
        998    1    1    2    0    0  0.15884094689E+02 -0.19114733468E+02  0.14525633720E+04  0.14528103893E+04  0.10000000000E+02 0.  1.
</event>
<event>
 5    1  0.1068111E-008  0.3772202E+03  0.7957747E-01  0.3463353E+00
         13   -1    0    0    0    0  0.00000000000E+00  0.00000000000E+00  0.14999999963E+04  0.15000000000E+04  0.10566000000E+00 0.  1.
        994   -1    0    0    0    0 -0.00000000000E+00 -0.00000000000E+00  0.11368683772E-12  0.17120000000E+03  0.17120000000E+03 0.  0.
         13    1    1    2    0    0 -0.56194770038E+01 -0.18338343727E+03  0.93210581728E+03  0.94999069962E+03  0.10566000000E+00 0.  1.
        994    1    1    2    0    0  0.24493868502E+01  0.18277126489E+03  0.12812137866E+03  0.28131097105E+03  0.17120000000E+03 0.  0.
        998    1    1    2    0    0  0.31700901535E+01  0.61217238365E+00  0.43977280034E+03  0.43989832933E+03  0.10000000000E+02 0.  0.
</event>
<event>
 5    1  0.1068111E-008  0.3847454E+03  0.7957747E-01  0.3430753E+00
         13   -1    0    0    0    0  0.00000000000E+00  0.00000000000E+00  0.14999999963E+04  0.15000000000E+04  0.10566000000E+00 0.  1.
        994   -1    0    0    0    0 -0.00000000000E+00 -0.00000000000E+00  0.11368683772E-12  0.17120000000E+03  0.17120000000E+03 0.  0.
         13    1    1    2    0    0 -0.11327224777E+02  0.12988674090E+02  0.76789822932E+02  0.78700061917E+02  0.10566000000E+00 0.  1.
        994    1    1    2    0    0  0.12552344388E+02 -0.23223475864E+02  0.40536814438E+01  0.17327078090E+03  0.17120000000E+03 0.  0.
        998    1    1    2    0    0 -0.12251196103E+01  0.10234801774E+02  0.14191564919E+04  0.14192291572E+04  0.10000000000E+02 0.  1.
</event>
<event>
 5    1  0.1068111E-008  0.4006853E+03  0.7957747E-01  0.3365756E+00
         13   -1    0    0    0    0  0.00000000000E+00  0.00000000000E+00  0.14999999963E+04  0.15000000000E+04  0.10566000000E+00 0.  1.
        994   -1    0    0    0    0 -0.00000000000E+00 -0.00000000000E+00  0.11368683772E-12  0.17120000000E+03  0.17120000000E+03 0.  0.
         13    1    1    2    0    0  0.11045781120E+02 -0.37169457408E+02  0.17854560197E+02  0.42689276504E+02  0.10566000000E+00 0.  1.
        994    1    1    2    0    0  0.19660136755E+02 -0.15056202132E+02  0.30600248103E+02  0.17566737143E+03  0.17120000000E+03 0.  0.
        998    1    1    2    0    0 -0.30705917875E+02  0.52225659540E+02  0.14515451880E+04  0.14528433521E+04  0.10000000000E+02 0.  1.
</event>
<event>
 5    1  0.1068111E-008  0.3842400E+03  0.7957747E-01  0.3432902E+00
         13   -1    0    0    0    0  0.00000000000E+00  0.00000000000E+00  0.14999999963E+04  0.15000000000E+04  0.10566000000E+00 0.  1.
        994   -1    0    0    0    0 -0.00000000000E+00 -0.00000000000E+00  0.11368683772E-12  0.17120000000E+03  0.17120000000E+03 0.  0.
         13    1    1    2    0    0  0.13210918612E+02 -0.37465911461E+01  0.47671130391E+02  0.49609607462E+02  0.10566000000E+00 0.  1.
        994    1    1    2    0    0 -0.38266646414E+01  0.27458717204E+01  0.20810741718E+01  0.17127741837E+03  0.17120000000E+03 0.  0.
        998    1    1    2    0    0 -0.93842539705E+01  0.10007194257E+01  0.14502477917E+04  0.14503129742E+04  0.10000000000E+02 0.  1.
</event>
<event>
 5    1  0.1068111E-008  0.3750158E+03  0.7957747E-01  0.3473152E+00
         13   -1    0    0    0    0  0.00000000000E+00  0.00000000000E+00  0.14999999963E+04  0.15000000000E+04  0.10566000000E+00 0. -1.
        994   -1    0    0    0    0 -0.00000000000E+00 -0.00000000000E+00  0.11368683772E-12  0.17120000000E+03  0.17120000000E+03 0.  0.
         13    1    1    2    0    0 -0.26690428141E+02 -0.33451342061E+02  0.62507735981E+02  0.75753544218E+02  0.10566000000E+00 0. -1.
        994    1    1    2    0    0  0.20222420820E+02  0.19523034103E+02  0.16432623666E+02  0.17426866122E+03  0.17120000000E+03 0.  0.
        998    1    1    2    0    0  0.64680073211E+01  0.13928307958E+02  0.14210596366E+04  0.14211777946E+04  0.10000000000E+02 0. -1.
</event>
<event>
 5    1  0.1068111E-008  0.3764884E+03  0.7957747E-01  0.3466593E+00
         13   -1    0    0    0    0  0.00000000000E+00  0.00000000000E+00  0.14999999963E+04  0.15000000000E+04  0.10566000000E+00 0.  1.
        994   -1    0    0    0    0 -0.00000000000E+00 -0.00000000000E+00  0.11368683772E-12  0.17120000000E+03  0.17120000000E+03 0.  0.
         13    1    1    2    0    0 -0.13562146978E+02 -0.43993212121E+01  0.14519323955E+02  0.20349638570E+02  0.10566000000E+00 0.  1.
        994    1    1    2    0    0  0.12077527856E+02  0.22252079116E+01  0.64266403076E+01  0.17176018146E+03  0.17120000000E+03 0.  0.
        998    1    1    2    0    0  0.14846191222E+01  0.21741133005E+01  0.14790540320E+04  0.14790901800E+04  0.10000000000E+02 0.  1.
</event>
<event>
 5    1  0.1068111E-008  0.3845271E+03  0.7957747E-01  0.3431680E+00
         13   -1    0    0    0    0  0.00000000000E+00  0.00000000000E+00  0.14999999963E+04  0.15000000000E+04  0.10566000000E+00 0. -1.
        994   -1    0    0    0    0 -0.00000000000E+00 -0.00000000000E+00  0.11368683772E-12  0.17120000000E+03  0.17120000000E+03 0.  0.
         13    1    1    2    0    0 -0.86541928454E+01 -0.98432751991E+01  0.48902629355E+02  0.50628682013E+02  0.10566000000E+00 0. -1.
        994    1    1    2    0    0 -0.50165886610E+01 -0.73221943739E+00  0.19497630600E+01  0.17128614621E+03  0.17120000000E+03 0.  0.
        998    1    1    2    0    0  0.13670781506E+02  0.10575494636E+02  0.14491476039E+04  0.14492851718E+04  0.10000000000E+02 0. -1.
</event>
<event>
 5    1  0.1068111E-008  0.3896005E+03  0.7957747E-01  0.3410392E+00
         13   -1    0    0    0    0  0.00000000000E+00  0.00000000000E+00  0.14999999963E+04  0.15000000000E+04  0.10566000000E+00 0. -1.
        994   -1    0    0    0    0 -0.00000000000E+00 -0.00000000000E+00  0.11368683772E-12  0.17120000000E+03  0.17120000000E+03 0.  0.
         13    1    1    2    0    0  0.47140826628E+02 -0.22262013109E+02  0.51925908219E+02  0.73581015698E+02  0.10566000000E+00 0. -1.
        994    1    1    2    0    0 -0.58424940692E+02  0.15374517116E+02  0.35546540052E+02  0.18499417824E+03  0.17120000000E+03 0.  0.
        998    1    1    2    0    0  0.11284114065E+02  0.68874959933E+01  0.14125275480E+04  0.14126248061E+04  0.10000000000E+02 0. -1.
</event>
<event>
 5    1  0.1068111E-008  0.3846929E+03  0.7957747E-01  0.3430976E+00
         13   -1    0    0    0    0  0.00000000000E+00  0.00000000000E+00  0.14999999963E+04  0.15000000000E+04  0.10566000000E+00 0.  1.
        994   -1    0    0    0    0 -0.00000000000E+00 -0.00000000000E+00  0.11368683772E-12  0.17120000000E+03  0.17120000000E+03 0.  0.
         13    1    1    2    0    0  0.18862365254E+02  0.61232374190E+01  0.10252915273E+03  0.10442950341E+03  0.10566000000E+00 0.  1.
        994    1    1    2    0    0 -0.18243566561E+02 -0.15769069602E+02  0.36992450477E+01  0.17292951076E+03  0.17120000000E+03 0.  0.
        998    1    1    2    0    0 -0.61879869258E+00  0.96458321828E+01  0.13937715985E+04  0.13938409858E+04  0.10000000000E+02 0.  1.
</event>
<event>
 5    1  0.1068111E-008  0.3857710E+03  0.7957747E-01  0.3426409E+00
         13   -1    0    0    0    0  0.00000000000E+00  0.00000000000E+00  0.14999999963E+04  0.15000000000E+04  0.10566000000E+00 0.  1.
        994   -1    0    0    0    0 -0.00000000000E+00 -0.00000000000E+00  0.11368683772E-12  0.17120000000E+03  0.17120000000E+03 0.  0.
         13    1    1    2    0    0  0.31455171966E+01 -0.11736923069E+02  0.57743408541E+02  0.59008152281E+02  0.10566000000E+00 0.  1.
        994    1    1    2    0    0 -0.29482083138E+01  0.12619397390E+02  0.17989405230E+01  0.17169920591E+03  0.17120000000E+03 0.  0.
        998    1    1    2    0    0 -0.19730888277E+00 -0.88247432066E+00  0.14404576472E+04  0.14404926418E+04  0.10000000000E+02 0.  1.
</event>
<event>
 5    1  0.1068111E-008  0.3806486E+03  0.7957747E-01  0.3448339E+00
         13   -1    0    0    0    0  0.00000000000E+00  0.00000000000E+00  0.14999999963E+04  0.15000000000E+04  0.10566000000E+00 0.  1.
        994   -1    0    0    0    0 -0.00000000000E+00 -0.00000000000E+00  0.11368683772E-12  0.17120000000E+03  0.17120000000E+03 0.  0.
         13    1    1    2    0    0  0.18624961240E+02 -0.58779653967E+01  0.48204787601E+02  0.52011079301E+02  0.10566000000E+00 0.  1.
        994    1    1    2    0    0 -0.16947132185E+02 -0.20303798204E+01  0.47785072697E+01  0.17211508320E+03  0.17120000000E+03 0.  0.
        998    1    1    2    0    0 -0.16778290541E+01  0.79083452171E+01  0.14470167014E+04  0.14470738375E+04  0.10000000000E+02 0.  1.
</event>
<event>
 5    1  0.1068111E-008  0.3698020E+03  0.7957747E-01  0.3496801E+00
         13   -1    0    0    0    0  0.00000000000E+00  0.00000000000E+00  0.14999999963E+04  0.15000000000E+04  0.10566000000E+00 0. -1.
        994   -1    0    0    0    0 -0.00000000000E+00 -0.00000000000E+00  0.11368683772E-12  0.17120000000E+03  0.17120000000E+03 0.  0.
         13    1    1    2    0    0  0.73076496418E+02  0.12901228036E+02  0.37680425977E+03  0.38404176512E+03  0.10566000000E+00 0. -1.
        994    1    1    2    0    0 -0.55393147451E+01 -0.33572346417E+02  0.13389085685E+02  0.17506140085E+03  0.17120000000E+03 0.  0.
        998    1    1    2    0    0 -0.67537181673E+02  0.20671118380E+02  0.11098066508E+04  0.11120968340E+04  0.10000000000E+02 0. -1.
</event>
<event>
 5    1  0.1068111E-008  0.3849414E+03  0.7957747E-01  0.3429921E+00
         13   -1    0    0    0    0  0.00000000000E+00  0.00000000000E+00  0.14999999963E+04  0.15000000000E+04  0.10566000000E+00 0.  1.
        994   -1    0    0    0    0 -0.00000000000E+00 -0.00000000000E+00  0.11368683772E-12  0.17120000000E+03  0.17120000000E+03 0.  0.
         13    1    1    2    0    0  0.50069117134E+01  0.92159590074E+01  0.32486473224E+02  0.34137738236E+02  0.10566000000E+00 0.  1.
        994    1    1    2    0    0 -0.41628564573E+01 -0.92069137472E+01  0.19951468334E+01  0.17150952523E+03  0.17120000000E+03 0.  0.
        998    1    1    2    0    0 -0.84405525606E+00 -0.90452601726E-02  0.14655183762E+04  0.14655527365E+04  0.10000000000E+02 0.  1.
</event>
<event>
 5    1  0.1068111E-008  0.3805550E+03  0.7957747E-01  0.3448745E+00
         13   -1    0    0    0    0  0.00000000000E+00  0.00000000000E+00  0.14999999963E+04  0.15000000000E+04  0.10566000000E+00 0. -1.
        994   -1    0    0    0    0 -0.00000000000E+00 -0.00000000000E+00  0.11368683772E-12  0.17120000000E+03  0.17120000000E+03 0.  0.
         13    1    1    2    0    0  0.12246658946E+02 -0.17728085972E+02  0.58887231547E+02  0.62705525202E+02  0.10566000000E+00 0. -1.
        994    1    1    2    0    0 -0.37376240651E+01  0.14118448008E+02  0.45652963838E+01  0.17188246664E+03  0.17120000000E+03 0.  0.
        998    1    1    2    0    0 -0.85090348813E+01  0.36096379646E+01  0.14365474683E+04  0.14366120082E+04  0.10000000000E+02 0. -1.
</event>
<event>
 5    1  0.1068111E-008  0.3790104E+03  0.7957747E-01  0.3455479E+00
         13   -1    0    0    0    0  0.00000000000E+00  0.00000000000E+00  0.14999999963E+04  0.15000000000E+04  0.10566000000E+00 0.  1.
        994   -1    0    0    0    0 -0.00000000000E+00 -0.00000000000E+00  0.11368683772E-12  0.17120000000E+03  0.17120000000E+03 0.  0.
         13    1    1    2    0    0  0.17050682078E+03  0.51369521423E+01  0.79718041178E+03  0.81522732063E+03  0.10566000000E+00 0.  1.
        994    1    1    2    0    0 -0.19317997168E+03 -0.22587697578E+02  0.14420282732E+03  0.29653431664E+03  0.17120000000E+03 0.  0.
        998    1    1    2    0    0  0.22673150904E+02  0.17450745436E+02  0.55861675718E+03  0.55943836273E+03  0.10000000000E+02 0.  1.
</event>
<event>
 5    1  0.1068111E-008  0.3862795E+03  0.7957747E-01  0.3424264E+00
         13   -1    0    0    0    0  0.00000000000E+00  0.00000000000E+00  0.14999999963E+04  0.15000000000E+04  0.10566000000E+00 0. -1.
        994   -1    0    0    0    0 -0.00000000000E+00 -0.00000000000E+00  0.11368683772E-12  0.17120000000E+03  0.17120000000E+03 0.  0.
         13    1    1    2    0    0  0.27370107893E+01 -0.10772070816E+02  0.65852415518E+02  0.66783834356E+02  0.10566000000E+00 0. -1.
        994    1    1    2    0    0  0.15958780671E+02  0.67353369626E+01  0.19794970801E+01  0.17208546090E+03  0.17120000000E+03 0.  0.
        998    1    1    2    0    0 -0.18695791460E+02  0.40367338531E+01  0.14321680837E+04  0.14323307047E+04  0.10000000000E+02 0. -1.
</event>
<event>
 5    1  0.1068111E-008  0.3798278E+03  0.7957747E-01  0.3451909E+00
         13   -1    0    0    0    0  0.00000000000E+00  0.00000000000E+00  0.14999999963E+04  0.15000000000E+04  0.10566000000E+00 0.  1.
        994   -1    0    0    0    0 -0.00000000000E+00 -0.00000000000E+00  0.11368683772E-12  0.17120000000E+03  0.17120000000E+03 0.  0.
         13    1    1    2    0    0 -0.19237483730E+02 -0.34988658444E+02  0.16889301248E+03  0.17354869008E+03  0.10566000000E+00 0.  1.
        994    1    1    2    0    0  0.26136326008E+02  0.30348100665E+02  0.96042942661E+01  0.17608463084E+03  0.17120000000E+03 0.  0.
        998    1    1    2    0    0 -0.68988422787E+01  0.46405577789E+01  0.13215026895E+04  0.13215666791E+04  0.10000000000E+02 0.  1.
</event>
<event>
 5    1  0.1068111E-008  0.3840637E+03  0.7957747E-01  0.3433653E+00
         13   -1    0    0    0    0  0.00000000000E+00  0.00000000000E+00  0.14999999963E+04  0.15000000000E+04  0.10566000000E+00 0. -1.
        994   -1    0    0    0    0 -0.00000000000E+00 -0.00000000000E+00  0.11368683772E-12  0.17120000000E+03  0.17120000000E+03 0.  0.
         13    1    1    2    0    0 -0.98967825857E+01 -0.16211598206E+02  0.81058831780E+02  0.83254474928E+02  0.10566000000E+00 0. -1.
        994    1    1    2    0    0  0.95627216023E+01  0.18801748541E+02  0.35648190991E+01  0.17253144446E+03  0.17120000000E+03 0.  0.
        998    1    1    2    0    0  0.33406098331E+00 -0.25901503348E+01  0.14153763454E+04  0.14154140806E+04  0.10000000000E+02 0. -1.
</event>
<event>
 5    1  0.1068111E-008  0.3848064E+03  0.7957747E-01  0.3430494E+00
         13   -1    0    0    0    0  0.00000000000E+00  0.00000000000E+00  0.14999999963E+04  0.15000000000E+04  0.10566000000E+00 0. -1.
        994   -1    0    0    0    0 -0.00000000000E+00 -0.00000000000E+00  0.11368683772E-12  0.17120000000E+03  0.17120000000E+03 0.  0.
         13    1    1    2    0    0  0.75998924689E+01 -0.10614961589E+02  0.52536944185E+02  0.54134808058E+02  0.10566000000E+00 0. -1.
        994    1    1    2    0    0  0.55263760261E+01  0.42823025195E+00  0.18273802872E+01  0.17129945573E+03  0.17120000000E+03 0.  0.
        998    1    1    2    0    0 -0.13126268495E+02  0.10186731337E+02  0.14456356718E+04  0.14457657362E+04  0.10000000000E+02 0. -1.
</event>
<event>
 5    1  0.1068111E-008  0.3844500E+03  0.7957747E-01  0.3432008E+00
         13   -1    0    0    0    0  0.00000000000E+00  0.00000000000E+00  0.14999999963E+04  0.15000000000E+04  0.10566000000E+00 0.  1.
        994   -1    0    0    0    0 -0.00000000000E+00 -0.00000000000E+00  0.11368683772E-12  0.17120000000E+03  0.17120000000E+03 0.  0.
         13    1    1    2    0    0 -0.14353119947E+02 -0.10285388683E+02  0.83676786327E+02  0.85519687831E+02  0.10566000000E+00 0.  1.
        994    1    1    2    0    0  0.87195939572E+01  0.11500434809E+01  0.21583345765E+01  0.17143935466E+03  0.17120000000E+03 0.  0.
        998    1    1    2    0    0  0.56335259899E+01  0.91353452018E+01  0.14141648754E+04  0.14142409575E+04  0.10000000000E+02 0.  1.
</event>
<event>
 5    1  0.1068111E-008  0.3826742E+03  0.7957747E-01  0.3439596E+00
         13   -1    0    0    0    0  0.00000000000E+00  0.00000000000E+00  0.14999999963E+04  0.15000000000E+04  0.10566000000E+00 0.  1.
        994   -1    0    0    0    0 -0.00000000000E+00 -0.00000000000E+00  0.11368683772E-12  0.17120000000E+03  0.17120000000E+03 0.  0.
         13    1    1    2    0    0 -0.79252721252E+01 -0.25218835354E+02  0.11757934232E+03  0.12051436636E+03  0.10566000000E+00 0.  1.
        994    1    1    2    0    0  0.10964322746E+02  0.22377149352E+02  0.48495825689E+01  0.17307198398E+03  0.17120000000E+03 0.  0.
        998    1    1    2    0    0 -0.30390506204E+01  0.28416860016E+01  0.13775710714E+04  0.13776136497E+04  0.10000000000E+02 0.  1.
</event>
<event>
 5    1  0.1068111E-008  0.3738730E+03  0.7957747E-01  0.3478278E+00
         13   -1    0    0    0    0  0.00000000000E+00  0.00000000000E+00  0.14999999963E+04  0.15000000000E+04  0.10566000000E+00 0.  1.
        994   -1    0    0    0    0 -0.00000000000E+00 -0.00000000000E+00  0.11368683772E-12  0.17120000000E+03  0.17120000000E+03 0.  0.
         13    1    1    2    0    0  0.31536743273E+01  0.29607443118E+02  0.56758495040E+02  0.64094338853E+02  0.10566000000E+00 0.  1.
        994    1    1    2    0    0 -0.15333233078E+01 -0.27634509255E+02  0.98767905993E+01  0.17370379436E+03  0.17120000000E+03 0.  0.
        998    1    1    2    0    0 -0.16203510195E+01 -0.19729338628E+01  0.14333647106E+04  0.14334018668E+04  0.10000000000E+02 0.  1.
</event>
<event>
 5    1  0.1068111E-008  0.3823007E+03  0.7957747E-01  0.3441201E+00
         13   -1    0    0    0    0  0.00000000000E+00  0.00000000000E+00  0.14999999963E+04  0.15000000000E+04  0.10566000000E+00 0. -1.
        994   -1    0    0    0    0 -0.00000000000E+00 -0.00000000000E+00  0.11368683772E-12  0.17120000000E+03  0.17120000000E+03 0.  0.
         13    1    1    2    0    0 -0.18320046124E+02 -0.38335392118E+01  0.57052410050E+02  0.60044223448E+02  0.10566000000E+00 0. -1.
        994    1    1    2    0    0  0.13807082322E+02  0.90663914558E+01  0.38819314019E+01  0.17203878739E+03  0.17120000000E+03 0.  0.
        998    1    1    2    0    0  0.45129638020E+01 -0.52328522440E+01  0.14390656548E+04  0.14391169892E+04  0.10000000000E+02 0. -1.
</event>
<event>
 5    1  0.1068111E-008  0.3801052E+03  0.7957747E-01  0.3450700E+00
         13   -1    0    0    0    0  0.00000000000E+00  0.00000000000E+00  0.14999999963E+04  0.15000000000E+04  0.10566000000E+00 0.  1.
        994   -1    0    0    0    0 -0.00000000000E+00 -0.00000000000E+00  0.11368683772E-12  0.17120000000E+03  0.17120000000E+03 0.  0.
         13    1    1    2    0    0  0.26186138004E+02 -0.17689851048E+02  0.13238497855E+03  0.13610451265E+03  0.10566000000E+00 0.  1.
        994    1    1    2    0    0 -0.45521675012E+01  0.31050600994E+00  0.41496149518E+01  0.17131105611E+03  0.17120000000E+03 0.  0.
        998    1    1    2    0    0 -0.21633970502E+02  0.17379345038E+02  0.13634654028E+04  0.13637844312E+04  0.10000000000E+02 0.  1.
</event>
<event>
 5    1  0.1068111E-008  0.3846801E+03  0.7957747E-01  0.3431030E+00
         13   -1    0    0    0    0  0.00000000000E+00  0.00000000000E+00  0.14999999963E+04  0.15000000000E+04  0.10566000000E+00 0.  1.
        994   -1    0    0    0    0 -0.00000000000E+00 -0.00000000000E+00  0.11368683772E-12  0.17120000000E+03  0.17120000000E+03 0.  0.
         13    1    1    2    0    0 -0.20727406596E+02 -0.77548759471E+01  0.13055842384E+03  0.13242083177E+03  0.10566000000E+00 0.  1.
        994    1    1    2    0    0  0.15885032944E+02  0.12140807534E+02  0.31060945636E+01  0.17239147689E+03  0.17120000000E+03 0.  0.
        998    1    1    2    0    0  0.48423736513E+01 -0.43859315867E+01  0.13663354779E+04  0.13663876913E+04  0.10000000000E+02 0.  1.
</event>
<event>
 5    1  0.1068111E-008  0.3852587E+03  0.7957747E-01  0.3428576E+00
         13   -1    0    0    0    0  0.00000000000E+00  0.00000000000E+00  0.14999999963E+04  0.15000000000E+04  0.10566000000E+00 0. -1.
        994   -1    0    0    0    0 -0.00000000000E+00 -0.00000000000E+00  0.11368683772E-12  0.17120000000E+03  0.17120000000E+03 0.  0.
         13    1    1    2    0    0 -0.12331717713E+02  0.56196369034E+01  0.70274296871E+02  0.71569124247E+02  0.10566000000E+00 0. -1.
        994    1    1    2    0    0 -0.17458465499E+02 -0.14446211231E+02  0.31908303059E+01  0.17272264598E+03  0.17120000000E+03 0.  0.
        998    1    1    2    0    0  0.29790183212E+02  0.88265743277E+01  0.14265348691E+04  0.14269082298E+04  0.10000000000E+02 0. -1.
</event>
<event>
 5    1  0.1068111E-008  0.3125851E+03  0.7957747E-01  0.3810077E+00
         13   -1    0    0    0    0  0.00000000000E+00  0.00000000000E+00  0.14999999963E+04  0.15000000000E+04  0.10566000000E+00 0. -1.
        994   -1    0    0    0    0 -0.00000000000E+00 -0.00000000000E+00  0.11368683772E-12  0.17120000000E+03  0.17120000000E+03 0.  0.
         13    1    1    2    0    0  0.30900836485E+02  0.17331293742E+03  0.80133257348E+03  0.82044264909E+03  0.10566000000E+00 0. -1.
        994    1    1    2    0    0 -0.41562063379E+02 -0.13556441573E+03  0.88522937237E+02  0.23927153266E+03  0.17120000000E+03 0.  0.
        998    1    1    2    0    0  0.10661226894E+02 -0.37748521687E+02  0.61014448557E+03  0.61148581825E+03  0.10000000000E+02 0.  1.
</event>
<event>
 5    1  0.1068111E-008  0.3781369E+03  0.7957747E-01  0.3459311E+00
         13   -1    0    0    0    0  0.00000000000E+00  0.00000000000E+00  0.14999999963E+04  0.15000000000E+04  0.10566000000E+00 0. -1.
        994   -1    0    0    0    0 -0.00000000000E+00 -0.00000000000E+00  0.11368683772E-12  0.17120000000E+03  0.17120000000E+03 0.  0.
         13    1    1    2    0    0  0.51491002243E+02 -0.11870064129E+02  0.21530985694E+03  0.22169927243E+03  0.10566000000E+00 0. -1.
        994    1    1    2    0    0 -0.67212413046E+02  0.93152245551E+00  0.20428434354E+02  0.18505441668E+03  0.17120000000E+03 0.  0.
        998    1    1    2    0    0  0.15721410803E+02  0.10938541673E+02  0.12642617050E+04  0.12644463109E+04  0.10000000000E+02 0. -1.
</event>
<event>
 5    1  0.1416816E-008  0.3848332E+03  0.7957747E-01  0.3430380E+00
         13   -1    0    0    0    0  0.00000000000E+00  0.00000000000E+00  0.14999999963E+04  0.15000000000E+04  0.10566000000E+00 0. -1.
        994   -1    0    0    0    0 -0.00000000000E+00 -0.00000000000E+00  0.11368683772E-12  0.17120000000E+03  0.17120000000E+03 0.  0.
         13    1    1    2    0    0 -0.53587337567E+01  0.85170890212E+01  0.29048742649E+02  0.30742437223E+02  0.10566000000E+00 0. -1.
        994    1    1    2    0    0  0.66646790792E+00 -0.96005796532E+01  0.20177693741E+01  0.17148214689E+03  0.17120000000E+03 0.  0.
        998    1    1    2    0    0  0.46922658487E+01  0.10834906320E+01  0.14689334843E+04  0.14689754159E+04  0.10000000000E+02 0. -1.
</event>
<event>
 5    1  0.1068111E-008  0.2619639E+03  0.7957747E-01  0.4211575E+00
         13   -1    0    0    0    0  0.00000000000E+00  0.00000000000E+00  0.14999999963E+04  0.15000000000E+04  0.10566000000E+00 0.  1.
        994   -1    0    0    0    0 -0.00000000000E+00 -0.00000000000E+00  0.11368683772E-12  0.17120000000E+03  0.17120000000E+03 0.  0.
         13    1    1    2    0    0  0.90732721850E+02 -0.16319908083E+03  0.45132971989E+03  0.48843105349E+03  0.10566000000E+00 0.  1.
        994    1    1    2    0    0 -0.43268905515E+02  0.11711029035E+03  0.10454471198E+03  0.23627537978E+03  0.17120000000E+03 0.  0.
        998    1    1    2    0    0 -0.47463816335E+02  0.46088790489E+02  0.94412556441E+03  0.94649356672E+03  0.10000000000E+02 0.  1.
</event>
<event>
 5    1  0.1068111E-008  0.3974071E+03  0.7957747E-01  0.3378698E+00
         13   -1    0    0    0    0  0.00000000000E+00  0.00000000000E+00  0.14999999963E+04  0.15000000000E+04  0.10566000000E+00 0.  1.
        994   -1    0    0    0    0 -0.00000000000E+00 -0.00000000000E+00  0.11368683772E-12  0.17120000000E+03  0.17120000000E+03 0.  0.
         13    1    1    2    0    0  0.38526765378E+02 -0.50377549593E+02  0.67934992489E+02  0.92937524832E+02  0.10566000000E+00 0.  1.
        994    1    1    2    0    0 -0.29644978240E+02  0.36816589124E+02  0.34942609454E+02  0.18101025365E+03  0.17120000000E+03 0.  0.
        998    1    1    2    0    0 -0.88817871379E+01  0.13560960468E+02  0.13971223943E+04  0.13972522215E+04  0.10000000000E+02 0.  1.
</event>
<event>
 5    1  0.1068111E-008  0.3830897E+03  0.7957747E-01  0.3437814E+00
         13   -1    0    0    0    0  0.00000000000E+00  0.00000000000E+00  0.14999999963E+04  0.15000000000E+04  0.10566000000E+00 0. -1.
        994   -1    0    0    0    0 -0.00000000000E+00 -0.00000000000E+00  0.11368683772E-12  0.17120000000E+03  0.17120000000E+03 0.  0.
         13    1    1    2    0    0 -0.18173712800E+02  0.17167377929E+02  0.12559702795E+03  0.12806102957E+03  0.10566000000E+00 0. -1.
        994    1    1    2    0    0  0.53254522206E+01 -0.78252511190E+01  0.28780660952E+01  0.17148562115E+03  0.17120000000E+03 0.  0.
        998    1    1    2    0    0  0.12848260580E+02 -0.93421268101E+01  0.13715249022E+04  0.13716533493E+04  0.10000000000E+02 0. -1.
</event>
<event>
 5    1  0.1068111E-008  0.3789525E+03  0.7957747E-01  0.3455732E+00
         13   -1    0    0    0    0  0.00000000000E+00  0.00000000000E+00  0.14999999963E+04  0.15000000000E+04  0.10566000000E+00 0.  1.
        994   -1    0    0    0    0 -0.00000000000E+00 -0.00000000000E+00  0.11368683772E-12  0.17120000000E+03  0.17120000000E+03 0.  0.
         13    1    1    2    0    0  0.14249335771E+02 -0.13670942367E+02  0.39553364242E+02  0.44208800278E+02  0.10566000000E+00 0.  1.
        994    1    1    2    0    0 -0.17241299162E+02  0.59053456684E+01  0.57778200029E+01  0.17226421192E+03  0.17120000000E+03 0.  0.
        998    1    1    2    0    0  0.29919633907E+01  0.77655966987E+01  0.14546688120E+04  0.14547269878E+04  0.10000000000E+02 0.  1.
</event>
<event>
 5    1  0.1068111E-008  0.3826198E+03  0.7957747E-01  0.3439830E+00
         13   -1    0    0    0    0  0.00000000000E+00  0.00000000000E+00  0.14999999963E+04  0.15000000000E+04  0.10566000000E+00 0.  1.
        994   -1    0    0    0    0 -0.00000000000E+00 -0.00000000000E+00  0.11368683772E-12  0.17120000000E+03  0.17120000000E+03 0.  0.
         13    1    1    2    0    0 -0.16535957601E+02  0.23538653949E+02  0.13000967285E+03  0.13315416750E+03  0.10566000000E+00 0.  1.
        994    1    1    2    0    0  0.22250343836E+02 -0.26216007323E+02  0.67449984860E+01  0.17474922559E+03  0.17120000000E+03 0.  0.
        998    1    1    2    0    0 -0.57143862351E+01  0.26773533746E+01  0.13632453249E+04  0.13632966069E+04  0.10000000000E+02 0.  1.
</event>
<event>
 5    1  0.1068111E-008  0.3731477E+03  0.7957747E-01  0.3481549E+00
         13   -1    0    0    0    0  0.00000000000E+00  0.00000000000E+00  0.14999999963E+04  0.15000000000E+04  0.10566000000E+00 0.  1.
        994   -1    0    0    0    0 -0.00000000000E+00 -0.00000000000E+00  0.11368683772E-12  0.17120000000E+03  0.17120000000E+03 0.  0.
         13    1    1    2    0    0  0.18284042922E+02  0.54298494126E+02  0.11635276739E+03  0.12969429569E+03  0.10566000000E+00 0.  1.
        994    1    1    2    0    0 -0.17353151512E+02 -0.55390314143E+02  0.24620352085E+02  0.18244127961E+03  0.17120000000E+03 0.  0.
        998    1    1    2    0    0 -0.93089141068E+00  0.10918200177E+01  0.13590268768E+04  0.13590644247E+04  0.10000000000E+02 0.  1.
</event>
<event>
 5    1  0.1068111E-008  0.3813684E+03  0.7957747E-01  0.3445222E+00
         13   -1    0    0    0    0  0.00000000000E+00  0.00000000000E+00  0.14999999963E+04  0.15000000000E+04  0.10566000000E+00 0.  1.
        994   -1    0    0    0    0 -0.00000000000E+00 -0.00000000000E+00  0.11368683772E-12  0.17120000000E+03  0.17120000000E+03 0.  0.
         13    1    1    2    0    0 -0.25209264274E+02  0.70228320687E+01  0.12183916074E+03  0.12461789370E+03  0.10566000000E+00 0.  1.
        994    1    1    2    0    0 -0.15928733823E+02  0.88444738019E+01  0.45494371221E+01  0.17222684650E+03  0.17120000000E+03 0.  0.
        998    1    1    2    0    0  0.41137998097E+02 -0.15867305871E+02  0.13736113984E+04  0.13743552598E+04  0.10000000000E+02 0.  1.
</event>
<event>
 5    1  0.1068111E-008  0.3847370E+03  0.7957747E-01  0.3430788E+00
         13   -1    0    0    0    0  0.00000000000E+00  0.00000000000E+00  0.14999999963E+04  0.15000000000E+04  0.10566000000E+00 0. -1.
        994   -1    0    0    0    0 -0.00000000000E+00 -0.00000000000E+00  0.11368683772E-12  0.17120000000E+03  0.17120000000E+03 0.  0.
         13    1    1    2    0    0 -0.19001126602E+02  0.20677244791E+01  0.97995155465E+02  0.99841774600E+02  0.10566000000E+00 0. -1.
        994    1    1    2    0    0  0.20324406001E+02  0.42184812597E+01  0.31802420754E+01  0.17248313252E+03  0.17120000000E+03 0.  0.
        998    1    1    2    0    0 -0.13232793990E+01 -0.62862057388E+01  0.13988245987E+04  0.13988750929E+04  0.10000000000E+02 0. -1.
</event>
<event>
 5    1  0.1068111E-008  0.3690218E+03  0.7957747E-01  0.3500398E+00
         13   -1    0    0    0    0  0.00000000000E+00  0.00000000000E+00  0.14999999963E+04  0.15000000000E+04  0.10566000000E+00 0.  1.
        994   -1    0    0    0    0 -0.00000000000E+00 -0.00000000000E+00  0.11368683772E-12  0.17120000000E+03  0.17120000000E+03 0.  0.
         13    1    1    2    0    0 -0.10085682638E+02 -0.15961286461E+02  0.13707510884E+02  0.23332181176E+02  0.10566000000E+00 0.  1.
        994    1    1    2    0    0  0.17694027191E+02  0.13671469596E+02  0.11517792559E+02  0.17303782021E+03  0.17120000000E+03 0.  0.
        998    1    1    2    0    0 -0.76083445535E+01  0.22898168654E+01  0.14747746928E+04  0.14748299986E+04  0.10000000000E+02 0.  1.
</event>
<event>
 5    1  0.1068111E-008  0.3806851E+03  0.7957747E-01  0.3448181E+00
         13   -1    0    0    0    0  0.00000000000E+00  0.00000000000E+00  0.14999999963E+04  0.15000000000E+04  0.10566000000E+00 0. -1.
        994   -1    0    0    0    0 -0.00000000000E+00 -0.00000000000E+00  0.11368683772E-12  0.17120000000E+03  0.17120000000E+03 0.  0.
         13    1    1    2    0    0 -0.32465390182E+02 -0.57110526918E+02  0.12165991314E+03  0.13826336996E+03  0.10566000000E+00 0. -1.
        994    1    1    2    0    0  0.32660029088E+02  0.36689401861E+02  0.25521070281E+02  0.17992652594E+03  0.17120000000E+03 0.  0.
        998    1    1    2    0    0 -0.19463890550E+00  0.20421125057E+02  0.13528190129E+04  0.13530101041E+04  0.10000000000E+02 0. -1.
</event>
<event>
 5    1  0.1068111E-008  0.3816719E+03  0.7957747E-01  0.3443911E+00
         13   -1    0    0    0    0  0.00000000000E+00  0.00000000000E+00  0.14999999963E+04  0.15000000000E+04  0.10566000000E+00 0.  1.
        994   -1    0    0    0    0 -0.00000000000E+00 -0.00000000000E+00  0.11368683772E-12  0.17120000000E+03  0.17120000000E+03 0.  0.
         13    1    1    2    0    0  0.17195855033E+02 -0.28184048578E+02  0.14816075232E+03  0.15179478818E+03  0.10566000000E+00 0.  1.
        994    1    1    2    0    0 -0.34965059530E+02  0.19962132507E+02  0.86996279533E+01  0.17608567701E+03  0.17120000000E+03 0.  0.
        998    1    1    2    0    0  0.17769204496E+02  0.82219160709E+01  0.13431396160E+04  0.13433195348E+04  0.10000000000E+02 0.  1.
</event>
<event>
 5    1  0.1068111E-008  0.3849331E+03  0.7957747E-01  0.3429956E+00
         13   -1    0    0    0    0  0.00000000000E+00  0.00000000000E+00  0.14999999963E+04  0.15000000000E+04  0.10566000000E+00 0.  1.
        994   -1    0    0    0    0 -0.00000000000E+00 -0.00000000000E+00  0.11368683772E-12  0.17120000000E+03  0.17120000000E+03 0.  0.
         13    1    1    2    0    0  0.41649402038E+01 -0.12651955757E+02  0.51968534025E+02  0.53648470660E+02  0.10566000000E+00 0.  1.
        994    1    1    2    0    0 -0.23999428926E+01  0.13167140371E+02  0.22528347176E+01  0.17173714967E+03  0.17120000000E+03 0.  0.
        998    1    1    2    0    0 -0.17649973112E+01 -0.51518461409E+00  0.14457786275E+04  0.14458143797E+04  0.10000000000E+02 0.  1.
</event>
<event>
 5    1  0.1068111E-008  0.3728141E+03  0.7957747E-01  0.3483057E+00
         13   -1    0    0    0    0  0.00000000000E+00  0.00000000000E+00  0.14999999963E+04  0.15000000000E+04  0.10566000000E+00 0. -1.
        994   -1    0    0    0    0 -0.00000000000E+00 -0.00000000000E+00  0.11368683772E-12  0.17120000000E+03  0.17120000000E+03 0.  0.
         13    1    1    2    0    0  0.16687763453E+03  0.23441457831E+03  0.10436324195E+04  0.10825742365E+04  0.10566000000E+00 0. -1.
        994    1    1    2    0    0 -0.16875706008E+03 -0.21620474078E+03  0.33535372106E+03  0.46582721420E+03  0.17120000000E+03 0.  0.
        998    1    1    2    0    0  0.18794255541E+01 -0.18209837534E+02  0.12101385575E+03  0.12279854928E+03  0.10000000000E+02 0.  0.
</event>
<event>
 5    1  0.1068111E-008  0.3838539E+03  0.7957747E-01  0.3434548E+00
         13   -1    0    0    0    0  0.00000000000E+00  0.00000000000E+00  0.14999999963E+04  0.15000000000E+04  0.10566000000E+00 0.  1.
        994   -1    0    0    0    0 -0.00000000000E+00 -0.00000000000E+00  0.11368683772E-12  0.17120000000E+03  0.17120000000E+03 0.  0.
         13    1    1    2    0    0 -0.47672068547E+01 -0.13709517347E+02  0.43591368120E+02  0.45944484606E+02  0.10566000000E+00 0.  1.
        994    1    1    2    0    0  0.47376629565E+01  0.27850156100E+02  0.48390722499E+01  0.17358264103E+03  0.17120000000E+03 0.  0.
        998    1    1    2    0    0  0.29543898223E-01 -0.14140638752E+02  0.14515695559E+04  0.14516728744E+04  0.10000000000E+02 0.  1.
</event>
<event>
 5    1  0.1068111E-008  0.3799621E+03  0.7957747E-01  0.3451323E+00
         13   -1    0    0    0    0  0.00000000000E+00  0.00000000000E+00  0.14999999963E+04  0.15000000000E+04  0.10566000000E+00 0. -1.
        994   -1    0    0    0    0 -0.00000000000E+00 -0.00000000000E+00  0.11368683772E-12  0.17120000000E+03  0.17120000000E+03 0.  0.
         13    1    1    2    0    0  0.28391948869E+02 -0.35301478696E+02  0.21088804127E+03  0.21569903633E+03  0.10566000000E+00 0. -1.
        994    1    1    2    0    0 -0.27623216711E+02  0.37658662725E+02  0.11479515311E+02  0.17782698404E+03  0.17120000000E+03 0.  0.
        998    1    1    2    0    0 -0.76873215752E+00 -0.23571840287E+01  0.12776324397E+04  0.12776739796E+04  0.10000000000E+02 0.  0.
</event>
<event>
 5    1  0.1068111E-008  0.3860657E+03  0.7957747E-01  0.3425165E+00
         13   -1    0    0    0    0  0.00000000000E+00  0.00000000000E+00  0.14999999963E+04  0.15000000000E+04  0.10566000000E+00 0.  1.
        994   -1    0    0    0    0 -0.00000000000E+00 -0.00000000000E+00  0.11368683772E-12  0.17120000000E+03  0.17120000000E+03 0.  0.
         13    1    1    2    0    0 -0.90179362940E+01  0.75422738422E+01  0.60191517378E+02  0.61328940950E+02  0.10566000000E+00 0.  1.
        994    1    1    2    0    0  0.86821639649E+01 -0.13427769311E+02  0.19403469767E+01  0.17195606970E+03  0.17120000000E+03 0.  0.
        998    1    1    2    0    0  0.33577232905E+00  0.58854954687E+01  0.14378681319E+04  0.14379149894E+04  0.10000000000E+02 0.  1.
</event>
<event>
 5    1  0.1068111E-008  0.3720447E+03  0.7957747E-01  0.3486546E+00
         13   -1    0    0    0    0  0.00000000000E+00  0.00000000000E+00  0.14999999963E+04  0.15000000000E+04  0.10566000000E+00 0.  1.
        994   -1    0    0    0    0 -0.00000000000E+00 -0.00000000000E+00  0.11368683772E-12  0.17120000000E+03  0.17120000000E+03 0.  0.
         13    1    1    2    0    0 -0.46821460238E+02  0.24165654175E+02  0.21081086821E+03  0.21729579218E+03  0.10566000000E+00 0.  1.
        994    1    1    2    0    0 -0.32882636581E+01  0.14399585465E+02  0.89535876771E+01  0.17206907762E+03  0.17120000000E+03 0.  0.
        998    1    1    2    0    0  0.50109723896E+02 -0.38565239640E+02  0.12802355404E+04  0.12818351302E+04  0.10000000000E+02 0.  1.
</event>
<event>
 5    1  0.1068111E-008  0.3843234E+03  0.7957747E-01  0.3432547E+00
         13   -1    0    0    0    0  0.00000000000E+00  0.00000000000E+00  0.14999999963E+04  0.15000000000E+04  0.10566000000E+00 0. -1.
        994   -1    0    0    0    0 -0.00000000000E+00 -0.00000000000E+00  0.11368683772E-12  0.17120000000E+03  0.17120000000E+03 0.  0.
         13    1    1    2    0    0  0.10269767184E+02  0.84164172353E+01  0.43761594369E+02  0.45731745023E+02  0.10566000000E+00 0. -1.
        994    1    1    2    0    0 -0.28332467145E+02  0.14484515298E+02  0.53107457082E+01  0.17421301300E+03  0.17120000000E+03 0.  0.
        998    1    1    2    0    0  0.18062699960E+02 -0.22900932533E+02  0.14509276562E+04  0.14512552420E+04  0.10000000000E+02 0. -1.
</event>
<event>
 5    1  0.1761212E-008  0.3862132E+03  0.7957747E-01  0.3424543E+00
         13   -1    0    0    0    0  0.00000000000E+00  0.00000000000E+00  0.14999999963E+04  0.15000000000E+04  0.10566000000E+00 0.  1.
        994   -1    0    0    0    0 -0.00000000000E+00 -0.00000000000E+00  0.11368683772E-12  0.17120000000E+03  0.17120000000E+03 0.  0.
         13    1    1    2    0    0 -0.83184221204E+01  0.68442611704E+01  0.55615277264E+02  0.56649009582E+02  0.10566000000E+00 0.  1.
        994    1    1    2    0    0  0.10661397485E+02 -0.47886133328E+01  0.14765733933E+01  0.17160482651E+03  0.17120000000E+03 0.  0.
        998    1    1    2    0    0 -0.23429753644E+01 -0.20556478377E+01  0.14429081456E+04  0.14429461639E+04  0.10000000000E+02 0.  1.
</event>
<event>
 5    1  0.1068111E-008  0.3745559E+03  0.7957747E-01  0.3475212E+00
         13   -1    0    0    0    0  0.00000000000E+00  0.00000000000E+00  0.14999999963E+04  0.15000000000E+04  0.10566000000E+00 0.  1.
        994   -1    0    0    0    0 -0.00000000000E+00 -0.00000000000E+00  0.11368683772E-12  0.17120000000E+03  0.17120000000E+03 0.  0.
         13    1    1    2    0    0  0.17284960712E+02 -0.12869195197E+02  0.30083180937E+02  0.37005337334E+02  0.10566000000E+00 0.  1.
        994    1    1    2    0    0 -0.17103893156E+02  0.16054301715E+02  0.87825620504E+01  0.17302270707E+03  0.17120000000E+03 0.  0.
        998    1    1    2    0    0 -0.18106755605E+00 -0.31851065183E+01  0.14611342533E+04  0.14611719556E+04  0.10000000000E+02 0.  1.
</event>
<event>
 5    1  0.1068111E-008  0.3712736E+03  0.7957747E-01  0.3490058E+00
         13   -1    0    0    0    0  0.00000000000E+00  0.00000000000E+00  0.14999999963E+04  0.15000000000E+04  0.10566000000E+00 0. -1.
        994   -1    0    0    0    0 -0.00000000000E+00 -0.00000000000E+00  0.11368683772E-12  0.17120000000E+03  0.17120000000E+03 0.  0.
         13    1    1    2    0    0 -0.13860311827E+02  0.16740097867E+02  0.22923125272E+02  0.31588288286E+02  0.10566000000E+00 0. -1.
        994    1    1    2    0    0  0.15811385557E+02 -0.27141781899E+02  0.12009096605E+02  0.17447158691E+03  0.17120000000E+03 0.  0.
        998    1    1    2    0    0 -0.19510737306E+01  0.10401684032E+02  0.14650677744E+04  0.14651401248E+04  0.10000000000E+02 0. -1.
</event>
<event>
 5    1  0.1068111E-008  0.3778530E+03  0.7957747E-01  0.3460561E+00
         13   -1    0    0    0    0  0.00000000000E+00  0.00000000000E+00  0.14999999963E+04  0.15000000000E+04  0.10566000000E+00 0.  1.
        994   -1    0    0    0    0 -0.00000000000E+00 -0.00000000000E+00  0.11368683772E-12  0.17120000000E+03  0.17120000000E+03 0.  0.
         13    1    1    2    0    0  0.59304774690E+01  0.11298328529E+02  0.13272070349E+02  0.18411458550E+02  0.10566000000E+00 0.  1.
        994    1    1    2    0    0 -0.17431333157E+02 -0.19308603430E+01  0.62571332625E+01  0.17220967253E+03  0.17120000000E+03 0.  0.
        998    1    1    2    0    0  0.11500855688E+02 -0.93674681862E+01  0.14804707927E+04  0.14805788689E+04  0.10000000000E+02 0.  1.
</event>
<event>
 5    1  0.1068111E-008  0.3811354E+03  0.7957747E-01  0.3446230E+00
         13   -1    0    0    0    0  0.00000000000E+00  0.00000000000E+00  0.14999999963E+04  0.15000000000E+04  0.10566000000E+00 0.  1.
        994   -1    0    0    0    0 -0.00000000000E+00 -0.00000000000E+00  0.11368683772E-12  0.17120000000E+03  0.17120000000E+03 0.  0.
         13    1    1    2    0    0 -0.15404056206E+02  0.30838913911E+02  0.20772786546E+03  0.21056875555E+03  0.10566000000E+00 0.  1.
        994    1    1    2    0    0 -0.77300575928E+01  0.36600442322E+01  0.38047652075E+01  0.17145572592E+03  0.17120000000E+03 0.  0.
        998    1    1    2    0    0  0.23134113799E+02 -0.34498958144E+02  0.12884673656E+04  0.12891755185E+04  0.10000000000E+02 0.  1.
</event>
<event>
 5    1  0.1068111E-008  0.3827542E+03  0.7957747E-01  0.3439253E+00
         13   -1    0    0    0    0  0.00000000000E+00  0.00000000000E+00  0.14999999963E+04  0.15000000000E+04  0.10566000000E+00 0. -1.
        994   -1    0    0    0    0 -0.00000000000E+00 -0.00000000000E+00  0.11368683772E-12  0.17120000000E+03  0.17120000000E+03 0.  0.
         13    1    1    2    0    0  0.13221277200E+02 -0.12597484639E+01  0.29107161220E+02  0.31994173459E+02  0.10566000000E+00 0. -1.
        994    1    1    2    0    0 -0.27673971394E+02  0.63554690342E+01  0.54247165371E+01  0.17362346681E+03  0.17120000000E+03 0.  0.
        998    1    1    2    0    0  0.14452694194E+02 -0.50957205704E+01  0.14654681185E+04  0.14655823597E+04  0.10000000000E+02 0. -1.
</event>
<event>
 5    1  0.2290608E-008  0.3862851E+03  0.7957747E-01  0.3424240E+00
         13   -1    0    0    0    0  0.00000000000E+00  0.00000000000E+00  0.14999999963E+04  0.15000000000E+04  0.10566000000E+00 0.  1.
        994   -1    0    0    0    0 -0.00000000000E+00 -0.00000000000E+00  0.11368683772E-12  0.17120000000E+03  0.17120000000E+03 0.  0.
         13    1    1    2    0    0 -0.93227350575E+01  0.42432537496E+01  0.53317254978E+02  0.54292351522E+02  0.10566000000E+00 0.  1.
        994    1    1    2    0    0  0.63807941790E+01 -0.50900053392E+01  0.12116730491E+01  0.17139874807E+03  0.17120000000E+03 0.  0.
        998    1    1    2    0    0  0.29419408785E+01  0.84675158958E+00  0.14454710683E+04  0.14455089004E+04  0.10000000000E+02 0.  1.
</event>
<event>
 5    1  0.1068111E-008  0.3785187E+03  0.7957747E-01  0.3457634E+00
         13   -1    0    0    0    0  0.00000000000E+00  0.00000000000E+00  0.14999999963E+04  0.15000000000E+04  0.10566000000E+00 0.  1.
        994   -1    0    0    0    0 -0.00000000000E+00 -0.00000000000E+00  0.11368683772E-12  0.17120000000E+03  0.17120000000E+03 0.  0.
         13    1    1    2    0    0  0.12098119129E+03  0.61617151584E+02  0.48035601407E+03  0.49917435174E+03  0.10566000000E+00 0.  1.
        994    1    1    2    0    0 -0.10652702167E+03 -0.30291882832E+02  0.61168041331E+02  0.21287689821E+03  0.17120000000E+03 0.  0.
        998    1    1    2    0    0 -0.14454169618E+02 -0.31325268752E+02  0.95847594088E+03  0.95914875005E+03  0.10000000000E+02 0.  1.
</event>
<event>
 5    1  0.1068111E-008  0.3730035E+03  0.7957747E-01  0.3482200E+00
         13   -1    0    0    0    0  0.00000000000E+00  0.00000000000E+00  0.14999999963E+04  0.15000000000E+04  0.10566000000E+00 0. -1.
        994   -1    0    0    0    0 -0.00000000000E+00 -0.00000000000E+00  0.11368683772E-12  0.17120000000E+03  0.17120000000E+03 0.  0.
         13    1    1    2    0    0 -0.92231970094E+01  0.34925968276E+02  0.78734225536E+02  0.86625516206E+02  0.10566000000E+00 0. -1.
        994    1    1    2    0    0  0.11347020848E+02 -0.31677547417E+02  0.11592156530E+02  0.17486005829E+03  0.17120000000E+03 0.  0.
        998    1    1    2    0    0 -0.21238238383E+01 -0.32484208597E+01  0.14096736142E+04  0.14097144255E+04  0.10000000000E+02 0. -1.
</event>
<event>
 5    1  0.1068111E-008  0.3848998E+03  0.7957747E-01  0.3430097E+00
         13   -1    0    0    0    0  0.00000000000E+00  0.00000000000E+00  0.14999999963E+04  0.15000000000E+04  0.10566000000E+00 0.  1.
        994   -1    0    0    0    0 -0.00000000000E+00 -0.00000000000E+00  0.11368683772E-12  0.17120000000E+03  0.17120000000E+03 0.  0.
         13    1    1    2    0    0 -0.40831517542E+01  0.19607250120E+02  0.11061430355E+03  0.11241286270E+03  0.10566000000E+00 0.  1.
        994    1    1    2    0    0  0.65188614089E+01 -0.21206192063E+02  0.33007523824E+01  0.17266306236E+03  0.17120000000E+03 0.  0.
        998    1    1    2    0    0 -0.24357096548E+01  0.15989419429E+01  0.13860849403E+04  0.13861240749E+04  0.10000000000E+02 0.  1.
</event>
<event>
 5    1  0.1068111E-008  0.3839384E+03  0.7957747E-01  0.3434187E+00
         13   -1    0    0    0    0  0.00000000000E+00  0.00000000000E+00  0.14999999963E+04  0.15000000000E+04  0.10566000000E+00 0.  1.
        994   -1    0    0    0    0 -0.00000000000E+00 -0.00000000000E+00  0.11368683772E-12  0.17120000000E+03  0.17120000000E+03 0.  0.
         13    1    1    2    0    0 -0.18295192734E+02  0.14426360513E+02  0.13934374011E+03  0.14127817604E+03  0.10566000000E+00 0.  1.
        994    1    1    2    0    0 -0.49131021662E+01 -0.90263690201E+01  0.25067462852E+01  0.17152649267E+03  0.17120000000E+03 0.  0.
        998    1    1    2    0    0  0.23208294900E+02 -0.53999914928E+01  0.13581495099E+04  0.13583953313E+04  0.10000000000E+02 0.  1.
</event>
<event>
 5    1  0.1068111E-008  0.2607192E+03  0.7957747E-01  0.4223662E+00
         13   -1    0    0    0    0  0.00000000000E+00  0.00000000000E+00  0.14999999963E+04  0.15000000000E+04  0.10566000000E+00 0.  1.
        994   -1    0    0    0    0 -0.00000000000E+00 -0.00000000000E+00  0.11368683772E-12  0.17120000000E+03  0.17120000000E+03 0.  0.
         13    1    1    2    0    0 -0.13746556408E+03 -0.12281961782E+03  0.31717552266E+03  0.36685387168E+03  0.10566000000E+00 0.  1.
        994    1    1    2    0    0  0.15288823522E+03  0.11385562205E+03  0.20993073309E+03  0.33123747952E+03  0.17120000000E+03 0.  0.
        998    1    1    2    0    0 -0.15422671141E+02  0.89639957711E+01  0.97289374053E+03  0.97310864880E+03  0.10000000000E+02 0. -1.
</event>
<event>
 5    1  0.1068111E-008  0.3828941E+03  0.7957747E-01  0.3438653E+00
         13   -1    0    0    0    0  0.00000000000E+00  0.00000000000E+00  0.14999999963E+04  0.15000000000E+04  0.10566000000E+00 0. -1.
        994   -1    0    0    0    0 -0.00000000000E+00 -0.00000000000E+00  0.11368683772E-12  0.17120000000E+03  0.17120000000E+03 0.  0.
         13    1    1    2    0    0 -0.20109769621E+02 -0.94580618516E+00  0.77588964347E+02  0.80158317946E+02  0.10566000000E+00 0. -1.
        994    1    1    2    0    0  0.66295691673E+01 -0.58391305675E+01  0.29377519695E+01  0.17145295862E+03  0.17120000000E+03 0.  0.
        998    1    1    2    0    0  0.13480200454E+02  0.67849367527E+01  0.14194732800E+04  0.14195887234E+04  0.10000000000E+02 0. -1.
</event>
<event>
 5    1  0.1068111E-008  0.3696219E+03  0.7957747E-01  0.3497630E+00
         13   -1    0    0    0    0  0.00000000000E+00  0.00000000000E+00  0.14999999963E+04  0.15000000000E+04  0.10566000000E+00 0. -1.
        994   -1    0    0    0    0 -0.00000000000E+00 -0.00000000000E+00  0.11368683772E-12  0.17120000000E+03  0.17120000000E+03 0.  0.
         13    1    1    2    0    0 -0.43942653240E+02  0.15272206879E+02  0.11312146993E+03  0.12231383895E+03  0.10566000000E+00 0. -1.
        994    1    1    2    0    0  0.33232308586E+02  0.21470762357E+02  0.14905939902E+02  0.17634343485E+03  0.17120000000E+03 0.  0.
        998    1    1    2    0    0  0.10710344654E+02 -0.36742969236E+02  0.13719725865E+04  0.13725427262E+04  0.10000000000E+02 0. -1.
</event>
<event>
 5    1  0.1068111E-008  0.3842677E+03  0.7957747E-01  0.3432784E+00
         13   -1    0    0    0    0  0.00000000000E+00  0.00000000000E+00  0.14999999963E+04  0.15000000000E+04  0.10566000000E+00 0.  1.
        994   -1    0    0    0    0 -0.00000000000E+00 -0.00000000000E+00  0.11368683772E-12  0.17120000000E+03  0.17120000000E+03 0.  0.
         13    1    1    2    0    0  0.97175356403E+01  0.17363880096E+02  0.10262684568E+03  0.10453810525E+03  0.10566000000E+00 0.  1.
        994    1    1    2    0    0 -0.11020320173E+01 -0.80476348549E+01  0.22116532785E+01  0.17140685608E+03  0.17120000000E+03 0.  0.
        998    1    1    2    0    0 -0.86155036230E+01 -0.93162452412E+01  0.13951614973E+04  0.13952550387E+04  0.10000000000E+02 0.  1.
</event>
<event>
 5    1  0.1225340E-008  0.3855651E+03  0.7957747E-01  0.3427279E+00
         13   -1    0    0    0    0  0.00000000000E+00  0.00000000000E+00  0.14999999963E+04  0.15000000000E+04  0.10566000000E+00 0.  1.
        994   -1    0    0    0    0 -0.00000000000E+00 -0.00000000000E+00  0.11368683772E-12  0.17120000000E+03  0.17120000000E+03 0.  0.
         13    1    1    2    0    0  0.10092513320E+02 -0.25899817510E+01  0.40116900615E+02  0.41448084511E+02  0.10566000000E+00 0.  1.
        994    1    1    2    0    0 -0.77936946891E+01  0.26332231067E+01  0.15720240451E+01  0.17140474556E+03  0.17120000000E+03 0.  0.
        998    1    1    2    0    0 -0.22988186312E+01 -0.43241355724E-01  0.14583110716E+04  0.14583471699E+04  0.10000000000E+02 0.  1.
</event>
<event>
 5    1  0.1068111E-008  0.3830157E+03  0.7957747E-01  0.3438132E+00
         13   -1    0    0    0    0  0.00000000000E+00  0.00000000000E+00  0.14999999963E+04  0.15000000000E+04  0.10566000000E+00 0.  1.
        994   -1    0    0    0    0 -0.00000000000E+00 -0.00000000000E+00  0.11368683772E-12  0.17120000000E+03  0.17120000000E+03 0.  0.
         13    1    1    2    0    0  0.24950333949E+02 -0.30826380709E+01  0.11394376815E+03  0.11668425466E+03  0.10566000000E+00 0.  1.
        994    1    1    2    0    0 -0.19940576322E+02  0.46589200116E+02  0.11166000196E+02  0.17889186597E+03  0.17120000000E+03 0.  0.
        998    1    1    2    0    0 -0.50097576267E+01 -0.43506562045E+02  0.13748902279E+04  0.13756238794E+04  0.10000000000E+02 0.  1.
</event>
<event>
 5    1  0.1068111E-008  0.3786491E+03  0.7957747E-01  0.3457062E+00
         13   -1    0    0    0    0  0.00000000000E+00  0.00000000000E+00  0.14999999963E+04  0.15000000000E+04  0.10566000000E+00 0.  1.
        994   -1    0    0    0    0 -0.00000000000E+00 -0.00000000000E+00  0.11368683772E-12  0.17120000000E+03  0.17120000000E+03 0.  0.
         13    1    1    2    0    0 -0.33694822506E+02 -0.27447444692E+02  0.19342262935E+03  0.19824486877E+03  0.10566000000E+00 0.  1.
        994    1    1    2    0    0  0.20157109076E+02  0.16232185171E+02  0.70689762076E+01  0.17328936293E+03  0.17120000000E+03 0.  0.
        998    1    1    2    0    0  0.13537713430E+02  0.11215259520E+02  0.12995083907E+04  0.12996657683E+04  0.10000000000E+02 0.  1.
</event>
<event>
 5    1  0.1068111E-008  0.3810238E+03  0.7957747E-01  0.3446713E+00
         13   -1    0    0    0    0  0.00000000000E+00  0.00000000000E+00  0.14999999963E+04  0.15000000000E+04  0.10566000000E+00 0.  1.
        994   -1    0    0    0    0 -0.00000000000E+00 -0.00000000000E+00  0.11368683772E-12  0.17120000000E+03  0.17120000000E+03 0.  0.
         13    1    1    2    0    0 -0.34991009453E+02 -0.50665537113E+01  0.14993453747E+03  0.15404680263E+03  0.10566000000E+00 0.  1.
        994    1    1    2    0    0  0.40370403711E+02  0.93155311779E+01  0.93574125945E+01  0.17639033360E+03  0.17120000000E+03 0.  0.
        998    1    1    2    0    0 -0.53793942580E+01 -0.42489774667E+01  0.13407080462E+04  0.13407628638E+04  0.10000000000E+02 0.  1.
</event>
<event>
 5    1  0.1068111E-008  0.3855967E+03  0.7957747E-01  0.3427146E+00
         13   -1    0    0    0    0  0.00000000000E+00  0.00000000000E+00  0.14999999963E+04  0.15000000000E+04  0.10566000000E+00 0.  1.
        994   -1    0    0    0    0 -0.00000000000E+00 -0.00000000000E+00  0.11368683772E-12  0.17120000000E+03  0.17120000000E+03 0.  0.
         13    1    1    2    0    0  0.10231546943E+02 -0.63492953795E+01  0.52025444568E+02  0.53400900285E+02  0.10566000000E+00 0.  1.
        994    1    1    2    0    0 -0.15861497840E+02  0.49000201987E+01  0.22393158413E+01  0.17201759168E+03  0.17120000000E+03 0.  0.
        998    1    1    2    0    0  0.56299508970E+01  0.14492751808E+01  0.14457352359E+04  0.14457815080E+04  0.10000000000E+02 0.  1.
</event>
<event>
 5    1  0.1068111E-008  0.3839715E+03  0.7957747E-01  0.3434046E+00
         13   -1    0    0    0    0  0.00000000000E+00  0.00000000000E+00  0.14999999963E+04  0.15000000000E+04  0.10566000000E+00 0. -1.
        994   -1    0    0    0    0 -0.00000000000E+00 -0.00000000000E+00  0.11368683772E-12  0.17120000000E+03  0.17120000000E+03 0.  0.
         13    1    1    2    0    0  0.12352831235E+01 -0.10330034335E+02  0.24604576101E+02  0.26713888952E+02  0.10566000000E+00 0. -1.
        994    1    1    2    0    0  0.96233112536E+00  0.75078783896E+01  0.23306926303E+01  0.17138309849E+03  0.17120000000E+03 0.  0.
        998    1    1    2    0    0 -0.21976142489E+01  0.28221559452E+01  0.14730647275E+04  0.14731030126E+04  0.10000000000E+02 0. -1.
</event>
<event>
 5    1  0.1068111E-008  0.3810167E+03  0.7957747E-01  0.3446743E+00
         13   -1    0    0    0    0  0.00000000000E+00  0.00000000000E+00  0.14999999963E+04  0.15000000000E+04  0.10566000000E+00 0. -1.
        994   -1    0    0    0    0 -0.00000000000E+00 -0.00000000000E+00  0.11368683772E-12  0.17120000000E+03  0.17120000000E+03 0.  0.
         13    1    1    2    0    0  0.49177086350E+02 -0.91062066679E+01  0.29952332749E+03  0.30367012316E+03  0.10566000000E+00 0. -1.
        994    1    1    2    0    0 -0.40809391077E+02  0.15455976953E+02  0.99915203173E+01  0.17695639040E+03  0.17120000000E+03 0.  0.
        998    1    1    2    0    0 -0.83676952736E+01 -0.63497702854E+01  0.11904851485E+04  0.11905734864E+04  0.10000000000E+02 0. -1.
</event>
<event>
 5    1  0.1068111E-008  0.3761559E+03  0.7957747E-01  0.3468069E+00
         13   -1    0    0    0    0  0.00000000000E+00  0.00000000000E+00  0.14999999963E+04  0.15000000000E+04  0.10566000000E+00 0.  1.
        994   -1    0    0    0    0 -0.00000000000E+00 -0.00000000000E+00  0.11368683772E-12  0.17120000000E+03  0.17120000000E+03 0.  0.
         13    1    1    2    0    0 -0.20333126463E+02 -0.86899702577E+01  0.36954568791E+02  0.43065101108E+02  0.10566000000E+00 0.  1.
        994    1    1    2    0    0  0.14231962146E+02  0.22310286495E+02  0.84611603903E+01  0.17343969807E+03  0.17120000000E+03 0.  0.
        998    1    1    2    0    0  0.61011643173E+01 -0.13620316237E+02  0.14545842671E+04  0.14546952008E+04  0.10000000000E+02 0.  1.
</event>
<event>
 5    1  0.1068111E-008  0.3826874E+03  0.7957747E-01  0.3439540E+00
         13   -1    0    0    0    0  0.00000000000E+00  0.00000000000E+00  0.14999999963E+04  0.15000000000E+04  0.10566000000E+00 0.  1.
        994   -1    0    0    0    0 -0.00000000000E+00 -0.00000000000E+00  0.11368683772E-12  0.17120000000E+03  0.17120000000E+03 0.  0.
         13    1    1    2    0    0 -0.83973861414E+01  0.17882207224E+02  0.71267865938E+02  0.73955454894E+02  0.10566000000E+00 0.  1.
        994    1    1    2    0    0  0.11997201228E+02 -0.24305173565E+01  0.32793335291E+01  0.17166838463E+03  0.17120000000E+03 0.  0.
        998    1    1    2    0    0 -0.35998150863E+01 -0.15451689868E+02  0.14254527968E+04  0.14255761605E+04  0.10000000000E+02 0.  1.
</event>
<event>
 5    1  0.1068111E-008  0.3833877E+03  0.7957747E-01  0.3436539E+00
         13   -1    0    0    0    0  0.00000000000E+00  0.00000000000E+00  0.14999999963E+04  0.15000000000E+04  0.10566000000E+00 0. -1.
        994   -1    0    0    0    0 -0.00000000000E+00 -0.00000000000E+00  0.11368683772E-12  0.17120000000E+03  0.17120000000E+03 0.  0.
         13    1    1    2    0    0 -0.13093115381E+02 -0.66429869306E+01  0.46595742203E+02  0.48854204540E+02  0.10566000000E+00 0. -1.
        994    1    1    2    0    0 -0.25682691609E+01 -0.54278244275E+01  0.25519361029E+01  0.17132428217E+03  0.17120000000E+03 0.  0.
        998    1    1    2    0    0  0.15661384542E+02  0.12070811358E+02  0.14508523180E+04  0.14510215133E+04  0.10000000000E+02 0. -1.
</event>
<event>
 5    1  0.1068111E-008  0.3800840E+03  0.7957747E-01  0.3450793E+00
         13   -1    0    0    0    0  0.00000000000E+00  0.00000000000E+00  0.14999999963E+04  0.15000000000E+04  0.10566000000E+00 0. -1.
        994   -1    0    0    0    0 -0.00000000000E+00 -0.00000000000E+00  0.11368683772E-12  0.17120000000E+03  0.17120000000E+03 0.  0.
         13    1    1    2    0    0  0.31810314111E+02 -0.28522802880E+01  0.13283340917E+03  0.13661902262E+03  0.10566000000E+00 0. -1.
        994    1    1    2    0    0 -0.59773890117E+01  0.84814451702E+01  0.44506394766E+01  0.17157188663E+03  0.17120000000E+03 0.  0.
        998    1    1    2    0    0 -0.25832925099E+02 -0.56291648822E+01  0.13627159476E+04  0.13630090907E+04  0.10000000000E+02 0. -1.
</event>
<event>
 5    1  0.1068111E-008  0.3740638E+03  0.7957747E-01  0.3477420E+00
         13   -1    0    0    0    0  0.00000000000E+00  0.00000000000E+00  0.14999999963E+04  0.15000000000E+04  0.10566000000E+00 0.  1.
        994   -1    0    0    0    0 -0.00000000000E+00 -0.00000000000E+00  0.11368683772E-12  0.17120000000E+03  0.17120000000E+03 0.  0.
         13    1    1    2    0    0 -0.10954108746E+02  0.64476397452E+01  0.80147469562E+01  0.15027038614E+02  0.10566000000E+00 0.  1.
        994    1    1    2    0    0  0.11433896401E+02 -0.86797589188E+00  0.76087419354E+01  0.17175220617E+03  0.17120000000E+03 0.  0.
        998    1    1    2    0    0 -0.47978765553E+00 -0.55796638533E+01  0.14843765074E+04  0.14844207552E+04  0.10000000000E+02 0.  1.
</event>
<event>
 5    1  0.1068111E-008  0.3804079E+03  0.7957747E-01  0.3449384E+00
         13   -1    0    0    0    0  0.00000000000E+00  0.00000000000E+00  0.14999999963E+04  0.15000000000E+04  0.10566000000E+00 0.  1.
        994   -1    0    0    0    0 -0.00000000000E+00 -0.00000000000E+00  0.11368683772E-12  0.17120000000E+03  0.17120000000E+03 0.  0.
         13    1    1    2    0    0 -0.16383979241E+02  0.32519152805E+02  0.17885960625E+03  0.18252862785E+03  0.10566000000E+00 0.  1.
        994    1    1    2    0    0  0.65890946450E+01 -0.10190337191E+02  0.44191440974E+01  0.17168642339E+03  0.17120000000E+03 0.  0.
        998    1    1    2    0    0  0.97948845956E+01 -0.22328815614E+02  0.13167212459E+04  0.13169849488E+04  0.10000000000E+02 0.  1.
</event>
<event>
 5    1  0.1068111E-008  0.3725389E+03  0.7957747E-01  0.3484303E+00
         13   -1    0    0    0    0  0.00000000000E+00  0.00000000000E+00  0.14999999963E+04  0.15000000000E+04  0.10566000000E+00 0. -1.
        994   -1    0    0    0    0 -0.00000000000E+00 -0.00000000000E+00  0.11368683772E-12  0.17120000000E+03  0.17120000000E+03 0.  0.
         13    1    1    2    0    0 -0.24547395904E+01 -0.32792716850E+02  0.72826433694E+02  0.79906749611E+02  0.10566000000E+00 0. -1.
        994    1    1    2    0    0  0.35969722736E+01 -0.11819028158E+02  0.84713412933E+01  0.17185409876E+03  0.17120000000E+03 0.  0.
        998    1    1    2    0    0 -0.11422326832E+01  0.44611745008E+02  0.14187022213E+04  0.14194391516E+04  0.10000000000E+02 0. -1.
</event>
<event>
 5    1  0.1068111E-008  0.3859745E+03  0.7957747E-01  0.3425550E+00
         13   -1    0    0    0    0  0.00000000000E+00  0.00000000000E+00  0.14999999963E+04  0.15000000000E+04  0.10566000000E+00 0. -1.
        994   -1    0    0    0    0 -0.00000000000E+00 -0.00000000000E+00  0.11368683772E-12  0.17120000000E+03  0.17120000000E+03 0.  0.
         13    1    1    2    0    0 -0.12413845821E+02 -0.11024141520E+00  0.74015012014E+02  0.75048976600E+02  0.10566000000E+00 0. -1.
        994    1    1    2    0    0 -0.23067764667E+01  0.40812003886E+01  0.12191432521E+01  0.17126851352E+03  0.17120000000E+03 0.  0.
        998    1    1    2    0    0  0.14720622288E+02 -0.39709589734E+01  0.14247658410E+04  0.14248825099E+04  0.10000000000E+02 0. -1.
</event>
<event>
 5    1  0.1068111E-008  0.3761592E+03  0.7957747E-01  0.3468055E+00
         13   -1    0    0    0    0  0.00000000000E+00  0.00000000000E+00  0.14999999963E+04  0.15000000000E+04  0.10566000000E+00 0.  1.
        994   -1    0    0    0    0 -0.00000000000E+00 -0.00000000000E+00  0.11368683772E-12  0.17120000000E+03  0.17120000000E+03 0.  0.
         13    1    1    2    0    0 -0.75506127786E+02  0.16674913329E+01  0.34624585327E+03  0.35438701716E+03  0.10566000000E+00 0.  1.
        994    1    1    2    0    0  0.81330807895E+02  0.26996456832E+02  0.31369285939E+02  0.19400252858E+03  0.17120000000E+03 0.  0.
        998    1    1    2    0    0 -0.58246801091E+01 -0.28663948165E+02  0.11223848571E+04  0.11228104543E+04  0.10000000000E+02 0.  1.
</event>
<event>
 5    1  0.1068111E-008  0.3722942E+03  0.7957747E-01  0.3485413E+00
         13   -1    0    0    0    0  0.00000000000E+00  0.00000000000E+00  0.14999999963E+04  0.15000000000E+04  0.10566000000E+00 0. -1.
        994   -1    0    0    0    0 -0.00000000000E+00 -0.00000000000E+00  0.11368683772E-12  0.17120000000E+03  0.17120000000E+03 0.  0.
         13    1    1    2    0    0  0.51197743038E+01 -0.50281229143E+02  0.17419578549E+03  0.18137970377E+03  0.10566000000E+00 0. -1.
        994    1    1    2    0    0  0.49399725382E+01  0.86093016594E+01  0.84128980241E+01  0.17169373971E+03  0.17120000000E+03 0.  0.
        998    1    1    2    0    0 -0.10059746842E+02  0.41671927484E+02  0.13173913128E+04  0.13181265565E+04  0.10000000000E+02 0. -1.
</event>
<event>
 5    1  0.1068111E-008  0.3836569E+03  0.7957747E-01  0.3435389E+00
         13   -1    0    0    0    0  0.00000000000E+00  0.00000000000E+00  0.14999999963E+04  0.15000000000E+04  0.10566000000E+00 0.  1.
        994   -1    0    0    0    0 -0.00000000000E+00 -0.00000000000E+00  0.11368683772E-12  0.17120000000E+03  0.17120000000E+03 0.  0.
         13    1    1    2    0    0 -0.55231476291E+01  0.11952569949E+02  0.39540805454E+02  0.41675598953E+02  0.10566000000E+00 0.  1.
        994    1    1    2    0    0 -0.55776213667E+01  0.40432614628E+01  0.24552159688E+01  0.17135613765E+03  0.17120000000E+03 0.  0.
        998    1    1    2    0    0  0.11100768996E+02 -0.15995831412E+02  0.14580039749E+04  0.14581682634E+04  0.10000000000E+02 0.  1.
</event>
<event>
 5    1  0.1926439E-008  0.3861491E+03  0.7957747E-01  0.3424813E+00
         13   -1    0    0    0    0  0.00000000000E+00  0.00000000000E+00  0.14999999963E+04  0.15000000000E+04  0.10566000000E+00 0. -1.
        994   -1    0    0    0    0 -0.00000000000E+00 -0.00000000000E+00  0.11368683772E-12  0.17120000000E+03  0.17120000000E+03 0.  0.
         13    1    1    2    0    0 -0.57580844381E+00 -0.11613526588E+02  0.61679526681E+02  0.62766079461E+02  0.10566000000E+00 0. -1.
        994    1    1    2    0    0 -0.64814497531E-01  0.14030294812E+02  0.17059594952E+01  0.17178243121E+03  0.17120000000E+03 0.  0.
        998    1    1    2    0    0  0.64062294134E+00 -0.24167682242E+01  0.14366145101E+04  0.14366514893E+04  0.10000000000E+02 0. -1.
</event>
<event>
 5    1  0.1068111E-008  0.3844581E+03  0.7957747E-01  0.3431974E+00
         13   -1    0    0    0    0  0.00000000000E+00  0.00000000000E+00  0.14999999963E+04  0.15000000000E+04  0.10566000000E+00 0.  1.
        994   -1    0    0    0    0 -0.00000000000E+00 -0.00000000000E+00  0.11368683772E-12  0.17120000000E+03  0.17120000000E+03 0.  0.
         13    1    1    2    0    0  0.12455815952E+02  0.36685587228E+02  0.30449495213E+02  0.49276389723E+02  0.10566000000E+00 0.  1.
        994    1    1    2    0    0 -0.36333058626E+02 -0.46435436998E+02  0.31718543513E+02  0.18382558843E+03  0.17120000000E+03 0.  0.
        998    1    1    2    0    0  0.23877242673E+02  0.97498497691E+01  0.14378319576E+04  0.14380980218E+04  0.10000000000E+02 0.  1.
</event>
<event>
 5    1  0.1068111E-008  0.3753620E+03  0.7957747E-01  0.3471605E+00
         13   -1    0    0    0    0  0.00000000000E+00  0.00000000000E+00  0.14999999963E+04  0.15000000000E+04  0.10566000000E+00 0. -1.
        994   -1    0    0    0    0 -0.00000000000E+00 -0.00000000000E+00  0.11368683772E-12  0.17120000000E+03  0.17120000000E+03 0.  0.
         13    1    1    2    0    0  0.12577073682E+02  0.56527877652E+02  0.10781037083E+03  0.12237920966E+03  0.10566000000E+00 0. -1.
        994    1    1    2    0    0 -0.20380151984E+02 -0.57740507674E+02  0.27284826170E+02  0.18385651623E+03  0.17120000000E+03 0.  0.
        998    1    1    2    0    0  0.78030783025E+01  0.12126300220E+01  0.13649047993E+04  0.13649642741E+04  0.10000000000E+02 0. -1.
</event>
<event>
 5    1  0.1360632E-008  0.3861045E+03  0.7957747E-01  0.3425001E+00
         13   -1    0    0    0    0  0.00000000000E+00  0.00000000000E+00  0.14999999963E+04  0.15000000000E+04  0.10566000000E+00 0.  1.
        994   -1    0    0    0    0 -0.00000000000E+00 -0.00000000000E+00  0.11368683772E-12  0.17120000000E+03  0.17120000000E+03 0.  0.
         13    1    1    2    0    0 -0.10326397605E+02  0.74299968812E+01  0.62395368886E+02  0.63679137585E+02  0.10566000000E+00 0.  1.
        994    1    1    2    0    0  0.50210277459E+02  0.66793154774E+01  0.95358126501E+01  0.17879053929E+03  0.17120000000E+03 0.  0.
        998    1    1    2    0    0 -0.39883879854E+02 -0.14109312359E+02  0.14280688147E+04  0.14287303231E+04  0.10000000000E+02 0.  1.
</event>
<event>
 5    1  0.1068111E-008  0.3826031E+03  0.7957747E-01  0.3439902E+00
         13   -1    0    0    0    0  0.00000000000E+00  0.00000000000E+00  0.14999999963E+04  0.15000000000E+04  0.10566000000E+00 0. -1.
        994   -1    0    0    0    0 -0.00000000000E+00 -0.00000000000E+00  0.11368683772E-12  0.17120000000E+03  0.17120000000E+03 0.  0.
         13    1    1    2    0    0  0.17857581766E+02  0.21530414587E+01  0.58213539830E+02  0.60929107967E+02  0.10566000000E+00 0. -1.
        994    1    1    2    0    0 -0.43794307932E+01 -0.47915343478E+01  0.29645288284E+01  0.17134866981E+03  0.17120000000E+03 0.  0.
        998    1    1    2    0    0 -0.13478150973E+02  0.26384928891E+01  0.14388219276E+04  0.14389222222E+04  0.10000000000E+02 0. -1.
</event>
<event>
 5    1  0.1068111E-008  0.3862363E+03  0.7957747E-01  0.3424446E+00
         13   -1    0    0    0    0  0.00000000000E+00  0.00000000000E+00  0.14999999963E+04  0.15000000000E+04  0.10566000000E+00 0.  1.
        994   -1    0    0    0    0 -0.00000000000E+00 -0.00000000000E+00  0.11368683772E-12  0.17120000000E+03  0.17120000000E+03 0.  0.
         13    1    1    2    0    0  0.10489885192E+02  0.42439040256E+01  0.63289392399E+02  0.64293131569E+02  0.10566000000E+00 0.  1.
        994    1    1    2    0    0 -0.84679673178E+01 -0.26241970036E+01  0.12750285726E+01  0.17143412314E+03  0.17120000000E+03 0.  0.
        998    1    1    2    0    0 -0.20219178745E+01 -0.16197070221E+01  0.14354355753E+04  0.14354727453E+04  0.10000000000E+02 0.  1.
</event>
<event>
 5    1  0.1068111E-008  0.3846941E+03  0.7957747E-01  0.3430971E+00
         13   -1    0    0    0    0  0.00000000000E+00  0.00000000000E+00  0.14999999963E+04  0.15000000000E+04  0.10566000000E+00 0.  1.
        994   -1    0    0    0    0 -0.00000000000E+00 -0.00000000000E+00  0.11368683772E-12  0.17120000000E+03  0.17120000000E+03 0.  0.
         13    1    1    2    0    0  0.16464824168E+02  0.11300311827E+01  0.80777870198E+02  0.82446606256E+02  0.10566000000E+00 0.  1.
        994    1    1    2    0    0 -0.19009872300E+01 -0.77292656542E+01  0.19906961866E+01  0.17139649405E+03  0.17120000000E+03 0.  0.
        998    1    1    2    0    0 -0.14563836938E+02  0.65992344714E+01  0.14172314299E+04  0.14173568997E+04  0.10000000000E+02 0.  1.
</event>
<event>
 5    1  0.1391937E-008  0.3865337E+03  0.7957747E-01  0.3423193E+00
         13   -1    0    0    0    0  0.00000000000E+00  0.00000000000E+00  0.14999999963E+04  0.15000000000E+04  0.10566000000E+00 0. -1.
        994   -1    0    0    0    0 -0.00000000000E+00 -0.00000000000E+00  0.11368683772E-12  0.17120000000E+03  0.17120000000E+03 0.  0.
         13    1    1    2    0    0 -0.56031391096E+01 -0.90738448869E+01  0.59434500064E+02  0.60383779203E+02  0.10566000000E+00 0. -1.
        994    1    1    2    0    0  0.63938062296E+01  0.21628241805E+02  0.25368825116E+01  0.17269782099E+03  0.17120000000E+03 0.  0.
        998    1    1    2    0    0 -0.79066712004E+00 -0.12554396918E+02  0.14380286137E+04  0.14381183998E+04  0.10000000000E+02 0. -1.
</event>
<event>
 5    1  0.1068111E-008  0.3862931E+03  0.7957747E-01  0.3424206E+00
         13   -1    0    0    0    0  0.00000000000E+00  0.00000000000E+00  0.14999999963E+04  0.15000000000E+04  0.10566000000E+00 0.  1.
        994   -1    0    0    0    0 -0.00000000000E+00 -0.00000000000E+00  0.11368683772E-12  0.17120000000E+03  0.17120000000E+03 0.  0.
         13    1    1    2    0    0 -0.80076861278E+01 -0.61196650183E+01  0.51351874855E+02  0.52331630513E+02  0.10566000000E+00 0.  1.
        994    1    1    2    0    0  0.11547825011E+02  0.49741352894E-01  0.14263156039E+01  0.17159495655E+03  0.17120000000E+03 0.  0.
        998    1    1    2    0    0 -0.35401388835E+01  0.60699236654E+01  0.14472218058E+04  0.14472734129E+04  0.10000000000E+02 0.  1.
</event>
<event>
 5    1  0.1068111E-008  0.3838228E+03  0.7957747E-01  0.3434680E+00
         13   -1    0    0    0    0  0.00000000000E+00  0.00000000000E+00  0.14999999963E+04  0.15000000000E+04  0.10566000000E+00 0.  1.
        994   -1    0    0    0    0 -0.00000000000E+00 -0.00000000000E+00  0.11368683772E-12  0.17120000000E+03  0.17120000000E+03 0.  0.
         13    1    1    2    0    0  0.68862581207E+01 -0.14561095198E+02  0.56724052234E+02  0.58966730537E+02  0.10566000000E+00 0.  1.
        994    1    1    2    0    0 -0.13175929539E+02  0.10440507209E+02  0.31492445388E+01  0.17205222187E+03  0.17120000000E+03 0.  0.
        998    1    1    2    0    0  0.62896714182E+01  0.41205879894E+01  0.14401266995E+04  0.14401810476E+04  0.10000000000E+02 0.  1.
</event>
<event>
 5    1  0.1068111E-008  0.3948486E+03  0.7957747E-01  0.3388948E+00
         13   -1    0    0    0    0  0.00000000000E+00  0.00000000000E+00  0.14999999963E+04  0.15000000000E+04  0.10566000000E+00 0.  1.
        994   -1    0    0    0    0 -0.00000000000E+00 -0.00000000000E+00  0.11368683772E-12  0.17120000000E+03  0.17120000000E+03 0.  0.
         13    1    1    2    0    0  0.65874381621E+02  0.17263655659E+02  0.75672108590E+02  0.10180249085E+03  0.10566000000E+00 0.  1.
        994    1    1    2    0    0 -0.93698153632E+02 -0.50209161473E+01  0.59357724040E+02  0.20405228006E+03  0.17120000000E+03 0.  0.
        998    1    1    2    0    0  0.27823772011E+02 -0.12242739512E+02  0.13649701636E+04  0.13653452291E+04  0.10000000000E+02 0.  1.
</event>
<event>
 5    1  0.1327640E-008  0.3862163E+03  0.7957747E-01  0.3424530E+00
         13   -1    0    0    0    0  0.00000000000E+00  0.00000000000E+00  0.14999999963E+04  0.15000000000E+04  0.10566000000E+00 0. -1.
        994   -1    0    0    0    0 -0.00000000000E+00 -0.00000000000E+00  0.11368683772E-12  0.17120000000E+03  0.17120000000E+03 0.  0.
         13    1    1    2    0    0  0.42517080321E+01 -0.10257336624E+02  0.60856115142E+02  0.61860875277E+02  0.10566000000E+00 0. -1.
        994    1    1    2    0    0 -0.63308292130E+01  0.56280383781E+01  0.12625686675E+01  0.17141408429E+03  0.17120000000E+03 0.  0.
        998    1    1    2    0    0  0.20791211808E+01  0.46292982455E+01  0.14378813125E+04  0.14379250404E+04  0.10000000000E+02 0. -1.
</event>
<event>
 5    1  0.1068111E-008  0.3816187E+03  0.7957747E-01  0.3444140E+00
         13   -1    0    0    0    0  0.00000000000E+00  0.00000000000E+00  0.14999999963E+04  0.15000000000E+04  0.10566000000E+00 0. -1.
        994   -1    0    0    0    0 -0.00000000000E+00 -0.00000000000E+00  0.11368683772E-12  0.17120000000E+03  0.17120000000E+03 0.  0.
         13    1    1    2    0    0 -0.16184468614E+02  0.11319820860E+01  0.39978659262E+02  0.43145367865E+02  0.10566000000E+00 0. -1.
        994    1    1    2    0    0  0.19038703907E+01  0.19071353996E+02  0.45406471593E+01  0.17232933222E+03  0.17120000000E+03 0.  0.
        998    1    1    2    0    0  0.14280598223E+02 -0.20203336082E+02  0.14554806899E+04  0.14557252999E+04  0.10000000000E+02 0. -1.
</event>
<event>
 5    1  0.1068111E-008  0.3760924E+03  0.7957747E-01  0.3468352E+00
         13   -1    0    0    0    0  0.00000000000E+00  0.00000000000E+00  0.14999999963E+04  0.15000000000E+04  0.10566000000E+00 0. -1.
        994   -1    0    0    0    0 -0.00000000000E+00 -0.00000000000E+00  0.11368683772E-12  0.17120000000E+03  0.17120000000E+03 0.  0.
         13    1    1    2    0    0 -0.40250230567E+02 -0.31895805968E+03  0.83255310810E+03  0.89246793436E+03  0.10566000000E+00 0. -1.
        994    1    1    2    0    0  0.32710243837E+02  0.32722606213E+03  0.56887984541E+03  0.67902914098E+03  0.17120000000E+03 0.  0.
        998    1    1    2    0    0  0.75399867300E+01 -0.82680024545E+01  0.98567042771E+02  0.99702924657E+02  0.10000000000E+02 0. -1.
</event>
<event>
 5    1  0.1068111E-008  0.3777406E+03  0.7957747E-01  0.3461056E+00
         13   -1    0    0    0    0  0.00000000000E+00  0.00000000000E+00  0.14999999963E+04  0.15000000000E+04  0.10566000000E+00 0. -1.
        994   -1    0    0    0    0 -0.00000000000E+00 -0.00000000000E+00  0.11368683772E-12  0.17120000000E+03  0.17120000000E+03 0.  0.
         13    1    1    2    0    0 -0.31357582393E+02  0.31023884443E+02  0.21377729700E+03  0.21828083575E+03  0.10566000000E+00 0. -1.
        994    1    1    2    0    0 -0.80198811177E+01 -0.12895908580E+02  0.60551887174E+01  0.17197885993E+03  0.17120000000E+03 0.  0.
        998    1    1    2    0    0  0.39377463510E+02 -0.18127975863E+02  0.12801675106E+04  0.12809403043E+04  0.10000000000E+02 0. -1.
</event>
<event>
 5    1  0.1068111E-008  0.3785067E+03  0.7957747E-01  0.3457687E+00
         13   -1    0    0    0    0  0.00000000000E+00  0.00000000000E+00  0.14999999963E+04  0.15000000000E+04  0.10566000000E+00 0. -1.
        994   -1    0    0    0    0 -0.00000000000E+00 -0.00000000000E+00  0.11368683772E-12  0.17120000000E+03  0.17120000000E+03 0.  0.
         13    1    1    2    0    0  0.24386874528E+02  0.76132386192E+01  0.66213804887E+02  0.70971544813E+02  0.10566000000E+00 0. -1.
        994    1    1    2    0    0 -0.92015742738E+01 -0.86175820750E+01  0.54229881342E+01  0.17174917901E+03  0.17120000000E+03 0.  0.
        998    1    1    2    0    0 -0.15185300254E+02  0.10043434558E+01  0.14283632033E+04  0.14284792762E+04  0.10000000000E+02 0. -1.
</event>
<event>
 5    1  0.1068111E-008  0.3846535E+03  0.7957747E-01  0.3431143E+00
         13   -1    0    0    0    0  0.00000000000E+00  0.00000000000E+00  0.14999999963E+04  0.15000000000E+04  0.10566000000E+00 0.  1.
        994   -1    0    0    0    0 -0.00000000000E+00 -0.00000000000E+00  0.11368683772E-12  0.17120000000E+03  0.17120000000E+03 0.  0.
         13    1    1    2    0    0 -0.96980879837E+01 -0.10805596571E+02  0.70530358983E+02  0.72009419732E+02  0.10566000000E+00 0.  1.
        994    1    1    2    0    0 -0.92769324890E+01 -0.18010236326E+02  0.31547222434E+01  0.17242338113E+03  0.17120000000E+03 0.  0.
        998    1    1    2    0    0  0.18975020473E+02  0.28815832897E+02  0.14263149151E+04  0.14267671991E+04  0.10000000000E+02 0.  1.
</event>
<event>
 5    1  0.1068111E-008  0.3811671E+03  0.7957747E-01  0.3446092E+00
         13   -1    0    0    0    0  0.00000000000E+00  0.00000000000E+00  0.14999999963E+04  0.15000000000E+04  0.10566000000E+00 0.  1.
        994   -1    0    0    0    0 -0.00000000000E+00 -0.00000000000E+00  0.11368683772E-12  0.17120000000E+03  0.17120000000E+03 0.  0.
         13    1    1    2    0    0  0.28166530655E+02  0.41842708803E+01  0.12175736977E+03  0.12504291195E+03  0.10566000000E+00 0.  1.
        994    1    1    2    0    0 -0.48826461420E+01 -0.29749653479E+01  0.36540432438E+01  0.17133441769E+03  0.17120000000E+03 0.  0.
        998    1    1    2    0    0 -0.23283884513E+02 -0.12093055324E+01  0.13745885833E+04  0.13748226704E+04  0.10000000000E+02 0.  1.
</event>
<event>
 5    1  0.1068111E-008  0.3726757E+03  0.7957747E-01  0.3483683E+00
         13   -1    0    0    0    0  0.00000000000E+00  0.00000000000E+00  0.14999999963E+04  0.15000000000E+04  0.10566000000E+00 0.  1.
        994   -1    0    0    0    0 -0.00000000000E+00 -0.00000000000E+00  0.11368683772E-12  0.17120000000E+03  0.17120000000E+03 0.  0.
         13    1    1    2    0    0  0.18868019029E+02  0.53572399152E+01  0.99581107898E+01  0.21997211099E+02  0.10566000000E+00 0.  1.
        994    1    1    2    0    0 -0.19306431609E+02 -0.85584954187E+01  0.13936155804E+02  0.17305965036E+03  0.17120000000E+03 0.  0.
        998    1    1    2    0    0  0.43841257997E+00  0.32012555035E+01  0.14761057297E+04  0.14761431385E+04  0.10000000000E+02 0.  1.
</event>
<event>
 5    1  0.1068111E-008  0.3770780E+03  0.7957747E-01  0.3463981E+00
         13   -1    0    0    0    0  0.00000000000E+00  0.00000000000E+00  0.14999999963E+04  0.15000000000E+04  0.10566000000E+00 0.  1.
        994   -1    0    0    0    0 -0.00000000000E+00 -0.00000000000E+00  0.11368683772E-12  0.17120000000E+03  0.17120000000E+03 0.  0.
         13    1    1    2    0    0 -0.30746169980E+02 -0.95962943352E+01  0.85536325234E+02  0.91399616695E+02  0.10566000000E+00 0.  1.
        994    1    1    2    0    0  0.30553496188E+02  0.12609296766E+02  0.93121560194E+01  0.17461004193E+03  0.17120000000E+03 0.  0.
        998    1    1    2    0    0  0.19267379172E+00 -0.30130024304E+01  0.14051515150E+04  0.14051903414E+04  0.10000000000E+02 0.  1.
</event>
<event>
 5    1  0.1068111E-008  0.3778679E+03  0.7957747E-01  0.3460495E+00
         13   -1    0    0    0    0  0.00000000000E+00  0.00000000000E+00  0.14999999963E+04  0.15000000000E+04  0.10566000000E+00 0.  1.
        994   -1    0    0    0    0 -0.00000000000E+00 -0.00000000000E+00  0.11368683772E-12  0.17120000000E+03  0.17120000000E+03 0.  0.
         13    1    1    2    0    0  0.59284981916E+01  0.58170229620E+02  0.29186055138E+03  0.29766006672E+03  0.10566000000E+00 0.  1.
        994    1    1    2    0    0  0.98794838377E+01 -0.48538307728E+02  0.13518547947E+02  0.17873377593E+03  0.17120000000E+03 0.  0.
        998    1    1    2    0    0 -0.15807982029E+02 -0.96319218919E+01  0.11946208970E+04  0.11948061574E+04  0.10000000000E+02 0.  0.
</event>
<event>
 5    1  0.1068111E-008  0.3801826E+03  0.7957747E-01  0.3450364E+00
         13   -1    0    0    0    0  0.00000000000E+00  0.00000000000E+00  0.14999999963E+04  0.15000000000E+04  0.10566000000E+00 0. -1.
        994   -1    0    0    0    0 -0.00000000000E+00 -0.00000000000E+00  0.11368683772E-12  0.17120000000E+03  0.17120000000E+03 0.  0.
         13    1    1    2    0    0 -0.97599666011E+01 -0.32289336966E+02  0.11594146352E+03  0.12074888139E+03  0.10566000000E+00 0. -1.
        994    1    1    2    0    0 -0.96491330622E+01  0.59759467271E+02  0.16381647276E+02  0.18232415656E+03  0.17120000000E+03 0.  0.
        998    1    1    2    0    0  0.19409099663E+02 -0.27470130305E+02  0.13676768855E+04  0.13681269621E+04  0.10000000000E+02 0. -1.
</event>
<event>
 5    1  0.1068111E-008  0.3835734E+03  0.7957747E-01  0.3435745E+00
         13   -1    0    0    0    0  0.00000000000E+00  0.00000000000E+00  0.14999999963E+04  0.15000000000E+04  0.10566000000E+00 0.  1.
        994   -1    0    0    0    0 -0.00000000000E+00 -0.00000000000E+00  0.11368683772E-12  0.17120000000E+03  0.17120000000E+03 0.  0.
         13    1    1    2    0    0  0.19341795368E+02 -0.85767579763E+00  0.76622039553E+02  0.79030302828E+02  0.10566000000E+00 0.  1.
        994    1    1    2    0    0 -0.18526876021E+02  0.71306073627E+01  0.36431930815E+01  0.17238562455E+03  0.17120000000E+03 0.  0.
        998    1    1    2    0    0 -0.81491934740E+00 -0.62729315650E+01  0.14197347636E+04  0.14197840726E+04  0.10000000000E+02 0.  1.
</event>
<event>
 5    1  0.1068111E-008  0.3844867E+03  0.7957747E-01  0.3431852E+00
         13   -1    0    0    0    0  0.00000000000E+00  0.00000000000E+00  0.14999999963E+04  0.15000000000E+04  0.10566000000E+00 0. -1.
        994   -1    0    0    0    0 -0.00000000000E+00 -0.00000000000E+00  0.11368683772E-12  0.17120000000E+03  0.17120000000E+03 0.  0.
         13    1    1    2    0    0  0.14764794652E+02  0.51116944247E+01  0.69655201195E+02  0.71386180726E+02  0.10566000000E+00 0. -1.
        994    1    1    2    0    0  0.37774055730E+01 -0.44980107455E+01  0.19988522180E+01  0.17131239390E+03  0.17120000000E+03 0.  0.
        998    1    1    2    0    0 -0.18542200225E+02 -0.61368367923E+00  0.14283459429E+04  0.14285014254E+04  0.10000000000E+02 0. -1.
</event>
<event>
 5    1  0.1068111E-008  0.3846353E+03  0.7957747E-01  0.3431220E+00
         13   -1    0    0    0    0  0.00000000000E+00  0.00000000000E+00  0.14999999963E+04  0.15000000000E+04  0.10566000000E+00 0. -1.
        994   -1    0    0    0    0 -0.00000000000E+00 -0.00000000000E+00  0.11368683772E-12  0.17120000000E+03  0.17120000000E+03 0.  0.
         13    1    1    2    0    0 -0.11563403218E+02  0.43569357651E+00  0.40473045460E+02  0.42094901066E+02  0.10566000000E+00 0. -1.
        994    1    1    2    0    0 -0.12860400622E+02 -0.17304031728E+02  0.33432524972E+01  0.17258457856E+03  0.17120000000E+03 0.  0.
        998    1    1    2    0    0  0.24423803839E+02  0.16868338151E+02  0.14561836983E+04  0.14565205204E+04  0.10000000000E+02 0. -1.
</event>
<event>
 5    1  0.1068111E-008  0.3769948E+03  0.7957747E-01  0.3464349E+00
         13   -1    0    0    0    0  0.00000000000E+00  0.00000000000E+00  0.14999999963E+04  0.15000000000E+04  0.10566000000E+00 0.  1.
        994   -1    0    0    0    0 -0.00000000000E+00 -0.00000000000E+00  0.11368683772E-12  0.17120000000E+03  0.17120000000E+03 0.  0.
         13    1    1    2    0    0  0.85305597421E+01 -0.12454773605E+02  0.17414048880E+02  0.23046737242E+02  0.10566000000E+00 0.  1.
        994    1    1    2    0    0 -0.10611209816E+02  0.13720805626E+02  0.66743951952E+01  0.17220582404E+03  0.17120000000E+03 0.  0.
        998    1    1    2    0    0  0.20806500744E+01 -0.12660320212E+01  0.14759115522E+04  0.14759474387E+04  0.10000000000E+02 0.  1.
</event>
<event>
 5    1  0.1068111E-008  0.3782675E+03  0.7957747E-01  0.3458737E+00
         13   -1    0    0    0    0  0.00000000000E+00  0.00000000000E+00  0.14999999963E+04  0.15000000000E+04  0.10566000000E+00 0.  1.
        994   -1    0    0    0    0 -0.00000000000E+00 -0.00000000000E+00  0.11368683772E-12  0.17120000000E+03  0.17120000000E+03 0.  0.
         13    1    1    2    0    0  0.12897269257E+02 -0.13202085785E+01  0.14657307211E+02  0.19568605564E+02  0.10566000000E+00 0.  1.
        994    1    1    2    0    0 -0.80384576538E+01 -0.65927698074E+01  0.53737372147E+01  0.17159952933E+03  0.17120000000E+03 0.  0.
        998    1    1    2    0    0 -0.48588116036E+01  0.79129783859E+01  0.14799689519E+04  0.14800318651E+04  0.10000000000E+02 0.  1.
</event>
<event>
 5    1  0.1068111E-008  0.3686498E+03  0.7957747E-01  0.3502119E+00
         13   -1    0    0    0    0  0.00000000000E+00  0.00000000000E+00  0.14999999963E+04  0.15000000000E+04  0.10566000000E+00 0.  1.
        994   -1    0    0    0    0 -0.00000000000E+00 -0.00000000000E+00  0.11368683772E-12  0.17120000000E+03  0.17120000000E+03 0.  0.
         13    1    1    2    0    0  0.17868682641E+02 -0.19169119936E+03  0.74710080339E+03  0.77150789194E+03  0.10566000000E+00 0.  1.
        994    1    1    2    0    0 -0.15332760676E+02  0.19320152437E+03  0.15456448993E+03  0.30126656654E+03  0.17120000000E+03 0.  0.
        998    1    1    2    0    0 -0.25359219650E+01 -0.15103250091E+01  0.59833470295E+03  0.59842554152E+03  0.10000000000E+02 0.  0.
</event>
<event>
 5    1  0.1068111E-008  0.3856551E+03  0.7957747E-01  0.3426898E+00
         13   -1    0    0    0    0  0.00000000000E+00  0.00000000000E+00  0.14999999963E+04  0.15000000000E+04  0.10566000000E+00 0.  1.
        994   -1    0    0    0    0 -0.00000000000E+00 -0.00000000000E+00  0.11368683772E-12  0.17120000000E+03  0.17120000000E+03 0.  0.
         13    1    1    2    0    0  0.63170703746E+01 -0.85118843587E+01  0.44746674642E+02  0.45985145526E+02  0.10566000000E+00 0.  1.
        994    1    1    2    0    0 -0.52537448731E+01 -0.19366629664E+01  0.14081218903E+01  0.17129733012E+03  0.17120000000E+03 0.  0.
        998    1    1    2    0    0 -0.10633255015E+01  0.10448547325E+02  0.14538451997E+04  0.14539175244E+04  0.10000000000E+02 0.  1.
</event>
<event>
 5    1  0.1068111E-008  0.3811382E+03  0.7957747E-01  0.3446217E+00
         13   -1    0    0    0    0  0.00000000000E+00  0.00000000000E+00  0.14999999963E+04  0.15000000000E+04  0.10566000000E+00 0. -1.
        994   -1    0    0    0    0 -0.00000000000E+00 -0.00000000000E+00  0.11368683772E-12  0.17120000000E+03  0.17120000000E+03 0.  0.
         13    1    1    2    0    0 -0.20689541866E+02 -0.11896394575E+02  0.82333446917E+02  0.85722744892E+02  0.10566000000E+00 0. -1.
        994    1    1    2    0    0  0.48962263374E-01  0.12432094021E+02  0.40746069094E+01  0.17169916069E+03  0.17120000000E+03 0.  0.
        998    1    1    2    0    0  0.20640579603E+02 -0.53569944624E+00  0.14135919425E+04  0.14137780944E+04  0.10000000000E+02 0. -1.
</event>
<event>
 5    1  0.1068111E-008  0.3851834E+03  0.7957747E-01  0.3428895E+00
         13   -1    0    0    0    0  0.00000000000E+00  0.00000000000E+00  0.14999999963E+04  0.15000000000E+04  0.10566000000E+00 0.  1.
        994   -1    0    0    0    0 -0.00000000000E+00 -0.00000000000E+00  0.11368683772E-12  0.17120000000E+03  0.17120000000E+03 0.  0.
         13    1    1    2    0    0  0.59955712105E+01  0.10132278161E+02  0.44328945439E+02  0.45865853341E+02  0.10566000000E+00 0.  1.
        994    1    1    2    0    0 -0.10512598719E+02 -0.63876176972E+01  0.20365830913E+01  0.17165344174E+03  0.17120000000E+03 0.  0.
        998    1    1    2    0    0  0.45170275085E+01 -0.37446604641E+01  0.14536344677E+04  0.14536807049E+04  0.10000000000E+02 0.  1.
</event>
<event>
 5    1  0.1068111E-008  0.3756029E+03  0.7957747E-01  0.3470531E+00
         13   -1    0    0    0    0  0.00000000000E+00  0.00000000000E+00  0.14999999963E+04  0.15000000000E+04  0.10566000000E+00 0. -1.
        994   -1    0    0    0    0 -0.00000000000E+00 -0.00000000000E+00  0.11368683772E-12  0.17120000000E+03  0.17120000000E+03 0.  0.
         13    1    1    2    0    0  0.42050498546E+01  0.10337649508E+02  0.68057689567E+01  0.13072073162E+02  0.10566000000E+00 0. -1.
        994    1    1    2    0    0 -0.38479512076E+01 -0.11266213518E+02  0.68503879507E+01  0.17175011531E+03  0.17120000000E+03 0.  0.
        998    1    1    2    0    0 -0.35709864703E+00  0.92856400917E+00  0.14863438394E+04  0.14863778115E+04  0.10000000000E+02 0. -1.
</event>
<event>
 5    1  0.1068111E-008  0.3828717E+03  0.7957747E-01  0.3438749E+00
         13   -1    0    0    0    0  0.00000000000E+00  0.00000000000E+00  0.14999999963E+04  0.15000000000E+04  0.10566000000E+00 0. -1.
        994   -1    0    0    0    0 -0.00000000000E+00 -0.00000000000E+00  0.11368683772E-12  0.17120000000E+03  0.17120000000E+03 0.  0.
         13    1    1    2    0    0 -0.33984852744E+01  0.14018342516E+02  0.38518631590E+02  0.41131007436E+02  0.10566000000E+00 0. -1.
        994    1    1    2    0    0 -0.11662693309E+01 -0.53530351272E+01  0.27898858449E+01  0.17131035763E+03  0.17120000000E+03 0.  0.
        998    1    1    2    0    0  0.45647546053E+01 -0.86653073887E+01  0.14586914788E+04  0.14587586349E+04  0.10000000000E+02 0. -1.
</event>
<event>
 5    1  0.1068111E-008  0.3699002E+03  0.7957747E-01  0.3496350E+00
         13   -1    0    0    0    0  0.00000000000E+00  0.00000000000E+00  0.14999999963E+04  0.15000000000E+04  0.10566000000E+00 0.  1.
        994   -1    0    0    0    0 -0.00000000000E+00 -0.00000000000E+00  0.11368683772E-12  0.17120000000E+03  0.17120000000E+03 0.  0.
         13    1    1    2    0    0 -0.46539327881E+02  0.38135538161E+02  0.16781762695E+03  0.17827786006E+03  0.10566000000E+00 0.  1.
        994    1    1    2    0    0  0.20129935768E+02 -0.22074216383E+02  0.14011430827E+02  0.17435092640E+03  0.17120000000E+03 0.  0.
        998    1    1    2    0    0  0.26409392113E+02 -0.16061321779E+02  0.13181709385E+04  0.13185712135E+04  0.10000000000E+02 0.  1.
</event>
<event>
 5    1  0.1068111E-008  0.3697804E+03  0.7957747E-01  0.3496901E+00
         13   -1    0    0    0    0  0.00000000000E+00  0.00000000000E+00  0.14999999963E+04  0.15000000000E+04  0.10566000000E+00 0.  1.
        994   -1    0    0    0    0 -0.00000000000E+00 -0.00000000000E+00  0.11368683772E-12  0.17120000000E+03  0.17120000000E+03 0.  0.
         13    1    1    2    0    0  0.19975329881E+02  0.13701836213E+02  0.26930200929E+02  0.36221554433E+02  0.10566000000E+00 0.  1.
        994    1    1    2    0    0 -0.16707236207E+02 -0.17445320396E+02  0.11405453816E+02  0.17327144982E+03  0.17120000000E+03 0.  0.
        998    1    1    2    0    0 -0.32680936736E+01  0.37434841834E+01  0.14616643415E+04  0.14617069957E+04  0.10000000000E+02 0.  1.
</event>
<event>
 5    1  0.1068111E-008  0.3734466E+03  0.7957747E-01  0.3480199E+00
         13   -1    0    0    0    0  0.00000000000E+00  0.00000000000E+00  0.14999999963E+04  0.15000000000E+04  0.10566000000E+00 0.  1.
        994   -1    0    0    0    0 -0.00000000000E+00 -0.00000000000E+00  0.11368683772E-12  0.17120000000E+03  0.17120000000E+03 0.  0.
         13    1    1    2    0    0  0.19252813234E+02 -0.36636512123E+01  0.22202412032E+02  0.29615053971E+02  0.10566000000E+00 0.  1.
        994    1    1    2    0    0 -0.17938764071E+02  0.91875195388E+01  0.88678724019E+01  0.17261022256E+03  0.17120000000E+03 0.  0.
        998    1    1    2    0    0 -0.13140491637E+01 -0.55238683266E+01  0.14689297118E+04  0.14689747235E+04  0.10000000000E+02 0.  1.
</event>
<event>
 5    1  0.1068111E-008  0.3686715E+03  0.7957747E-01  0.3502019E+00
         13   -1    0    0    0    0  0.00000000000E+00  0.00000000000E+00  0.14999999963E+04  0.15000000000E+04  0.10566000000E+00 0.  1.
        994   -1    0    0    0    0 -0.00000000000E+00 -0.00000000000E+00  0.11368683772E-12  0.17120000000E+03  0.17120000000E+03 0.  0.
         13    1    1    2    0    0  0.88925084496E+01 -0.30696656312E+02  0.48297002359E+02  0.57913495976E+02  0.10566000000E+00 0.  1.
        994    1    1    2    0    0 -0.81184613202E+01  0.10578520480E+01  0.10471331368E+02  0.17171522136E+03  0.17120000000E+03 0.  0.
        998    1    1    2    0    0 -0.77404712939E+00  0.29638804264E+02  0.14412316626E+04  0.14415712827E+04  0.10000000000E+02 0.  1.
</event>
<event>
 5    1  0.1068111E-008  0.3830222E+03  0.7957747E-01  0.3438104E+00
         13   -1    0    0    0    0  0.00000000000E+00  0.00000000000E+00  0.14999999963E+04  0.15000000000E+04  0.10566000000E+00 0.  1.
        994   -1    0    0    0    0 -0.00000000000E+00 -0.00000000000E+00  0.11368683772E-12  0.17120000000E+03  0.17120000000E+03 0.  0.
         13    1    1    2    0    0  0.16559609218E+02 -0.19120847150E+02  0.13073567464E+03  0.13316026149E+03  0.10566000000E+00 0.  1.
        994    1    1    2    0    0 -0.10423240181E+02 -0.16671521341E+01  0.29841548990E+01  0.17155106678E+03  0.17120000000E+03 0.  0.
        998    1    1    2    0    0 -0.61363690369E+01  0.20787999284E+02  0.13662801667E+04  0.13664886717E+04  0.10000000000E+02 0.  1.
</event>
<event>
 5    1  0.1068111E-008  0.3899741E+03  0.7957747E-01  0.3408847E+00
         13   -1    0    0    0    0  0.00000000000E+00  0.00000000000E+00  0.14999999963E+04  0.15000000000E+04  0.10566000000E+00 0.  1.
        994   -1    0    0    0    0 -0.00000000000E+00 -0.00000000000E+00  0.11368683772E-12  0.17120000000E+03  0.17120000000E+03 0.  0.
         13    1    1    2    0    0 -0.10583510223E+01  0.49217186499E+02  0.55041684872E+02  0.73844768206E+02  0.10566000000E+00 0.  1.
        994    1    1    2    0    0  0.13895629996E+02  0.25069584284E+02  0.25014000027E+02  0.17537591849E+03  0.17120000000E+03 0.  0.
        998    1    1    2    0    0 -0.12837278974E+02 -0.74286770783E+02  0.14199443114E+04  0.14219793133E+04  0.10000000000E+02 0.  1.
</event>
<event>
 5    1  0.1606388E-008  0.3847625E+03  0.7957747E-01  0.3430680E+00
         13   -1    0    0    0    0  0.00000000000E+00  0.00000000000E+00  0.14999999963E+04  0.15000000000E+04  0.10566000000E+00 0. -1.
        994   -1    0    0    0    0 -0.00000000000E+00 -0.00000000000E+00  0.11368683772E-12  0.17120000000E+03  0.17120000000E+03 0.  0.
         13    1    1    2    0    0 -0.11596327197E+02 -0.11593343127E+02  0.72512464120E+02  0.74343453149E+02  0.10566000000E+00 0. -1.
        994    1    1    2    0    0  0.14043218411E+02  0.13792112383E+02  0.30242294974E+01  0.17235434521E+03  0.17120000000E+03 0.  0.
        998    1    1    2    0    0 -0.24468912138E+01 -0.21987692559E+01  0.14244633027E+04  0.14245022016E+04  0.10000000000E+02 0. -1.
</event>
<event>
 5    1  0.1068111E-008  0.3834789E+03  0.7957747E-01  0.3436149E+00
         13   -1    0    0    0    0  0.00000000000E+00  0.00000000000E+00  0.14999999963E+04  0.15000000000E+04  0.10566000000E+00 0. -1.
        994   -1    0    0    0    0 -0.00000000000E+00 -0.00000000000E+00  0.11368683772E-12  0.17120000000E+03  0.17120000000E+03 0.  0.
         13    1    1    2    0    0 -0.14906742584E+02  0.20134881648E+01  0.45338461673E+02  0.47768738522E+02  0.10566000000E+00 0. -1.
        994    1    1    2    0    0  0.16711576371E+02 -0.14780780419E+01  0.33180024296E+01  0.17205205793E+03  0.17120000000E+03 0.  0.
        998    1    1    2    0    0 -0.18048337877E+01 -0.53541012290E+00  0.14513435322E+04  0.14513792035E+04  0.10000000000E+02 0. -1.
</event>
<event>
 5    1  0.1068111E-008  0.3792713E+03  0.7957747E-01  0.3454338E+00
         13   -1    0    0    0    0  0.00000000000E+00  0.00000000000E+00  0.14999999963E+04  0.15000000000E+04  0.10566000000E+00 0.  1.
        994   -1    0    0    0    0 -0.00000000000E+00 -0.00000000000E+00  0.11368683772E-12  0.17120000000E+03  0.17120000000E+03 0.  0.
         13    1    1    2    0    0 -0.11503031340E+02  0.32466859192E+01  0.14442082704E+02  0.18746882843E+02  0.10566000000E+00 0.  1.
        994    1    1    2    0    0 -0.10723418314E+02 -0.12034595959E+02  0.53725862778E+01  0.17204106453E+03  0.17120000000E+03 0.  0.
        998    1    1    2    0    0  0.22226449654E+02  0.87879100394E+01  0.14801853273E+04  0.14804120526E+04  0.10000000000E+02 0.  1.
</event>
<event>
 5    1  0.1068111E-008  0.3806695E+03  0.7957747E-01  0.3448248E+00
         13   -1    0    0    0    0  0.00000000000E+00  0.00000000000E+00  0.14999999963E+04  0.15000000000E+04  0.10566000000E+00 0.  1.
        994   -1    0    0    0    0 -0.00000000000E+00 -0.00000000000E+00  0.11368683772E-12  0.17120000000E+03  0.17120000000E+03 0.  0.
         13    1    1    2    0    0  0.69791261322E+01  0.92893489671E+01  0.16413391195E+02  0.20109967189E+02  0.10566000000E+00 0.  1.
        994    1    1    2    0    0  0.63080969980E+01 -0.82560259137E+01  0.41557301780E+01  0.17156533492E+03  0.17120000000E+03 0.  0.
        998    1    1    2    0    0 -0.13287223130E+02 -0.10333230534E+01  0.14794308749E+04  0.14795246979E+04  0.10000000000E+02 0.  1.
</event>
<event>
 5    1  0.1068111E-008  0.3981899E+03  0.7957747E-01  0.3375588E+00
         13   -1    0    0    0    0  0.00000000000E+00  0.00000000000E+00  0.14999999963E+04  0.15000000000E+04  0.10566000000E+00 0. -1.
        994   -1    0    0    0    0 -0.00000000000E+00 -0.00000000000E+00  0.11368683772E-12  0.17120000000E+03  0.17120000000E+03 0.  0.
         13    1    1    2    0    0  0.10206193779E+03 -0.92135298856E+02  0.40444145280E+03  0.42717496690E+03  0.10566000000E+00 0. -1.
        994    1    1    2    0    0 -0.34163829149E+02  0.46185866601E+02  0.39639933117E+02  0.18488122077E+03  0.17120000000E+03 0.  0.
        998    1    1    2    0    0 -0.67898108645E+02  0.45949432254E+02  0.10559186104E+04  0.10591438123E+04  0.10000000000E+02 0. -1.
</event>
<event>
 5    1  0.1068111E-008  0.3830520E+03  0.7957747E-01  0.3437976E+00
         13   -1    0    0    0    0  0.00000000000E+00  0.00000000000E+00  0.14999999963E+04  0.15000000000E+04  0.10566000000E+00 0.  1.
        994   -1    0    0    0    0 -0.00000000000E+00 -0.00000000000E+00  0.11368683772E-12  0.17120000000E+03  0.17120000000E+03 0.  0.
         13    1    1    2    0    0  0.85751766423E+01  0.13931377561E+02  0.49127868697E+02  0.51780069351E+02  0.10566000000E+00 0.  1.
        994    1    1    2    0    0 -0.94976021940E+01 -0.14983683988E+02  0.36426545719E+01  0.17215523276E+03  0.17120000000E+03 0.  0.
        998    1    1    2    0    0  0.92242555169E+00  0.10523064263E+01  0.14472294730E+04  0.14472646979E+04  0.10000000000E+02 0.  0.
</event>
<event>
 5    1  0.1068111E-008  0.3837834E+03  0.7957747E-01  0.3434848E+00
         13   -1    0    0    0    0  0.00000000000E+00  0.00000000000E+00  0.14999999963E+04  0.15000000000E+04  0.10566000000E+00 0.  1.
        994   -1    0    0    0    0 -0.00000000000E+00 -0.00000000000E+00  0.11368683772E-12  0.17120000000E+03  0.17120000000E+03 0.  0.
         13    1    1    2    0    0  0.23424180834E+01  0.27423374854E+02  0.15099715592E+03  0.15348511547E+03  0.10566000000E+00 0.  1.
        994    1    1    2    0    0 -0.30456934765E+01 -0.29942230768E+02  0.52317769075E+01  0.17390406816E+03  0.17120000000E+03 0.  0.
        998    1    1    2    0    0  0.70327539317E+00  0.25188559141E+01  0.13437710634E+04  0.13438108164E+04  0.10000000000E+02 0.  1.
</event>
<event>
 5    1  0.1068111E-008  0.3750013E+03  0.7957747E-01  0.3473217E+00
         13   -1    0    0    0    0  0.00000000000E+00  0.00000000000E+00  0.14999999963E+04  0.15000000000E+04  0.10566000000E+00 0. -1.
        994   -1    0    0    0    0 -0.00000000000E+00 -0.00000000000E+00  0.11368683772E-12  0.17120000000E+03  0.17120000000E+03 0.  0.
         13    1    1    2    0    0 -0.45629253805E+02 -0.12737304515E+02  0.16446330023E+03  0.17115039005E+03  0.10566000000E+00 0. -1.
        994    1    1    2    0    0  0.23045267514E+02  0.27770174417E+02  0.11117546422E+02  0.17531487895E+03  0.17120000000E+03 0.  0.
        998    1    1    2    0    0  0.22583986292E+02 -0.15032869902E+02  0.13244191496E+04  0.13247347310E+04  0.10000000000E+02 0. -1.
</event>
<event>
 5    1  0.1068111E-008  0.3781882E+03  0.7957747E-01  0.3459086E+00
         13   -1    0    0    0    0  0.00000000000E+00  0.00000000000E+00  0.14999999963E+04  0.15000000000E+04  0.10566000000E+00 0.  1.
        994   -1    0    0    0    0 -0.00000000000E+00 -0.00000000000E+00  0.11368683772E-12  0.17120000000E+03  0.17120000000E+03 0.  0.
         13    1    1    2    0    0 -0.18649447944E+02 -0.87468101522E+02  0.31720757311E+03  0.32957415902E+03  0.10566000000E+00 0.  1.
        994    1    1    2    0    0  0.29869603834E+02  0.10294903585E+02  0.18936964635E+02  0.17511775153E+03  0.17120000000E+03 0.  0.
        998    1    1    2    0    0 -0.11220155889E+02  0.77173197937E+02  0.11638554585E+04  0.11665080894E+04  0.10000000000E+02 0.  1.
</event>
<event>
 5    1  0.1068111E-008  0.3785772E+03  0.7957747E-01  0.3457377E+00
         13   -1    0    0    0    0  0.00000000000E+00  0.00000000000E+00  0.14999999963E+04  0.15000000000E+04  0.10566000000E+00 0. -1.
        994   -1    0    0    0    0 -0.00000000000E+00 -0.00000000000E+00  0.11368683772E-12  0.17120000000E+03  0.17120000000E+03 0.  0.
         13    1    1    2    0    0 -0.10302985848E+02  0.39456032400E+02  0.46265673435E+02  0.61672146976E+02  0.10566000000E+00 0. -1.
        994    1    1    2    0    0  0.81720627885E+01 -0.39373580225E+02  0.21399506727E+02  0.17715654184E+03  0.17120000000E+03 0.  0.
        998    1    1    2    0    0  0.21309230599E+01 -0.82452175060E-01  0.14323348161E+04  0.14323713112E+04  0.10000000000E+02 0. -1.
</event>
<event>
 5    1  0.1068111E-008  0.3817083E+03  0.7957747E-01  0.3443754E+00
         13   -1    0    0    0    0  0.00000000000E+00  0.00000000000E+00  0.14999999963E+04  0.15000000000E+04  0.10566000000E+00 0.  1.
        994   -1    0    0    0    0 -0.00000000000E+00 -0.00000000000E+00  0.11368683772E-12  0.17120000000E+03  0.17120000000E+03 0.  0.
         13    1    1    2    0    0  0.37691900506E+02  0.21924640445E+02  0.23612120887E+03  0.24011373485E+03  0.10566000000E+00 0.  1.
        994    1    1    2    0    0 -0.41561447216E+02 -0.24665777199E+02  0.11076903208E+02  0.17823549659E+03  0.17120000000E+03 0.  0.
        998    1    1    2    0    0  0.38695467100E+01  0.27411367540E+01  0.12528018842E+04  0.12528507686E+04  0.10000000000E+02 0.  1.
</event>
<event>
 5    1  0.1068111E-008  0.3719132E+03  0.7957747E-01  0.3487144E+00
         13   -1    0    0    0    0  0.00000000000E+00  0.00000000000E+00  0.14999999963E+04  0.15000000000E+04  0.10566000000E+00 0. -1.
        994   -1    0    0    0    0 -0.00000000000E+00 -0.00000000000E+00  0.11368683772E-12  0.17120000000E+03  0.17120000000E+03 0.  0.
         13    1    1    2    0    0 -0.49071120457E+02  0.10900376730E+03  0.62771437260E+03  0.63899541538E+03  0.10566000000E+00 0. -1.
        994    1    1    2    0    0  0.37134971315E+02 -0.91811551138E+02  0.42756218217E+02  0.20235093579E+03  0.17120000000E+03 0.  0.
        998    1    1    2    0    0  0.11936149141E+02 -0.17192216164E+02  0.82952940547E+03  0.82985364884E+03  0.10000000000E+02 0. -1.
</event>
<event>
 5    1  0.1068111E-008  0.3842888E+03  0.7957747E-01  0.3432694E+00
         13   -1    0    0    0    0  0.00000000000E+00  0.00000000000E+00  0.14999999963E+04  0.15000000000E+04  0.10566000000E+00 0. -1.
        994   -1    0    0    0    0 -0.00000000000E+00 -0.00000000000E+00  0.11368683772E-12  0.17120000000E+03  0.17120000000E+03 0.  0.
         13    1    1    2    0    0  0.18361028362E+02 -0.39245196956E+01  0.92345068211E+02  0.94234558440E+02  0.10566000000E+00 0. -1.
        994    1    1    2    0    0 -0.26962449438E+01  0.17476464548E+02  0.30150256840E+01  0.17213723284E+03  0.17120000000E+03 0.  0.
        998    1    1    2    0    0 -0.15664783418E+02 -0.13551944853E+02  0.14046399024E+04  0.14048282087E+04  0.10000000000E+02 0. -1.
</event>
<event>
 5    1  0.1068111E-008  0.3823275E+03  0.7957747E-01  0.3441086E+00
         13   -1    0    0    0    0  0.00000000000E+00  0.00000000000E+00  0.14999999963E+04  0.15000000000E+04  0.10566000000E+00 0. -1.
        994   -1    0    0    0    0 -0.00000000000E+00 -0.00000000000E+00  0.11368683772E-12  0.17120000000E+03  0.17120000000E+03 0.  0.
         13    1    1    2    0    0 -0.93241397340E+00 -0.20565163217E+02  0.69043929645E+02  0.72047697526E+02  0.10566000000E+00 0. -1.
        994    1    1    2    0    0 -0.44358357091E+01  0.17795826841E+02  0.40794930358E+01  0.17222790237E+03  0.17120000000E+03 0.  0.
        998    1    1    2    0    0  0.53682496825E+01  0.27693363761E+01  0.14268765736E+04  0.14269244001E+04  0.10000000000E+02 0. -1.
</event>
<event>
 5    1  0.1068111E-008  0.3840645E+03  0.7957747E-01  0.3433649E+00
         13   -1    0    0    0    0  0.00000000000E+00  0.00000000000E+00  0.14999999963E+04  0.15000000000E+04  0.10566000000E+00 0.  1.
        994   -1    0    0    0    0 -0.00000000000E+00 -0.00000000000E+00  0.11368683772E-12  0.17120000000E+03  0.17120000000E+03 0.  0.
         13    1    1    2    0    0 -0.12001018943E+02  0.51614431459E+01  0.36081579074E+02  0.38373903418E+02  0.10566000000E+00 0.  1.
        994    1    1    2    0    0  0.23484697801E+02 -0.32751313260E+02  0.74713858027E+01  0.17603818096E+03  0.17120000000E+03 0.  0.
        998    1    1    2    0    0 -0.11483678857E+02  0.27589870114E+02  0.14564470314E+04  0.14567879156E+04  0.10000000000E+02 0.  1.
</event>
<event>
 5    1  0.1068111E-008  0.4589499E+03  0.7957747E-01  0.3166101E+00
         13   -1    0    0    0    0  0.00000000000E+00  0.00000000000E+00  0.14999999963E+04  0.15000000000E+04  0.10566000000E+00 0.  1.
        994   -1    0    0    0    0 -0.00000000000E+00 -0.00000000000E+00  0.11368683772E-12  0.17120000000E+03  0.17120000000E+03 0.  0.
         13    1    1    2    0    0 -0.10754291073E+02  0.45644996901E+02 -0.93375199958E+01  0.47815488727E+02  0.10566000000E+00 0.  1.
        994    1    1    2    0    0  0.65908654325E+01 -0.50973826454E+02  0.83143969344E+02  0.19713987453E+03  0.17120000000E+03 0.  0.
        998    1    1    2    0    0  0.41634256402E+01  0.53288295530E+01  0.14261935469E+04  0.14262446367E+04  0.10000000000E+02 0.  1.
</event>
<event>
 5    1  0.1068111E-008  0.3748306E+03  0.7957747E-01  0.3473981E+00
         13   -1    0    0    0    0  0.00000000000E+00  0.00000000000E+00  0.14999999963E+04  0.15000000000E+04  0.10566000000E+00 0.  1.
        994   -1    0    0    0    0 -0.00000000000E+00 -0.00000000000E+00  0.11368683772E-12  0.17120000000E+03  0.17120000000E+03 0.  0.
         13    1    1    2    0    0 -0.11595173838E+03  0.45856875762E+02  0.61794366733E+03  0.63039832317E+03  0.10566000000E+00 0.  1.
        994    1    1    2    0    0  0.11259977864E+03 -0.64355631821E+02  0.66316011742E+02  0.22478347562E+03  0.17120000000E+03 0.  0.
        998    1    1    2    0    0  0.33519597424E+01  0.18498756059E+02  0.81574031720E+03  0.81601820122E+03  0.10000000000E+02 0. -1.
</event>
<event>
 5    1  0.1068111E-008  0.3816267E+03  0.7957747E-01  0.3444106E+00
         13   -1    0    0    0    0  0.00000000000E+00  0.00000000000E+00  0.14999999963E+04  0.15000000000E+04  0.10566000000E+00 0. -1.
        994   -1    0    0    0    0 -0.00000000000E+00 -0.00000000000E+00  0.11368683772E-12  0.17120000000E+03  0.17120000000E+03 0.  0.
         13    1    1    2    0    0 -0.26475996423E+02 -0.88398480042E+01  0.11303175704E+03  0.11642727585E+03  0.10566000000E+00 0. -1.
        994    1    1    2    0    0  0.12116609317E+02  0.35767056700E+02  0.80706048004E+01  0.17550119438E+03  0.17120000000E+03 0.  0.
        998    1    1    2    0    0  0.14359387106E+02 -0.26927208696E+02  0.13788976344E+04  0.13792715298E+04  0.10000000000E+02 0. -1.
</event>
<event>
 5    1  0.1068111E-008  0.3561257E+03  0.7957747E-01  0.3562190E+00
         13   -1    0    0    0    0  0.00000000000E+00  0.00000000000E+00  0.14999999963E+04  0.15000000000E+04  0.10566000000E+00 0.  1.
        994   -1    0    0    0    0 -0.00000000000E+00 -0.00000000000E+00  0.11368683772E-12  0.17120000000E+03  0.17120000000E+03 0.  0.
         13    1    1    2    0    0  0.15950202883E+03  0.14708177101E+03  0.10757614254E+04  0.10974227080E+04  0.10566000000E+00 0.  1.
        994    1    1    2    0    0 -0.13589523999E+03 -0.14248849981E+03  0.15542572505E+03  0.30370558908E+03  0.17120000000E+03 0.  0.
        998    1    1    2    0    0 -0.23606788835E+02 -0.45932712005E+01  0.26881284584E+03  0.27007170290E+03  0.10000000000E+02 0. -1.
</event>
<event>
 5    1  0.1068111E-008  0.3815550E+03  0.7957747E-01  0.3444415E+00
         13   -1    0    0    0    0  0.00000000000E+00  0.00000000000E+00  0.14999999963E+04  0.15000000000E+04  0.10566000000E+00 0.  1.
        994   -1    0    0    0    0 -0.00000000000E+00 -0.00000000000E+00  0.11368683772E-12  0.17120000000E+03  0.17120000000E+03 0.  0.
         13    1    1    2    0    0 -0.29882062626E+02  0.77367012220E+01  0.17656976774E+03  0.17924756136E+03  0.10566000000E+00 0.  1.
        994    1    1    2    0    0 -0.93962906743E+01  0.41303920352E+01  0.37006954019E+01  0.17154732747E+03  0.17120000000E+03 0.  0.
        998    1    1    2    0    0  0.39278353300E+02 -0.11867093257E+02  0.13197295331E+04  0.13204051112E+04  0.10000000000E+02 0.  1.
</event>
<event>
 5    1  0.1068111E-008  0.3844501E+03  0.7957747E-01  0.3432008E+00
         13   -1    0    0    0    0  0.00000000000E+00  0.00000000000E+00  0.14999999963E+04  0.15000000000E+04  0.10566000000E+00 0. -1.
        994   -1    0    0    0    0 -0.00000000000E+00 -0.00000000000E+00  0.11368683772E-12  0.17120000000E+03  0.17120000000E+03 0.  0.
         13    1    1    2    0    0  0.11805971216E+00 -0.20753009553E+02  0.10968859452E+03  0.11163467326E+03  0.10566000000E+00 0. -1.
        994    1    1    2    0    0 -0.22779999143E+01  0.16767450326E+02  0.28473090802E+01  0.17205779216E+03  0.17120000000E+03 0.  0.
        998    1    1    2    0    0  0.21599402021E+01  0.39855592273E+01  0.13874640927E+04  0.13875075346E+04  0.10000000000E+02 0. -1.
</event>
<event>
 5    1  0.1068111E-008  0.3826658E+03  0.7957747E-01  0.3439633E+00
         13   -1    0    0    0    0  0.00000000000E+00  0.00000000000E+00  0.14999999963E+04  0.15000000000E+04  0.10566000000E+00 0.  1.
        994   -1    0    0    0    0 -0.00000000000E+00 -0.00000000000E+00  0.11368683772E-12  0.17120000000E+03  0.17120000000E+03 0.  0.
         13    1    1    2    0    0 -0.68624373359E+01  0.18511117346E+02  0.69962513051E+02  0.72694696560E+02  0.10566000000E+00 0.  1.
        994    1    1    2    0    0  0.20169562110E+02 -0.31341071656E+01  0.41753060767E+01  0.17246305994E+03  0.17120000000E+03 0.  0.
        998    1    1    2    0    0 -0.13307124774E+02 -0.15377010181E+02  0.14258621772E+04  0.14260422435E+04  0.10000000000E+02 0.  1.
</event>
<event>
 5    1  0.1068111E-008  0.3812407E+03  0.7957747E-01  0.3445774E+00
         13   -1    0    0    0    0  0.00000000000E+00  0.00000000000E+00  0.14999999963E+04  0.15000000000E+04  0.10566000000E+00 0. -1.
        994   -1    0    0    0    0 -0.00000000000E+00 -0.00000000000E+00  0.11368683772E-12  0.17120000000E+03  0.17120000000E+03 0.  0.
         13    1    1    2    0    0  0.19212480543E+02 -0.10249062839E+02  0.65783813258E+02  0.69294184088E+02  0.10566000000E+00 0. -1.
        994    1    1    2    0    0 -0.46658440766E+01  0.25362790776E+02  0.57254176778E+01  0.17322604211E+03  0.17120000000E+03 0.  0.
        998    1    1    2    0    0 -0.14546636467E+02 -0.15113727937E+02  0.14284907653E+04  0.14286797738E+04  0.10000000000E+02 0. -1.
</event>
<event>
 5    1  0.1068111E-008  0.3780886E+03  0.7957747E-01  0.3459523E+00
         13   -1    0    0    0    0  0.00000000000E+00  0.00000000000E+00  0.14999999963E+04  0.15000000000E+04  0.10566000000E+00 0.  1.
        994   -1    0    0    0    0 -0.00000000000E+00 -0.00000000000E+00  0.11368683772E-12  0.17120000000E+03  0.17120000000E+03 0.  0.
         13    1    1    2    0    0 -0.46388528072E+02  0.61484709612E+02  0.45805923827E+03  0.46448954992E+03  0.10566000000E+00 0.  1.
        994    1    1    2    0    0  0.40561359057E+02 -0.52027362069E+02  0.19884742588E+02  0.18454515231E+03  0.17120000000E+03 0.  0.
        998    1    1    2    0    0  0.58271690154E+01 -0.94573475433E+01  0.10220560154E+04  0.10221652978E+04  0.10000000000E+02 0.  1.
</event>
<event>
 5    1  0.1068111E-008  0.3769886E+03  0.7957747E-01  0.3464377E+00
         13   -1    0    0    0    0  0.00000000000E+00  0.00000000000E+00  0.14999999963E+04  0.15000000000E+04  0.10566000000E+00 0. -1.
        994   -1    0    0    0    0 -0.00000000000E+00 -0.00000000000E+00  0.11368683772E-12  0.17120000000E+03  0.17120000000E+03 0.  0.
         13    1    1    2    0    0  0.18130427870E+01  0.35070746117E+02  0.11905513804E+03  0.12412647347E+03  0.10566000000E+00 0. -1.
        994    1    1    2    0    0 -0.34424298577E+02  0.13567460564E+01  0.96790827780E+01  0.17489996494E+03  0.17120000000E+03 0.  0.
        998    1    1    2    0    0  0.32611255790E+02 -0.36427492173E+02  0.13712657755E+04  0.13721735616E+04  0.10000000000E+02 0.  1.
</event>
<event>
 5    1  0.1068111E-008  0.3825233E+03  0.7957747E-01  0.3440245E+00
         13   -1    0    0    0    0  0.00000000000E+00  0.00000000000E+00  0.14999999963E+04  0.15000000000E+04  0.10566000000E+00 0.  1.
        994   -1    0    0    0    0 -0.00000000000E+00 -0.00000000000E+00  0.11368683772E-12  0.17120000000E+03  0.17120000000E+03 0.  0.
         13    1    1    2    0    0 -0.15545178979E+01 -0.16918439424E+02  0.48279177088E+02  0.51181444126E+02  0.10566000000E+00 0.  1.
        994    1    1    2    0    0  0.77868497892E+01  0.16179390329E+02  0.39343930256E+01  0.17218399214E+03  0.17120000000E+03 0.  0.
        998    1    1    2    0    0 -0.62323318913E+01  0.73904909514E+00  0.14477864262E+04  0.14478345637E+04  0.10000000000E+02 0.  1.
</event>
<event>
 5    1  0.1068111E-008  0.3766336E+03  0.7957747E-01  0.3465949E+00
         13   -1    0    0    0    0  0.00000000000E+00  0.00000000000E+00  0.14999999963E+04  0.15000000000E+04  0.10566000000E+00 0.  1.
        994   -1    0    0    0    0 -0.00000000000E+00 -0.00000000000E+00  0.11368683772E-12  0.17120000000E+03  0.17120000000E+03 0.  0.
         13    1    1    2    0    0 -0.90365669507E+01 -0.12801754544E+02  0.18039519590E+02  0.23895185556E+02  0.10566000000E+00 0.  1.
        994    1    1    2    0    0  0.17022879244E+02  0.14076577730E+02  0.74934647598E+01  0.17278171336E+03  0.17120000000E+03 0.  0.
        998    1    1    2    0    0 -0.79863122936E+01 -0.12748231862E+01  0.14744670119E+04  0.14745231011E+04  0.10000000000E+02 0.  1.
</event>
<event>
 5    1  0.1068111E-008  0.3824898E+03  0.7957747E-01  0.3440389E+00
         13   -1    0    0    0    0  0.00000000000E+00  0.00000000000E+00  0.14999999963E+04  0.15000000000E+04  0.10566000000E+00 0. -1.
        994   -1    0    0    0    0 -0.00000000000E+00 -0.00000000000E+00  0.11368683772E-12  0.17120000000E+03  0.17120000000E+03 0.  0.
         13    1    1    2    0    0  0.31835665837E+02  0.11186080331E+02  0.16955360146E+03  0.17287878107E+03  0.10566000000E+00 0. -1.
        994    1    1    2    0    0 -0.38508080799E+02 -0.78960722399E+01  0.80219365279E+01  0.17583802691E+03  0.17120000000E+03 0.  0.
        998    1    1    2    0    0  0.66724149621E+01 -0.32900080914E+01  0.13224244583E+04  0.13224831920E+04  0.10000000000E+02 0. -1.
</event>
<event>
 5    1  0.1068111E-008  0.3771229E+03  0.7957747E-01  0.3463783E+00
         13   -1    0    0    0    0  0.00000000000E+00  0.00000000000E+00  0.14999999963E+04  0.15000000000E+04  0.10566000000E+00 0. -1.
        994   -1    0    0    0    0 -0.00000000000E+00 -0.00000000000E+00  0.11368683772E-12  0.17120000000E+03  0.17120000000E+03 0.  0.
         13    1    1    2    0    0 -0.38682382833E+02 -0.25900330428E+02  0.19555932016E+03  0.20102391083E+03  0.10566000000E+00 0. -1.
        994    1    1    2    0    0  0.27969198747E+02  0.17048549520E+01  0.82471631974E+01  0.17367394252E+03  0.17120000000E+03 0.  0.
        998    1    1    2    0    0  0.10713184086E+02  0.24195475476E+02  0.12961935129E+04  0.12965021467E+04  0.10000000000E+02 0. -1.
</event>
<event>
 5    1  0.1068111E-008  0.3814203E+03  0.7957747E-01  0.3444997E+00
         13   -1    0    0    0    0  0.00000000000E+00  0.00000000000E+00  0.14999999963E+04  0.15000000000E+04  0.10566000000E+00 0. -1.
        994   -1    0    0    0    0 -0.00000000000E+00 -0.00000000000E+00  0.11368683772E-12  0.17120000000E+03  0.17120000000E+03 0.  0.
         13    1    1    2    0    0  0.18380789749E+02  0.23070207183E+02  0.13958779674E+03  0.14267043160E+03  0.10566000000E+00 0. -1.
        994    1    1    2    0    0 -0.32237697754E+01 -0.75804952443E+00  0.34544002067E+01  0.17126686840E+03  0.17120000000E+03 0.  0.
        998    1    1    2    0    0 -0.15157019973E+02 -0.22312157658E+02  0.13569577993E+04  0.13572627000E+04  0.10000000000E+02 0. -1.
</event>
<event>
 5    1  0.1068111E-008  0.3181856E+03  0.7957747E-01  0.3774176E+00
         13   -1    0    0    0    0  0.00000000000E+00  0.00000000000E+00  0.14999999963E+04  0.15000000000E+04  0.10566000000E+00 0. -1.
        994   -1    0    0    0    0 -0.00000000000E+00 -0.00000000000E+00  0.11368683772E-12  0.17120000000E+03  0.17120000000E+03 0.  0.
         13    1    1    2    0    0  0.38367928000E+01  0.19500107322E+03  0.78220741822E+03  0.80615668193E+03  0.10566000000E+00 0. -1.
        994    1    1    2    0    0  0.27908613503E+02 -0.18470555097E+03  0.14649870051E+03  0.29268812842E+03  0.17120000000E+03 0.  0.
        998    1    1    2    0    0 -0.31745406303E+02 -0.10295522252E+02  0.57129387755E+03  0.57235518965E+03  0.10000000000E+02 0. -1.
</event>
<event>
 5    1  0.1068111E-008  0.3853090E+03  0.7957747E-01  0.3428363E+00
         13   -1    0    0    0    0  0.00000000000E+00  0.00000000000E+00  0.14999999963E+04  0.15000000000E+04  0.10566000000E+00 0. -1.
        994   -1    0    0    0    0 -0.00000000000E+00 -0.00000000000E+00  0.11368683772E-12  0.17120000000E+03  0.17120000000E+03 0.  0.
         13    1    1    2    0    0  0.16642156499E+02  0.80741083749E+01  0.11084132801E+03  0.11237421305E+03  0.10566000000E+00 0. -1.
        994    1    1    2    0    0 -0.16800401107E+02 -0.47191374081E+01  0.24779267112E+01  0.17210492107E+03  0.17120000000E+03 0.  0.
        998    1    1    2    0    0  0.15824460749E+00 -0.33549709668E+01  0.13866807416E+04  0.13867208659E+04  0.10000000000E+02 0. -1.
</event>
<event>
 5    1  0.1068111E-008  0.3685950E+03  0.7957747E-01  0.3502373E+00
         13   -1    0    0    0    0  0.00000000000E+00  0.00000000000E+00  0.14999999963E+04  0.15000000000E+04  0.10566000000E+00 0. -1.
        994   -1    0    0    0    0 -0.00000000000E+00 -0.00000000000E+00  0.11368683772E-12  0.17120000000E+03  0.17120000000E+03 0.  0.
         13    1    1    2    0    0  0.34508988638E+02 -0.34275890725E+02  0.10650560569E+03  0.11708613150E+03  0.10566000000E+00 0. -1.
        994    1    1    2    0    0 -0.37519957224E+02  0.33554505597E+02  0.18860669514E+02  0.17944028781E+03  0.17120000000E+03 0.  0.
        998    1    1    2    0    0  0.30109685862E+01  0.72138512816E+00  0.13746337211E+04  0.13746735807E+04  0.10000000000E+02 0. -1.
</event>
<event>
 5    1  0.1068111E-008  0.3760800E+03  0.7957747E-01  0.3468407E+00
         13   -1    0    0    0    0  0.00000000000E+00  0.00000000000E+00  0.14999999963E+04  0.15000000000E+04  0.10566000000E+00 0. -1.
        994   -1    0    0    0    0 -0.00000000000E+00 -0.00000000000E+00  0.11368683772E-12  0.17120000000E+03  0.17120000000E+03 0.  0.
         13    1    1    2    0    0 -0.68153703013E+00 -0.12928067473E+02 -0.65624990421E+00  0.12963072525E+02  0.10566000000E+00 0. -1.
        994    1    1    2    0    0 -0.23378421499E+01  0.11802189447E+02  0.14707777000E+02  0.17225131606E+03  0.17120000000E+03 0.  0.
        998    1    1    2    0    0  0.30193791800E+01  0.11258780262E+01  0.14859484692E+04  0.14859856114E+04  0.10000000000E+02 0. -1.
</event>
<event>
 5    1  0.1134051E-008  0.3851989E+03  0.7957747E-01  0.3428829E+00
         13   -1    0    0    0    0  0.00000000000E+00  0.00000000000E+00  0.14999999963E+04  0.15000000000E+04  0.10566000000E+00 0.  1.
        994   -1    0    0    0    0 -0.00000000000E+00 -0.00000000000E+00  0.11368683772E-12  0.17120000000E+03  0.17120000000E+03 0.  0.
         13    1    1    2    0    0 -0.11292149556E+02  0.78118208165E+01  0.54252814263E+02  0.55963525671E+02  0.10566000000E+00 0.  1.
        994    1    1    2    0    0  0.38242398737E+02 -0.77118691495E-01  0.63527760209E+01  0.17553428375E+03  0.17120000000E+03 0.  0.
        998    1    1    2    0    0 -0.26950249181E+02 -0.77347021250E+01  0.14393944060E+04  0.14397021906E+04  0.10000000000E+02 0.  1.
</event>
<event>
 5    1  0.1068111E-008  0.3716594E+03  0.7957747E-01  0.3488299E+00
         13   -1    0    0    0    0  0.00000000000E+00  0.00000000000E+00  0.14999999963E+04  0.15000000000E+04  0.10566000000E+00 0.  1.
        994   -1    0    0    0    0 -0.00000000000E+00 -0.00000000000E+00  0.11368683772E-12  0.17120000000E+03  0.17120000000E+03 0.  0.
         13    1    1    2    0    0 -0.98052185512E+02 -0.18214573444E+03  0.12392828568E+04  0.12564287923E+04  0.10566000000E+00 0.  1.
        994    1    1    2    0    0  0.87549230717E+02  0.16334911309E+03  0.13367144429E+03  0.28552634828E+03  0.17120000000E+03 0.  0.
        998    1    1    2    0    0  0.10502954794E+02  0.18796621354E+02  0.12704569515E+03  0.12924485943E+03  0.10000000000E+02 0.  0.
</event>
<event>
 5    1  0.1068111E-008  0.3834514E+03  0.7957747E-01  0.3436267E+00
         13   -1    0    0    0    0  0.00000000000E+00  0.00000000000E+00  0.14999999963E+04  0.15000000000E+04  0.10566000000E+00 0. -1.
        994   -1    0    0    0    0 -0.00000000000E+00 -0.00000000000E+00  0.11368683772E-12  0.17120000000E+03  0.17120000000E+03 0.  0.
         13    1    1    2    0    0 -0.10338777211E+02 -0.11026052903E+02  0.46746161166E+02  0.49129206228E+02  0.10566000000E+00 0. -1.
        994    1    1    2    0    0  0.10561948009E+02  0.49592900110E+01  0.28510741557E+01  0.17162085516E+03  0.17120000000E+03 0.  0.
        998    1    1    2    0    0 -0.22317079768E+00  0.60667628917E+01  0.14504027610E+04  0.14504499386E+04  0.10000000000E+02 0. -1.
</event>
<event>
 5    1  0.1068111E-008  0.3840632E+03  0.7957747E-01  0.3433655E+00
         13   -1    0    0    0    0  0.00000000000E+00  0.00000000000E+00  0.14999999963E+04  0.15000000000E+04  0.10566000000E+00 0.  1.
        994   -1    0    0    0    0 -0.00000000000E+00 -0.00000000000E+00  0.11368683772E-12  0.17120000000E+03  0.17120000000E+03 0.  0.
         13    1    1    2    0    0  0.11076342976E+02 -0.15145838753E+02  0.82261473019E+02  0.84374420962E+02  0.10566000000E+00 0.  1.
        994    1    1    2    0    0 -0.12423010909E+02  0.89607735392E+01  0.28702813475E+01  0.17190783920E+03  0.17120000000E+03 0.  0.
        998    1    1    2    0    0  0.13466679324E+01  0.61850652141E+01  0.14148682419E+04  0.14149177398E+04  0.10000000000E+02 0.  1.
</event>
<event>
 5    1  0.1068111E-008  0.3834643E+03  0.7957747E-01  0.3436212E+00
         13   -1    0    0    0    0  0.00000000000E+00  0.00000000000E+00  0.14999999963E+04  0.15000000000E+04  0.10566000000E+00 0. -1.
        994   -1    0    0    0    0 -0.00000000000E+00 -0.00000000000E+00  0.11368683772E-12  0.17120000000E+03  0.17120000000E+03 0.  0.
         13    1    1    2    0    0  0.83068614735E+01 -0.22672192948E+02  0.12100406790E+03  0.12338973982E+03  0.10566000000E+00 0. -1.
        994    1    1    2    0    0  0.21109655638E+00  0.16003351124E+02  0.32415745529E+01  0.17197703223E+03  0.17120000000E+03 0.  0.
        998    1    1    2    0    0 -0.85179580299E+01  0.66688418239E+01  0.13757543538E+04  0.13758332280E+04  0.10000000000E+02 0.  0.
</event>
<event>
 5    1  0.1068111E-008  0.3856023E+03  0.7957747E-01  0.3427122E+00
         13   -1    0    0    0    0  0.00000000000E+00  0.00000000000E+00  0.14999999963E+04  0.15000000000E+04  0.10566000000E+00 0.  1.
        994   -1    0    0    0    0 -0.00000000000E+00 -0.00000000000E+00  0.11368683772E-12  0.17120000000E+03  0.17120000000E+03 0.  0.
         13    1    1    2    0    0 -0.13247598935E+02 -0.57941714278E+01  0.84545530146E+02  0.85773125930E+02  0.10566000000E+00 0.  1.
        994    1    1    2    0    0  0.45572060815E+01 -0.74939824853E+01  0.15839451790E+01  0.17143184297E+03  0.17120000000E+03 0.  0.
        998    1    1    2    0    0  0.86903928535E+01  0.13288153913E+02  0.14138705210E+04  0.14139950311E+04  0.10000000000E+02 0.  1.
</event>
<event>
 5    1  0.1068111E-008  0.3850687E+03  0.7957747E-01  0.3429381E+00
         13   -1    0    0    0    0  0.00000000000E+00  0.00000000000E+00  0.14999999963E+04  0.15000000000E+04  0.10566000000E+00 0. -1.
        994   -1    0    0    0    0 -0.00000000000E+00 -0.00000000000E+00  0.11368683772E-12  0.17120000000E+03  0.17120000000E+03 0.  0.
         13    1    1    2    0    0 -0.10083003527E+02 -0.46498843277E+01  0.30777407100E+02  0.32719234958E+02  0.10566000000E+00 0. -1.
        994    1    1    2    0    0  0.51454089139E+02  0.27319475766E+02  0.12835501694E+02  0.18129552435E+03  0.17120000000E+03 0.  0.
        998    1    1    2    0    0 -0.41371085612E+02 -0.22669591438E+02  0.14563870875E+04  0.14571852407E+04  0.10000000000E+02 0. -1.
</event>
<event>
 5    1  0.1068111E-008  0.3814241E+03  0.7957747E-01  0.3444981E+00
         13   -1    0    0    0    0  0.00000000000E+00  0.00000000000E+00  0.14999999963E+04  0.15000000000E+04  0.10566000000E+00 0. -1.
        994   -1    0    0    0    0 -0.00000000000E+00 -0.00000000000E+00  0.11368683772E-12  0.17120000000E+03  0.17120000000E+03 0.  0.
         13    1    1    2    0    0  0.64808822383E+01  0.18650135002E+02  0.53887833485E+02  0.57391106732E+02  0.10566000000E+00 0. -1.
        994    1    1    2    0    0 -0.82518945547E+01 -0.19848148911E+02  0.49548242428E+01  0.17261527471E+03  0.17120000000E+03 0.  0.
        998    1    1    2    0    0  0.17710123164E+01  0.11980139091E+01  0.14411573386E+04  0.14411936186E+04  0.10000000000E+02 0. -1.
</event>
<event>
 5    1  0.1068111E-008  0.3859800E+03  0.7957747E-01  0.3425526E+00
         13   -1    0    0    0    0  0.00000000000E+00  0.00000000000E+00  0.14999999963E+04  0.15000000000E+04  0.10566000000E+00 0. -1.
        994   -1    0    0    0    0 -0.00000000000E+00 -0.00000000000E+00  0.11368683772E-12  0.17120000000E+03  0.17120000000E+03 0.  0.
         13    1    1    2    0    0  0.11916558216E+02 -0.75689171978E+01  0.85323549912E+02  0.86483594981E+02  0.10566000000E+00 0. -1.
        994    1    1    2    0    0 -0.11889462225E+02  0.52593499149E+01  0.16986412218E+01  0.17170132631E+03  0.17120000000E+03 0.  0.
        998    1    1    2    0    0 -0.27095990967E-01  0.23095672830E+01  0.14129778051E+04  0.14130150787E+04  0.10000000000E+02 0. -1.
</event>
<event>
 5    1  0.1068111E-008  0.3807237E+03  0.7957747E-01  0.3448014E+00
         13   -1    0    0    0    0  0.00000000000E+00  0.00000000000E+00  0.14999999963E+04  0.15000000000E+04  0.10566000000E+00 0. -1.
        994   -1    0    0    0    0 -0.00000000000E+00 -0.00000000000E+00  0.11368683772E-12  0.17120000000E+03  0.17120000000E+03 0.  0.
         13    1    1    2    0    0 -0.14688693646E+02 -0.75541751807E+01  0.33504081046E+02  0.37354489615E+02  0.10566000000E+00 0. -1.
        994    1    1    2    0    0  0.22507965752E+02  0.48328576612E+01  0.55376884191E+01  0.17282960113E+03  0.17120000000E+03 0.  0.
        998    1    1    2    0    0 -0.78192721057E+01  0.27213175195E+01  0.14609582268E+04  0.14610159092E+04  0.10000000000E+02 0. -1.
</event>
<event>
 5    1  0.1068111E-008  0.3811607E+03  0.7957747E-01  0.3446120E+00
         13   -1    0    0    0    0  0.00000000000E+00  0.00000000000E+00  0.14999999963E+04  0.15000000000E+04  0.10566000000E+00 0. -1.
        994   -1    0    0    0    0 -0.00000000000E+00 -0.00000000000E+00  0.11368683772E-12  0.17120000000E+03  0.17120000000E+03 0.  0.
         13    1    1    2    0    0 -0.10871561562E+02  0.32473405532E+02  0.15390909320E+03  0.15767286720E+03  0.10566000000E+00 0. -1.
        994    1    1    2    0    0  0.13391372916E+02 -0.26671402783E+02  0.65201554907E+01  0.17390412595E+03  0.17120000000E+03 0.  0.
        998    1    1    2    0    0 -0.25198113546E+01 -0.58020027491E+01  0.13395707476E+04  0.13396230068E+04  0.10000000000E+02 0. -1.
</event>
<event>
 5    1  0.1068111E-008  0.3750010E+03  0.7957747E-01  0.3473218E+00
         13   -1    0    0    0    0  0.00000000000E+00  0.00000000000E+00  0.14999999963E+04  0.15000000000E+04  0.10566000000E+00 0. -1.
        994   -1    0    0    0    0 -0.00000000000E+00 -0.00000000000E+00  0.11368683772E-12  0.17120000000E+03  0.17120000000E+03 0.  0.
         13    1    1    2    0    0 -0.34587153603E+01 -0.25253069222E+02  0.17874300706E+02  0.31131688147E+02  0.10566000000E+00 0. -1.
        994    1    1    2    0    0  0.87717498900E+01  0.23740134667E+02  0.15890515355E+02  0.17378862468E+03  0.17120000000E+03 0.  0.
        998    1    1    2    0    0 -0.53130345298E+01  0.15129345552E+01  0.14662351802E+04  0.14662796872E+04  0.10000000000E+02 0. -1.
</event>
<event>
 5    1  0.1068111E-008  0.3797076E+03  0.7957747E-01  0.3452433E+00
         13   -1    0    0    0    0  0.00000000000E+00  0.00000000000E+00  0.14999999963E+04  0.15000000000E+04  0.10566000000E+00 0. -1.
        994   -1    0    0    0    0 -0.00000000000E+00 -0.00000000000E+00  0.11368683772E-12  0.17120000000E+03  0.17120000000E+03 0.  0.
         13    1    1    2    0    0 -0.14188792760E+02 -0.51457635939E+01  0.24284144976E+02  0.28592509232E+02  0.10566000000E+00 0. -1.
        994    1    1    2    0    0  0.18018941392E+02  0.50261289576E+01  0.54526593052E+01  0.17230529799E+03  0.17120000000E+03 0.  0.
        998    1    1    2    0    0 -0.38301486321E+01  0.11963463636E+00  0.14702631920E+04  0.14703021928E+04  0.10000000000E+02 0. -1.
</event>
<event>
 5    1  0.1068111E-008  0.3760404E+03  0.7957747E-01  0.3468583E+00
         13   -1    0    0    0    0  0.00000000000E+00  0.00000000000E+00  0.14999999963E+04  0.15000000000E+04  0.10566000000E+00 0.  1.
        994   -1    0    0    0    0 -0.00000000000E+00 -0.00000000000E+00  0.11368683772E-12  0.17120000000E+03  0.17120000000E+03 0.  0.
         13    1    1    2    0    0  0.29820888879E+02 -0.49488670721E+02  0.22665129265E+03  0.23390005038E+03  0.10566000000E+00 0.  1.
        994    1    1    2    0    0 -0.35156282161E+02  0.48784232178E+02  0.18493428860E+02  0.18239329043E+03  0.17120000000E+03 0.  0.
        998    1    1    2    0    0  0.53353932823E+01  0.70443854226E+00  0.12548552748E+04  0.12549066592E+04  0.10000000000E+02 0.  1.
</event>
<event>
 5    1  0.1068111E-008  0.3787311E+03  0.7957747E-01  0.3456702E+00
         13   -1    0    0    0    0  0.00000000000E+00  0.00000000000E+00  0.14999999963E+04  0.15000000000E+04  0.10566000000E+00 0.  1.
        994   -1    0    0    0    0 -0.00000000000E+00 -0.00000000000E+00  0.11368683772E-12  0.17120000000E+03  0.17120000000E+03 0.  0.
         13    1    1    2    0    0 -0.11561205916E+02  0.43825103065E+01  0.14053998900E+02  0.18718812140E+02  0.10566000000E+00 0.  1.
        994    1    1    2    0    0  0.79819705835E+01  0.72018842495E+01  0.51631205365E+01  0.17161490846E+03  0.17120000000E+03 0.  0.
        998    1    1    2    0    0  0.35792353324E+01 -0.11584394556E+02  0.14807828768E+04  0.14808662794E+04  0.10000000000E+02 0.  1.
</event>
<event>
 5    1  0.1437390E-008  0.3861531E+03  0.7957747E-01  0.3424796E+00
         13   -1    0    0    0    0  0.00000000000E+00  0.00000000000E+00  0.14999999963E+04  0.15000000000E+04  0.10566000000E+00 0.  1.
        994   -1    0    0    0    0 -0.00000000000E+00 -0.00000000000E+00  0.11368683772E-12  0.17120000000E+03  0.17120000000E+03 0.  0.
         13    1    1    2    0    0 -0.59926573342E+01 -0.11650655571E+02  0.78319450796E+02  0.79407790891E+02  0.10566000000E+00 0.  1.
        994    1    1    2    0    0  0.76189626909E+01  0.12158842838E+02  0.17335673429E+01  0.17180899658E+03  0.17120000000E+03 0.  0.
        998    1    1    2    0    0 -0.16263053567E+01 -0.50818726687E+00  0.14199469781E+04  0.14199832125E+04  0.10000000000E+02 0.  1.
</event>
<event>
 5    1  0.1068111E-008  0.3766029E+03  0.7957747E-01  0.3466085E+00
         13   -1    0    0    0    0  0.00000000000E+00  0.00000000000E+00  0.14999999963E+04  0.15000000000E+04  0.10566000000E+00 0. -1.
        994   -1    0    0    0    0 -0.00000000000E+00 -0.00000000000E+00  0.11368683772E-12  0.17120000000E+03  0.17120000000E+03 0.  0.
         13    1    1    2    0    0  0.12218876798E+03 -0.16408960363E+02  0.72565451178E+03  0.73605287217E+03  0.10566000000E+00 0. -1.
        994    1    1    2    0    0 -0.11447634460E+03  0.14275091338E+02  0.52267094647E+02  0.21295516168E+03  0.17120000000E+03 0.  0.
        998    1    1    2    0    0 -0.77124233870E+01  0.21338690243E+01  0.72207838986E+03  0.72219196615E+03  0.10000000000E+02 0. -1.
</event>
<event>
 5    1  0.1068111E-008  0.3838156E+03  0.7957747E-01  0.3434711E+00
         13   -1    0    0    0    0  0.00000000000E+00  0.00000000000E+00  0.14999999963E+04  0.15000000000E+04  0.10566000000E+00 0.  1.
        994   -1    0    0    0    0 -0.00000000000E+00 -0.00000000000E+00  0.11368683772E-12  0.17120000000E+03  0.17120000000E+03 0.  0.
         13    1    1    2    0    0 -0.13203558971E+02 -0.65239051578E+01  0.47884712964E+02  0.50098425202E+02  0.10566000000E+00 0.  1.
        994    1    1    2    0    0  0.98541826251E+01  0.65034192634E+01  0.26796356087E+01  0.17162756138E+03  0.17120000000E+03 0.  0.
        998    1    1    2    0    0  0.33493763463E+01  0.20485894371E-01  0.14494356477E+04  0.14494740134E+04  0.10000000000E+02 0.  1.
</event>
<event>
 5    1  0.1068111E-008  0.3745063E+03  0.7957747E-01  0.3475434E+00
         13   -1    0    0    0    0  0.00000000000E+00  0.00000000000E+00  0.14999999963E+04  0.15000000000E+04  0.10566000000E+00 0. -1.
        994   -1    0    0    0    0 -0.00000000000E+00 -0.00000000000E+00  0.11368683772E-12  0.17120000000E+03  0.17120000000E+03 0.  0.
         13    1    1    2    0    0  0.74274420647E+01  0.43813402205E+02  0.13655338096E+03  0.14360229150E+03  0.10566000000E+00 0. -1.
        994    1    1    2    0    0 -0.50477786399E+02 -0.24970678432E+02  0.17808927453E+02  0.18110256651E+03  0.17120000000E+03 0.  0.
        998    1    1    2    0    0  0.43050344334E+02 -0.18842723773E+02  0.13456376879E+04  0.13464951420E+04  0.10000000000E+02 0. -1.
</event>
<event>
 5    1  0.1068111E-008  0.3830371E+03  0.7957747E-01  0.3438040E+00
         13   -1    0    0    0    0  0.00000000000E+00  0.00000000000E+00  0.14999999963E+04  0.15000000000E+04  0.10566000000E+00 0.  1.
        994   -1    0    0    0    0 -0.00000000000E+00 -0.00000000000E+00  0.11368683772E-12  0.17120000000E+03  0.17120000000E+03 0.  0.
         13    1    1    2    0    0 -0.14791142658E+02 -0.49366798762E+00  0.39608874431E+02  0.42283515782E+02  0.10566000000E+00 0.  1.
        994    1    1    2    0    0  0.19619235466E+02 -0.43034398362E+01  0.39442154025E+01  0.17241934587E+03  0.17120000000E+03 0.  0.
        998    1    1    2    0    0 -0.48280928074E+01  0.47971078238E+01  0.14564469064E+04  0.14564971383E+04  0.10000000000E+02 0.  1.
</event>
<event>
 5    1  0.1068111E-008  0.3845198E+03  0.7957747E-01  0.3431711E+00
         13   -1    0    0    0    0  0.00000000000E+00  0.00000000000E+00  0.14999999963E+04  0.15000000000E+04  0.10566000000E+00 0. -1.
        994   -1    0    0    0    0 -0.00000000000E+00 -0.00000000000E+00  0.11368683772E-12  0.17120000000E+03  0.17120000000E+03 0.  0.
         13    1    1    2    0    0  0.14574356682E+02  0.61921868685E+01  0.65481703365E+02  0.67369278537E+02  0.10566000000E+00 0. -1.
        994    1    1    2    0    0 -0.13523754142E+02 -0.37303075565E+01  0.25172578029E+01  0.17179226906E+03  0.17120000000E+03 0.  0.
        998    1    1    2    0    0 -0.10506025408E+01 -0.24618793120E+01  0.14320010351E+04  0.14320384524E+04  0.10000000000E+02 0. -1.
</event>
<event>
 5    1  0.1068111E-008  0.3844517E+03  0.7957747E-01  0.3432001E+00
         13   -1    0    0    0    0  0.00000000000E+00  0.00000000000E+00  0.14999999963E+04  0.15000000000E+04  0.10566000000E+00 0. -1.
        994   -1    0    0    0    0 -0.00000000000E+00 -0.00000000000E+00  0.11368683772E-12  0.17120000000E+03  0.17120000000E+03 0.  0.
         13    1    1    2    0    0  0.11796038045E+02  0.12895577395E+01  0.35921538269E+02  0.37830907316E+02  0.10566000000E+00 0. -1.
        994    1    1    2    0    0 -0.12032147520E+02 -0.37423718859E+01  0.24258841057E+01  0.17168023426E+03  0.17120000000E+03 0.  0.
        998    1    1    2    0    0  0.23610947499E+00  0.24528141463E+01  0.14616525739E+04  0.14616888584E+04  0.10000000000E+02 0. -1.
</event>
<event>
 5    1  0.1068111E-008  0.3844192E+03  0.7957747E-01  0.3432139E+00
         13   -1    0    0    0    0  0.00000000000E+00  0.00000000000E+00  0.14999999963E+04  0.15000000000E+04  0.10566000000E+00 0. -1.
        994   -1    0    0    0    0 -0.00000000000E+00 -0.00000000000E+00  0.11368683772E-12  0.17120000000E+03  0.17120000000E+03 0.  0.
         13    1    1    2    0    0 -0.13677500963E+02 -0.16491243188E+02  0.12168746236E+03  0.12355923597E+03  0.10566000000E+00 0. -1.
        994    1    1    2    0    0  0.89036157699E+01  0.68115076459E+01  0.23329321286E+01  0.17158249789E+03  0.17120000000E+03 0.  0.
        998    1    1    2    0    0  0.47738851932E+01  0.96797355418E+01  0.13759796018E+04  0.13760582661E+04  0.10000000000E+02 0. -1.
</event>
<event>
 5    1  0.1068111E-008  0.3842722E+03  0.7957747E-01  0.3432765E+00
         13   -1    0    0    0    0  0.00000000000E+00  0.00000000000E+00  0.14999999963E+04  0.15000000000E+04  0.10566000000E+00 0. -1.
        994   -1    0    0    0    0 -0.00000000000E+00 -0.00000000000E+00  0.11368683772E-12  0.17120000000E+03  0.17120000000E+03 0.  0.
         13    1    1    2    0    0 -0.12302566273E+02 -0.23115662364E+02  0.13810550416E+03  0.14056609985E+03  0.10566000000E+00 0. -1.
        994    1    1    2    0    0  0.23295451145E+02  0.35985735847E+02  0.80732652435E+01  0.17666994323E+03  0.17120000000E+03 0.  0.
        998    1    1    2    0    0 -0.10992884872E+02 -0.12870073483E+02  0.13538212269E+04  0.13539639569E+04  0.10000000000E+02 0. -1.
</event>
<event>
 5    1  0.1068111E-008  0.3690943E+03  0.7957747E-01  0.3500064E+00
         13   -1    0    0    0    0  0.00000000000E+00  0.00000000000E+00  0.14999999963E+04  0.15000000000E+04  0.10566000000E+00 0. -1.
        994   -1    0    0    0    0 -0.00000000000E+00 -0.00000000000E+00  0.11368683772E-12  0.17120000000E+03  0.17120000000E+03 0.  0.
         13    1    1    2    0    0 -0.14399133231E+02  0.63877768464E+02  0.19914414019E+03  0.20963326091E+03  0.10566000000E+00 0. -1.
        994    1    1    2    0    0  0.10952336993E+02 -0.54391127948E+02  0.20497569500E+02  0.18112961889E+03  0.17120000000E+03 0.  0.
        998    1    1    2    0    0  0.34467962381E+01 -0.94866405160E+01  0.12803582866E+04  0.12804371202E+04  0.10000000000E+02 0. -1.
</event>
<event>
 5    1  0.1068111E-008  0.3690762E+03  0.7957747E-01  0.3500147E+00
         13   -1    0    0    0    0  0.00000000000E+00  0.00000000000E+00  0.14999999963E+04  0.15000000000E+04  0.10566000000E+00 0. -1.
        994   -1    0    0    0    0 -0.00000000000E+00 -0.00000000000E+00  0.11368683772E-12  0.17120000000E+03  0.17120000000E+03 0.  0.
         13    1    1    2    0    0  0.24925313868E+02  0.14407536916E+01  0.27500632802E+02  0.37143546023E+02  0.10566000000E+00 0. -1.
        994    1    1    2    0    0 -0.23506062683E+02 -0.63039344611E+01  0.11809862256E+02  0.17332393781E+03  0.17120000000E+03 0.  0.
        998    1    1    2    0    0 -0.14192511852E+01  0.48631807695E+01  0.14606895012E+04  0.14607325162E+04  0.10000000000E+02 0. -1.
</event>
<event>
 5    1  0.1068111E-008  0.3800848E+03  0.7957747E-01  0.3450789E+00
         13   -1    0    0    0    0  0.00000000000E+00  0.00000000000E+00  0.14999999963E+04  0.15000000000E+04  0.10566000000E+00 0. -1.
        994   -1    0    0    0    0 -0.00000000000E+00 -0.00000000000E+00  0.11368683772E-12  0.17120000000E+03  0.17120000000E+03 0.  0.
         13    1    1    2    0    0 -0.25099586137E+01 -0.25193764232E+02  0.78934208106E+02  0.82895392041E+02  0.10566000000E+00 0. -1.
        994    1    1    2    0    0  0.22579591645E+01  0.10026923615E+02  0.44434789371E+01  0.17156579520E+03  0.17120000000E+03 0.  0.
        998    1    1    2    0    0  0.25199944916E+00  0.15166840617E+02  0.14166223092E+04  0.14167388128E+04  0.10000000000E+02 0. -1.
</event>
<event>
 5    1  0.1068111E-008  0.3841050E+03  0.7957747E-01  0.3433477E+00
         13   -1    0    0    0    0  0.00000000000E+00  0.00000000000E+00  0.14999999963E+04  0.15000000000E+04  0.10566000000E+00 0. -1.
        994   -1    0    0    0    0 -0.00000000000E+00 -0.00000000000E+00  0.11368683772E-12  0.17120000000E+03  0.17120000000E+03 0.  0.
         13    1    1    2    0    0  0.12218827466E+02  0.12739714948E+01  0.37043045730E+02  0.39027184743E+02  0.10566000000E+00 0. -1.
        994    1    1    2    0    0 -0.30707736508E+01  0.18972957202E+02  0.32944466285E+01  0.17230698226E+03  0.17120000000E+03 0.  0.
        998    1    1    2    0    0 -0.91480538148E+01 -0.20246928697E+02  0.14596625039E+04  0.14598658330E+04  0.10000000000E+02 0. -1.
</event>
<event>
 5    1  0.1068111E-008  0.3751555E+03  0.7957747E-01  0.3472528E+00
         13   -1    0    0    0    0  0.00000000000E+00  0.00000000000E+00  0.14999999963E+04  0.15000000000E+04  0.10566000000E+00 0.  1.
        994   -1    0    0    0    0 -0.00000000000E+00 -0.00000000000E+00  0.11368683772E-12  0.17120000000E+03  0.17120000000E+03 0.  0.
         13    1    1    2    0    0  0.38265729756E+02  0.20421487351E+02  0.52366676921E+02  0.67996935484E+02  0.10566000000E+00 0.  1.
        994    1    1    2    0    0 -0.11931592006E+03  0.23936174067E+02  0.68485255861E+02  0.22092736245E+03  0.17120000000E+03 0.  0.
        998    1    1    2    0    0  0.81050190306E+02 -0.44357661419E+02  0.13791480635E+04  0.13822757021E+04  0.10000000000E+02 0.  1.
</event>
<event>
 5    1  0.1068111E-008  0.3718995E+03  0.7957747E-01  0.3487206E+00
         13   -1    0    0    0    0  0.00000000000E+00  0.00000000000E+00  0.14999999963E+04  0.15000000000E+04  0.10566000000E+00 0.  1.
        994   -1    0    0    0    0 -0.00000000000E+00 -0.00000000000E+00  0.11368683772E-12  0.17120000000E+03  0.17120000000E+03 0.  0.
         13    1    1    2    0    0 -0.92980980568E+01  0.39395367879E+02  0.94862996522E+02  0.10313800905E+03  0.10566000000E+00 0.  1.
        994    1    1    2    0    0  0.46104616229E+01 -0.28069660561E+02  0.11064210002E+02  0.17389945067E+03  0.17120000000E+03 0.  0.
        998    1    1    2    0    0  0.46876364340E+01 -0.11325707318E+02  0.13940727898E+04  0.13941625403E+04  0.10000000000E+02 0.  1.
</event>
<event>
 5    1  0.1068111E-008  0.3846992E+03  0.7957747E-01  0.3430949E+00
         13   -1    0    0    0    0  0.00000000000E+00  0.00000000000E+00  0.14999999963E+04  0.15000000000E+04  0.10566000000E+00 0. -1.
        994   -1    0    0    0    0 -0.00000000000E+00 -0.00000000000E+00  0.11368683772E-12  0.17120000000E+03  0.17120000000E+03 0.  0.
         13    1    1    2    0    0 -0.61298164931E+02  0.14957915572E+01  0.89901238431E+02  0.10882070691E+03  0.10566000000E+00 0. -1.
        994    1    1    2    0    0  0.53222344250E+02 -0.10069297079E+02  0.29831704925E+02  0.18202576546E+03  0.17120000000E+03 0.  0.
        998    1    1    2    0    0  0.80758206814E+01  0.85735055213E+01  0.13802670529E+04  0.13803535276E+04  0.10000000000E+02 0. -1.
</event>
<event>
 5    1  0.1068111E-008  0.3849033E+03  0.7957747E-01  0.3430082E+00
         13   -1    0    0    0    0  0.00000000000E+00  0.00000000000E+00  0.14999999963E+04  0.15000000000E+04  0.10566000000E+00 0. -1.
        994   -1    0    0    0    0 -0.00000000000E+00 -0.00000000000E+00  0.11368683772E-12  0.17120000000E+03  0.17120000000E+03 0.  0.
         13    1    1    2    0    0 -0.64376441390E+01 -0.76660778363E+01  0.29809731099E+02  0.31445878008E+02  0.10566000000E+00 0. -1.
        994    1    1    2    0    0  0.28094181794E+01  0.42472841433E+01  0.17634527736E+01  0.17128479798E+03  0.17120000000E+03 0.  0.
        998    1    1    2    0    0  0.36282259597E+01  0.34187936930E+01  0.14684268124E+04  0.14684693240E+04  0.10000000000E+02 0. -1.
</event>
<event>
 5    1  0.1068111E-008  0.3785836E+03  0.7957747E-01  0.3457349E+00
         13   -1    0    0    0    0  0.00000000000E+00  0.00000000000E+00  0.14999999963E+04  0.15000000000E+04  0.10566000000E+00 0. -1.
        994   -1    0    0    0    0 -0.00000000000E+00 -0.00000000000E+00  0.11368683772E-12  0.17120000000E+03  0.17120000000E+03 0.  0.
         13    1    1    2    0    0  0.11777923282E+01 -0.50235088473E+02  0.29218625784E+03  0.29647558372E+03  0.10566000000E+00 0. -1.
        994    1    1    2    0    0 -0.18943596806E+01  0.14684204080E+02  0.55864457642E+01  0.17192981947E+03  0.17120000000E+03 0.  0.
        998    1    1    2    0    0  0.71656735236E+00  0.35550884393E+02  0.12022272927E+04  0.12027945968E+04  0.10000000000E+02 0. -1.
</event>
<event>
 5    1  0.1068111E-008  0.3853818E+03  0.7957747E-01  0.3428055E+00
         13   -1    0    0    0    0  0.00000000000E+00  0.00000000000E+00  0.14999999963E+04  0.15000000000E+04  0.10566000000E+00 0.  1.
        994   -1    0    0    0    0 -0.00000000000E+00 -0.00000000000E+00  0.11368683772E-12  0.17120000000E+03  0.17120000000E+03 0.  0.
         13    1    1    2    0    0 -0.13791650572E+02  0.57342892504E+02  0.83431908477E+02  0.10217294878E+03  0.10566000000E+00 0.  1.
        994    1    1    2    0    0  0.87423598109E+02 -0.18286789840E+02  0.49443210883E+02  0.19932727684E+03  0.17120000000E+03 0.  0.
        998    1    1    2    0    0 -0.73631947538E+02 -0.39056102664E+02  0.13671248769E+04  0.13696997744E+04  0.10000000000E+02 0.  1.
</event>
<event>
 5    1  0.1068111E-008  0.3781937E+03  0.7957747E-01  0.3459062E+00
         13   -1    0    0    0    0  0.00000000000E+00  0.00000000000E+00  0.14999999963E+04  0.15000000000E+04  0.10566000000E+00 0.  1.
        994   -1    0    0    0    0 -0.00000000000E+00 -0.00000000000E+00  0.11368683772E-12  0.17120000000E+03  0.17120000000E+03 0.  0.
         13    1    1    2    0    0  0.26553192046E+02  0.33767383929E+02  0.16438825567E+03  0.16990826346E+03  0.10566000000E+00 0.  1.
        994    1    1    2    0    0 -0.95104425340E+01 -0.45423005775E+02  0.12325053840E+02  0.17780620046E+03  0.17120000000E+03 0.  0.
        998    1    1    2    0    0 -0.17042749512E+02  0.11655621845E+02  0.13232866868E+04  0.13234855361E+04  0.10000000000E+02 0.  1.
</event>
<event>
 5    1  0.1068111E-008  0.3737765E+03  0.7957747E-01  0.3478713E+00
         13   -1    0    0    0    0  0.00000000000E+00  0.00000000000E+00  0.14999999963E+04  0.15000000000E+04  0.10566000000E+00 0.  1.
        994   -1    0    0    0    0 -0.00000000000E+00 -0.00000000000E+00  0.11368683772E-12  0.17120000000E+03  0.17120000000E+03 0.  0.
         13    1    1    2    0    0 -0.24284744658E+02 -0.16750726195E+02  0.54916957994E+02  0.62339546762E+02  0.10566000000E+00 0.  1.
        994    1    1    2    0    0  0.21084156698E+02  0.21391482845E+02  0.10393775356E+02  0.17412526459E+03  0.17120000000E+03 0.  0.
        998    1    1    2    0    0  0.32005879597E+01 -0.46407566498E+01  0.14346892629E+04  0.14347351886E+04  0.10000000000E+02 0.  1.
</event>
<event>
 5    1  0.1068111E-008  0.3786053E+03  0.7957747E-01  0.3457254E+00
         13   -1    0    0    0    0  0.00000000000E+00  0.00000000000E+00  0.14999999963E+04  0.15000000000E+04  0.10566000000E+00 0. -1.
        994   -1    0    0    0    0 -0.00000000000E+00 -0.00000000000E+00  0.11368683772E-12  0.17120000000E+03  0.17120000000E+03 0.  0.
         13    1    1    2    0    0  0.29901592241E+02  0.18210276540E+02  0.15166809344E+03  0.15565648435E+03  0.10566000000E+00 0. -1.
        994    1    1    2    0    0  0.14710327408E+02 -0.33393620605E+01  0.56034059362E+01  0.17195459642E+03  0.17120000000E+03 0.  0.
        998    1    1    2    0    0 -0.44611919648E+02 -0.14870914479E+02  0.13427284969E+04  0.13435889192E+04  0.10000000000E+02 0. -1.
</event>
<event>
 5    1  0.1068111E-008  0.3714149E+03  0.7957747E-01  0.3489413E+00
         13   -1    0    0    0    0  0.00000000000E+00  0.00000000000E+00  0.14999999963E+04  0.15000000000E+04  0.10566000000E+00 0. -1.
        994   -1    0    0    0    0 -0.00000000000E+00 -0.00000000000E+00  0.11368683772E-12  0.17120000000E+03  0.17120000000E+03 0.  0.
         13    1    1    2    0    0 -0.50574562195E+02  0.17823929329E+02  0.17379723607E+03  0.18188174517E+03  0.10566000000E+00 0. -1.
        994    1    1    2    0    0  0.18926103148E+02 -0.13536556348E+02  0.10396617160E+02  0.17308658350E+03  0.17120000000E+03 0.  0.
        998    1    1    2    0    0  0.31648459047E+02 -0.42873729802E+01  0.13158061430E+04  0.13162316713E+04  0.10000000000E+02 0. -1.
</event>
<event>
 5    1  0.1068111E-008  0.4119769E+03  0.7957747E-01  0.3322743E+00
         13   -1    0    0    0    0  0.00000000000E+00  0.00000000000E+00  0.14999999963E+04  0.15000000000E+04  0.10566000000E+00 0.  1.
        994   -1    0    0    0    0 -0.00000000000E+00 -0.00000000000E+00  0.11368683772E-12  0.17120000000E+03  0.17120000000E+03 0.  0.
         13    1    1    2    0    0  0.10879608655E+02 -0.81820233834E+01 -0.12872590441E+02  0.18735691603E+02  0.10566000000E+00 0.  1.
        994    1    1    2    0    0 -0.12949626990E+02  0.31884280431E+01  0.35878917722E+02  0.17542689546E+03  0.17120000000E+03 0.  0.
        998    1    1    2    0    0  0.20700183347E+01  0.49935953403E+01  0.14769936690E+04  0.14770374129E+04  0.10000000000E+02 0.  1.
</event>
<event>
 5    1  0.1068111E-008  0.3839151E+03  0.7957747E-01  0.3434286E+00
         13   -1    0    0    0    0  0.00000000000E+00  0.00000000000E+00  0.14999999963E+04  0.15000000000E+04  0.10566000000E+00 0. -1.
        994   -1    0    0    0    0 -0.00000000000E+00 -0.00000000000E+00  0.11368683772E-12  0.17120000000E+03  0.17120000000E+03 0.  0.
         13    1    1    2    0    0 -0.10015516632E+01 -0.10419465235E+02  0.24519740250E+02  0.26660779949E+02  0.10566000000E+00 0. -1.
        994    1    1    2    0    0  0.59330667213E+01  0.73926996190E+01  0.24663019547E+01  0.17147995782E+03  0.17120000000E+03 0.  0.
        998    1    1    2    0    0 -0.49315150580E+01  0.30267656157E+01  0.14730139541E+04  0.14730592622E+04  0.10000000000E+02 0. -1.
</event>
<event>
 5    1  0.1068111E-008  0.3789169E+03  0.7957747E-01  0.3455888E+00
         13   -1    0    0    0    0  0.00000000000E+00  0.00000000000E+00  0.14999999963E+04  0.15000000000E+04  0.10566000000E+00 0. -1.
        994   -1    0    0    0    0 -0.00000000000E+00 -0.00000000000E+00  0.11368683772E-12  0.17120000000E+03  0.17120000000E+03 0.  0.
         13    1    1    2    0    0  0.29729949637E+02 -0.12264932150E+01  0.87636982297E+02  0.92550667319E+02  0.10566000000E+00 0. -1.
        994    1    1    2    0    0 -0.31102546515E+02  0.47286113348E+00  0.79339056949E+01  0.17418375027E+03  0.17120000000E+03 0.  0.
        998    1    1    2    0    0  0.13725968776E+01  0.75363208151E+00  0.14044291083E+04  0.14044655824E+04  0.10000000000E+02 0. -1.
</event>
<event>
 5    1  0.1068111E-008  0.3782000E+03  0.7957747E-01  0.3459034E+00
         13   -1    0    0    0    0  0.00000000000E+00  0.00000000000E+00  0.14999999963E+04  0.15000000000E+04  0.10566000000E+00 0.  1.
        994   -1    0    0    0    0 -0.00000000000E+00 -0.00000000000E+00  0.11368683772E-12  0.17120000000E+03  0.17120000000E+03 0.  0.
         13    1    1    2    0    0 -0.37729212403E+02  0.15093025316E+02  0.14321358005E+03  0.14886716749E+03  0.10566000000E+00 0.  1.
        994    1    1    2    0    0  0.42486393093E+02 -0.17535116502E+02  0.12182060389E+02  0.17768065878E+03  0.17120000000E+03 0.  0.
        998    1    1    2    0    0 -0.47571806899E+01  0.24420911868E+01  0.13446043558E+04  0.13446521737E+04  0.10000000000E+02 0.  1.
</event>
<event>
 5    1  0.1068111E-008  0.3781200E+03  0.7957747E-01  0.3459386E+00
         13   -1    0    0    0    0  0.00000000000E+00  0.00000000000E+00  0.14999999963E+04  0.15000000000E+04  0.10566000000E+00 0.  1.
        994   -1    0    0    0    0 -0.00000000000E+00 -0.00000000000E+00  0.11368683772E-12  0.17120000000E+03  0.17120000000E+03 0.  0.
         13    1    1    2    0    0 -0.29365209798E+02 -0.44599075032E+01  0.77630060647E+02  0.83118251915E+02  0.10566000000E+00 0.  1.
        994    1    1    2    0    0  0.36674598947E+02  0.25211240979E+02  0.11776793565E+02  0.17728160013E+03  0.17120000000E+03 0.  0.
        998    1    1    2    0    0 -0.73093891494E+01 -0.20751333475E+02  0.14105931421E+04  0.14108001480E+04  0.10000000000E+02 0.  1.
</event>
<event>
 5    1  0.1068111E-008  0.3708224E+03  0.7957747E-01  0.3492120E+00
         13   -1    0    0    0    0  0.00000000000E+00  0.00000000000E+00  0.14999999963E+04  0.15000000000E+04  0.10566000000E+00 0. -1.
        994   -1    0    0    0    0 -0.00000000000E+00 -0.00000000000E+00  0.11368683772E-12  0.17120000000E+03  0.17120000000E+03 0.  0.
         13    1    1    2    0    0  0.12024519680E+03  0.56485040358E+02  0.68229617328E+03  0.69510973693E+03  0.10566000000E+00 0. -1.
        994    1    1    2    0    0 -0.11126035562E+03 -0.28911449392E+02  0.55882622012E+02  0.21365169337E+03  0.17120000000E+03 0.  0.
        998    1    1    2    0    0 -0.89848411832E+01 -0.27573590966E+02  0.76182120098E+03  0.76243856969E+03  0.10000000000E+02 0. -1.
</event>
<event>
 5    1  0.1068111E-008  0.3743102E+03  0.7957747E-01  0.3476313E+00
         13   -1    0    0    0    0  0.00000000000E+00  0.00000000000E+00  0.14999999963E+04  0.15000000000E+04  0.10566000000E+00 0. -1.
        994   -1    0    0    0    0 -0.00000000000E+00 -0.00000000000E+00  0.11368683772E-12  0.17120000000E+03  0.17120000000E+03 0.  0.
         13    1    1    2    0    0 -0.48886195250E+02  0.24647281656E+02  0.26715591783E+03  0.27270798334E+03  0.10566000000E+00 0. -1.
        994    1    1    2    0    0 -0.43799160681E+01 -0.51361543582E+01  0.71886217178E+01  0.17148376025E+03  0.17120000000E+03 0.  0.
        998    1    1    2    0    0  0.53266111318E+02 -0.19511127297E+02  0.12256554567E+04  0.12270082564E+04  0.10000000000E+02 0. -1.
</event>
<event>
 5    1  0.1068111E-008  0.3845299E+03  0.7957747E-01  0.3431668E+00
         13   -1    0    0    0    0  0.00000000000E+00  0.00000000000E+00  0.14999999963E+04  0.15000000000E+04  0.10566000000E+00 0. -1.
        994   -1    0    0    0    0 -0.00000000000E+00 -0.00000000000E+00  0.11368683772E-12  0.17120000000E+03  0.17120000000E+03 0.  0.
         13    1    1    2    0    0  0.17606082955E+02  0.10229908886E+01  0.80174069340E+02  0.82090883940E+02  0.10566000000E+00 0. -1.
        994    1    1    2    0    0 -0.17227921225E+02  0.16621716257E+01  0.28509789415E+01  0.17209628748E+03  0.17120000000E+03 0.  0.
        998    1    1    2    0    0 -0.37816172996E+00 -0.26851625143E+01  0.14169749480E+04  0.14170128286E+04  0.10000000000E+02 0. -1.
</event>
<event>
 5    1  0.1068111E-008  0.3831993E+03  0.7957747E-01  0.3437345E+00
         13   -1    0    0    0    0  0.00000000000E+00  0.00000000000E+00  0.14999999963E+04  0.15000000000E+04  0.10566000000E+00 0. -1.
        994   -1    0    0    0    0 -0.00000000000E+00 -0.00000000000E+00  0.11368683772E-12  0.17120000000E+03  0.17120000000E+03 0.  0.
         13    1    1    2    0    0  0.59278949951E+01  0.86691677312E+01  0.20119767597E+02  0.22696048564E+02  0.10566000000E+00 0. -1.
        994    1    1    2    0    0 -0.11020156039E+02 -0.16163891437E+02  0.37938372800E+01  0.17235587726E+03  0.17120000000E+03 0.  0.
        998    1    1    2    0    0  0.50922610442E+01  0.74947237059E+01  0.14760863914E+04  0.14761480742E+04  0.10000000000E+02 0. -1.
</event>
<event>
 5    1  0.1068111E-008  0.3824225E+03  0.7957747E-01  0.3440678E+00
         13   -1    0    0    0    0  0.00000000000E+00  0.00000000000E+00  0.14999999963E+04  0.15000000000E+04  0.10566000000E+00 0.  1.
        994   -1    0    0    0    0 -0.00000000000E+00 -0.00000000000E+00  0.11368683772E-12  0.17120000000E+03  0.17120000000E+03 0.  0.
         13    1    1    2    0    0 -0.30570373376E+02  0.88513194183E+01  0.16027269104E+03  0.16340208150E+03  0.10566000000E+00 0.  1.
        994    1    1    2    0    0  0.28261890110E+02 -0.55799028868E+01  0.56722828017E+01  0.17369940858E+03  0.17120000000E+03 0.  0.
        998    1    1    2    0    0  0.23084832658E+01 -0.32714165315E+01  0.13340550224E+04  0.13340985099E+04  0.10000000000E+02 0.  1.
</event>
<event>
 5    1  0.1068111E-008  0.3853174E+03  0.7957747E-01  0.3428327E+00
         13   -1    0    0    0    0  0.00000000000E+00  0.00000000000E+00  0.14999999963E+04  0.15000000000E+04  0.10566000000E+00 0.  1.
        994   -1    0    0    0    0 -0.00000000000E+00 -0.00000000000E+00  0.11368683772E-12  0.17120000000E+03  0.17120000000E+03 0.  0.
         13    1    1    2    0    0  0.14471694813E+02  0.31896683223E+01  0.77661170631E+02  0.79062459629E+02  0.10566000000E+00 0.  1.
        994    1    1    2    0    0 -0.58874934123E+01  0.51487478926E+01  0.16736183564E+01  0.17138673572E+03  0.17120000000E+03 0.  0.
        998    1    1    2    0    0 -0.85842014012E+01 -0.83384162149E+01  0.14206652073E+04  0.14207508046E+04  0.10000000000E+02 0.  1.
</event>
<event>
 5    1  0.1068111E-008  0.3846024E+03  0.7957747E-01  0.3431360E+00
         13   -1    0    0    0    0  0.00000000000E+00  0.00000000000E+00  0.14999999963E+04  0.15000000000E+04  0.10566000000E+00 0.  1.
        994   -1    0    0    0    0 -0.00000000000E+00 -0.00000000000E+00  0.11368683772E-12  0.17120000000E+03  0.17120000000E+03 0.  0.
         13    1    1    2    0    0  0.63646431582E+00  0.16583612793E+02  0.79844369650E+02  0.81550940086E+02  0.10566000000E+00 0.  1.
        994    1    1    2    0    0 -0.26850260629E+02 -0.17241067385E+01  0.42150336745E+01  0.17335257584E+03  0.17120000000E+03 0.  0.
        998    1    1    2    0    0  0.26213796313E+02 -0.14859506055E+02  0.14159405930E+04  0.14162964841E+04  0.10000000000E+02 0.  1.
</event>
<event>
 5    1  0.1068111E-008  0.3853602E+03  0.7957747E-01  0.3428146E+00
         13   -1    0    0    0    0  0.00000000000E+00  0.00000000000E+00  0.14999999963E+04  0.15000000000E+04  0.10566000000E+00 0. -1.
        994   -1    0    0    0    0 -0.00000000000E+00 -0.00000000000E+00  0.11368683772E-12  0.17120000000E+03  0.17120000000E+03 0.  0.
         13    1    1    2    0    0  0.12855909790E+02 -0.10043142995E+02  0.97100219551E+02  0.98461174778E+02  0.10566000000E+00 0. -1.
        994    1    1    2    0    0 -0.14413230706E+01  0.46885698981E+01  0.15304375938E+01  0.17127709228E+03  0.17120000000E+03 0.  0.
        998    1    1    2    0    0 -0.11414586720E+02  0.53545730970E+01  0.14013693391E+04  0.14014617329E+04  0.10000000000E+02 0. -1.
</event>
<event>
 5    1  0.1068111E-008  0.3803304E+03  0.7957747E-01  0.3449721E+00
         13   -1    0    0    0    0  0.00000000000E+00  0.00000000000E+00  0.14999999963E+04  0.15000000000E+04  0.10566000000E+00 0. -1.
        994   -1    0    0    0    0 -0.00000000000E+00 -0.00000000000E+00  0.11368683772E-12  0.17120000000E+03  0.17120000000E+03 0.  0.
         13    1    1    2    0    0 -0.36532365487E+01  0.12234725383E+02  0.19046968747E+02  0.22931045004E+02  0.10566000000E+00 0. -1.
        994    1    1    2    0    0 -0.37348030962E+01 -0.74381406762E+01  0.41977976724E+01  0.17145359779E+03  0.17120000000E+03 0.  0.
        998    1    1    2    0    0  0.73880396449E+01 -0.47965847068E+01  0.14767552299E+04  0.14768153572E+04  0.10000000000E+02 0. -1.
</event>
<event>
 5    1  0.1068111E-008  0.3812439E+03  0.7957747E-01  0.3445760E+00
         13   -1    0    0    0    0  0.00000000000E+00  0.00000000000E+00  0.14999999963E+04  0.15000000000E+04  0.10566000000E+00 0. -1.
        994   -1    0    0    0    0 -0.00000000000E+00 -0.00000000000E+00  0.11368683772E-12  0.17120000000E+03  0.17120000000E+03 0.  0.
         13    1    1    2    0    0  0.17368382333E+02  0.11481825144E+02  0.65541121498E+02  0.68768763147E+02  0.10566000000E+00 0. -1.
        994    1    1    2    0    0  0.20109071329E+01  0.39918536524E+01  0.35730667942E+01  0.17129560838E+03  0.17120000000E+03 0.  0.
        998    1    1    2    0    0 -0.19379289466E+02 -0.15473678796E+02  0.14308858080E+04  0.14311356285E+04  0.10000000000E+02 0. -1.
</event>
<event>
 5    1  0.1068111E-008  0.3858011E+03  0.7957747E-01  0.3426282E+00
         13   -1    0    0    0    0  0.00000000000E+00  0.00000000000E+00  0.14999999963E+04  0.15000000000E+04  0.10566000000E+00 0. -1.
        994   -1    0    0    0    0 -0.00000000000E+00 -0.00000000000E+00  0.11368683772E-12  0.17120000000E+03  0.17120000000E+03 0.  0.
         13    1    1    2    0    0  0.10411369932E+02  0.43128243263E+01  0.51998145210E+02  0.53205407121E+02  0.10566000000E+00 0. -1.
        994    1    1    2    0    0 -0.58882649462E+01 -0.51764265332E+01  0.14345797640E+01  0.17138542842E+03  0.17120000000E+03 0.  0.
        998    1    1    2    0    0 -0.45231049861E+01  0.86360220697E+00  0.14465672713E+04  0.14466091645E+04  0.10000000000E+02 0. -1.
</event>
<event>
 5    1  0.1068111E-008  0.3824214E+03  0.7957747E-01  0.3440682E+00
         13   -1    0    0    0    0  0.00000000000E+00  0.00000000000E+00  0.14999999963E+04  0.15000000000E+04  0.10566000000E+00 0.  1.
        994   -1    0    0    0    0 -0.00000000000E+00 -0.00000000000E+00  0.11368683772E-12  0.17120000000E+03  0.17120000000E+03 0.  0.
         13    1    1    2    0    0  0.14761190429E+02 -0.16187709009E+02  0.80338211484E+02  0.83271688192E+02  0.10566000000E+00 0.  1.
        994    1    1    2    0    0 -0.11724357868E+02  0.11245558635E+02  0.37915369104E+01  0.17201086858E+03  0.17120000000E+03 0.  0.
        998    1    1    2    0    0 -0.30368325610E+01  0.49421503744E+01  0.14158702479E+04  0.14159174432E+04  0.10000000000E+02 0.  1.
</event>
<event>
 5    1  0.1068111E-008  0.3768746E+03  0.7957747E-01  0.3464881E+00
         13   -1    0    0    0    0  0.00000000000E+00  0.00000000000E+00  0.14999999963E+04  0.15000000000E+04  0.10566000000E+00 0. -1.
        994   -1    0    0    0    0 -0.00000000000E+00 -0.00000000000E+00  0.11368683772E-12  0.17120000000E+03  0.17120000000E+03 0.  0.
         13    1    1    2    0    0  0.85149174458E+02  0.92785837708E+02  0.72779005083E+03  0.73860541755E+03  0.10566000000E+00 0. -1.
        994    1    1    2    0    0 -0.77379033973E+02 -0.93925715645E+02  0.57502499023E+02  0.21777403966E+03  0.17120000000E+03 0.  0.
        998    1    1    2    0    0 -0.77701404852E+01  0.11398779375E+01  0.71470744643E+03  0.71482054278E+03  0.10000000000E+02 0.  0.
</event>
<event>
 5    1  0.1068111E-008  0.3797636E+03  0.7957747E-01  0.3452189E+00
         13   -1    0    0    0    0  0.00000000000E+00  0.00000000000E+00  0.14999999963E+04  0.15000000000E+04  0.10566000000E+00 0. -1.
        994   -1    0    0    0    0 -0.00000000000E+00 -0.00000000000E+00  0.11368683772E-12  0.17120000000E+03  0.17120000000E+03 0.  0.
         13    1    1    2    0    0 -0.66691908067E+01 -0.18866643184E+02  0.47762314127E+02  0.51784921993E+02  0.10566000000E+00 0. -1.
        994    1    1    2    0    0 -0.10072140738E+02  0.32518479728E+01  0.46274120656E+01  0.17158926387E+03  0.17120000000E+03 0.  0.
        998    1    1    2    0    0  0.16741331545E+02  0.15614795211E+02  0.14476102701E+04  0.14478258141E+04  0.10000000000E+02 0. -1.
</event>
<event>
 5    1  0.1068111E-008  0.3803016E+03  0.7957747E-01  0.3449846E+00
         13   -1    0    0    0    0  0.00000000000E+00  0.00000000000E+00  0.14999999963E+04  0.15000000000E+04  0.10566000000E+00 0.  1.
        994   -1    0    0    0    0 -0.00000000000E+00 -0.00000000000E+00  0.11368683772E-12  0.17120000000E+03  0.17120000000E+03 0.  0.
         13    1    1    2    0    0  0.25782832721E+02  0.25644678899E+02  0.16695161822E+03  0.17086619914E+03  0.10566000000E+00 0.  1.
        994    1    1    2    0    0 -0.26327877181E+02 -0.14527907042E+01  0.63063374273E+01  0.17333342900E+03  0.17120000000E+03 0.  0.
        998    1    1    2    0    0  0.54504445977E+00 -0.24191888195E+02  0.13267420406E+04  0.13270003719E+04  0.10000000000E+02 0.  1.
</event>
<event>
 5    1  0.1068111E-008  0.3755498E+03  0.7957747E-01  0.3470767E+00
         13   -1    0    0    0    0  0.00000000000E+00  0.00000000000E+00  0.14999999963E+04  0.15000000000E+04  0.10566000000E+00 0. -1.
        994   -1    0    0    0    0 -0.00000000000E+00 -0.00000000000E+00  0.11368683772E-12  0.17120000000E+03  0.17120000000E+03 0.  0.
         13    1    1    2    0    0 -0.36312738338E+02  0.14174259871E+03  0.75266050786E+03  0.76675121813E+03  0.10566000000E+00 0. -1.
        994    1    1    2    0    0  0.39054375150E+02 -0.14154313681E+03  0.83460307609E+02  0.24048860002E+03  0.17120000000E+03 0.  0.
        998    1    1    2    0    0 -0.27416368117E+01 -0.19946189951E+00  0.66387918081E+03  0.66396018184E+03  0.10000000000E+02 0.  0.
</event>
<event>
 5    1  0.1068111E-008  0.3821932E+03  0.7957747E-01  0.3441664E+00
         13   -1    0    0    0    0  0.00000000000E+00  0.00000000000E+00  0.14999999963E+04  0.15000000000E+04  0.10566000000E+00 0. -1.
        994   -1    0    0    0    0 -0.00000000000E+00 -0.00000000000E+00  0.11368683772E-12  0.17120000000E+03  0.17120000000E+03 0.  0.
         13    1    1    2    0    0  0.21007351264E+01 -0.14886897045E+02  0.35535886516E+02  0.38585530788E+02  0.10566000000E+00 0. -1.
        994    1    1    2    0    0 -0.13290004778E+01  0.15361405043E+02  0.38195115576E+01  0.17193535900E+03  0.17120000000E+03 0.  0.
        998    1    1    2    0    0 -0.77173464865E+00 -0.47450799755E+00  0.14606445982E+04  0.14606791102E+04  0.10000000000E+02 0. -1.
</event>
<event>
 5    1  0.1068111E-008  0.3940147E+03  0.7957747E-01  0.3392317E+00
         13   -1    0    0    0    0  0.00000000000E+00  0.00000000000E+00  0.14999999963E+04  0.15000000000E+04  0.10566000000E+00 0.  1.
        994   -1    0    0    0    0 -0.00000000000E+00 -0.00000000000E+00  0.11368683772E-12  0.17120000000E+03  0.17120000000E+03 0.  0.
         13    1    1    2    0    0 -0.67585464405E+02 -0.74143543141E+02  0.16596957998E+03  0.19393548575E+03  0.10566000000E+00 0.  1.
        994    1    1    2    0    0  0.12151946299E+03  0.45992577653E+02  0.92133756141E+02  0.23383833327E+03  0.17120000000E+03 0.  0.
        998    1    1    2    0    0 -0.53933998582E+02  0.28150965488E+02  0.12418966602E+04  0.12434261810E+04  0.10000000000E+02 0.  1.
</event>
<event>
 5    1  0.1068111E-008  0.3862393E+03  0.7957747E-01  0.3424433E+00
         13   -1    0    0    0    0  0.00000000000E+00  0.00000000000E+00  0.14999999963E+04  0.15000000000E+04  0.10566000000E+00 0.  1.
        994   -1    0    0    0    0 -0.00000000000E+00 -0.00000000000E+00  0.11368683772E-12  0.17120000000E+03  0.17120000000E+03 0.  0.
         13    1    1    2    0    0 -0.56677089655E+01 -0.96550564545E+01  0.61072574640E+02  0.62090366220E+02  0.10566000000E+00 0.  1.
        994    1    1    2    0    0  0.75074019991E+01  0.81863475274E+01  0.14203293103E+01  0.17156583199E+03  0.17120000000E+03 0.  0.
        998    1    1    2    0    0 -0.18396930335E+01  0.14687089271E+01  0.14375070923E+04  0.14375438018E+04  0.10000000000E+02 0.  1.
</event>
<event>
 5    1  0.1256882E-008  0.3842189E+03  0.7957747E-01  0.3432992E+00
         13   -1    0    0    0    0  0.00000000000E+00  0.00000000000E+00  0.14999999963E+04  0.15000000000E+04  0.10566000000E+00 0.  1.
        994   -1    0    0    0    0 -0.00000000000E+00 -0.00000000000E+00  0.11368683772E-12  0.17120000000E+03  0.17120000000E+03 0.  0.
         13    1    1    2    0    0 -0.16187780087E+02  0.13916092722E+02  0.92140109634E+02  0.94580721229E+02  0.10566000000E+00 0.  1.
        994    1    1    2    0    0  0.33042735643E+02 -0.28671484314E+02  0.83541830922E+01  0.17689858328E+03  0.17120000000E+03 0.  0.
        998    1    1    2    0    0 -0.16854955556E+02  0.14755391593E+02  0.13995057036E+04  0.13997206955E+04  0.10000000000E+02 0.  1.
</event>
<event>
 5    1  0.1068111E-008  0.3855820E+03  0.7957747E-01  0.3427208E+00
         13   -1    0    0    0    0  0.00000000000E+00  0.00000000000E+00  0.14999999963E+04  0.15000000000E+04  0.10566000000E+00 0.  1.
        994   -1    0    0    0    0 -0.00000000000E+00 -0.00000000000E+00  0.11368683772E-12  0.17120000000E+03  0.17120000000E+03 0.  0.
         13    1    1    2    0    0  0.37733890724E+01  0.11689290767E+02  0.66868390281E+02  0.67987283859E+02  0.10566000000E+00 0.  1.
        994    1    1    2    0    0  0.53609713066E+01  0.13800316595E+02  0.20612800755E+01  0.17185132419E+03  0.17120000000E+03 0.  0.
        998    1    1    2    0    0 -0.91343603790E+01 -0.25489607362E+02  0.14310703259E+04  0.14313613919E+04  0.10000000000E+02 0.  1.
</event>
<event>
 5    1  0.1068111E-008  0.3825423E+03  0.7957747E-01  0.3440163E+00
         13   -1    0    0    0    0  0.00000000000E+00  0.00000000000E+00  0.14999999963E+04  0.15000000000E+04  0.10566000000E+00 0. -1.
        994   -1    0    0    0    0 -0.00000000000E+00 -0.00000000000E+00  0.11368683772E-12  0.17120000000E+03  0.17120000000E+03 0.  0.
         13    1    1    2    0    0  0.68000634178E+01 -0.28185096329E+02  0.15945021114E+03  0.16206486823E+03  0.10566000000E+00 0. -1.
        994    1    1    2    0    0 -0.59985674162E+00  0.63177894608E+01  0.29887879612E+01  0.17134365219E+03  0.17120000000E+03 0.  0.
        998    1    1    2    0    0 -0.62002066761E+01  0.21867306868E+02  0.13375609972E+04  0.13377914796E+04  0.10000000000E+02 0. -1.
</event>
<event>
 5    1  0.1068111E-008  0.3817360E+03  0.7957747E-01  0.3443634E+00
         13   -1    0    0    0    0  0.00000000000E+00  0.00000000000E+00  0.14999999963E+04  0.15000000000E+04  0.10566000000E+00 0. -1.
        994   -1    0    0    0    0 -0.00000000000E+00 -0.00000000000E+00  0.11368683772E-12  0.17120000000E+03  0.17120000000E+03 0.  0.
         13    1    1    2    0    0  0.16703356969E+02  0.52045242257E+01  0.45933162640E+02  0.49152373295E+02  0.10566000000E+00 0. -1.
        994    1    1    2    0    0 -0.13072908786E+02  0.52607841047E+01  0.39196819303E+01  0.17182369074E+03  0.17120000000E+03 0.  0.
        998    1    1    2    0    0 -0.36304481829E+01 -0.10465308330E+02  0.14501471517E+04  0.14502239360E+04  0.10000000000E+02 0. -1.
</event>
<event>
 5    1  0.1068111E-008  0.3810301E+03  0.7957747E-01  0.3446685E+00
         13   -1    0    0    0    0  0.00000000000E+00  0.00000000000E+00  0.14999999963E+04  0.15000000000E+04  0.10566000000E+00 0. -1.
        994   -1    0    0    0    0 -0.00000000000E+00 -0.00000000000E+00  0.11368683772E-12  0.17120000000E+03  0.17120000000E+03 0.  0.
         13    1    1    2    0    0  0.22180400921E+02  0.56232653955E+01  0.78430133807E+02  0.81699989912E+02  0.10566000000E+00 0. -1.
        994    1    1    2    0    0  0.37867941383E+01  0.66237581269E+01  0.38080180636E+01  0.17141223697E+03  0.17120000000E+03 0.  0.
        998    1    1    2    0    0 -0.25967195060E+02 -0.12247023522E+02  0.14177618444E+04  0.14180877731E+04  0.10000000000E+02 0. -1.
</event>
<event>
 5    1  0.1068111E-008  0.3822666E+03  0.7957747E-01  0.3441348E+00
         13   -1    0    0    0    0  0.00000000000E+00  0.00000000000E+00  0.14999999963E+04  0.15000000000E+04  0.10566000000E+00 0.  1.
        994   -1    0    0    0    0 -0.00000000000E+00 -0.00000000000E+00  0.11368683772E-12  0.17120000000E+03  0.17120000000E+03 0.  0.
         13    1    1    2    0    0 -0.64681807040E+01 -0.10248583990E+02  0.23114965266E+02  0.26099494606E+02  0.10566000000E+00 0.  1.
        994    1    1    2    0    0  0.13922321676E+02  0.57280645626E+01  0.37457212524E+01  0.17190146070E+03  0.17120000000E+03 0.  0.
        998    1    1    2    0    0 -0.74541409720E+01  0.45205194275E+01  0.14731393098E+04  0.14731990447E+04  0.10000000000E+02 0.  1.
</event>
<event>
 5    1  0.1068111E-008  0.3824262E+03  0.7957747E-01  0.3440662E+00
         13   -1    0    0    0    0  0.00000000000E+00  0.00000000000E+00  0.14999999963E+04  0.15000000000E+04  0.10566000000E+00 0.  1.
        994   -1    0    0    0    0 -0.00000000000E+00 -0.00000000000E+00  0.11368683772E-12  0.17120000000E+03  0.17120000000E+03 0.  0.
         13    1    1    2    0    0 -0.20157339262E+02  0.93364990831E+01  0.85376041741E+02  0.88218865379E+02  0.10566000000E+00 0.  1.
        994    1    1    2    0    0  0.12854554253E+02  0.25154310942E+01  0.34825710001E+01  0.17173565518E+03  0.17120000000E+03 0.  0.
        998    1    1    2    0    0  0.73027850086E+01 -0.11851930177E+02  0.14111413835E+04  0.14112454794E+04  0.10000000000E+02 0.  1.
</event>
<event>
 5    1  0.1068111E-008  0.3814432E+03  0.7957747E-01  0.3444898E+00
         13   -1    0    0    0    0  0.00000000000E+00  0.00000000000E+00  0.14999999963E+04  0.15000000000E+04  0.10566000000E+00 0.  1.
        994   -1    0    0    0    0 -0.00000000000E+00 -0.00000000000E+00  0.11368683772E-12  0.17120000000E+03  0.17120000000E+03 0.  0.
         13    1    1    2    0    0 -0.34652894326E+02 -0.66836187031E+02  0.43448251280E+03  0.44095687326E+03  0.10566000000E+00 0.  1.
        994    1    1    2    0    0  0.53690601973E+02  0.84159738418E+02  0.37304785127E+02  0.20165968686E+03  0.17120000000E+03 0.  0.
        998    1    1    2    0    0 -0.19037707647E+02 -0.17323551387E+02  0.10282126984E+04  0.10285834399E+04  0.10000000000E+02 0.  1.
</event>
<event>
 5    1  0.1068111E-008  0.3857274E+03  0.7957747E-01  0.3426593E+00
         13   -1    0    0    0    0  0.00000000000E+00  0.00000000000E+00  0.14999999963E+04  0.15000000000E+04  0.10566000000E+00 0.  1.
        994   -1    0    0    0    0 -0.00000000000E+00 -0.00000000000E+00  0.11368683772E-12  0.17120000000E+03  0.17120000000E+03 0.  0.
         13    1    1    2    0    0 -0.26217919682E+00 -0.13578993767E+02  0.74303770946E+02  0.75534888300E+02  0.10566000000E+00 0.  1.
        994    1    1    2    0    0 -0.16169222690E+01  0.70613726640E+01  0.14416304634E+01  0.17135925922E+03  0.17120000000E+03 0.  0.
        998    1    1    2    0    0  0.18791014658E+01  0.65176211027E+01  0.14242545949E+04  0.14243058525E+04  0.10000000000E+02 0.  1.
</event>
<event>
 5    1  0.1068111E-008  0.3813714E+03  0.7957747E-01  0.3445209E+00
         13   -1    0    0    0    0  0.00000000000E+00  0.00000000000E+00  0.14999999963E+04  0.15000000000E+04  0.10566000000E+00 0. -1.
        994   -1    0    0    0    0 -0.00000000000E+00 -0.00000000000E+00  0.11368683772E-12  0.17120000000E+03  0.17120000000E+03 0.  0.
         13    1    1    2    0    0  0.11295308633E+02  0.50751742781E+00  0.17195395611E+02  0.20579950566E+02  0.10566000000E+00 0. -1.
        994    1    1    2    0    0 -0.71331081164E+01  0.28047022025E+01  0.36380189527E+01  0.17141010113E+03  0.17120000000E+03 0.  0.
        998    1    1    2    0    0 -0.41622005170E+01 -0.33122196304E+01  0.14791665817E+04  0.14792099483E+04  0.10000000000E+02 0. -1.
</event>
<event>
 5    1  0.1068111E-008  0.3836165E+03  0.7957747E-01  0.3435561E+00
         13   -1    0    0    0    0  0.00000000000E+00  0.00000000000E+00  0.14999999963E+04  0.15000000000E+04  0.10566000000E+00 0. -1.
        994   -1    0    0    0    0 -0.00000000000E+00 -0.00000000000E+00  0.11368683772E-12  0.17120000000E+03  0.17120000000E+03 0.  0.
         13    1    1    2    0    0 -0.21354800434E+02 -0.96273898797E+01  0.79737512107E+02  0.83107136507E+02  0.10566000000E+00 0. -1.
        994    1    1    2    0    0  0.65522857930E+02  0.59462210882E+02  0.28625581097E+02  0.19482777863E+03  0.17120000000E+03 0.  0.
        998    1    1    2    0    0 -0.44168057496E+02 -0.49834821002E+02  0.13916369031E+04  0.13932650849E+04  0.10000000000E+02 0. -1.
</event>
<event>
 5    1  0.1068111E-008  0.3754236E+03  0.7957747E-01  0.3471331E+00
         13   -1    0    0    0    0  0.00000000000E+00  0.00000000000E+00  0.14999999963E+04  0.15000000000E+04  0.10566000000E+00 0. -1.
        994   -1    0    0    0    0 -0.00000000000E+00 -0.00000000000E+00  0.11368683772E-12  0.17120000000E+03  0.17120000000E+03 0.  0.
         13    1    1    2    0    0  0.75314434155E+01  0.10730758936E+02 -0.17236396613E+00  0.13111548369E+02  0.10566000000E+00 0. -1.
        994    1    1    2    0    0 -0.37665117597E+01 -0.10395353108E+02  0.14271630234E+02  0.17214926490E+03  0.17120000000E+03 0.  0.
        998    1    1    2    0    0 -0.37649316557E+01 -0.33540582785E+00  0.14859007300E+04  0.14859391867E+04  0.10000000000E+02 0. -1.
</event>
<event>
 5    1  0.1068111E-008  0.4197538E+03  0.7957747E-01  0.3294447E+00
         13   -1    0    0    0    0  0.00000000000E+00  0.00000000000E+00  0.14999999963E+04  0.15000000000E+04  0.10566000000E+00 0.  1.
        994   -1    0    0    0    0 -0.00000000000E+00 -0.00000000000E+00  0.11368683772E-12  0.17120000000E+03  0.17120000000E+03 0.  0.
         13    1    1    2    0    0  0.19159909608E+02 -0.34857600972E+02  0.37828050133E+01  0.39955916452E+02  0.10566000000E+00 0.  1.
        994    1    1    2    0    0 -0.19895581753E+02  0.34275107851E+02  0.46881238341E+02  0.18187332872E+03  0.17120000000E+03 0.  0.
        998    1    1    2    0    0  0.73567214474E+00  0.58249312008E+00  0.14493359529E+04  0.14493707548E+04  0.10000000000E+02 0.  1.
</event>
<event>
 5    1  0.1068111E-008  0.3858633E+03  0.7957747E-01  0.3426019E+00
         13   -1    0    0    0    0  0.00000000000E+00  0.00000000000E+00  0.14999999963E+04  0.15000000000E+04  0.10566000000E+00 0.  1.
        994   -1    0    0    0    0 -0.00000000000E+00 -0.00000000000E+00  0.11368683772E-12  0.17120000000E+03  0.17120000000E+03 0.  0.
         13    1    1    2    0    0 -0.91368221246E+01  0.77298957245E+01  0.59157461743E+02  0.60356020830E+02  0.10566000000E+00 0.  1.
        994    1    1    2    0    0  0.15853702106E+02  0.23429706801E+01  0.20448503728E+01  0.17196060827E+03  0.17120000000E+03 0.  0.
        998    1    1    2    0    0 -0.67168799813E+01 -0.10072866405E+02  0.14387976842E+04  0.14388833709E+04  0.10000000000E+02 0.  1.
</event>
<event>
 5    1  0.1068111E-008  0.3822696E+03  0.7957747E-01  0.3441335E+00
         13   -1    0    0    0    0  0.00000000000E+00  0.00000000000E+00  0.14999999963E+04  0.15000000000E+04  0.10566000000E+00 0. -1.
        994   -1    0    0    0    0 -0.00000000000E+00 -0.00000000000E+00  0.11368683772E-12  0.17120000000E+03  0.17120000000E+03 0.  0.
         13    1    1    2    0    0  0.54396117793E+01  0.18653909255E+02  0.60310142264E+02  0.63363097547E+02  0.10566000000E+00 0. -1.
        994    1    1    2    0    0  0.58425940456E-01 -0.19779141528E+02  0.42909536144E+01  0.17239219859E+03  0.17120000000E+03 0.  0.
        998    1    1    2    0    0 -0.54980377198E+01  0.11252322727E+01  0.14353989004E+04  0.14354447039E+04  0.10000000000E+02 0. -1.
</event>
<event>
 5    1  0.1068111E-008  0.3778213E+03  0.7957747E-01  0.3460700E+00
         13   -1    0    0    0    0  0.00000000000E+00  0.00000000000E+00  0.14999999963E+04  0.15000000000E+04  0.10566000000E+00 0. -1.
        994   -1    0    0    0    0 -0.00000000000E+00 -0.00000000000E+00  0.11368683772E-12  0.17120000000E+03  0.17120000000E+03 0.  0.
         13    1    1    2    0    0  0.18656305595E+02  0.26019552432E+02  0.90625019804E+02  0.96114412164E+02  0.10566000000E+00 0. -1.
        994    1    1    2    0    0 -0.20890545130E+02 -0.25186054095E+02  0.88508413386E+01  0.17452372214E+03  0.17120000000E+03 0.  0.
        998    1    1    2    0    0  0.22342395350E+01 -0.83349833610E+00  0.14005241351E+04  0.14005618657E+04  0.10000000000E+02 0. -1.
</event>
<event>
 5    1  0.1068111E-008  0.3847834E+03  0.7957747E-01  0.3430591E+00
         13   -1    0    0    0    0  0.00000000000E+00  0.00000000000E+00  0.14999999963E+04  0.15000000000E+04  0.10566000000E+00 0. -1.
        994   -1    0    0    0    0 -0.00000000000E+00 -0.00000000000E+00  0.11368683772E-12  0.17120000000E+03  0.17120000000E+03 0.  0.
         13    1    1    2    0    0  0.27318286387E+02 -0.70439022576E+02  0.20653326721E+03  0.21991804451E+03  0.10566000000E+00 0. -1.
        994    1    1    2    0    0  0.63761602315E+02 -0.14387958682E+02  0.34913882113E+02  0.18655019284E+03  0.17120000000E+03 0.  0.
        998    1    1    2    0    0 -0.91079888701E+02  0.84826981257E+02  0.12585528470E+04  0.12647317626E+04  0.10000000000E+02 0. -1.
</event>
<event>
 5    1  0.1068111E-008  0.3827297E+03  0.7957747E-01  0.3439358E+00
         13   -1    0    0    0    0  0.00000000000E+00  0.00000000000E+00  0.14999999963E+04  0.15000000000E+04  0.10566000000E+00 0.  1.
        994   -1    0    0    0    0 -0.00000000000E+00 -0.00000000000E+00  0.11368683772E-12  0.17120000000E+03  0.17120000000E+03 0.  0.
         13    1    1    2    0    0  0.10022094382E+02  0.16894344392E+01  0.18121376786E+02  0.20777199648E+02  0.10566000000E+00 0.  1.
        994    1    1    2    0    0  0.71443042911E+00  0.87062688430E+01  0.30143591797E+01  0.17144922248E+03  0.17120000000E+03 0.  0.
        998    1    1    2    0    0 -0.10736524812E+02 -0.10395703282E+02  0.14788642603E+04  0.14789735779E+04  0.10000000000E+02 0.  1.
</event>
<event>
 5    1  0.1068111E-008  0.3786019E+03  0.7957747E-01  0.3457269E+00
         13   -1    0    0    0    0  0.00000000000E+00  0.00000000000E+00  0.14999999963E+04  0.15000000000E+04  0.10566000000E+00 0.  1.
        994   -1    0    0    0    0 -0.00000000000E+00 -0.00000000000E+00  0.11368683772E-12  0.17120000000E+03  0.17120000000E+03 0.  0.
         13    1    1    2    0    0  0.99899238061E+01 -0.66496977806E+02  0.35954006044E+03  0.36577412820E+03  0.10566000000E+00 0.  1.
        994    1    1    2    0    0  0.14317709843E+01  0.67092124506E+02  0.20116883072E+02  0.18497981545E+03  0.17120000000E+03 0.  0.
        998    1    1    2    0    0 -0.11421694790E+02 -0.59514670004E+00  0.11203430528E+04  0.11204460563E+04  0.10000000000E+02 0.  1.
</event>
<event>
 5    1  0.1068111E-008  0.3851551E+03  0.7957747E-01  0.3429015E+00
         13   -1    0    0    0    0  0.00000000000E+00  0.00000000000E+00  0.14999999963E+04  0.15000000000E+04  0.10566000000E+00 0.  1.
        994   -1    0    0    0    0 -0.00000000000E+00 -0.00000000000E+00  0.11368683772E-12  0.17120000000E+03  0.17120000000E+03 0.  0.
         13    1    1    2    0    0  0.15944696442E+02  0.40959493637E+01  0.82994286351E+02  0.84611304663E+02  0.10566000000E+00 0.  1.
        994    1    1    2    0    0 -0.17471299355E+02 -0.35767937694E+01  0.25992563881E+01  0.17214597262E+03  0.17120000000E+03 0.  0.
        998    1    1    2    0    0  0.15266029132E+01 -0.51915559434E+00  0.14144064535E+04  0.14144427227E+04  0.10000000000E+02 0.  0.
</event>
<event>
 5    1  0.1068111E-008  0.3844813E+03  0.7957747E-01  0.3431875E+00
         13   -1    0    0    0    0  0.00000000000E+00  0.00000000000E+00  0.14999999963E+04  0.15000000000E+04  0.10566000000E+00 0. -1.
        994   -1    0    0    0    0 -0.00000000000E+00 -0.00000000000E+00  0.11368683772E-12  0.17120000000E+03  0.17120000000E+03 0.  0.
         13    1    1    2    0    0 -0.80977329599E+01 -0.72018218345E+01  0.30260048942E+02  0.32142203453E+02  0.10566000000E+00 0. -1.
        994    1    1    2    0    0  0.10665683492E+02  0.41374415534E+01  0.23191459032E+01  0.17159747569E+03  0.17120000000E+03 0.  0.
        998    1    1    2    0    0 -0.25679505322E+01  0.30643802811E+01  0.14674208014E+04  0.14674603209E+04  0.10000000000E+02 0. -1.
</event>
<event>
 5    1  0.1068111E-008  0.3851042E+03  0.7957747E-01  0.3429231E+00
         13   -1    0    0    0    0  0.00000000000E+00  0.00000000000E+00  0.14999999963E+04  0.15000000000E+04  0.10566000000E+00 0. -1.
        994   -1    0    0    0    0 -0.00000000000E+00 -0.00000000000E+00  0.11368683772E-12  0.17120000000E+03  0.17120000000E+03 0.  0.
         13    1    1    2    0    0 -0.11692980940E+02  0.10718366297E+02  0.80768052585E+02  0.82310987491E+02  0.10566000000E+00 0. -1.
        994    1    1    2    0    0  0.27558396564E+01 -0.98853664595E+01  0.19247334505E+01  0.17151810319E+03  0.17120000000E+03 0.  0.
        998    1    1    2    0    0  0.89371412836E+01 -0.83299983751E+00  0.14173072102E+04  0.14173709093E+04  0.10000000000E+02 0. -1.
</event>
<event>
 5    1  0.1508948E-008  0.3851442E+03  0.7957747E-01  0.3429061E+00
         13   -1    0    0    0    0  0.00000000000E+00  0.00000000000E+00  0.14999999963E+04  0.15000000000E+04  0.10566000000E+00 0.  1.
        994   -1    0    0    0    0 -0.00000000000E+00 -0.00000000000E+00  0.11368683772E-12  0.17120000000E+03  0.17120000000E+03 0.  0.
         13    1    1    2    0    0 -0.19189456833E+01 -0.98155296153E+01  0.31361506742E+02  0.32917810427E+02  0.10566000000E+00 0.  1.
        994    1    1    2    0    0  0.11894061342E+01  0.10749032658E+02  0.19431112881E+01  0.17155224298E+03  0.17120000000E+03 0.  0.
        998    1    1    2    0    0  0.72953954905E+00 -0.93350304276E+00  0.14666953782E+04  0.14667299466E+04  0.10000000000E+02 0.  1.
</event>
<event>
 5    1  0.1068111E-008  0.3811937E+03  0.7957747E-01  0.3445977E+00
         13   -1    0    0    0    0  0.00000000000E+00  0.00000000000E+00  0.14999999963E+04  0.15000000000E+04  0.10566000000E+00 0. -1.
        994   -1    0    0    0    0 -0.00000000000E+00 -0.00000000000E+00  0.11368683772E-12  0.17120000000E+03  0.17120000000E+03 0.  0.
         13    1    1    2    0    0 -0.12124522678E+02 -0.19755850666E+01  0.19837059501E+02  0.23332961240E+02  0.10566000000E+00 0. -1.
        994    1    1    2    0    0  0.95816853536E+01  0.48943051387E+01  0.39173252183E+01  0.17158248265E+03  0.17120000000E+03 0.  0.
        998    1    1    2    0    0  0.25428373247E+01 -0.29187200721E+01  0.14762456116E+04  0.14762845561E+04  0.10000000000E+02 0. -1.
</event>
<event>
 5    1  0.1068111E-008  0.3775380E+03  0.7957747E-01  0.3461949E+00
         13   -1    0    0    0    0  0.00000000000E+00  0.00000000000E+00  0.14999999963E+04  0.15000000000E+04  0.10566000000E+00 0.  1.
        994   -1    0    0    0    0 -0.00000000000E+00 -0.00000000000E+00  0.11368683772E-12  0.17120000000E+03  0.17120000000E+03 0.  0.
         13    1    1    2    0    0 -0.11736839868E+02 -0.45546910510E+02  0.16762022295E+03  0.17409429851E+03  0.10566000000E+00 0.  1.
        994    1    1    2    0    0  0.15418527365E+02  0.58835752990E+02  0.17952535615E+02  0.18256809785E+03  0.17120000000E+03 0.  0.
        998    1    1    2    0    0 -0.36816874963E+01 -0.13288842481E+02  0.13144272377E+04  0.13145376036E+04  0.10000000000E+02 0.  1.
</event>
<event>
 5    1  0.1068111E-008  0.3795384E+03  0.7957747E-01  0.3453171E+00
         13   -1    0    0    0    0  0.00000000000E+00  0.00000000000E+00  0.14999999963E+04  0.15000000000E+04  0.10566000000E+00 0. -1.
        994   -1    0    0    0    0 -0.00000000000E+00 -0.00000000000E+00  0.11368683772E-12  0.17120000000E+03  0.17120000000E+03 0.  0.
         13    1    1    2    0    0  0.13568867827E+02 -0.27995810486E+01  0.20527998566E+02  0.24766140542E+02  0.10566000000E+00 0. -1.
        994    1    1    2    0    0 -0.21101920226E+01  0.36598206730E+01  0.44260954187E+01  0.17130930365E+03  0.17120000000E+03 0.  0.
        998    1    1    2    0    0 -0.11458675805E+02 -0.86023962437E+00  0.14750459023E+04  0.14751245558E+04  0.10000000000E+02 0. -1.
</event>
<event>
 5    1  0.1068111E-008  0.3813837E+03  0.7957747E-01  0.3445156E+00
         13   -1    0    0    0    0  0.00000000000E+00  0.00000000000E+00  0.14999999963E+04  0.15000000000E+04  0.10566000000E+00 0.  1.
        994   -1    0    0    0    0 -0.00000000000E+00 -0.00000000000E+00  0.11368683772E-12  0.17120000000E+03  0.17120000000E+03 0.  0.
         13    1    1    2    0    0  0.20249888063E+02 -0.53199230696E+00  0.57818002849E+02  0.61263966570E+02  0.10566000000E+00 0.  1.
        994    1    1    2    0    0 -0.15832053431E+02  0.85162754962E+00  0.42732509999E+01  0.17198569667E+03  0.17120000000E+03 0.  0.
        998    1    1    2    0    0 -0.44178346319E+01 -0.31963524267E+00  0.14379087424E+04  0.14379503368E+04  0.10000000000E+02 0.  1.
</event>
<event>
 5    1  0.1068111E-008  0.3845738E+03  0.7957747E-01  0.3431482E+00
         13   -1    0    0    0    0  0.00000000000E+00  0.00000000000E+00  0.14999999963E+04  0.15000000000E+04  0.10566000000E+00 0. -1.
        994   -1    0    0    0    0 -0.00000000000E+00 -0.00000000000E+00  0.11368683772E-12  0.17120000000E+03  0.17120000000E+03 0.  0.
         13    1    1    2    0    0  0.39132031416E+01 -0.95379699195E+01  0.30465182040E+02  0.32162470518E+02  0.10566000000E+00 0. -1.
        994    1    1    2    0    0 -0.10311565274E+02 -0.13979542557E+02  0.28362682330E+01  0.17210241255E+03  0.17120000000E+03 0.  0.
        998    1    1    2    0    0  0.63983621328E+01  0.23517512477E+02  0.14666985460E+04  0.14669351169E+04  0.10000000000E+02 0. -1.
</event>
<event>
 5    1  0.1068111E-008  0.3691385E+03  0.7957747E-01  0.3499859E+00
         13   -1    0    0    0    0  0.00000000000E+00  0.00000000000E+00  0.14999999963E+04  0.15000000000E+04  0.10566000000E+00 0.  1.
        994   -1    0    0    0    0 -0.00000000000E+00 -0.00000000000E+00  0.11368683772E-12  0.17120000000E+03  0.17120000000E+03 0.  0.
         13    1    1    2    0    0  0.92806803108E+01 -0.16188515450E+02  0.11834691320E+02  0.22096835570E+02  0.10566000000E+00 0.  1.
        994    1    1    2    0    0 -0.16724177586E+02  0.12522887011E+02  0.12006944573E+02  0.17288761533E+03  0.17120000000E+03 0.  0.
        998    1    1    2    0    0  0.74434972751E+01  0.36656284396E+01  0.14761583604E+04  0.14762155491E+04  0.10000000000E+02 0.  1.
</event>
<event>
 5    1  0.1068111E-008  0.3807294E+03  0.7957747E-01  0.3447989E+00
         13   -1    0    0    0    0  0.00000000000E+00  0.00000000000E+00  0.14999999963E+04  0.15000000000E+04  0.10566000000E+00 0.  1.
        994   -1    0    0    0    0 -0.00000000000E+00 -0.00000000000E+00  0.11368683772E-12  0.17120000000E+03  0.17120000000E+03 0.  0.
         13    1    1    2    0    0  0.21789856855E+02 -0.95249159045E+00  0.62817767266E+02  0.66496527356E+02  0.10566000000E+00 0.  1.
        994    1    1    2    0    0 -0.97884932196E+01  0.13162700606E+02  0.46632151401E+01  0.17204725183E+03  0.17120000000E+03 0.  0.
        998    1    1    2    0    0 -0.12001363635E+02 -0.12210209015E+02  0.14325190139E+04  0.14326562208E+04  0.10000000000E+02 0.  1.
</event>
<event>
 5    1  0.1068111E-008  0.3804108E+03  0.7957747E-01  0.3449372E+00
         13   -1    0    0    0    0  0.00000000000E+00  0.00000000000E+00  0.14999999963E+04  0.15000000000E+04  0.10566000000E+00 0. -1.
        994   -1    0    0    0    0 -0.00000000000E+00 -0.00000000000E+00  0.11368683772E-12  0.17120000000E+03  0.17120000000E+03 0.  0.
         13    1    1    2    0    0  0.66958756095E+02 -0.77881962950E+02  0.36068375840E+03  0.37502247921E+03  0.10566000000E+00 0. -1.
        994    1    1    2    0    0  0.59167521381E+01  0.56699644169E+02  0.28442849187E+02  0.18266990249E+03  0.17120000000E+03 0.  0.
        998    1    1    2    0    0 -0.72875508233E+02  0.21182318781E+02  0.11108733887E+04  0.11135076183E+04  0.10000000000E+02 0. -1.
</event>
<event>
 5    1  0.1068111E-008  0.3747483E+03  0.7957747E-01  0.3474349E+00
         13   -1    0    0    0    0  0.00000000000E+00  0.00000000000E+00  0.14999999963E+04  0.15000000000E+04  0.10566000000E+00 0.  1.
        994   -1    0    0    0    0 -0.00000000000E+00 -0.00000000000E+00  0.11368683772E-12  0.17120000000E+03  0.17120000000E+03 0.  0.
         13    1    1    2    0    0  0.35324138420E+02  0.12842674692E+02  0.53200910216E+02  0.65138905887E+02  0.10566000000E+00 0.  1.
        994    1    1    2    0    0  0.23362207210E+02 -0.10032887081E+02  0.15773494839E+02  0.17379497889E+03  0.17120000000E+03 0.  0.
        998    1    1    2    0    0 -0.58686345630E+02 -0.28097876109E+01  0.14310255912E+04  0.14322661152E+04  0.10000000000E+02 0.  1.
</event>
<event>
 5    1  0.1068111E-008  0.2553076E+03  0.7957747E-01  0.4277793E+00
         13   -1    0    0    0    0  0.00000000000E+00  0.00000000000E+00  0.14999999963E+04  0.15000000000E+04  0.10566000000E+00 0. -1.
        994   -1    0    0    0    0 -0.00000000000E+00 -0.00000000000E+00  0.11368683772E-12  0.17120000000E+03  0.17120000000E+03 0.  0.
         13    1    1    2    0    0  0.12515824752E+03 -0.13581995839E+03  0.33588465679E+03  0.38331470341E+03  0.10566000000E+00 0. -1.
        994    1    1    2    0    0 -0.15342635753E+03  0.73625425583E+02  0.17940912956E+03  0.30076141083E+03  0.17120000000E+03 0.  0.
        998    1    1    2    0    0  0.28268110009E+02  0.62194532806E+02  0.98470620993E+03  0.98712388576E+03  0.10000000000E+02 0. -1.
</event>
<event>
 5    1  0.1068111E-008  0.3830152E+03  0.7957747E-01  0.3438134E+00
         13   -1    0    0    0    0  0.00000000000E+00  0.00000000000E+00  0.14999999963E+04  0.15000000000E+04  0.10566000000E+00 0. -1.
        994   -1    0    0    0    0 -0.00000000000E+00 -0.00000000000E+00  0.11368683772E-12  0.17120000000E+03  0.17120000000E+03 0.  0.
         13    1    1    2    0    0  0.15949528632E+02  0.18127186011E+02  0.12469751112E+03  0.12701363226E+03  0.10566000000E+00 0. -1.
        994    1    1    2    0    0  0.39283676690E+01 -0.92300764699E+00  0.26726687444E+01  0.17126840682E+03  0.17120000000E+03 0.  0.
        998    1    1    2    0    0 -0.19877896301E+02 -0.17204178364E+02  0.13726298164E+04  0.13729179609E+04  0.10000000000E+02 0. -1.
</event>
<event>
 5    1  0.1068111E-008  0.3895547E+03  0.7957747E-01  0.3410582E+00
         13   -1    0    0    0    0  0.00000000000E+00  0.00000000000E+00  0.14999999963E+04  0.15000000000E+04  0.10566000000E+00 0. -1.
        994   -1    0    0    0    0 -0.00000000000E+00 -0.00000000000E+00  0.11368683772E-12  0.17120000000E+03  0.17120000000E+03 0.  0.
         13    1    1    2    0    0 -0.64580392973E+01 -0.57709229794E+02  0.67057487412E+02  0.88706139906E+02  0.10566000000E+00 0. -1.
        994    1    1    2    0    0 -0.18585785155E+01  0.60000539951E+02  0.35340442796E+02  0.18482939703E+03  0.17120000000E+03 0.  0.
        998    1    1    2    0    0  0.83166178128E+01 -0.22913101567E+01  0.13976020661E+04  0.13976644631E+04  0.10000000000E+02 0.  1.
</event>
<event>
 5    1  0.1068111E-008  0.3846131E+03  0.7957747E-01  0.3431315E+00
         13   -1    0    0    0    0  0.00000000000E+00  0.00000000000E+00  0.14999999963E+04  0.15000000000E+04  0.10566000000E+00 0. -1.
        994   -1    0    0    0    0 -0.00000000000E+00 -0.00000000000E+00  0.11368683772E-12  0.17120000000E+03  0.17120000000E+03 0.  0.
         13    1    1    2    0    0  0.83625450416E+01  0.15249177249E+02  0.88638645927E+02  0.90328789885E+02  0.10566000000E+00 0. -1.
        994    1    1    2    0    0  0.54650559695E+01 -0.49589841703E+01  0.20016751560E+01  0.17137066571E+03  0.17120000000E+03 0.  0.
        998    1    1    2    0    0 -0.13827601011E+02 -0.10290193079E+02  0.14093596752E+04  0.14095005444E+04  0.10000000000E+02 0. -1.
</event>
<event>
 5    1  0.1068111E-008  0.3838450E+03  0.7957747E-01  0.3434586E+00
         13   -1    0    0    0    0  0.00000000000E+00  0.00000000000E+00  0.14999999963E+04  0.15000000000E+04  0.10566000000E+00 0.  1.
        994   -1    0    0    0    0 -0.00000000000E+00 -0.00000000000E+00  0.11368683772E-12  0.17120000000E+03  0.17120000000E+03 0.  0.
         13    1    1    2    0    0  0.19897369540E+02  0.26414547620E+00  0.10377947980E+03  0.10567008412E+03  0.10566000000E+00 0.  1.
        994    1    1    2    0    0  0.80190322528E+01 -0.22162194406E+02  0.40404341606E+01  0.17286188952E+03  0.17120000000E+03 0.  0.
        998    1    1    2    0    0 -0.27916401793E+02  0.21898048930E+02  0.13921800823E+04  0.13926680264E+04  0.10000000000E+02 0.  1.
</event>
<event>
 5    1  0.1068111E-008  0.3753319E+03  0.7957747E-01  0.3471740E+00
         13   -1    0    0    0    0  0.00000000000E+00  0.00000000000E+00  0.14999999963E+04  0.15000000000E+04  0.10566000000E+00 0.  1.
        994   -1    0    0    0    0 -0.00000000000E+00 -0.00000000000E+00  0.11368683772E-12  0.17120000000E+03  0.17120000000E+03 0.  0.
         13    1    1    2    0    0  0.10043071898E+02 -0.10701399602E+00  0.47164905390E+01  0.11096449530E+02  0.10566000000E+00 0.  1.
        994    1    1    2    0    0 -0.91480999466E+01 -0.77311332822E+00  0.67946471953E+01  0.17158057194E+03  0.17120000000E+03 0.  0.
        998    1    1    2    0    0 -0.89497195129E+00  0.88012732425E+00  0.14884888585E+04  0.14885229785E+04  0.10000000000E+02 0.  1.
</event>
<event>
 5    1  0.1068111E-008  0.3849845E+03  0.7957747E-01  0.3429738E+00
         13   -1    0    0    0    0  0.00000000000E+00  0.00000000000E+00  0.14999999963E+04  0.15000000000E+04  0.10566000000E+00 0.  1.
        994   -1    0    0    0    0 -0.00000000000E+00 -0.00000000000E+00  0.11368683772E-12  0.17120000000E+03  0.17120000000E+03 0.  0.
         13    1    1    2    0    0 -0.14675491201E+02  0.29822905617E+01  0.68127491344E+02  0.69754070418E+02  0.10566000000E+00 0.  1.
        994    1    1    2    0    0  0.10511142377E+02 -0.16992324046E+01  0.20107568434E+01  0.17154257386E+03  0.17120000000E+03 0.  0.
        998    1    1    2    0    0  0.41643488237E+01 -0.12830581571E+01  0.14298617481E+04  0.14299033557E+04  0.10000000000E+02 0.  1.
</event>
<event>
 5    1  0.1068111E-008  0.3836127E+03  0.7957747E-01  0.3435577E+00
         13   -1    0    0    0    0  0.00000000000E+00  0.00000000000E+00  0.14999999963E+04  0.15000000000E+04  0.10566000000E+00 0. -1.
        994   -1    0    0    0    0 -0.00000000000E+00 -0.00000000000E+00  0.11368683772E-12  0.17120000000E+03  0.17120000000E+03 0.  0.
         13    1    1    2    0    0 -0.51510226115E+02 -0.46917566961E+02  0.39052243605E+03  0.39668923064E+03  0.10566000000E+00 0. -1.
        994    1    1    2    0    0  0.66597903180E+02  0.11566960709E+03  0.63580956563E+02  0.22620061173E+03  0.17120000000E+03 0.  0.
        998    1    1    2    0    0 -0.15087677065E+02 -0.68752040125E+02  0.10458966037E+04  0.10483101576E+04  0.10000000000E+02 0. -1.
</event>
<event>
 5    1  0.1068111E-008  0.3841031E+03  0.7957747E-01  0.3433485E+00
         13   -1    0    0    0    0  0.00000000000E+00  0.00000000000E+00  0.14999999963E+04  0.15000000000E+04  0.10566000000E+00 0.  1.
        994   -1    0    0    0    0 -0.00000000000E+00 -0.00000000000E+00  0.11368683772E-12  0.17120000000E+03  0.17120000000E+03 0.  0.
         13    1    1    2    0    0 -0.27066425390E+01 -0.12874743363E+02  0.41341941280E+02  0.43384930602E+02  0.10566000000E+00 0.  1.
        994    1    1    2    0    0 -0.41486706193E+00  0.84140706496E+01  0.23102047113E+01  0.17142271070E+03  0.17120000000E+03 0.  0.
        998    1    1    2    0    0  0.31215096010E+01  0.44606727138E+01  0.14563478503E+04  0.14563923587E+04  0.10000000000E+02 0.  1.
</event>
<event>
 5    1  0.1068111E-008  0.3698565E+03  0.7957747E-01  0.3496551E+00
         13   -1    0    0    0    0  0.00000000000E+00  0.00000000000E+00  0.14999999963E+04  0.15000000000E+04  0.10566000000E+00 0.  1.
        994   -1    0    0    0    0 -0.00000000000E+00 -0.00000000000E+00  0.11368683772E-12  0.17120000000E+03  0.17120000000E+03 0.  0.
         13    1    1    2    0    0 -0.85946857803E+02  0.79920958979E+02  0.42872913663E+03  0.44450298740E+03  0.10566000000E+00 0.  1.
        994    1    1    2    0    0  0.82427058480E+02 -0.87110264167E+02  0.62956253815E+02  0.21830104898E+03  0.17120000000E+03 0.  0.
        998    1    1    2    0    0  0.35197993230E+01  0.71893051881E+01  0.10083146058E+04  0.10083959636E+04  0.10000000000E+02 0.  1.
</event>
<event>
 5    1  0.1068111E-008  0.3821236E+03  0.7957747E-01  0.3441964E+00
         13   -1    0    0    0    0  0.00000000000E+00  0.00000000000E+00  0.14999999963E+04  0.15000000000E+04  0.10566000000E+00 0.  1.
        994   -1    0    0    0    0 -0.00000000000E+00 -0.00000000000E+00  0.11368683772E-12  0.17120000000E+03  0.17120000000E+03 0.  0.
         13    1    1    2    0    0  0.60720061311E+01  0.14273481017E+02  0.39333228534E+02  0.42281385381E+02  0.10566000000E+00 0.  1.
        994    1    1    2    0    0  0.18194735308E+01 -0.35800434538E+01  0.31185309515E+01  0.17127548695E+03  0.17120000000E+03 0.  0.
        998    1    1    2    0    0 -0.78914796619E+01 -0.10693437563E+02  0.14575482368E+04  0.14576431277E+04  0.10000000000E+02 0.  1.
</event>
<event>
 5    1  0.1068111E-008  0.3855061E+03  0.7957747E-01  0.3427529E+00
         13   -1    0    0    0    0  0.00000000000E+00  0.00000000000E+00  0.14999999963E+04  0.15000000000E+04  0.10566000000E+00 0. -1.
        994   -1    0    0    0    0 -0.00000000000E+00 -0.00000000000E+00  0.11368683772E-12  0.17120000000E+03  0.17120000000E+03 0.  0.
         13    1    1    2    0    0 -0.94238073088E+01 -0.10044351573E+02  0.67458870714E+02  0.68850617607E+02  0.10566000000E+00 0. -1.
        994    1    1    2    0    0  0.14351241863E+02  0.39612553940E+01  0.21071583491E+01  0.17185904051E+03  0.17120000000E+03 0.  0.
        998    1    1    2    0    0 -0.49274345542E+01  0.60830961793E+01  0.14304339672E+04  0.14304903419E+04  0.10000000000E+02 0. -1.
</event>
<event>
 5    1  0.1068111E-008  0.3813299E+03  0.7957747E-01  0.3445388E+00
         13   -1    0    0    0    0  0.00000000000E+00  0.00000000000E+00  0.14999999963E+04  0.15000000000E+04  0.10566000000E+00 0. -1.
        994   -1    0    0    0    0 -0.00000000000E+00 -0.00000000000E+00  0.11368683772E-12  0.17120000000E+03  0.17120000000E+03 0.  0.
         13    1    1    2    0    0 -0.44767725437E+01  0.21859706591E+02  0.69592082707E+02  0.73081854138E+02  0.10566000000E+00 0. -1.
        994    1    1    2    0    0  0.12978606129E+02 -0.15274740029E+02  0.48016399862E+01  0.17243624227E+03  0.17120000000E+03 0.  0.
        998    1    1    2    0    0 -0.85018335850E+01 -0.65849665620E+01  0.14256062736E+04  0.14256819036E+04  0.10000000000E+02 0. -1.
</event>
<event>
 5    1  0.1068111E-008  0.3764235E+03  0.7957747E-01  0.3466881E+00
         13   -1    0    0    0    0  0.00000000000E+00  0.00000000000E+00  0.14999999963E+04  0.15000000000E+04  0.10566000000E+00 0. -1.
        994   -1    0    0    0    0 -0.00000000000E+00 -0.00000000000E+00  0.11368683772E-12  0.17120000000E+03  0.17120000000E+03 0.  0.
         13    1    1    2    0    0 -0.12283351958E+02  0.24003523484E+01  0.10434989493E+02  0.16295477792E+02  0.10566000000E+00 0. -1.
        994    1    1    2    0    0  0.11385989285E+02 -0.31871214833E+01  0.64226259827E+01  0.17172794944E+03  0.17120000000E+03 0.  0.
        998    1    1    2    0    0  0.89736267285E+00  0.78676913482E+00  0.14831423808E+04  0.14831765728E+04  0.10000000000E+02 0. -1.
</event>
<event>
 5    1  0.1068111E-008  0.3770227E+03  0.7957747E-01  0.3464226E+00
         13   -1    0    0    0    0  0.00000000000E+00  0.00000000000E+00  0.14999999963E+04  0.15000000000E+04  0.10566000000E+00 0. -1.
        994   -1    0    0    0    0 -0.00000000000E+00 -0.00000000000E+00  0.11368683772E-12  0.17120000000E+03  0.17120000000E+03 0.  0.
         13    1    1    2    0    0  0.28412811201E+02  0.49970518057E+01  0.55811404512E+02  0.62826605866E+02  0.10566000000E+00 0. -1.
        994    1    1    2    0    0 -0.79909955448E+02 -0.56480755193E+02  0.38688292236E+02  0.20095248355E+03  0.17120000000E+03 0.  0.
        998    1    1    2    0    0  0.51497144247E+02  0.51483703387E+02  0.14055002995E+04  0.14074209106E+04  0.10000000000E+02 0. -1.
</event>
<event>
 5    1  0.1068111E-008  0.3830820E+03  0.7957747E-01  0.3437848E+00
         13   -1    0    0    0    0  0.00000000000E+00  0.00000000000E+00  0.14999999963E+04  0.15000000000E+04  0.10566000000E+00 0.  1.
        994   -1    0    0    0    0 -0.00000000000E+00 -0.00000000000E+00  0.11368683772E-12  0.17120000000E+03  0.17120000000E+03 0.  0.
         13    1    1    2    0    0  0.65314157535E+00  0.16103032686E+03  0.94148594765E+03  0.95515809872E+03  0.10566000000E+00 0.  1.
        994    1    1    2    0    0  0.45884961340E+01 -0.17783728104E+03  0.11551574973E+03  0.27258114620E+03  0.17120000000E+03 0.  0.
        998    1    1    2    0    0 -0.52416377094E+01  0.16806954184E+02  0.44299829890E+03  0.44346075508E+03  0.10000000000E+02 0. -1.
</event>
<event>
 5    1  0.1068111E-008  0.3759579E+03  0.7957747E-01  0.3468950E+00
         13   -1    0    0    0    0  0.00000000000E+00  0.00000000000E+00  0.14999999963E+04  0.15000000000E+04  0.10566000000E+00 0. -1.
        994   -1    0    0    0    0 -0.00000000000E+00 -0.00000000000E+00  0.11368683772E-12  0.17120000000E+03  0.17120000000E+03 0.  0.
         13    1    1    2    0    0  0.54535548878E+02 -0.62001771575E+01  0.29249786122E+03  0.29760305487E+03  0.10566000000E+00 0. -1.
        994    1    1    2    0    0 -0.76677730169E+01 -0.35981314895E+01  0.64307894639E+01  0.17152998673E+03  0.17120000000E+03 0.  0.
        998    1    1    2    0    0 -0.46867775861E+02  0.97983086471E+01  0.12010713456E+04  0.12020669584E+04  0.10000000000E+02 0. -1.
</event>
<event>
 5    1  0.1068111E-008  0.3850965E+03  0.7957747E-01  0.3429263E+00
         13   -1    0    0    0    0  0.00000000000E+00  0.00000000000E+00  0.14999999963E+04  0.15000000000E+04  0.10566000000E+00 0.  1.
        994   -1    0    0    0    0 -0.00000000000E+00 -0.00000000000E+00  0.11368683772E-12  0.17120000000E+03  0.17120000000E+03 0.  0.
         13    1    1    2    0    0  0.13889609915E+02  0.60294195609E+00  0.71767054772E+02  0.73101341419E+02  0.10566000000E+00 0.  1.
        994    1    1    2    0    0  0.13582085988E+02  0.60003911019E+01  0.23074391385E+01  0.17185820326E+03  0.17120000000E+03 0.  0.
        998    1    1    2    0    0 -0.27471695903E+02 -0.66033330580E+01  0.14259255024E+04  0.14262404553E+04  0.10000000000E+02 0.  1.
</event>
<event>
 5    1  0.1068111E-008  0.3853378E+03  0.7957747E-01  0.3428241E+00
         13   -1    0    0    0    0  0.00000000000E+00  0.00000000000E+00  0.14999999963E+04  0.15000000000E+04  0.10566000000E+00 0. -1.
        994   -1    0    0    0    0 -0.00000000000E+00 -0.00000000000E+00  0.11368683772E-12  0.17120000000E+03  0.17120000000E+03 0.  0.
         13    1    1    2    0    0  0.86197885299E+01 -0.11299320790E+02  0.64331541145E+02  0.65882727287E+02  0.10566000000E+00 0. -1.
        994    1    1    2    0    0 -0.13144229133E+02  0.16034260815E+02  0.28759110438E+01  0.17247486525E+03  0.17120000000E+03 0.  0.
        998    1    1    2    0    0  0.45244406033E+01 -0.47349400245E+01  0.14327925441E+04  0.14328424075E+04  0.10000000000E+02 0. -1.
</event>
<event>
 5    1  0.1068111E-008  0.3852553E+03  0.7957747E-01  0.3428590E+00
         13   -1    0    0    0    0  0.00000000000E+00  0.00000000000E+00  0.14999999963E+04  0.15000000000E+04  0.10566000000E+00 0. -1.
        994   -1    0    0    0    0 -0.00000000000E+00 -0.00000000000E+00  0.11368683772E-12  0.17120000000E+03  0.17120000000E+03 0.  0.
         13    1    1    2    0    0  0.80498165765E+01  0.41401510197E+02  0.37514386555E+02  0.56446655845E+02  0.10566000000E+00 0. -1.
        994    1    1    2    0    0 -0.97274958861E+01 -0.44983811275E+02  0.27112097232E+02  0.17933954742E+03  0.17120000000E+03 0.  0.
        998    1    1    2    0    0  0.16776793097E+01  0.35823010783E+01  0.14353735125E+04  0.14354137967E+04  0.10000000000E+02 0. -1.
</event>
<event>
 5    1  0.1068111E-008  0.3846778E+03  0.7957747E-01  0.3431040E+00
         13   -1    0    0    0    0  0.00000000000E+00  0.00000000000E+00  0.14999999963E+04  0.15000000000E+04  0.10566000000E+00 0.  1.
        994   -1    0    0    0    0 -0.00000000000E+00 -0.00000000000E+00  0.11368683772E-12  0.17120000000E+03  0.17120000000E+03 0.  0.
         13    1    1    2    0    0  0.32509069976E+01  0.15409192008E+02  0.69003136601E+02  0.70777507864E+02  0.10566000000E+00 0.  1.
        994    1    1    2    0    0 -0.19501455600E+01 -0.10414494098E+02  0.21598425550E+01  0.17154116029E+03  0.17120000000E+03 0.  0.
        998    1    1    2    0    0 -0.13007614377E+01 -0.49946979100E+01  0.14288370171E+04  0.14288813318E+04  0.10000000000E+02 0.  1.
</event>
<event>
 5    1  0.1068111E-008  0.3743685E+03  0.7957747E-01  0.3476052E+00
         13   -1    0    0    0    0  0.00000000000E+00  0.00000000000E+00  0.14999999963E+04  0.15000000000E+04  0.10566000000E+00 0. -1.
        994   -1    0    0    0    0 -0.00000000000E+00 -0.00000000000E+00  0.11368683772E-12  0.17120000000E+03  0.17120000000E+03 0.  0.
         13    1    1    2    0    0  0.23386306488E+02 -0.41127394996E+02  0.15209893543E+03  0.15928741091E+03  0.10566000000E+00 0. -1.
        994    1    1    2    0    0 -0.17580335970E+02  0.30051748187E+02  0.11143781772E+02  0.17505941750E+03  0.17120000000E+03 0.  0.
        998    1    1    2    0    0 -0.58059705181E+01  0.11075646809E+02  0.13367572791E+04  0.13368531716E+04  0.10000000000E+02 0. -1.
</event>
<event>
 5    1  0.1068111E-008  0.3860632E+03  0.7957747E-01  0.3425176E+00
         13   -1    0    0    0    0  0.00000000000E+00  0.00000000000E+00  0.14999999963E+04  0.15000000000E+04  0.10566000000E+00 0.  1.
        994   -1    0    0    0    0 -0.00000000000E+00 -0.00000000000E+00  0.11368683772E-12  0.17120000000E+03  0.17120000000E+03 0.  0.
         13    1    1    2    0    0  0.61572392221E+01  0.98045874629E+01  0.62197458850E+02  0.63265919590E+02  0.10566000000E+00 0.  1.
        994    1    1    2    0    0 -0.80509843144E+01 -0.24385690476E+01  0.13351465437E+01  0.17141174867E+03  0.17120000000E+03 0.  0.
        998    1    1    2    0    0  0.18937450923E+01 -0.73660184153E+01  0.14364673909E+04  0.14365223317E+04  0.10000000000E+02 0.  1.
</event>
<event>
 5    1  0.1068111E-008  0.3714955E+03  0.7957747E-01  0.3489046E+00
         13   -1    0    0    0    0  0.00000000000E+00  0.00000000000E+00  0.14999999963E+04  0.15000000000E+04  0.10566000000E+00 0.  1.
        994   -1    0    0    0    0 -0.00000000000E+00 -0.00000000000E+00  0.11368683772E-12  0.17120000000E+03  0.17120000000E+03 0.  0.
         13    1    1    2    0    0 -0.90598279140E+02 -0.26663416801E+02  0.40449759813E+03  0.41537609950E+03  0.10566000000E+00 0.  1.
        994    1    1    2    0    0  0.46911029166E+02  0.59744313209E+00  0.19507302986E+02  0.17858044816E+03  0.17120000000E+03 0.  0.
        998    1    1    2    0    0  0.43687249973E+02  0.26065973669E+02  0.10759950952E+04  0.10772434523E+04  0.10000000000E+02 0.  1.
</event>
<event>
 5    1  0.1068111E-008  0.3708010E+03  0.7957747E-01  0.3492218E+00
         13   -1    0    0    0    0  0.00000000000E+00  0.00000000000E+00  0.14999999963E+04  0.15000000000E+04  0.10566000000E+00 0. -1.
        994   -1    0    0    0    0 -0.00000000000E+00 -0.00000000000E+00  0.11368683772E-12  0.17120000000E+03  0.17120000000E+03 0.  0.
         13    1    1    2    0    0  0.14327730692E+02  0.19960952861E+02  0.32199755849E+02  0.40503813977E+02  0.10566000000E+00 0. -1.
        994    1    1    2    0    0  0.87753142815E+01 -0.60117603232E+00  0.91178371676E+01  0.17166811733E+03  0.17120000000E+03 0.  0.
        998    1    1    2    0    0 -0.23103044973E+02 -0.19359776828E+02  0.14586824033E+04  0.14590280687E+04  0.10000000000E+02 0. -1.
</event>
<event>
 5    1  0.1068111E-008  0.3849331E+03  0.7957747E-01  0.3429956E+00
         13   -1    0    0    0    0  0.00000000000E+00  0.00000000000E+00  0.14999999963E+04  0.15000000000E+04  0.10566000000E+00 0.  1.
        994   -1    0    0    0    0 -0.00000000000E+00 -0.00000000000E+00  0.11368683772E-12  0.17120000000E+03  0.17120000000E+03 0.  0.
         13    1    1    2    0    0 -0.16127960884E+01  0.18183480955E+02  0.99720423705E+02  0.10137758213E+03  0.10566000000E+00 0.  1.
        994    1    1    2    0    0  0.57086848269E+01 -0.11823057964E+02  0.22305639014E+01  0.17171717793E+03  0.17120000000E+03 0.  0.
        998    1    1    2    0    0 -0.40958887386E+01 -0.63604229912E+01  0.13980490087E+04  0.13981052399E+04  0.10000000000E+02 0.  1.
</event>
<event>
 5    1  0.1068111E-008  0.3797848E+03  0.7957747E-01  0.3452096E+00
         13   -1    0    0    0    0  0.00000000000E+00  0.00000000000E+00  0.14999999963E+04  0.15000000000E+04  0.10566000000E+00 0. -1.
        994   -1    0    0    0    0 -0.00000000000E+00 -0.00000000000E+00  0.11368683772E-12  0.17120000000E+03  0.17120000000E+03 0.  0.
         13    1    1    2    0    0 -0.30055618359E+01  0.48296020392E+02  0.28775306821E+03  0.29179338309E+03  0.10566000000E+00 0. -1.
        994    1    1    2    0    0  0.21938736998E+01 -0.22315635555E+02  0.59256247017E+01  0.17276386688E+03  0.17120000000E+03 0.  0.
        998    1    1    2    0    0  0.81168813611E+00 -0.25980384837E+02  0.12063213034E+04  0.12066427500E+04  0.10000000000E+02 0. -1.
</event>
<event>
 5    1  0.1068111E-008  0.3831290E+03  0.7957747E-01  0.3437646E+00
         13   -1    0    0    0    0  0.00000000000E+00  0.00000000000E+00  0.14999999963E+04  0.15000000000E+04  0.10566000000E+00 0. -1.
        994   -1    0    0    0    0 -0.00000000000E+00 -0.00000000000E+00  0.11368683772E-12  0.17120000000E+03  0.17120000000E+03 0.  0.
         13    1    1    2    0    0 -0.38488662778E+01  0.15904429399E+02  0.51511947599E+02  0.54048649897E+02  0.10566000000E+00 0. -1.
        994    1    1    2    0    0  0.10512867739E+02 -0.85836257631E+01  0.31716006632E+01  0.17176640553E+03  0.17120000000E+03 0.  0.
        998    1    1    2    0    0 -0.66640014615E+01 -0.73208036361E+01  0.14453164480E+04  0.14453849446E+04  0.10000000000E+02 0. -1.
</event>
<event>
 5    1  0.1068111E-008  0.3853810E+03  0.7957747E-01  0.3428058E+00
         13   -1    0    0    0    0  0.00000000000E+00  0.00000000000E+00  0.14999999963E+04  0.15000000000E+04  0.10566000000E+00 0.  1.
        994   -1    0    0    0    0 -0.00000000000E+00 -0.00000000000E+00  0.11368683772E-12  0.17120000000E+03  0.17120000000E+03 0.  0.
         13    1    1    2    0    0  0.10995219867E+02  0.83505469799E+00  0.43635647795E+02  0.45007478254E+02  0.10566000000E+00 0.  1.
        994    1    1    2    0    0 -0.24173990933E+01  0.83207076246E+01  0.16877375852E+01  0.17142743786E+03  0.17120000000E+03 0.  0.
        998    1    1    2    0    0 -0.85778207736E+01 -0.91557623226E+01  0.14546766109E+04  0.14547650839E+04  0.10000000000E+02 0.  1.
</event>
<event>
 5    1  0.1068111E-008  0.3747918E+03  0.7957747E-01  0.3474155E+00
         13   -1    0    0    0    0  0.00000000000E+00  0.00000000000E+00  0.14999999963E+04  0.15000000000E+04  0.10566000000E+00 0. -1.
        994   -1    0    0    0    0 -0.00000000000E+00 -0.00000000000E+00  0.11368683772E-12  0.17120000000E+03  0.17120000000E+03 0.  0.
         13    1    1    2    0    0 -0.12094948822E+02  0.16508353714E+02  0.27233060602E+02  0.34065587962E+02  0.10566000000E+00 0. -1.
        994    1    1    2    0    0  0.12778769305E+02 -0.21997767036E+02  0.89903325366E+01  0.17331319851E+03  0.17120000000E+03 0.  0.
        998    1    1    2    0    0 -0.68382048272E+00  0.54894133225E+01  0.14637766031E+04  0.14638212135E+04  0.10000000000E+02 0. -1.
</event>
<event>
 5    1  0.1068111E-008  0.3836666E+03  0.7957747E-01  0.3435347E+00
         13   -1    0    0    0    0  0.00000000000E+00  0.00000000000E+00  0.14999999963E+04  0.15000000000E+04  0.10566000000E+00 0.  1.
        994   -1    0    0    0    0 -0.00000000000E+00 -0.00000000000E+00  0.11368683772E-12  0.17120000000E+03  0.17120000000E+03 0.  0.
         13    1    1    2    0    0 -0.43991278188E+01 -0.23304207408E+02  0.12134635902E+03  0.12364217897E+03  0.10566000000E+00 0.  1.
        994    1    1    2    0    0  0.38980929790E+00  0.15531723548E+02  0.30912960388E+01  0.17193133077E+03  0.17120000000E+03 0.  0.
        998    1    1    2    0    0  0.40093185209E+01  0.77724838602E+01  0.13755623412E+04  0.13756264903E+04  0.10000000000E+02 0.  1.
</event>
<event>
 5    1  0.1068111E-008  0.3840607E+03  0.7957747E-01  0.3433666E+00
         13   -1    0    0    0    0  0.00000000000E+00  0.00000000000E+00  0.14999999963E+04  0.15000000000E+04  0.10566000000E+00 0.  1.
        994   -1    0    0    0    0 -0.00000000000E+00 -0.00000000000E+00  0.11368683772E-12  0.17120000000E+03  0.17120000000E+03 0.  0.
         13    1    1    2    0    0  0.33603403128E+01 -0.15555178584E+02  0.60648968192E+02  0.62702184768E+02  0.10566000000E+00 0.  1.
        994    1    1    2    0    0 -0.14346364521E+01  0.82317470081E+01  0.23275516377E+01  0.17141959438E+03  0.17120000000E+03 0.  0.
        998    1    1    2    0    0 -0.19257038607E+01  0.73234315763E+01  0.14370234764E+04  0.14370782209E+04  0.10000000000E+02 0.  1.
</event>
<event>
 5    1  0.1068111E-008  0.3833873E+03  0.7957747E-01  0.3436541E+00
         13   -1    0    0    0    0  0.00000000000E+00  0.00000000000E+00  0.14999999963E+04  0.15000000000E+04  0.10566000000E+00 0. -1.
        994   -1    0    0    0    0 -0.00000000000E+00 -0.00000000000E+00  0.11368683772E-12  0.17120000000E+03  0.17120000000E+03 0.  0.
         13    1    1    2    0    0  0.14255003496E+02  0.78118870442E+01  0.54493022595E+02  0.56865907004E+02  0.10566000000E+00 0. -1.
        994    1    1    2    0    0 -0.47721640119E+01 -0.68020743163E+01  0.26612287059E+01  0.17142218031E+03  0.17120000000E+03 0.  0.
        998    1    1    2    0    0 -0.94828394841E+01 -0.10098127280E+01  0.14428457450E+04  0.14429119127E+04  0.10000000000E+02 0. -1.
</event>
<event>
 5    1  0.1068111E-008  0.3715169E+03  0.7957747E-01  0.3488948E+00
         13   -1    0    0    0    0  0.00000000000E+00  0.00000000000E+00  0.14999999963E+04  0.15000000000E+04  0.10566000000E+00 0.  1.
        994   -1    0    0    0    0 -0.00000000000E+00 -0.00000000000E+00  0.11368683772E-12  0.17120000000E+03  0.17120000000E+03 0.  0.
         13    1    1    2    0    0 -0.76497407863E+01  0.36624765945E+02  0.74799345960E+02  0.83635191963E+02  0.10566000000E+00 0.  1.
        994    1    1    2    0    0  0.21542061404E+02 -0.37868518050E+02  0.15035482273E+02  0.17729520805E+03  0.17120000000E+03 0.  0.
        998    1    1    2    0    0 -0.13892320618E+02  0.12437521054E+01  0.14101651680E+04  0.14102696000E+04  0.10000000000E+02 0.  1.
</event>
<event>
 5    1  0.1068111E-008  0.3845120E+03  0.7957747E-01  0.3431744E+00
         13   -1    0    0    0    0  0.00000000000E+00  0.00000000000E+00  0.14999999963E+04  0.15000000000E+04  0.10566000000E+00 0. -1.
        994   -1    0    0    0    0 -0.00000000000E+00 -0.00000000000E+00  0.11368683772E-12  0.17120000000E+03  0.17120000000E+03 0.  0.
         13    1    1    2    0    0 -0.37494221994E+01  0.17638600986E+02  0.83673214793E+02  0.85594371599E+02  0.10566000000E+00 0. -1.
        994    1    1    2    0    0  0.15497268488E+02 -0.14032525302E+02  0.33135874630E+01  0.17250361434E+03  0.17120000000E+03 0.  0.
        998    1    1    2    0    0 -0.11747846289E+02 -0.36060756846E+01  0.14130131940E+04  0.14131020141E+04  0.10000000000E+02 0. -1.
</event>
<event>
 5    1  0.1068111E-008  0.3854048E+03  0.7957747E-01  0.3427957E+00
         13   -1    0    0    0    0  0.00000000000E+00  0.00000000000E+00  0.14999999963E+04  0.15000000000E+04  0.10566000000E+00 0.  1.
        994   -1    0    0    0    0 -0.00000000000E+00 -0.00000000000E+00  0.11368683772E-12  0.17120000000E+03  0.17120000000E+03 0.  0.
         13    1    1    2    0    0 -0.77301762191E+01 -0.10376582247E+02  0.55653428016E+02  0.57137940963E+02  0.10566000000E+00 0.  1.
        994    1    1    2    0    0  0.67326022871E+01  0.16831076573E+02  0.25093245050E+01  0.17217534603E+03  0.17120000000E+03 0.  0.
        998    1    1    2    0    0  0.99757393198E+00 -0.64544943258E+01  0.14418372438E+04  0.14418867130E+04  0.10000000000E+02 0.  1.
</event>
<event>
 5    1  0.1068111E-008  0.3844863E+03  0.7957747E-01  0.3431854E+00
         13   -1    0    0    0    0  0.00000000000E+00  0.00000000000E+00  0.14999999963E+04  0.15000000000E+04  0.10566000000E+00 0. -1.
        994   -1    0    0    0    0 -0.00000000000E+00 -0.00000000000E+00  0.11368683772E-12  0.17120000000E+03  0.17120000000E+03 0.  0.
         13    1    1    2    0    0  0.92014116509E+01  0.12482745422E+02  0.68334527447E+02  0.70072132229E+02  0.10566000000E+00 0. -1.
        994    1    1    2    0    0 -0.30882533516E+01  0.43351902603E+01  0.19787054052E+01  0.17129415185E+03  0.17120000000E+03 0.  0.
        998    1    1    2    0    0 -0.61131582993E+01 -0.16817935682E+02  0.14296867634E+04  0.14298337159E+04  0.10000000000E+02 0. -1.
</event>
<event>
 5    1  0.1068111E-008  0.3690424E+03  0.7957747E-01  0.3500303E+00
         13   -1    0    0    0    0  0.00000000000E+00  0.00000000000E+00  0.14999999963E+04  0.15000000000E+04  0.10566000000E+00 0.  1.
        994   -1    0    0    0    0 -0.00000000000E+00 -0.00000000000E+00  0.11368683772E-12  0.17120000000E+03  0.17120000000E+03 0.  0.
         13    1    1    2    0    0 -0.11581438990E+03 -0.29560644649E+02  0.53712170955E+03  0.55026043530E+03  0.10566000000E+00 0.  1.
        994    1    1    2    0    0  0.93900770714E+02  0.54151417594E+02  0.51714385800E+02  0.20912567625E+03  0.17120000000E+03 0.  0.
        998    1    1    2    0    0  0.21913619187E+02 -0.24590772945E+02  0.91116390093E+03  0.91181388845E+03  0.10000000000E+02 0.  1.
</event>
<event>
 5    1  0.1068111E-008  0.3818481E+03  0.7957747E-01  0.3443151E+00
         13   -1    0    0    0    0  0.00000000000E+00  0.00000000000E+00  0.14999999963E+04  0.15000000000E+04  0.10566000000E+00 0.  1.
        994   -1    0    0    0    0 -0.00000000000E+00 -0.00000000000E+00  0.11368683772E-12  0.17120000000E+03  0.17120000000E+03 0.  0.
         13    1    1    2    0    0  0.12407409081E+02  0.11166935278E+01  0.22662596632E+02  0.25861076054E+02  0.10566000000E+00 0.  1.
        994    1    1    2    0    0 -0.13595165568E+02  0.36882539280E+01  0.38626997937E+01  0.17182197820E+03  0.17120000000E+03 0.  0.
        998    1    1    2    0    0  0.11877564875E+01 -0.48049474558E+01  0.14734746999E+04  0.14735169457E+04  0.10000000000E+02 0.  1.
</event>
<event>
 5    1  0.1068111E-008  0.3747711E+03  0.7957747E-01  0.3474247E+00
         13   -1    0    0    0    0  0.00000000000E+00  0.00000000000E+00  0.14999999963E+04  0.15000000000E+04  0.10566000000E+00 0.  1.
        994   -1    0    0    0    0 -0.00000000000E+00 -0.00000000000E+00  0.11368683772E-12  0.17120000000E+03  0.17120000000E+03 0.  0.
         13    1    1    2    0    0 -0.34923176538E+01  0.37693992941E+02  0.96185918894E+02  0.10336718795E+03  0.10566000000E+00 0.  1.
        994    1    1    2    0    0  0.38989422240E+01 -0.39725821031E+02  0.12235935580E+02  0.17621719759E+03  0.17120000000E+03 0.  0.
        998    1    1    2    0    0 -0.40662457022E+00  0.20318280896E+01  0.13915781418E+04  0.13916156145E+04  0.10000000000E+02 0.  1.
</event>
<event>
 5    1  0.1068111E-008  0.3840865E+03  0.7957747E-01  0.3433556E+00
         13   -1    0    0    0    0  0.00000000000E+00  0.00000000000E+00  0.14999999963E+04  0.15000000000E+04  0.10566000000E+00 0. -1.
        994   -1    0    0    0    0 -0.00000000000E+00 -0.00000000000E+00  0.11368683772E-12  0.17120000000E+03  0.17120000000E+03 0.  0.
         13    1    1    2    0    0 -0.11151414323E+02 -0.22808449582E+02  0.13998732368E+03  0.14227101381E+03  0.10566000000E+00 0. -1.
        994    1    1    2    0    0  0.10180380119E+02  0.25291059683E+02  0.45398254934E+01  0.17341663085E+03  0.17120000000E+03 0.  0.
        998    1    1    2    0    0  0.97103420460E+00 -0.24826101003E+01  0.13554728471E+04  0.13555123553E+04  0.10000000000E+02 0. -1.
</event>
<event>
 5    1  0.1068111E-008  0.3787301E+03  0.7957747E-01  0.3456707E+00
         13   -1    0    0    0    0  0.00000000000E+00  0.00000000000E+00  0.14999999963E+04  0.15000000000E+04  0.10566000000E+00 0. -1.
        994   -1    0    0    0    0 -0.00000000000E+00 -0.00000000000E+00  0.11368683772E-12  0.17120000000E+03  0.17120000000E+03 0.  0.
         13    1    1    2    0    0  0.30266539665E+02 -0.26617841280E+02  0.20714761709E+03  0.21103250775E+03  0.10566000000E+00 0. -1.
        994    1    1    2    0    0  0.14538604293E+02  0.97203360666E+01  0.58029714424E+01  0.17218876394E+03  0.17120000000E+03 0.  0.
        998    1    1    2    0    0 -0.44805143958E+02  0.16897505213E+02  0.12870494077E+04  0.12879787283E+04  0.10000000000E+02 0. -1.
</event>
<event>
 5    1  0.1068111E-008  0.3796035E+03  0.7957747E-01  0.3452887E+00
         13   -1    0    0    0    0  0.00000000000E+00  0.00000000000E+00  0.14999999963E+04  0.15000000000E+04  0.10566000000E+00 0. -1.
        994   -1    0    0    0    0 -0.00000000000E+00 -0.00000000000E+00  0.11368683772E-12  0.17120000000E+03  0.17120000000E+03 0.  0.
         13    1    1    2    0    0  0.73097265236E+01 -0.95834123739E+01  0.14820341214E+02  0.19103077562E+02  0.10566000000E+00 0. -1.
        994    1    1    2    0    0 -0.57563107671E+01  0.89546696795E+01  0.47128266142E+01  0.17159537277E+03  0.17120000000E+03 0.  0.
        998    1    1    2    0    0 -0.15534157566E+01  0.62874269439E+00  0.14804668285E+04  0.14805015497E+04  0.10000000000E+02 0. -1.
</event>
<event>
 5    1  0.1068111E-008  0.3763510E+03  0.7957747E-01  0.3467203E+00
         13   -1    0    0    0    0  0.00000000000E+00  0.00000000000E+00  0.14999999963E+04  0.15000000000E+04  0.10566000000E+00 0. -1.
        994   -1    0    0    0    0 -0.00000000000E+00 -0.00000000000E+00  0.11368683772E-12  0.17120000000E+03  0.17120000000E+03 0.  0.
         13    1    1    2    0    0 -0.84690133737E+02  0.23026963062E+02  0.39632149699E+03  0.40592289899E+03  0.10566000000E+00 0. -1.
        994    1    1    2    0    0  0.18480961742E+02  0.68967097791E+02  0.32799200259E+02  0.18836993938E+03  0.17120000000E+03 0.  0.
        998    1    1    2    0    0  0.66209171996E+02 -0.91994060853E+02  0.10708792990E+04  0.10769071616E+04  0.10000000000E+02 0.  1.
</event>
<event>
 5    1  0.1068111E-008  0.3834132E+03  0.7957747E-01  0.3436430E+00
         13   -1    0    0    0    0  0.00000000000E+00  0.00000000000E+00  0.14999999963E+04  0.15000000000E+04  0.10566000000E+00 0. -1.
        994   -1    0    0    0    0 -0.00000000000E+00 -0.00000000000E+00  0.11368683772E-12  0.17120000000E+03  0.17120000000E+03 0.  0.
         13    1    1    2    0    0  0.24407541842E+01  0.25902322988E+02  0.13767841642E+03  0.14011511385E+03  0.10566000000E+00 0. -1.
        994    1    1    2    0    0 -0.13039904873E+02 -0.16199859261E+02  0.38509246708E+01  0.17250143240E+03  0.17120000000E+03 0.  0.
        998    1    1    2    0    0  0.10599150689E+02 -0.97024637277E+01  0.13584706552E+04  0.13585834538E+04  0.10000000000E+02 0. -1.
</event>
<event>
 5    1  0.1068111E-008  0.3729229E+03  0.7957747E-01  0.3482565E+00
         13   -1    0    0    0    0  0.00000000000E+00  0.00000000000E+00  0.14999999963E+04  0.15000000000E+04  0.10566000000E+00 0.  1.
        994   -1    0    0    0    0 -0.00000000000E+00 -0.00000000000E+00  0.11368683772E-12  0.17120000000E+03  0.17120000000E+03 0.  0.
         13    1    1    2    0    0 -0.15642804114E+02  0.16965349694E+02  0.31584879921E+02  0.39116955587E+02  0.10566000000E+00 0.  1.
        994    1    1    2    0    0  0.21000993363E+01 -0.12975985358E+02  0.83409333629E+01  0.17190636342E+03  0.17120000000E+03 0.  0.
        998    1    1    2    0    0  0.13542704777E+02 -0.39893643366E+01  0.14600741830E+04  0.14601766810E+04  0.10000000000E+02 0.  1.
</event>
<event>
 5    1  0.1068111E-008  0.3851545E+03  0.7957747E-01  0.3429017E+00
         13   -1    0    0    0    0  0.00000000000E+00  0.00000000000E+00  0.14999999963E+04  0.15000000000E+04  0.10566000000E+00 0.  1.
        994   -1    0    0    0    0 -0.00000000000E+00 -0.00000000000E+00  0.11368683772E-12  0.17120000000E+03  0.17120000000E+03 0.  0.
         13    1    1    2    0    0  0.13544998341E+02  0.40447597470E+01  0.62741380885E+02  0.64314221607E+02  0.10566000000E+00 0.  1.
        994    1    1    2    0    0 -0.13451409865E+02 -0.21485383069E+01  0.21636361486E+01  0.17175470289E+03  0.17120000000E+03 0.  0.
        998    1    1    2    0    0 -0.93588475973E-01 -0.18962214401E+01  0.14350949792E+04  0.14351310755E+04  0.10000000000E+02 0.  1.
</event>
<event>
 5    1  0.1068111E-008  0.3846277E+03  0.7957747E-01  0.3431253E+00
         13   -1    0    0    0    0  0.00000000000E+00  0.00000000000E+00  0.14999999963E+04  0.15000000000E+04  0.10566000000E+00 0.  1.
        994   -1    0    0    0    0 -0.00000000000E+00 -0.00000000000E+00  0.11368683772E-12  0.17120000000E+03  0.17120000000E+03 0.  0.
         13    1    1    2    0    0 -0.11288854701E+02 -0.16081469484E+02  0.10468623793E+03  0.10651418440E+03  0.10566000000E+00 0.  1.
        994    1    1    2    0    0  0.24121913578E+01  0.15842544673E+02  0.26611235477E+01  0.17196896949E+03  0.17120000000E+03 0.  0.
        998    1    1    2    0    0  0.88766633428E+01  0.23892481102E+00  0.13926526348E+04  0.13927168461E+04  0.10000000000E+02 0.  1.
</event>
<event>
 5    1  0.1068111E-008  0.3829348E+03  0.7957747E-01  0.3438478E+00
         13   -1    0    0    0    0  0.00000000000E+00  0.00000000000E+00  0.14999999963E+04  0.15000000000E+04  0.10566000000E+00 0.  1.
        994   -1    0    0    0    0 -0.00000000000E+00 -0.00000000000E+00  0.11368683772E-12  0.17120000000E+03  0.17120000000E+03 0.  0.
         13    1    1    2    0    0  0.32063175953E+02 -0.16535461399E+01  0.18207829276E+03  0.18488725571E+03  0.10566000000E+00 0.  1.
        994    1    1    2    0    0 -0.25517554763E+02  0.46223388287E+01  0.48886790624E+01  0.17322196974E+03  0.17120000000E+03 0.  0.
        998    1    1    2    0    0 -0.65456211904E+01 -0.29687926888E+01  0.13130330245E+04  0.13130907746E+04  0.10000000000E+02 0.  1.
</event>
<event>
 5    1  0.1068111E-008  0.3947556E+03  0.7957747E-01  0.3389323E+00
         13   -1    0    0    0    0  0.00000000000E+00  0.00000000000E+00  0.14999999963E+04  0.15000000000E+04  0.10566000000E+00 0.  1.
        994   -1    0    0    0    0 -0.00000000000E+00 -0.00000000000E+00  0.11368683772E-12  0.17120000000E+03  0.17120000000E+03 0.  0.
         13    1    1    2    0    0 -0.30780621587E+02  0.34575387106E+01  0.11416014605E+02  0.33011176784E+02  0.10566000000E+00 0.  1.
        994    1    1    2    0    0 -0.49791823246E+02  0.20036063117E+02  0.35805762406E+02  0.18295398905E+03  0.17120000000E+03 0.  0.
        998    1    1    2    0    0  0.80572444833E+02 -0.23493601828E+02  0.14527782193E+04  0.14552348342E+04  0.10000000000E+02 0.  1.
</event>
<event>
 5    1  0.1068111E-008  0.3814642E+03  0.7957747E-01  0.3444808E+00
         13   -1    0    0    0    0  0.00000000000E+00  0.00000000000E+00  0.14999999963E+04  0.15000000000E+04  0.10566000000E+00 0.  1.
        994   -1    0    0    0    0 -0.00000000000E+00 -0.00000000000E+00  0.11368683772E-12  0.17120000000E+03  0.17120000000E+03 0.  0.
         13    1    1    2    0    0  0.31167902411E+02 -0.28878384674E+01  0.18046178331E+03  0.18315633800E+03  0.10566000000E+00 0.  1.
        994    1    1    2    0    0  0.10217400259E+02 -0.47631362662E+01  0.38187270848E+01  0.17161324370E+03  0.17120000000E+03 0.  0.
        998    1    1    2    0    0 -0.41385302670E+02  0.76509747336E+01  0.13157194859E+04  0.13164304183E+04  0.10000000000E+02 0.  1.
</event>
<event>
 5    1  0.1068111E-008  0.3912346E+03  0.7957747E-01  0.3403653E+00
         13   -1    0    0    0    0  0.00000000000E+00  0.00000000000E+00  0.14999999963E+04  0.15000000000E+04  0.10566000000E+00 0.  1.
        994   -1    0    0    0    0 -0.00000000000E+00 -0.00000000000E+00  0.11368683772E-12  0.17120000000E+03  0.17120000000E+03 0.  0.
         13    1    1    2    0    0  0.31341895514E+02  0.29680330685E+02  0.31620401463E+02  0.53507919009E+02  0.10566000000E+00 0.  1.
        994    1    1    2    0    0 -0.30337541122E+02 -0.32730909549E+02  0.30207348791E+02  0.17948148306E+03  0.17120000000E+03 0.  0.
        998    1    1    2    0    0 -0.10043543922E+01  0.30505788641E+01  0.14381722460E+04  0.14382105979E+04  0.10000000000E+02 0.  1.
</event>
<event>
 5    1  0.1068111E-008  0.3856192E+03  0.7957747E-01  0.3427050E+00
         13   -1    0    0    0    0  0.00000000000E+00  0.00000000000E+00  0.14999999963E+04  0.15000000000E+04  0.10566000000E+00 0. -1.
        994   -1    0    0    0    0 -0.00000000000E+00 -0.00000000000E+00  0.11368683772E-12  0.17120000000E+03  0.17120000000E+03 0.  0.
         13    1    1    2    0    0  0.22470665163E+01 -0.15064561185E+02  0.66899973306E+02  0.68612009910E+02  0.10566000000E+00 0. -1.
        994    1    1    2    0    0 -0.25236216940E+02  0.48150910877E+02  0.11083529777E+02  0.17996572311E+03  0.17120000000E+03 0.  0.
        998    1    1    2    0    0  0.22989150423E+02 -0.33086349692E+02  0.14220164932E+04  0.14226222670E+04  0.10000000000E+02 0. -1.
</event>
<event>
 5    1  0.1068111E-008  0.3843591E+03  0.7957747E-01  0.3432395E+00
         13   -1    0    0    0    0  0.00000000000E+00  0.00000000000E+00  0.14999999963E+04  0.15000000000E+04  0.10566000000E+00 0.  1.
        994   -1    0    0    0    0 -0.00000000000E+00 -0.00000000000E+00  0.11368683772E-12  0.17120000000E+03  0.17120000000E+03 0.  0.
         13    1    1    2    0    0  0.94241326565E+01  0.11515193727E+02  0.57709318892E+02  0.59596901043E+02  0.10566000000E+00 0.  1.
        994    1    1    2    0    0 -0.25532663320E+01 -0.56606045842E+01  0.20757429072E+01  0.17132515963E+03  0.17120000000E+03 0.  0.
        998    1    1    2    0    0 -0.68708663245E+01 -0.58545891432E+01  0.14402149345E+04  0.14402779393E+04  0.10000000000E+02 0.  1.
</event>
<event>
 5    1  0.1068111E-008  0.3684377E+03  0.7957747E-01  0.3503102E+00
         13   -1    0    0    0    0  0.00000000000E+00  0.00000000000E+00  0.14999999963E+04  0.15000000000E+04  0.10566000000E+00 0. -1.
        994   -1    0    0    0    0 -0.00000000000E+00 -0.00000000000E+00  0.11368683772E-12  0.17120000000E+03  0.17120000000E+03 0.  0.
         13    1    1    2    0    0  0.30014366199E+02  0.57359396139E+01  0.42858869976E+02  0.52637031463E+02  0.10566000000E+00 0. -1.
        994    1    1    2    0    0 -0.16150600153E+02 -0.16479423260E+01  0.11004726656E+02  0.17231976558E+03  0.17120000000E+03 0.  0.
        998    1    1    2    0    0 -0.13863766046E+02 -0.40879972879E+01  0.14461363996E+04  0.14462432030E+04  0.10000000000E+02 0. -1.
</event>
<event>
 5    1  0.1068111E-008  0.3812443E+03  0.7957747E-01  0.3445758E+00
         13   -1    0    0    0    0  0.00000000000E+00  0.00000000000E+00  0.14999999963E+04  0.15000000000E+04  0.10566000000E+00 0. -1.
        994   -1    0    0    0    0 -0.00000000000E+00 -0.00000000000E+00  0.11368683772E-12  0.17120000000E+03  0.17120000000E+03 0.  0.
         13    1    1    2    0    0 -0.25791062307E+02 -0.44651170668E+02  0.27698942951E+03  0.28174822300E+03  0.10566000000E+00 0. -1.
        994    1    1    2    0    0  0.27090078787E+02  0.57804560026E+02  0.17194727625E+02  0.18352203733E+03  0.17120000000E+03 0.  0.
        998    1    1    2    0    0 -0.12990164802E+01 -0.13153389358E+02  0.12058158391E+04  0.12059297397E+04  0.10000000000E+02 0. -1.
</event>
<event>
 5    1  0.1068111E-008  0.3843653E+03  0.7957747E-01  0.3432368E+00
         13   -1    0    0    0    0  0.00000000000E+00  0.00000000000E+00  0.14999999963E+04  0.15000000000E+04  0.10566000000E+00 0.  1.
        994   -1    0    0    0    0 -0.00000000000E+00 -0.00000000000E+00  0.11368683772E-12  0.17120000000E+03  0.17120000000E+03 0.  0.
         13    1    1    2    0    0 -0.13124536181E+03  0.15304707594E+03  0.12004448555E+04  0.12172578259E+04  0.10566000000E+00 0.  1.
        994    1    1    2    0    0  0.13520534162E+03 -0.15058778941E+03  0.15118315518E+03  0.30516053665E+03  0.17120000000E+03 0.  0.
        998    1    1    2    0    0 -0.39599798096E+01 -0.24592865316E+01  0.14837198559E+03  0.14878163744E+03  0.10000000000E+02 0.  0.
</event>
<event>
 5    1  0.1068111E-008  0.3797830E+03  0.7957747E-01  0.3452104E+00
         13   -1    0    0    0    0  0.00000000000E+00  0.00000000000E+00  0.14999999963E+04  0.15000000000E+04  0.10566000000E+00 0.  1.
        994   -1    0    0    0    0 -0.00000000000E+00 -0.00000000000E+00  0.11368683772E-12  0.17120000000E+03  0.17120000000E+03 0.  0.
         13    1    1    2    0    0  0.64942534424E+01 -0.59173034858E+02  0.33624883076E+03  0.34147754060E+03  0.10566000000E+00 0.  1.
        994    1    1    2    0    0 -0.16871168048E+02  0.54858266454E+02  0.15342269033E+02  0.18121504057E+03  0.17120000000E+03 0.  0.
        998    1    1    2    0    0  0.10376914606E+02  0.43147684046E+01  0.11484088965E+04  0.11485074188E+04  0.10000000000E+02 0.  1.
</event>
<event>
 5    1  0.1068111E-008  0.3846377E+03  0.7957747E-01  0.3431210E+00
         13   -1    0    0    0    0  0.00000000000E+00  0.00000000000E+00  0.14999999963E+04  0.15000000000E+04  0.10566000000E+00 0. -1.
        994   -1    0    0    0    0 -0.00000000000E+00 -0.00000000000E+00  0.11368683772E-12  0.17120000000E+03  0.17120000000E+03 0.  0.
         13    1    1    2    0    0  0.35741230753E+01  0.25680746264E+02  0.15169840038E+03  0.15389831359E+03  0.10566000000E+00 0. -1.
        994    1    1    2    0    0 -0.61683276944E+01 -0.37652271807E+02  0.66179581936E+01  0.17552486778E+03  0.17120000000E+03 0.  0.
        998    1    1    2    0    0  0.25942046191E+01  0.11971525543E+02  0.13416836377E+04  0.13417768186E+04  0.10000000000E+02 0. -1.
</event>
<event>
 5    1  0.1068111E-008  0.3847102E+03  0.7957747E-01  0.3430902E+00
         13   -1    0    0    0    0  0.00000000000E+00  0.00000000000E+00  0.14999999963E+04  0.15000000000E+04  0.10566000000E+00 0.  1.
        994   -1    0    0    0    0 -0.00000000000E+00 -0.00000000000E+00  0.11368683772E-12  0.17120000000E+03  0.17120000000E+03 0.  0.
         13    1    1    2    0    0  0.15898661135E+02 -0.61201492727E+01  0.76143997260E+02  0.78026554042E+02  0.10566000000E+00 0.  1.
        994    1    1    2    0    0 -0.24866098833E+02 -0.33062008527E+01  0.38481642394E+01  0.17307080113E+03  0.17120000000E+03 0.  0.
        998    1    1    2    0    0  0.89674376980E+01  0.94263501254E+01  0.14200078348E+04  0.14201026448E+04  0.10000000000E+02 0.  1.
</event>
<event>
 5    1  0.1068111E-008  0.3763422E+03  0.7957747E-01  0.3467242E+00
         13   -1    0    0    0    0  0.00000000000E+00  0.00000000000E+00  0.14999999963E+04  0.15000000000E+04  0.10566000000E+00 0.  1.
        994   -1    0    0    0    0 -0.00000000000E+00 -0.00000000000E+00  0.11368683772E-12  0.17120000000E+03  0.17120000000E+03 0.  0.
         13    1    1    2    0    0 -0.13606387918E+02  0.11962663861E+03  0.35291593940E+03  0.37288783555E+03  0.10566000000E+00 0.  1.
        994    1    1    2    0    0  0.20538426928E+02 -0.12699595667E+03  0.76150702969E+02  0.22728433636E+03  0.17120000000E+03 0.  0.
        998    1    1    2    0    0 -0.69320390099E+01  0.73693180620E+01  0.10709333539E+04  0.10710278281E+04  0.10000000000E+02 0.  1.
</event>
<event>
 5    1  0.1068111E-008  0.3823369E+03  0.7957747E-01  0.3441046E+00
         13   -1    0    0    0    0  0.00000000000E+00  0.00000000000E+00  0.14999999963E+04  0.15000000000E+04  0.10566000000E+00 0. -1.
        994   -1    0    0    0    0 -0.00000000000E+00 -0.00000000000E+00  0.11368683772E-12  0.17120000000E+03  0.17120000000E+03 0.  0.
         13    1    1    2    0    0  0.89950622363E+01 -0.79636116488E+01  0.22346772038E+02  0.25371630608E+02  0.10566000000E+00 0. -1.
        994    1    1    2    0    0 -0.19647188644E+02  0.10151013826E+02  0.45821441545E+01  0.17268321038E+03  0.17120000000E+03 0.  0.
        998    1    1    2    0    0  0.10652126408E+02 -0.21874021776E+01  0.14730710801E+04  0.14731451590E+04  0.10000000000E+02 0. -1.
</event>
<event>
 5    1  0.1068111E-008  0.3845603E+03  0.7957747E-01  0.3431539E+00
         13   -1    0    0    0    0  0.00000000000E+00  0.00000000000E+00  0.14999999963E+04  0.15000000000E+04  0.10566000000E+00 0.  1.
        994   -1    0    0    0    0 -0.00000000000E+00 -0.00000000000E+00  0.11368683772E-12  0.17120000000E+03  0.17120000000E+03 0.  0.
         13    1    1    2    0    0  0.12225195244E+02 -0.14377666374E+02  0.88796283580E+02  0.90779754520E+02  0.10566000000E+00 0.  1.
        994    1    1    2    0    0 -0.22158271147E+02  0.12300416039E+02  0.39667178879E+01  0.17311113213E+03  0.17120000000E+03 0.  0.
        998    1    1    2    0    0  0.99330759022E+01  0.20772503343E+01  0.14072369948E+04  0.14073091134E+04  0.10000000000E+02 0.  1.
</event>
<event>
 5    1  0.1068111E-008  0.3808820E+03  0.7957747E-01  0.3447327E+00
         13   -1    0    0    0    0  0.00000000000E+00  0.00000000000E+00  0.14999999963E+04  0.15000000000E+04  0.10566000000E+00 0.  1.
        994   -1    0    0    0    0 -0.00000000000E+00 -0.00000000000E+00  0.11368683772E-12  0.17120000000E+03  0.17120000000E+03 0.  0.
         13    1    1    2    0    0 -0.15116101619E+02 -0.10429193551E+02  0.45173345915E+02  0.48763787297E+02  0.10566000000E+00 0.  1.
        994    1    1    2    0    0  0.33868147001E+01  0.79568844857E+01  0.39379078846E+01  0.17146349362E+03  0.17120000000E+03 0.  0.
        998    1    1    2    0    0  0.11729286919E+02  0.24723090657E+01  0.14508887425E+04  0.14509727191E+04  0.10000000000E+02 0.  1.
</event>
<event>
 5    1  0.1068111E-008  0.3708623E+03  0.7957747E-01  0.3491937E+00
         13   -1    0    0    0    0  0.00000000000E+00  0.00000000000E+00  0.14999999963E+04  0.15000000000E+04  0.10566000000E+00 0.  1.
        994   -1    0    0    0    0 -0.00000000000E+00 -0.00000000000E+00  0.11368683772E-12  0.17120000000E+03  0.17120000000E+03 0.  0.
         13    1    1    2    0    0 -0.16985228002E+02 -0.14785782157E+02  0.25032095635E+02  0.33670971180E+02  0.10566000000E+00 0.  1.
        994    1    1    2    0    0  0.20550661457E+02  0.10519551414E+01  0.10280141253E+02  0.17273840801E+03  0.17120000000E+03 0.  0.
        998    1    1    2    0    0 -0.35654334547E+01  0.13733827015E+02  0.14646877594E+04  0.14647906208E+04  0.10000000000E+02 0.  1.
</event>
<event>
 5    1  0.1068111E-008  0.3684226E+03  0.7957747E-01  0.3503172E+00
         13   -1    0    0    0    0  0.00000000000E+00  0.00000000000E+00  0.14999999963E+04  0.15000000000E+04  0.10566000000E+00 0.  1.
        994   -1    0    0    0    0 -0.00000000000E+00 -0.00000000000E+00  0.11368683772E-12  0.17120000000E+03  0.17120000000E+03 0.  0.
         13    1    1    2    0    0  0.37722539368E+02 -0.32542335171E+02  0.11457652898E+03  0.12493912803E+03  0.10566000000E+00 0.  1.
        994    1    1    2    0    0 -0.30630380298E+02  0.28004557917E+02  0.16119772395E+02  0.17689477811E+03  0.17120000000E+03 0.  0.
        998    1    1    2    0    0 -0.70921590699E+01  0.45377772540E+01  0.13693036949E+04  0.13693660939E+04  0.10000000000E+02 0.  1.
</event>
<event>
 5    1  0.1068111E-008  0.3774101E+03  0.7957747E-01  0.3462513E+00
         13   -1    0    0    0    0  0.00000000000E+00  0.00000000000E+00  0.14999999963E+04  0.15000000000E+04  0.10566000000E+00 0. -1.
        994   -1    0    0    0    0 -0.00000000000E+00 -0.00000000000E+00  0.11368683772E-12  0.17120000000E+03  0.17120000000E+03 0.  0.
         13    1    1    2    0    0 -0.20537916988E+02 -0.27105798754E+01  0.77928953061E+01  0.22133541487E+02  0.10566000000E+00 0. -1.
        994    1    1    2    0    0  0.17552334623E+02  0.15054283907E+01  0.16026640022E+02  0.17284861572E+03  0.17120000000E+03 0.  0.
        998    1    1    2    0    0  0.29855823650E+01  0.12051514847E+01  0.14761804610E+04  0.14762178428E+04  0.10000000000E+02 0. -1.
</event>
<event>
 5    1  0.1068111E-008  0.3720182E+03  0.7957747E-01  0.3486667E+00
         13   -1    0    0    0    0  0.00000000000E+00  0.00000000000E+00  0.14999999963E+04  0.15000000000E+04  0.10566000000E+00 0. -1.
        994   -1    0    0    0    0 -0.00000000000E+00 -0.00000000000E+00  0.11368683772E-12  0.17120000000E+03  0.17120000000E+03 0.  0.
         13    1    1    2    0    0  0.25632246085E+02  0.11200323371E+02  0.60396907597E+02  0.66560174987E+02  0.10566000000E+00 0. -1.
        994    1    1    2    0    0  0.46408471230E+02  0.89844787184E+02  0.44192901121E+02  0.20368673127E+03  0.17120000000E+03 0.  0.
        998    1    1    2    0    0 -0.72040717315E+02 -0.10104511056E+03  0.13954101876E+04  0.14009530937E+04  0.10000000000E+02 0. -1.
</event>
<event>
 5    1  0.1068111E-008  0.3700751E+03  0.7957747E-01  0.3495546E+00
         13   -1    0    0    0    0  0.00000000000E+00  0.00000000000E+00  0.14999999963E+04  0.15000000000E+04  0.10566000000E+00 0.  1.
        994   -1    0    0    0    0 -0.00000000000E+00 -0.00000000000E+00  0.11368683772E-12  0.17120000000E+03  0.17120000000E+03 0.  0.
         13    1    1    2    0    0 -0.64869527115E+02 -0.10256273287E+03  0.56318400318E+03  0.57611058168E+03  0.10566000000E+00 0.  1.
        994    1    1    2    0    0  0.66832360841E+02  0.84032940346E+02  0.50204701148E+02  0.20822596269E+03  0.17120000000E+03 0.  0.
        998    1    1    2    0    0 -0.19628337258E+01  0.18529792522E+02  0.88661129195E+03  0.88686345563E+03  0.10000000000E+02 0.  1.
</event>
<event>
 5    1  0.1068111E-008  0.3689345E+03  0.7957747E-01  0.3500802E+00
         13   -1    0    0    0    0  0.00000000000E+00  0.00000000000E+00  0.14999999963E+04  0.15000000000E+04  0.10566000000E+00 0.  1.
        994   -1    0    0    0    0 -0.00000000000E+00 -0.00000000000E+00  0.11368683772E-12  0.17120000000E+03  0.17120000000E+03 0.  0.
         13    1    1    2    0    0  0.13386019110E+02 -0.44629141582E+01  0.52602131210E+01  0.15059353124E+02  0.10566000000E+00 0.  1.
        994    1    1    2    0    0  0.19561700404E+02  0.21320144497E+01  0.11726277181E+02  0.17272565294E+03  0.17120000000E+03 0.  0.
        998    1    1    2    0    0 -0.32947719514E+02  0.23308997085E+01  0.14830135060E+04  0.14834149939E+04  0.10000000000E+02 0.  1.
</event>
<event>
 5    1  0.1068111E-008  0.3729362E+03  0.7957747E-01  0.3482504E+00
         13   -1    0    0    0    0  0.00000000000E+00  0.00000000000E+00  0.14999999963E+04  0.15000000000E+04  0.10566000000E+00 0.  1.
        994   -1    0    0    0    0 -0.00000000000E+00 -0.00000000000E+00  0.11368683772E-12  0.17120000000E+03  0.17120000000E+03 0.  0.
         13    1    1    2    0    0 -0.47672456304E+02 -0.57940079309E+01  0.14578762330E+03  0.15349356953E+03  0.10566000000E+00 0.  1.
        994    1    1    2    0    0  0.28114507969E+02  0.13091747375E+02  0.11041769287E+02  0.17433639917E+03  0.17120000000E+03 0.  0.
        998    1    1    2    0    0  0.19557948335E+02 -0.72977394441E+01  0.13431706037E+04  0.13433700313E+04  0.10000000000E+02 0.  1.
</event>
<event>
 5    1  0.1068111E-008  0.3792244E+03  0.7957747E-01  0.3454543E+00
         13   -1    0    0    0    0  0.00000000000E+00  0.00000000000E+00  0.14999999963E+04  0.15000000000E+04  0.10566000000E+00 0. -1.
        994   -1    0    0    0    0 -0.00000000000E+00 -0.00000000000E+00  0.11368683772E-12  0.17120000000E+03  0.17120000000E+03 0.  0.
         13    1    1    2    0    0  0.52831739080E+02  0.72338095495E+01  0.28262613409E+03  0.28761269702E+03  0.10566000000E+00 0. -1.
        994    1    1    2    0    0 -0.41850455321E+02 -0.54424428191E+01  0.10517728852E+02  0.17663845395E+03  0.17120000000E+03 0.  0.
        998    1    1    2    0    0 -0.10981283758E+02 -0.17913667304E+01  0.12068561333E+04  0.12069488490E+04  0.10000000000E+02 0. -1.
</event>
<event>
 5    1  0.1068111E-008  0.3850705E+03  0.7957747E-01  0.3429373E+00
         13   -1    0    0    0    0  0.00000000000E+00  0.00000000000E+00  0.14999999963E+04  0.15000000000E+04  0.10566000000E+00 0.  1.
        994   -1    0    0    0    0 -0.00000000000E+00 -0.00000000000E+00  0.11368683772E-12  0.17120000000E+03  0.17120000000E+03 0.  0.
         13    1    1    2    0    0 -0.27413651173E+01 -0.11880555167E+02  0.47171144418E+02  0.48721563024E+02  0.10566000000E+00 0.  1.
        994    1    1    2    0    0  0.24824410075E+02  0.76914729221E+00  0.36258860494E+01  0.17303014180E+03  0.17120000000E+03 0.  0.
        998    1    1    2    0    0 -0.22083044957E+02  0.11111407875E+02  0.14492029658E+04  0.14494482952E+04  0.10000000000E+02 0.  1.
</event>
<event>
 5    1  0.1068111E-008  0.3852759E+03  0.7957747E-01  0.3428503E+00
         13   -1    0    0    0    0  0.00000000000E+00  0.00000000000E+00  0.14999999963E+04  0.15000000000E+04  0.10566000000E+00 0. -1.
        994   -1    0    0    0    0 -0.00000000000E+00 -0.00000000000E+00  0.11368683772E-12  0.17120000000E+03  0.17120000000E+03 0.  0.
         13    1    1    2    0    0  0.95404676105E+01 -0.89950110633E+01  0.63194543732E+02  0.64540624941E+02  0.10566000000E+00 0. -1.
        994    1    1    2    0    0  0.11537460761E+01 -0.60264333050E+01  0.16169142143E+01  0.17131755147E+03  0.17120000000E+03 0.  0.
        998    1    1    2    0    0 -0.10694213687E+02  0.15021444368E+02  0.14351885383E+04  0.14353418236E+04  0.10000000000E+02 0. -1.
</event>
<event>
 5    1  0.1068111E-008  0.3817210E+03  0.7957747E-01  0.3443699E+00
         13   -1    0    0    0    0  0.00000000000E+00  0.00000000000E+00  0.14999999963E+04  0.15000000000E+04  0.10566000000E+00 0. -1.
        994   -1    0    0    0    0 -0.00000000000E+00 -0.00000000000E+00  0.11368683772E-12  0.17120000000E+03  0.17120000000E+03 0.  0.
         13    1    1    2    0    0  0.30287613678E+02 -0.31813840319E+00  0.15124551977E+03  0.15424869260E+03  0.10566000000E+00 0. -1.
        994    1    1    2    0    0 -0.66126301548E+01  0.12443629622E+02  0.39272174281E+01  0.17182384535E+03  0.17120000000E+03 0.  0.
        998    1    1    2    0    0 -0.23674983523E+02 -0.12125491219E+02  0.13448272591E+04  0.13451274620E+04  0.10000000000E+02 0. -1.
</event>
<event>
 5    1  0.1068111E-008  0.3839852E+03  0.7957747E-01  0.3433988E+00
         13   -1    0    0    0    0  0.00000000000E+00  0.00000000000E+00  0.14999999963E+04  0.15000000000E+04  0.10566000000E+00 0. -1.
        994   -1    0    0    0    0 -0.00000000000E+00 -0.00000000000E+00  0.11368683772E-12  0.17120000000E+03  0.17120000000E+03 0.  0.
         13    1    1    2    0    0 -0.30472696991E+01  0.23970035982E+02  0.14536704157E+03  0.14736158393E+03  0.10566000000E+00 0. -1.
        994    1    1    2    0    0  0.38190554031E+01 -0.67227261288E+01  0.23320811082E+01  0.17139036972E+03  0.17120000000E+03 0.  0.
        998    1    1    2    0    0 -0.77178570397E+00 -0.17247309854E+02  0.13523008736E+04  0.13524480464E+04  0.10000000000E+02 0. -1.
</event>
<event>
 5    1  0.1068111E-008  0.3697757E+03  0.7957747E-01  0.3496922E+00
         13   -1    0    0    0    0  0.00000000000E+00  0.00000000000E+00  0.14999999963E+04  0.15000000000E+04  0.10566000000E+00 0.  1.
        994   -1    0    0    0    0 -0.00000000000E+00 -0.00000000000E+00  0.11368683772E-12  0.17120000000E+03  0.17120000000E+03 0.  0.
         13    1    1    2    0    0  0.39161634430E+01 -0.26807352468E+02  0.35159295423E+02  0.44386458534E+02  0.10566000000E+00 0.  1.
        994    1    1    2    0    0  0.86364529632E+01  0.21800224286E+02  0.11291267221E+02  0.17316688718E+03  0.17120000000E+03 0.  0.
        998    1    1    2    0    0 -0.12552616406E+02  0.50071281821E+01  0.14535494336E+04  0.14536466543E+04  0.10000000000E+02 0.  1.
</event>
<event>
 5    1  0.1068111E-008  0.3808559E+03  0.7957747E-01  0.3447440E+00
         13   -1    0    0    0    0  0.00000000000E+00  0.00000000000E+00  0.14999999963E+04  0.15000000000E+04  0.10566000000E+00 0. -1.
        994   -1    0    0    0    0 -0.00000000000E+00 -0.00000000000E+00  0.11368683772E-12  0.17120000000E+03  0.17120000000E+03 0.  0.
         13    1    1    2    0    0 -0.19237958698E+01 -0.38383599450E+02  0.14666407376E+03  0.15161584150E+03  0.10566000000E+00 0. -1.
        994    1    1    2    0    0 -0.79406013394E+02  0.82227102374E+02  0.48562204601E+02  0.21150493858E+03  0.17120000000E+03 0.  0.
        998    1    1    2    0    0  0.81329809264E+02 -0.43843502924E+02  0.13047737179E+04  0.13080792199E+04  0.10000000000E+02 0. -1.
</event>
<event>
 5    1  0.1068111E-008  0.3776330E+03  0.7957747E-01  0.3461530E+00
         13   -1    0    0    0    0  0.00000000000E+00  0.00000000000E+00  0.14999999963E+04  0.15000000000E+04  0.10566000000E+00 0.  1.
        994   -1    0    0    0    0 -0.00000000000E+00 -0.00000000000E+00  0.11368683772E-12  0.17120000000E+03  0.17120000000E+03 0.  0.
         13    1    1    2    0    0  0.86652550541E+01  0.66563122387E+02  0.15359546035E+03  0.16762252984E+03  0.10566000000E+00 0.  1.
        994    1    1    2    0    0  0.25382529932E+01 -0.28112180822E+02  0.17900464943E+02  0.17443223350E+03  0.17120000000E+03 0.  0.
        998    1    1    2    0    0 -0.11203508047E+02 -0.38450941565E+02  0.13285040710E+04  0.13291452367E+04  0.10000000000E+02 0.  1.
</event>
<event>
 5    1  0.1068111E-008  0.3837517E+03  0.7957747E-01  0.3434984E+00
         13   -1    0    0    0    0  0.00000000000E+00  0.00000000000E+00  0.14999999963E+04  0.15000000000E+04  0.10566000000E+00 0. -1.
        994   -1    0    0    0    0 -0.00000000000E+00 -0.00000000000E+00  0.11368683772E-12  0.17120000000E+03  0.17120000000E+03 0.  0.
         13    1    1    2    0    0 -0.40848454513E+01  0.20326179544E+02  0.98210645892E+02  0.10037520445E+03  0.10566000000E+00 0. -1.
        994    1    1    2    0    0  0.46087089146E+01 -0.72592840305E+01  0.24953571040E+01  0.17143396457E+03  0.17120000000E+03 0.  0.
        998    1    1    2    0    0 -0.52386346330E+00 -0.13066895513E+02  0.13992939933E+04  0.13993908310E+04  0.10000000000E+02 0. -1.
</event>
<event>
 5    1  0.1068111E-008  0.3765731E+03  0.7957747E-01  0.3466217E+00
         13   -1    0    0    0    0  0.00000000000E+00  0.00000000000E+00  0.14999999963E+04  0.15000000000E+04  0.10566000000E+00 0.  1.
        994   -1    0    0    0    0 -0.00000000000E+00 -0.00000000000E+00  0.11368683772E-12  0.17120000000E+03  0.17120000000E+03 0.  0.
         13    1    1    2    0    0  0.44419182936E+02  0.94918433279E+01  0.18794439728E+03  0.19335528577E+03  0.10566000000E+00 0.  1.
        994    1    1    2    0    0 -0.13925121154E+02 -0.16689145203E-01  0.65290676911E+01  0.17188943540E+03  0.17120000000E+03 0.  0.
        998    1    1    2    0    0 -0.30494061783E+02 -0.94751541827E+01  0.13055265313E+04  0.13059552788E+04  0.10000000000E+02 0.  1.
</event>
<event>
 5    1  0.1068111E-008  0.3724967E+03  0.7957747E-01  0.3484495E+00
         13   -1    0    0    0    0  0.00000000000E+00  0.00000000000E+00  0.14999999963E+04  0.15000000000E+04  0.10566000000E+00 0. -1.
        994   -1    0    0    0    0 -0.00000000000E+00 -0.00000000000E+00  0.11368683772E-12  0.17120000000E+03  0.17120000000E+03 0.  0.
         13    1    1    2    0    0 -0.39019025315E+02  0.13069379809E+01  0.86325948952E+02  0.94743723010E+02  0.10566000000E+00 0. -1.
        994    1    1    2    0    0  0.44100739001E+02  0.74684971443E+01  0.14859705542E+02  0.17756943565E+03  0.17120000000E+03 0.  0.
        998    1    1    2    0    0 -0.50817136860E+01 -0.87754351252E+01  0.13988143418E+04  0.13988868413E+04  0.10000000000E+02 0. -1.
</event>
<event>
 5    1  0.1068111E-008  0.3842569E+03  0.7957747E-01  0.3432830E+00
         13   -1    0    0    0    0  0.00000000000E+00  0.00000000000E+00  0.14999999963E+04  0.15000000000E+04  0.10566000000E+00 0.  1.
        994   -1    0    0    0    0 -0.00000000000E+00 -0.00000000000E+00  0.11368683772E-12  0.17120000000E+03  0.17120000000E+03 0.  0.
         13    1    1    2    0    0 -0.11141534033E+02 -0.66929155782E+01  0.38512706806E+02  0.40646877483E+02  0.10566000000E+00 0.  1.
        994    1    1    2    0    0  0.21435216305E+02  0.17068207859E+02  0.44784833410E+01  0.17343670036E+03  0.17120000000E+03 0.  0.
        998    1    1    2    0    0 -0.10293682272E+02 -0.10375292281E+02  0.14570088061E+04  0.14571164222E+04  0.10000000000E+02 0.  1.
</event>
<event>
 5    1  0.1068111E-008  0.3708316E+03  0.7957747E-01  0.3492078E+00
         13   -1    0    0    0    0  0.00000000000E+00  0.00000000000E+00  0.14999999963E+04  0.15000000000E+04  0.10566000000E+00 0.  1.
        994   -1    0    0    0    0 -0.00000000000E+00 -0.00000000000E+00  0.11368683772E-12  0.17120000000E+03  0.17120000000E+03 0.  0.
         13    1    1    2    0    0  0.62768961240E+01 -0.14313501961E+02  0.97347406759E+01  0.18413367519E+02  0.10566000000E+00 0.  1.
        994    1    1    2    0    0 -0.48950842413E+01  0.16767988370E+02  0.98877397533E+01  0.17237266222E+03  0.17120000000E+03 0.  0.
        998    1    1    2    0    0 -0.13818118826E+01 -0.24544864088E+01  0.14803775158E+04  0.14804139703E+04  0.10000000000E+02 0.  1.
</event>
<event>
 5    1  0.1068111E-008  0.3843046E+03  0.7957747E-01  0.3432627E+00
         13   -1    0    0    0    0  0.00000000000E+00  0.00000000000E+00  0.14999999963E+04  0.15000000000E+04  0.10566000000E+00 0. -1.
        994   -1    0    0    0    0 -0.00000000000E+00 -0.00000000000E+00  0.11368683772E-12  0.17120000000E+03  0.17120000000E+03 0.  0.
         13    1    1    2    0    0  0.24518879014E+02 -0.60875954927E+01  0.13576333071E+03  0.13809390782E+03  0.10566000000E+00 0. -1.
        994    1    1    2    0    0 -0.43546133257E+02 -0.18448344542E+02  0.93829354044E+01  0.17785973860E+03  0.17120000000E+03 0.  0.
        998    1    1    2    0    0  0.19027254243E+02  0.24535940035E+02  0.13548537302E+04  0.13552463536E+04  0.10000000000E+02 0. -1.
</event>
<event>
 5    1  0.1068111E-008  0.3813526E+03  0.7957747E-01  0.3445290E+00
         13   -1    0    0    0    0  0.00000000000E+00  0.00000000000E+00  0.14999999963E+04  0.15000000000E+04  0.10566000000E+00 0.  1.
        994   -1    0    0    0    0 -0.00000000000E+00 -0.00000000000E+00  0.11368683772E-12  0.17120000000E+03  0.17120000000E+03 0.  0.
         13    1    1    2    0    0  0.14843440850E+01  0.13211071426E+02  0.23989224409E+02  0.27426806912E+02  0.10566000000E+00 0.  1.
        994    1    1    2    0    0 -0.18661184668E+01 -0.12519790159E+02  0.39853277672E+01  0.17171357075E+03  0.17120000000E+03 0.  0.
        998    1    1    2    0    0  0.38177438184E+00 -0.69128126727E+00  0.14720254441E+04  0.14720596223E+04  0.10000000000E+02 0.  0.
</event>
<event>
 5    1  0.1068111E-008  0.3789286E+03  0.7957747E-01  0.3455837E+00
         13   -1    0    0    0    0  0.00000000000E+00  0.00000000000E+00  0.14999999963E+04  0.15000000000E+04  0.10566000000E+00 0. -1.
        994   -1    0    0    0    0 -0.00000000000E+00 -0.00000000000E+00  0.11368683772E-12  0.17120000000E+03  0.17120000000E+03 0.  0.
         13    1    1    2    0    0 -0.12924570881E+03 -0.87880130336E+02  0.83708610234E+03  0.85155183309E+03  0.10566000000E+00 0. -1.
        994    1    1    2    0    0  0.14176490336E+03  0.85854583771E+02  0.10314630200E+03  0.25964764007E+03  0.17120000000E+03 0.  0.
        998    1    1    2    0    0 -0.12519194546E+02  0.20255465655E+01  0.55976759194E+03  0.56000052683E+03  0.10000000000E+02 0. -1.
</event>
<event>
 5    1  0.1068111E-008  0.3811829E+03  0.7957747E-01  0.3446024E+00
         13   -1    0    0    0    0  0.00000000000E+00  0.00000000000E+00  0.14999999963E+04  0.15000000000E+04  0.10566000000E+00 0.  1.
        994   -1    0    0    0    0 -0.00000000000E+00 -0.00000000000E+00  0.11368683772E-12  0.17120000000E+03  0.17120000000E+03 0.  0.
         13    1    1    2    0    0  0.74873667025E+01  0.25339127838E+02  0.95774302605E+02  0.99352203112E+02  0.10566000000E+00 0.  1.
        994    1    1    2    0    0 -0.75652900123E+01 -0.18114740010E+02  0.48215580984E+01  0.17238928285E+03  0.17120000000E+03 0.  0.
        998    1    1    2    0    0  0.77923309827E-01 -0.72243878281E+01  0.13994041356E+04  0.13994585140E+04  0.10000000000E+02 0.  1.
</event>
<event>
 5    1  0.1068111E-008  0.3850771E+03  0.7957747E-01  0.3429345E+00
         13   -1    0    0    0    0  0.00000000000E+00  0.00000000000E+00  0.14999999963E+04  0.15000000000E+04  0.10566000000E+00 0. -1.
        994   -1    0    0    0    0 -0.00000000000E+00 -0.00000000000E+00  0.11368683772E-12  0.17120000000E+03  0.17120000000E+03 0.  0.
         13    1    1    2    0    0 -0.16246078780E+02 -0.44973030639E+01  0.91864165040E+02  0.93398055617E+02  0.10566000000E+00 0. -1.
        994    1    1    2    0    0  0.66500643060E+01  0.31839594938E+01  0.17706276745E+01  0.17136783851E+03  0.17120000000E+03 0.  0.
        998    1    1    2    0    0  0.95960144737E+01  0.13133435702E+01  0.14063652036E+04  0.14064341059E+04  0.10000000000E+02 0. -1.
</event>
<event>
 5    1  0.1068111E-008  0.3804075E+03  0.7957747E-01  0.3449386E+00
         13   -1    0    0    0    0  0.00000000000E+00  0.00000000000E+00  0.14999999963E+04  0.15000000000E+04  0.10566000000E+00 0.  1.
        994   -1    0    0    0    0 -0.00000000000E+00 -0.00000000000E+00  0.11368683772E-12  0.17120000000E+03  0.17120000000E+03 0.  0.
         13    1    1    2    0    0  0.25687596618E+02  0.82429362305E+01  0.94989613544E+02  0.98746323795E+02  0.10566000000E+00 0.  1.
        994    1    1    2    0    0 -0.89357658511E+01 -0.11815218481E+01  0.41988803999E+01  0.17148852586E+03  0.17120000000E+03 0.  0.
        998    1    1    2    0    0 -0.16751830766E+02 -0.70614143825E+01  0.14008115023E+04  0.14009651503E+04  0.10000000000E+02 0.  1.
</event>
<event>
 5    1  0.1068111E-008  0.3841291E+03  0.7957747E-01  0.3433374E+00
         13   -1    0    0    0    0  0.00000000000E+00  0.00000000000E+00  0.14999999963E+04  0.15000000000E+04  0.10566000000E+00 0. -1.
        994   -1    0    0    0    0 -0.00000000000E+00 -0.00000000000E+00  0.11368683772E-12  0.17120000000E+03  0.17120000000E+03 0.  0.
         13    1    1    2    0    0  0.86090333966E+01  0.15441588625E+02  0.74028775015E+02  0.76110635325E+02  0.10566000000E+00 0. -1.
        994    1    1    2    0    0 -0.61460614227E+01 -0.13055975307E+02  0.27502082882E+01  0.17182909011E+03  0.17120000000E+03 0.  0.
        998    1    1    2    0    0 -0.24629719738E+01 -0.23856133178E+01  0.14232210130E+04  0.14232602746E+04  0.10000000000E+02 0. -1.
</event>
<event>
 5    1  0.1068111E-008  0.3858456E+03  0.7957747E-01  0.3426094E+00
         13   -1    0    0    0    0  0.00000000000E+00  0.00000000000E+00  0.14999999963E+04  0.15000000000E+04  0.10566000000E+00 0.  1.
        994   -1    0    0    0    0 -0.00000000000E+00 -0.00000000000E+00  0.11368683772E-12  0.17120000000E+03  0.17120000000E+03 0.  0.
         13    1    1    2    0    0  0.12222716433E+02  0.42556007028E+01  0.71706988356E+02  0.72865686557E+02  0.10566000000E+00 0.  1.
        994    1    1    2    0    0 -0.56235899849E+01  0.63106182685E+00  0.13159126041E+01  0.17129855408E+03  0.17120000000E+03 0.  0.
        998    1    1    2    0    0 -0.65991264484E+01 -0.48866625297E+01  0.14269770953E+04  0.14270357594E+04  0.10000000000E+02 0.  1.
</event>
<event>
 5    1  0.1068111E-008  0.3785485E+03  0.7957747E-01  0.3457503E+00
         13   -1    0    0    0    0  0.00000000000E+00  0.00000000000E+00  0.14999999963E+04  0.15000000000E+04  0.10566000000E+00 0.  1.
        994   -1    0    0    0    0 -0.00000000000E+00 -0.00000000000E+00  0.11368683772E-12  0.17120000000E+03  0.17120000000E+03 0.  0.
         13    1    1    2    0    0 -0.88424149409E+01 -0.30020961887E+02  0.86189150959E+02  0.91695296289E+02  0.10566000000E+00 0.  1.
        994    1    1    2    0    0 -0.93488148391E+01  0.55314149361E+02  0.15512413996E+02  0.18082347869E+03  0.17120000000E+03 0.  0.
        998    1    1    2    0    0  0.18191229780E+02 -0.25293187474E+02  0.13982984313E+04  0.13986812250E+04  0.10000000000E+02 0.  1.
</event>
<event>
 5    1  0.1068111E-008  0.3797246E+03  0.7957747E-01  0.3452359E+00
         13   -1    0    0    0    0  0.00000000000E+00  0.00000000000E+00  0.14999999963E+04  0.15000000000E+04  0.10566000000E+00 0.  1.
        994   -1    0    0    0    0 -0.00000000000E+00 -0.00000000000E+00  0.11368683772E-12  0.17120000000E+03  0.17120000000E+03 0.  0.
         13    1    1    2    0    0 -0.14035637501E+02  0.12887116192E+00  0.21280552061E+02  0.25492916426E+02  0.10566000000E+00 0.  1.
        994    1    1    2    0    0  0.98846582406E+01  0.43466799732E+01  0.46624699062E+01  0.17160355101E+03  0.17120000000E+03 0.  0.
        998    1    1    2    0    0  0.41509792609E+01 -0.44755511351E+01  0.14740569743E+04  0.14741035326E+04  0.10000000000E+02 0.  1.
</event>
<event>
 5    1  0.1068111E-008  0.3846898E+03  0.7957747E-01  0.3430989E+00
         13   -1    0    0    0    0  0.00000000000E+00  0.00000000000E+00  0.14999999963E+04  0.15000000000E+04  0.10566000000E+00 0.  1.
        994   -1    0    0    0    0 -0.00000000000E+00 -0.00000000000E+00  0.11368683772E-12  0.17120000000E+03  0.17120000000E+03 0.  0.
         13    1    1    2    0    0 -0.48597137330E+01  0.10725676281E+02  0.38911922669E+02  0.40654714845E+02  0.10566000000E+00 0.  1.
        994    1    1    2    0    0  0.79017896954E+01 -0.32252151425E+01  0.20240578296E+01  0.17142455222E+03  0.17120000000E+03 0.  0.
        998    1    1    2    0    0 -0.30420759624E+01 -0.75004611384E+01  0.14590640158E+04  0.14591207329E+04  0.10000000000E+02 0.  1.
</event>
<event>
 5    1  0.1068111E-008  0.3700461E+03  0.7957747E-01  0.3495679E+00
         13   -1    0    0    0    0  0.00000000000E+00  0.00000000000E+00  0.14999999963E+04  0.15000000000E+04  0.10566000000E+00 0.  1.
        994   -1    0    0    0    0 -0.00000000000E+00 -0.00000000000E+00  0.11368683772E-12  0.17120000000E+03  0.17120000000E+03 0.  0.
         13    1    1    2    0    0  0.28697597743E+02 -0.37476884893E+02  0.93546064147E+02  0.10478046716E+03  0.10566000000E+00 0.  1.
        994    1    1    2    0    0  0.71786219909E+01  0.59538061920E+02  0.23645853242E+02  0.18293408596E+03  0.17120000000E+03 0.  0.
        998    1    1    2    0    0 -0.35876219734E+02 -0.22061177027E+02  0.13828080789E+04  0.13834854469E+04  0.10000000000E+02 0.  1.
</event>
<event>
 5    1  0.1068111E-008  0.3833590E+03  0.7957747E-01  0.3436662E+00
         13   -1    0    0    0    0  0.00000000000E+00  0.00000000000E+00  0.14999999963E+04  0.15000000000E+04  0.10566000000E+00 0.  1.
        994   -1    0    0    0    0 -0.00000000000E+00 -0.00000000000E+00  0.11368683772E-12  0.17120000000E+03  0.17120000000E+03 0.  0.
         13    1    1    2    0    0  0.59605746428E+01 -0.23369876619E+02  0.13011889362E+03  0.13233524559E+03  0.10566000000E+00 0.  1.
        994    1    1    2    0    0 -0.52146985817E+01  0.82146797846E+00  0.25392113766E+01  0.17130019114E+03  0.17120000000E+03 0.  0.
        998    1    1    2    0    0 -0.74587606113E+00  0.22548408641E+02  0.13673418913E+04  0.13675645633E+04  0.10000000000E+02 0.  1.
</event>
<event>
 5    1  0.1068111E-008  0.3840144E+03  0.7957747E-01  0.3433863E+00
         13   -1    0    0    0    0  0.00000000000E+00  0.00000000000E+00  0.14999999963E+04  0.15000000000E+04  0.10566000000E+00 0. -1.
        994   -1    0    0    0    0 -0.00000000000E+00 -0.00000000000E+00  0.11368683772E-12  0.17120000000E+03  0.17120000000E+03 0.  0.
         13    1    1    2    0    0  0.21960044400E+02 -0.65278950220E+00  0.11786533724E+03  0.11989544850E+03  0.10566000000E+00 0. -1.
        994    1    1    2    0    0 -0.85198810694E+01  0.58944468124E+00  0.23609418373E+01  0.17142913949E+03  0.17120000000E+03 0.  0.
        998    1    1    2    0    0 -0.13440163330E+02  0.63344820956E-01  0.13797737172E+04  0.13798754120E+04  0.10000000000E+02 0. -1.
</event>
<event>
 5    1  0.1068111E-008  0.3766625E+03  0.7957747E-01  0.3465821E+00
         13   -1    0    0    0    0  0.00000000000E+00  0.00000000000E+00  0.14999999963E+04  0.15000000000E+04  0.10566000000E+00 0.  1.
        994   -1    0    0    0    0 -0.00000000000E+00 -0.00000000000E+00  0.11368683772E-12  0.17120000000E+03  0.17120000000E+03 0.  0.
         13    1    1    2    0    0  0.29569733775E+02 -0.13564754233E+02  0.82926846251E+02  0.89079990493E+02  0.10566000000E+00 0.  1.
        994    1    1    2    0    0 -0.32680681172E+02  0.16647028525E+02  0.10387916457E+02  0.17539241514E+03  0.17120000000E+03 0.  0.
        998    1    1    2    0    0  0.31109473971E+01 -0.30822742927E+01  0.14066852336E+04  0.14067275944E+04  0.10000000000E+02 0.  1.
</event>
<event>
 5    1  0.1068111E-008  0.3809746E+03  0.7957747E-01  0.3446926E+00
         13   -1    0    0    0    0  0.00000000000E+00  0.00000000000E+00  0.14999999963E+04  0.15000000000E+04  0.10566000000E+00 0. -1.
        994   -1    0    0    0    0 -0.00000000000E+00 -0.00000000000E+00  0.11368683772E-12  0.17120000000E+03  0.17120000000E+03 0.  0.
         13    1    1    2    0    0  0.35125961091E+02 -0.42060128917E+01  0.15713732835E+03  0.16107040328E+03  0.10566000000E+00 0. -1.
        994    1    1    2    0    0 -0.32841079816E+02  0.22196193655E+01  0.72606732259E+01  0.17448673477E+03  0.17120000000E+03 0.  0.
        998    1    1    2    0    0 -0.22848812749E+01  0.19863935262E+01  0.13356019947E+04  0.13356428620E+04  0.10000000000E+02 0. -1.
</event>
<event>
 5    1  0.1188761E-008  0.3861562E+03  0.7957747E-01  0.3424783E+00
         13   -1    0    0    0    0  0.00000000000E+00  0.00000000000E+00  0.14999999963E+04  0.15000000000E+04  0.10566000000E+00 0.  1.
        994   -1    0    0    0    0 -0.00000000000E+00 -0.00000000000E+00  0.11368683772E-12  0.17120000000E+03  0.17120000000E+03 0.  0.
         13    1    1    2    0    0  0.86486407763E+00 -0.11252538778E+02  0.59250242112E+02  0.60315586486E+02  0.10566000000E+00 0.  1.
        994    1    1    2    0    0 -0.28425797576E+01  0.11558179287E+02  0.15214789351E+01  0.17162000660E+03  0.17120000000E+03 0.  0.
        998    1    1    2    0    0  0.19777156800E+01 -0.30564050925E+00  0.14392282752E+04  0.14392644069E+04  0.10000000000E+02 0.  1.
</event>
<event>
 5    1  0.1068111E-008  0.3752659E+03  0.7957747E-01  0.3472035E+00
         13   -1    0    0    0    0  0.00000000000E+00  0.00000000000E+00  0.14999999963E+04  0.15000000000E+04  0.10566000000E+00 0.  1.
        994   -1    0    0    0    0 -0.00000000000E+00 -0.00000000000E+00  0.11368683772E-12  0.17120000000E+03  0.17120000000E+03 0.  0.
         13    1    1    2    0    0 -0.64000277327E+01 -0.33702912672E+02  0.85949608614E+02  0.92542925513E+02  0.10566000000E+00 0.  1.
        994    1    1    2    0    0  0.15451782788E+02  0.23589488465E+02  0.92476875786E+01  0.17375321949E+03  0.17120000000E+03 0.  0.
        998    1    1    2    0    0 -0.90517550557E+01  0.10113424207E+02  0.14048027001E+04  0.14049038550E+04  0.10000000000E+02 0.  1.
</event>
<event>
 5    1  0.1068111E-008  0.3828144E+03  0.7957747E-01  0.3438995E+00
         13   -1    0    0    0    0  0.00000000000E+00  0.00000000000E+00  0.14999999963E+04  0.15000000000E+04  0.10566000000E+00 0.  1.
        994   -1    0    0    0    0 -0.00000000000E+00 -0.00000000000E+00  0.11368683772E-12  0.17120000000E+03  0.17120000000E+03 0.  0.
         13    1    1    2    0    0 -0.89540926158E+01  0.51596253699E+01  0.18645824110E+02  0.21318429335E+02  0.10566000000E+00 0.  1.
        994    1    1    2    0    0  0.46916798777E+01 -0.47257768270E+01  0.28660604913E+01  0.17135343338E+03  0.17120000000E+03 0.  0.
        998    1    1    2    0    0  0.42624127381E+01 -0.43384854284E+00  0.14784881117E+04  0.14785281373E+04  0.10000000000E+02 0.  1.
</event>
<event>
 5    1  0.1068111E-008  0.3826479E+03  0.7957747E-01  0.3439709E+00
         13   -1    0    0    0    0  0.00000000000E+00  0.00000000000E+00  0.14999999963E+04  0.15000000000E+04  0.10566000000E+00 0.  1.
        994   -1    0    0    0    0 -0.00000000000E+00 -0.00000000000E+00  0.11368683772E-12  0.17120000000E+03  0.17120000000E+03 0.  0.
         13    1    1    2    0    0 -0.17472333013E+02 -0.20990250727E+01  0.56665545478E+02  0.59335348111E+02  0.10566000000E+00 0.  1.
        994    1    1    2    0    0  0.74348337942E+00  0.17818483937E+02  0.38571473861E+01  0.17216959291E+03  0.17120000000E+03 0.  0.
        998    1    1    2    0    0  0.16728849633E+02 -0.15719458864E+02  0.14394773034E+04  0.14396950590E+04  0.10000000000E+02 0.  1.
</event>
<event>
 5    1  0.1068111E-008  0.3838628E+03  0.7957747E-01  0.3434510E+00
         13   -1    0    0    0    0  0.00000000000E+00  0.00000000000E+00  0.14999999963E+04  0.15000000000E+04  0.10566000000E+00 0.  1.
        994   -1    0    0    0    0 -0.00000000000E+00 -0.00000000000E+00  0.11368683772E-12  0.17120000000E+03  0.17120000000E+03 0.  0.
         13    1    1    2    0    0  0.14925420367E+02 -0.14903841052E+01  0.50279453467E+02  0.52469267414E+02  0.10566000000E+00 0.  1.
        994    1    1    2    0    0 -0.11882081343E+02 -0.10989186250E+01  0.26659442728E+01  0.17163606479E+03  0.17120000000E+03 0.  0.
        998    1    1    2    0    0 -0.30433390243E+01  0.25893027302E+01  0.14470545985E+04  0.14470946678E+04  0.10000000000E+02 0.  1.
</event>
<event>
 5    1  0.1068111E-008  0.3836087E+03  0.7957747E-01  0.3435594E+00
         13   -1    0    0    0    0  0.00000000000E+00  0.00000000000E+00  0.14999999963E+04  0.15000000000E+04  0.10566000000E+00 0. -1.
        994   -1    0    0    0    0 -0.00000000000E+00 -0.00000000000E+00  0.11368683772E-12  0.17120000000E+03  0.17120000000E+03 0.  0.
         13    1    1    2    0    0  0.19562272495E+02 -0.91982889546E+01  0.99269248536E+02  0.10159569820E+03  0.10566000000E+00 0. -1.
        994    1    1    2    0    0 -0.20537579910E+02 -0.84102673762E+01  0.39512348675E+01  0.17267766805E+03  0.17120000000E+03 0.  0.
        998    1    1    2    0    0  0.97530741487E+00  0.17608556331E+02  0.13967795129E+04  0.13969266337E+04  0.10000000000E+02 0. -1.
</event>
<event>
 5    1  0.1068111E-008  0.3791272E+03  0.7957747E-01  0.3454968E+00
         13   -1    0    0    0    0  0.00000000000E+00  0.00000000000E+00  0.14999999963E+04  0.15000000000E+04  0.10566000000E+00 0.  1.
        994   -1    0    0    0    0 -0.00000000000E+00 -0.00000000000E+00  0.11368683772E-12  0.17120000000E+03  0.17120000000E+03 0.  0.
         13    1    1    2    0    0  0.64704476158E+02  0.14041833306E+03  0.83376823379E+03  0.84798199058E+03  0.10566000000E+00 0.  1.
        994    1    1    2    0    0 -0.33829740537E+02 -0.17443486577E+03  0.11894366655E+03  0.27391423759E+03  0.17120000000E+03 0.  0.
        998    1    1    2    0    0 -0.30874735621E+02  0.34016532711E+02  0.54728809594E+03  0.54930377184E+03  0.10000000000E+02 0.  1.
</event>
<event>
 5    1  0.1068111E-008  0.3790234E+03  0.7957747E-01  0.3455422E+00
         13   -1    0    0    0    0  0.00000000000E+00  0.00000000000E+00  0.14999999963E+04  0.15000000000E+04  0.10566000000E+00 0.  1.
        994   -1    0    0    0    0 -0.00000000000E+00 -0.00000000000E+00  0.11368683772E-12  0.17120000000E+03  0.17120000000E+03 0.  0.
         13    1    1    2    0    0  0.14817918495E+02  0.22349213492E+02  0.86231926865E+02  0.90305118499E+02  0.10566000000E+00 0.  1.
        994    1    1    2    0    0 -0.13883947811E+02  0.21354039433E+02  0.68057319349E+01  0.17321811970E+03  0.17120000000E+03 0.  0.
        998    1    1    2    0    0 -0.93397068396E+00 -0.43703252924E+02  0.14069623375E+04  0.14076767618E+04  0.10000000000E+02 0.  1.
</event>
<event>
 5    1  0.1068111E-008  0.3836433E+03  0.7957747E-01  0.3435447E+00
         13   -1    0    0    0    0  0.00000000000E+00  0.00000000000E+00  0.14999999963E+04  0.15000000000E+04  0.10566000000E+00 0.  1.
        994   -1    0    0    0    0 -0.00000000000E+00 -0.00000000000E+00  0.11368683772E-12  0.17120000000E+03  0.17120000000E+03 0.  0.
         13    1    1    2    0    0 -0.15731429329E+02  0.12306842918E+02  0.86285584178E+02  0.88567203028E+02  0.10566000000E+00 0.  1.
        994    1    1    2    0    0  0.10111597581E+02 -0.66855383298E+01  0.27907426883E+01  0.17165130082E+03  0.17120000000E+03 0.  0.
        998    1    1    2    0    0  0.56198317480E+01 -0.56213045878E+01  0.14109236694E+04  0.14109814962E+04  0.10000000000E+02 0.  1.
</event>
<event>
 5    1  0.1068111E-008  0.3742642E+03  0.7957747E-01  0.3476520E+00
         13   -1    0    0    0    0  0.00000000000E+00  0.00000000000E+00  0.14999999963E+04  0.15000000000E+04  0.10566000000E+00 0. -1.
        994   -1    0    0    0    0 -0.00000000000E+00 -0.00000000000E+00  0.11368683772E-12  0.17120000000E+03  0.17120000000E+03 0.  0.
         13    1    1    2    0    0 -0.10155603041E+02  0.13183515189E+01  0.41834747408E+01  0.11062863499E+02  0.10566000000E+00 0. -1.
        994    1    1    2    0    0  0.47856598540E+01 -0.37907685069E+01  0.71841050112E+01  0.17145939412E+03  0.17120000000E+03 0.  0.
        998    1    1    2    0    0  0.53699431871E+01  0.24724169880E+01  0.14886324165E+04  0.14886777424E+04  0.10000000000E+02 0. -1.
</event>
<event>
 5    1  0.1068111E-008  0.3730512E+03  0.7957747E-01  0.3481985E+00
         13   -1    0    0    0    0  0.00000000000E+00  0.00000000000E+00  0.14999999963E+04  0.15000000000E+04  0.10566000000E+00 0. -1.
        994   -1    0    0    0    0 -0.00000000000E+00 -0.00000000000E+00  0.11368683772E-12  0.17120000000E+03  0.17120000000E+03 0.  0.
         13    1    1    2    0    0  0.17711845717E+02 -0.74460008895E+00  0.69226695038E+01  0.19031511371E+02  0.10566000000E+00 0. -1.
        994    1    1    2    0    0 -0.12151941575E+02 -0.33180886795E+01  0.13122265680E+02  0.17216362349E+03  0.17120000000E+03 0.  0.
        998    1    1    2    0    0 -0.55599041415E+01  0.40626887684E+01  0.14799550611E+04  0.14800048651E+04  0.10000000000E+02 0. -1.
</event>
<event>
 5    1  0.1068111E-008  0.3827948E+03  0.7957747E-01  0.3439079E+00
         13   -1    0    0    0    0  0.00000000000E+00  0.00000000000E+00  0.14999999963E+04  0.15000000000E+04  0.10566000000E+00 0.  1.
        994   -1    0    0    0    0 -0.00000000000E+00 -0.00000000000E+00  0.11368683772E-12  0.17120000000E+03  0.17120000000E+03 0.  0.
         13    1    1    2    0    0 -0.31622669175E+02 -0.68952713913E+01  0.18073981201E+03  0.18361489260E+03  0.10566000000E+00 0.  1.
        994    1    1    2    0    0  0.38147727149E+02 -0.37594132099E+02  0.12289350872E+02  0.17980276972E+03  0.17120000000E+03 0.  0.
        998    1    1    2    0    0 -0.65250579741E+01  0.44489403490E+02  0.13069708334E+04  0.13077823377E+04  0.10000000000E+02 0.  1.
</event>
<event>
 5    1  0.1068111E-008  0.3854842E+03  0.7957747E-01  0.3427621E+00
         13   -1    0    0    0    0  0.00000000000E+00  0.00000000000E+00  0.14999999963E+04  0.15000000000E+04  0.10566000000E+00 0.  1.
        994   -1    0    0    0    0 -0.00000000000E+00 -0.00000000000E+00  0.11368683772E-12  0.17120000000E+03  0.17120000000E+03 0.  0.
         13    1    1    2    0    0 -0.29121985731E+01 -0.10622718811E+02  0.43583097280E+02  0.44953538104E+02  0.10566000000E+00 0.  1.
        994    1    1    2    0    0  0.25097681066E+01  0.78990682944E+01  0.16155324593E+01  0.17140812163E+03  0.17120000000E+03 0.  0.
        998    1    1    2    0    0  0.40243046652E+00  0.27236505166E+01  0.14548013665E+04  0.14548383403E+04  0.10000000000E+02 0.  1.
</event>
<event>
 5    1  0.1068111E-008  0.3759027E+03  0.7957747E-01  0.3469195E+00
         13   -1    0    0    0    0  0.00000000000E+00  0.00000000000E+00  0.14999999963E+04  0.15000000000E+04  0.10566000000E+00 0. -1.
        994   -1    0    0    0    0 -0.00000000000E+00 -0.00000000000E+00  0.11368683772E-12  0.17120000000E+03  0.17120000000E+03 0.  0.
         13    1    1    2    0    0  0.17593278714E+02 -0.10354753616E+02  0.30483493808E+02  0.36687858170E+02  0.10566000000E+00 0. -1.
        994    1    1    2    0    0 -0.20902928712E+02  0.33853693018E+01  0.77369298373E+01  0.17267800450E+03  0.17120000000E+03 0.  0.
        998    1    1    2    0    0  0.33096499983E+01  0.69693843137E+01  0.14617795726E+04  0.14618341373E+04  0.10000000000E+02 0. -1.
</event>
<event>
 5    1  0.1068111E-008  0.3769315E+03  0.7957747E-01  0.3464629E+00
         13   -1    0    0    0    0  0.00000000000E+00  0.00000000000E+00  0.14999999963E+04  0.15000000000E+04  0.10566000000E+00 0.  1.
        994   -1    0    0    0    0 -0.00000000000E+00 -0.00000000000E+00  0.11368683772E-12  0.17120000000E+03  0.17120000000E+03 0.  0.
         13    1    1    2    0    0  0.39883960458E+02  0.36215834943E+02  0.21087227911E+03  0.21764523028E+03  0.10566000000E+00 0.  1.
        994    1    1    2    0    0 -0.47380496372E+02 -0.36155684703E+02  0.17782085628E+02  0.18214770803E+03  0.17120000000E+03 0.  0.
        998    1    1    2    0    0  0.74965359137E+01 -0.60150240485E-01  0.12713456315E+04  0.12714070617E+04  0.10000000000E+02 0.  1.
</event>
<event>
 5    1  0.1068111E-008  0.3719656E+03  0.7957747E-01  0.3486906E+00
         13   -1    0    0    0    0  0.00000000000E+00  0.00000000000E+00  0.14999999963E+04  0.15000000000E+04  0.10566000000E+00 0. -1.
        994   -1    0    0    0    0 -0.00000000000E+00 -0.00000000000E+00  0.11368683772E-12  0.17120000000E+03  0.17120000000E+03 0.  0.
         13    1    1    2    0    0  0.23078090743E+01  0.29444383748E+02  0.51641951069E+02  0.59491175743E+02  0.10566000000E+00 0. -1.
        994    1    1    2    0    0  0.11839916558E+02 -0.77309196702E+01  0.89322777016E+01  0.17201504681E+03  0.17120000000E+03 0.  0.
        998    1    1    2    0    0 -0.14147725632E+02 -0.21713464078E+02  0.14394257675E+04  0.14396937775E+04  0.10000000000E+02 0. -1.
</event>
<event>
 5    1  0.1068111E-008  0.3752992E+03  0.7957747E-01  0.3471886E+00
         13   -1    0    0    0    0  0.00000000000E+00  0.00000000000E+00  0.14999999963E+04  0.15000000000E+04  0.10566000000E+00 0. -1.
        994   -1    0    0    0    0 -0.00000000000E+00 -0.00000000000E+00  0.11368683772E-12  0.17120000000E+03  0.17120000000E+03 0.  0.
         13    1    1    2    0    0 -0.12364457937E+02  0.18772045091E+01 -0.69459299260E+00  0.12525866849E+02  0.10566000000E+00 0. -1.
        994    1    1    2    0    0  0.96777398345E+01 -0.53057994517E+01  0.14202765931E+02  0.17214229206E+03  0.17120000000E+03 0.  0.
        998    1    1    2    0    0  0.26867181027E+01  0.34285949426E+01  0.14864918233E+04  0.14865318411E+04  0.10000000000E+02 0. -1.
</event>
<event>
 5    1  0.1068111E-008  0.3691194E+03  0.7957747E-01  0.3499948E+00
         13   -1    0    0    0    0  0.00000000000E+00  0.00000000000E+00  0.14999999963E+04  0.15000000000E+04  0.10566000000E+00 0. -1.
        994   -1    0    0    0    0 -0.00000000000E+00 -0.00000000000E+00  0.11368683772E-12  0.17120000000E+03  0.17120000000E+03 0.  0.
         13    1    1    2    0    0  0.12410757798E+02 -0.15145960865E+02  0.15630325655E+02  0.25054845515E+02  0.10566000000E+00 0. -1.
        994    1    1    2    0    0 -0.15672611851E+02 -0.12187901970E+00  0.10582456596E+02  0.17224132490E+03  0.17120000000E+03 0.  0.
        998    1    1    2    0    0  0.32618540530E+01  0.15267839884E+02  0.14737872140E+04  0.14739038296E+04  0.10000000000E+02 0. -1.
</event>
<event>
 5    1  0.1068111E-008  0.3806299E+03  0.7957747E-01  0.3448420E+00
         13   -1    0    0    0    0  0.00000000000E+00  0.00000000000E+00  0.14999999963E+04  0.15000000000E+04  0.10566000000E+00 0.  1.
        994   -1    0    0    0    0 -0.00000000000E+00 -0.00000000000E+00  0.11368683772E-12  0.17120000000E+03  0.17120000000E+03 0.  0.
         13    1    1    2    0    0  0.43021630109E+01 -0.14329993917E+02  0.27605537262E+02  0.31399588911E+02  0.10566000000E+00 0.  1.
        994    1    1    2    0    0 -0.60357990312E+01  0.11620575677E+02  0.43877400165E+01  0.17175610880E+03  0.17120000000E+03 0.  0.
        998    1    1    2    0    0  0.17336360203E+01  0.27094182400E+01  0.14680067190E+04  0.14680443023E+04  0.10000000000E+02 0.  1.
</event>
<event>
 5    1  0.1068111E-008  0.3790507E+03  0.7957747E-01  0.3455303E+00
         13   -1    0    0    0    0  0.00000000000E+00  0.00000000000E+00  0.14999999963E+04  0.15000000000E+04  0.10566000000E+00 0. -1.
        994   -1    0    0    0    0 -0.00000000000E+00 -0.00000000000E+00  0.11368683772E-12  0.17120000000E+03  0.17120000000E+03 0.  0.
         13    1    1    2    0    0 -0.20041815772E+02 -0.31520510054E-01  0.39825944124E+02  0.44584665103E+02  0.10566000000E+00 0. -1.
        994    1    1    2    0    0  0.27585635282E+02 -0.73100770027E+01  0.73490042172E+01  0.17371773762E+03  0.17120000000E+03 0.  0.
        998    1    1    2    0    0 -0.75438195099E+01  0.73415975127E+01  0.14528250479E+04  0.14528975973E+04  0.10000000000E+02 0. -1.
</event>
<event>
 5    1  0.1068111E-008  0.3804272E+03  0.7957747E-01  0.3449300E+00
         13   -1    0    0    0    0  0.00000000000E+00  0.00000000000E+00  0.14999999963E+04  0.15000000000E+04  0.10566000000E+00 0.  1.
        994   -1    0    0    0    0 -0.00000000000E+00 -0.00000000000E+00  0.11368683772E-12  0.17120000000E+03  0.17120000000E+03 0.  0.
         13    1    1    2    0    0  0.25744269799E+02 -0.43764897631E+02  0.24378597623E+03  0.24901756376E+03  0.10566000000E+00 0.  1.
        994    1    1    2    0    0 -0.47478113691E+02  0.48764470409E+02  0.19538683684E+02  0.18526560667E+03  0.17120000000E+03 0.  0.
        998    1    1    2    0    0  0.21733843892E+02 -0.49995727785E+01  0.12366753364E+04  0.12369168296E+04  0.10000000000E+02 0.  1.
</event>
<event>
 5    1  0.1068111E-008  0.3805183E+03  0.7957747E-01  0.3448905E+00
         13   -1    0    0    0    0  0.00000000000E+00  0.00000000000E+00  0.14999999963E+04  0.15000000000E+04  0.10566000000E+00 0.  1.
        994   -1    0    0    0    0 -0.00000000000E+00 -0.00000000000E+00  0.11368683772E-12  0.17120000000E+03  0.17120000000E+03 0.  0.
         13    1    1    2    0    0  0.22983073551E+02  0.11510950842E+02  0.65951027599E+02  0.70783280968E+02  0.10566000000E+00 0.  1.
        994    1    1    2    0    0 -0.69015160924E+02 -0.23760893010E+02  0.21860756361E+02  0.18738998144E+03  0.17120000000E+03 0.  0.
        998    1    1    2    0    0  0.46032087372E+02  0.12249942168E+02  0.14121882123E+04  0.14130267376E+04  0.10000000000E+02 0.  1.
</event>
<event>
 5    1  0.1068111E-008  0.3719031E+03  0.7957747E-01  0.3487190E+00
         13   -1    0    0    0    0  0.00000000000E+00  0.00000000000E+00  0.14999999963E+04  0.15000000000E+04  0.10566000000E+00 0.  1.
        994   -1    0    0    0    0 -0.00000000000E+00 -0.00000000000E+00  0.11368683772E-12  0.17120000000E+03  0.17120000000E+03 0.  0.
         13    1    1    2    0    0 -0.47000855092E+02 -0.46717612356E+02  0.28204492292E+03  0.28972567265E+03  0.10566000000E+00 0.  1.
        994    1    1    2    0    0  0.26893256354E+02  0.12146626192E+02  0.11274791543E+02  0.17409005913E+03  0.17120000000E+03 0.  0.
        998    1    1    2    0    0  0.20107598737E+02  0.34570986164E+02  0.12066802818E+04  0.12073842682E+04  0.10000000000E+02 0.  1.
</event>
<event>
 5    1  0.1068111E-008  0.3845351E+03  0.7957747E-01  0.3431646E+00
         13   -1    0    0    0    0  0.00000000000E+00  0.00000000000E+00  0.14999999963E+04  0.15000000000E+04  0.10566000000E+00 0.  1.
        994   -1    0    0    0    0 -0.00000000000E+00 -0.00000000000E+00  0.11368683772E-12  0.17120000000E+03  0.17120000000E+03 0.  0.
         13    1    1    2    0    0 -0.16894146337E+02 -0.14879090376E+01  0.83182385510E+02  0.84893736383E+02  0.10566000000E+00 0.  1.
        994    1    1    2    0    0 -0.64047759294E+00  0.51002405309E+01  0.19481747785E+01  0.17128823091E+03  0.17120000000E+03 0.  0.
        998    1    1    2    0    0  0.17534623930E+02 -0.36123314933E+01  0.14148694360E+04  0.14150180327E+04  0.10000000000E+02 0.  1.
</event>
<event>
 5    1  0.1068111E-008  0.3812991E+03  0.7957747E-01  0.3445521E+00
         13   -1    0    0    0    0  0.00000000000E+00  0.00000000000E+00  0.14999999963E+04  0.15000000000E+04  0.10566000000E+00 0. -1.
        994   -1    0    0    0    0 -0.00000000000E+00 -0.00000000000E+00  0.11368683772E-12  0.17120000000E+03  0.17120000000E+03 0.  0.
         13    1    1    2    0    0  0.17727729713E+01  0.12732520112E+02  0.21892139191E+02  0.25387727641E+02  0.10566000000E+00 0. -1.
        994    1    1    2    0    0  0.24812181820E+01 -0.16732185910E+02  0.44317629006E+01  0.17209068252E+03  0.17120000000E+03 0.  0.
        998    1    1    2    0    0 -0.42539911533E+01  0.39996657985E+01  0.14736760942E+04  0.14737215898E+04  0.10000000000E+02 0. -1.
</event>
<event>
 5    1  0.1068111E-008  0.3787890E+03  0.7957747E-01  0.3456448E+00
         13   -1    0    0    0    0  0.00000000000E+00  0.00000000000E+00  0.14999999963E+04  0.15000000000E+04  0.10566000000E+00 0. -1.
        994   -1    0    0    0    0 -0.00000000000E+00 -0.00000000000E+00  0.11368683772E-12  0.17120000000E+03  0.17120000000E+03 0.  0.
         13    1    1    2    0    0  0.13907096642E+02 -0.71180713648E+01  0.24232321576E+02  0.28832114906E+02  0.10566000000E+00 0. -1.
        994    1    1    2    0    0  0.48704853554E+00  0.85010627089E+01  0.49890833461E+01  0.17148421571E+03  0.17120000000E+03 0.  0.
        998    1    1    2    0    0 -0.14394145178E+02 -0.13829913441E+01  0.14707785914E+04  0.14708836694E+04  0.10000000000E+02 0. -1.
</event>
<event>
 5    1  0.1068111E-008  0.3833759E+03  0.7957747E-01  0.3436590E+00
         13   -1    0    0    0    0  0.00000000000E+00  0.00000000000E+00  0.14999999963E+04  0.15000000000E+04  0.10566000000E+00 0. -1.
        994   -1    0    0    0    0 -0.00000000000E+00 -0.00000000000E+00  0.11368683772E-12  0.17120000000E+03  0.17120000000E+03 0.  0.
         13    1    1    2    0    0 -0.14062039729E+02  0.33064888781E+01  0.44419769990E+02  0.46709752301E+02  0.10566000000E+00 0. -1.
        994    1    1    2    0    0 -0.37766626324E+01 -0.51329867985E+01  0.25729188612E+01  0.17133788444E+03  0.17120000000E+03 0.  0.
        998    1    1    2    0    0  0.17838702362E+02  0.18264979204E+01  0.14530073074E+04  0.14531523633E+04  0.10000000000E+02 0. -1.
</event>
<event>
 5    1  0.1068111E-008  0.3814911E+03  0.7957747E-01  0.3444692E+00
         13   -1    0    0    0    0  0.00000000000E+00  0.00000000000E+00  0.14999999963E+04  0.15000000000E+04  0.10566000000E+00 0. -1.
        994   -1    0    0    0    0 -0.00000000000E+00 -0.00000000000E+00  0.11368683772E-12  0.17120000000E+03  0.17120000000E+03 0.  0.
         13    1    1    2    0    0 -0.33718088908E+01  0.27153910972E+02  0.15228558919E+03  0.15472432199E+03  0.10566000000E+00 0. -1.
        994    1    1    2    0    0 -0.10377464816E+01  0.28027366702E+02  0.60034355035E+01  0.17358597708E+03  0.17120000000E+03 0.  0.
        998    1    1    2    0    0  0.44095553724E+01 -0.55181277674E+02  0.13417109716E+04  0.13428897009E+04  0.10000000000E+02 0. -1.
</event>
<event>
 5    1  0.1068111E-008  0.3832443E+03  0.7957747E-01  0.3437152E+00
         13   -1    0    0    0    0  0.00000000000E+00  0.00000000000E+00  0.14999999963E+04  0.15000000000E+04  0.10566000000E+00 0.  1.
        994   -1    0    0    0    0 -0.00000000000E+00 -0.00000000000E+00  0.11368683772E-12  0.17120000000E+03  0.17120000000E+03 0.  0.
         13    1    1    2    0    0 -0.63571344886E+01 -0.14973848973E+02  0.58630489338E+02  0.60845499061E+02  0.10566000000E+00 0.  1.
        994    1    1    2    0    0  0.45941565629E+01 -0.15582413289E+02  0.33776898967E+01  0.17200222867E+03  0.17120000000E+03 0.  0.
        998    1    1    2    0    0  0.17629779257E+01  0.30556262263E+02  0.14379918170E+04  0.14383522723E+04  0.10000000000E+02 0.  1.
</event>
<event>
 5    1  0.1068111E-008  0.3838215E+03  0.7957747E-01  0.3434686E+00
         13   -1    0    0    0    0  0.00000000000E+00  0.00000000000E+00  0.14999999963E+04  0.15000000000E+04  0.10566000000E+00 0. -1.
        994   -1    0    0    0    0 -0.00000000000E+00 -0.00000000000E+00  0.11368683772E-12  0.17120000000E+03  0.17120000000E+03 0.  0.
         13    1    1    2    0    0 -0.82499701040E+01 -0.74262337994E+01  0.26333727522E+02  0.28577741765E+02  0.10566000000E+00 0. -1.
        994    1    1    2    0    0  0.11189756189E+02  0.10993932136E+02  0.30291401309E+01  0.17194386548E+03  0.17120000000E+03 0.  0.
        998    1    1    2    0    0 -0.29397860848E+01 -0.35676983369E+01  0.14706371286E+04  0.14706783928E+04  0.10000000000E+02 0. -1.
</event>
<event>
 5    1  0.1068111E-008  0.3859962E+03  0.7957747E-01  0.3425458E+00
         13   -1    0    0    0    0  0.00000000000E+00  0.00000000000E+00  0.14999999963E+04  0.15000000000E+04  0.10566000000E+00 0.  1.
        994   -1    0    0    0    0 -0.00000000000E+00 -0.00000000000E+00  0.11368683772E-12  0.17120000000E+03  0.17120000000E+03 0.  0.
         13    1    1    2    0    0 -0.10736597686E+01 -0.10668994138E+02  0.56500565426E+02  0.57509175257E+02  0.10566000000E+00 0.  1.
        994    1    1    2    0    0  0.12050164999E+01 -0.67392151390E+01  0.12900230312E+01  0.17134168566E+03  0.17120000000E+03 0.  0.
        998    1    1    2    0    0 -0.13135673127E+00  0.17408209277E+02  0.14422094078E+04  0.14423491391E+04  0.10000000000E+02 0.  1.
</event>
<event>
 5    1  0.1068111E-008  0.3823936E+03  0.7957747E-01  0.3440802E+00
         13   -1    0    0    0    0  0.00000000000E+00  0.00000000000E+00  0.14999999963E+04  0.15000000000E+04  0.10566000000E+00 0.  1.
        994   -1    0    0    0    0 -0.00000000000E+00 -0.00000000000E+00  0.11368683772E-12  0.17120000000E+03  0.17120000000E+03 0.  0.
         13    1    1    2    0    0  0.23712002934E+02  0.14328425618E+02  0.12386548182E+03  0.12692608721E+03  0.10566000000E+00 0.  1.
        994    1    1    2    0    0 -0.20437143576E+02 -0.12732416084E+02  0.48550844230E+01  0.17295318182E+03  0.17120000000E+03 0.  0.
        998    1    1    2    0    0 -0.32748593584E+01 -0.15960095336E+01  0.13712794300E+04  0.13713207310E+04  0.10000000000E+02 0.  1.
</event>
<event>
 5    1  0.1068111E-008  0.3799674E+03  0.7957747E-01  0.3451300E+00
         13   -1    0    0    0    0  0.00000000000E+00  0.00000000000E+00  0.14999999963E+04  0.15000000000E+04  0.10566000000E+00 0. -1.
        994   -1    0    0    0    0 -0.00000000000E+00 -0.00000000000E+00  0.11368683772E-12  0.17120000000E+03  0.17120000000E+03 0.  0.
         13    1    1    2    0    0  0.11060269676E+01 -0.10105609619E+02  0.10558944465E+02  0.14657732214E+02  0.10566000000E+00 0. -1.
        994    1    1    2    0    0  0.48789960085E+00  0.99494899731E+01  0.44814268839E+01  0.17154810866E+03  0.17120000000E+03 0.  0.
        998    1    1    2    0    0 -0.15939265684E+01  0.15611964561E+00  0.14849596249E+04  0.14849941591E+04  0.10000000000E+02 0. -1.
</event>
<event>
 5    1  0.1068111E-008  0.3688833E+03  0.7957747E-01  0.3501039E+00
         13   -1    0    0    0    0  0.00000000000E+00  0.00000000000E+00  0.14999999963E+04  0.15000000000E+04  0.10566000000E+00 0.  1.
        994   -1    0    0    0    0 -0.00000000000E+00 -0.00000000000E+00  0.11368683772E-12  0.17120000000E+03  0.17120000000E+03 0.  0.
         13    1    1    2    0    0 -0.61825588707E+01 -0.20230907114E+02  0.16577894752E+02  0.26876595679E+02  0.10566000000E+00 0.  1.
        994    1    1    2    0    0  0.33497750957E+02  0.20345909168E+02  0.15717691387E+02  0.17633077202E+03  0.17120000000E+03 0.  0.
        998    1    1    2    0    0 -0.27315192086E+02 -0.11500205393E+00  0.14677044101E+04  0.14679926323E+04  0.10000000000E+02 0.  1.
</event>
<event>
 5    1  0.1068111E-008  0.3732169E+03  0.7957747E-01  0.3481236E+00
         13   -1    0    0    0    0  0.00000000000E+00  0.00000000000E+00  0.14999999963E+04  0.15000000000E+04  0.10566000000E+00 0.  1.
        994   -1    0    0    0    0 -0.00000000000E+00 -0.00000000000E+00  0.11368683772E-12  0.17120000000E+03  0.17120000000E+03 0.  0.
         13    1    1    2    0    0  0.29298035753E+02 -0.47183824483E+02  0.18610960669E+03  0.19422019735E+03  0.10566000000E+00 0.  1.
        994    1    1    2    0    0 -0.39756799092E+02  0.30067253191E+02  0.16142263935E+02  0.17903813972E+03  0.17120000000E+03 0.  0.
        998    1    1    2    0    0  0.10458763339E+02  0.17116571292E+02  0.12977481257E+04  0.12979416629E+04  0.10000000000E+02 0.  1.
</event>
<event>
 5    1  0.1068111E-008  0.3858402E+03  0.7957747E-01  0.3426116E+00
         13   -1    0    0    0    0  0.00000000000E+00  0.00000000000E+00  0.14999999963E+04  0.15000000000E+04  0.10566000000E+00 0.  1.
        994   -1    0    0    0    0 -0.00000000000E+00 -0.00000000000E+00  0.11368683772E-12  0.17120000000E+03  0.17120000000E+03 0.  0.
         13    1    1    2    0    0 -0.39978713857E+00  0.10208365393E+02  0.43614999187E+02  0.44795645680E+02  0.10566000000E+00 0.  1.
        994    1    1    2    0    0  0.71595954594E+01 -0.57451366723E+01  0.14899609636E+01  0.17145240268E+03  0.17120000000E+03 0.  0.
        998    1    1    2    0    0 -0.67598083208E+01 -0.44632287209E+01  0.14548950361E+04  0.14549519516E+04  0.10000000000E+02 0.  1.
</event>
<event>
 5    1  0.1068111E-008  0.3821075E+03  0.7957747E-01  0.3442033E+00
         13   -1    0    0    0    0  0.00000000000E+00  0.00000000000E+00  0.14999999963E+04  0.15000000000E+04  0.10566000000E+00 0.  1.
        994   -1    0    0    0    0 -0.00000000000E+00 -0.00000000000E+00  0.11368683772E-12  0.17120000000E+03  0.17120000000E+03 0.  0.
         13    1    1    2    0    0  0.16563043800E+01 -0.10543349911E+02  0.17357726184E+02  0.20376638433E+02  0.10566000000E+00 0.  1.
        994    1    1    2    0    0 -0.67615258776E+00  0.62995722913E+01  0.32063139315E+01  0.17134719794E+03  0.17120000000E+03 0.  0.
        998    1    1    2    0    0 -0.98015179226E+00  0.42437776193E+01  0.14794359562E+04  0.14794761636E+04  0.10000000000E+02 0.  1.
</event>
<event>
 5    1  0.1068111E-008  0.3773506E+03  0.7957747E-01  0.3462776E+00
         13   -1    0    0    0    0  0.00000000000E+00  0.00000000000E+00  0.14999999963E+04  0.15000000000E+04  0.10566000000E+00 0. -1.
        994   -1    0    0    0    0 -0.00000000000E+00 -0.00000000000E+00  0.11368683772E-12  0.17120000000E+03  0.17120000000E+03 0.  0.
         13    1    1    2    0    0 -0.14349245223E+02  0.16866309445E+02  0.41911173443E+02  0.47401802246E+02  0.10566000000E+00 0. -1.
        994    1    1    2    0    0  0.10670198006E+02 -0.17123898250E+02  0.68506390331E+01  0.17252087489E+03  0.17120000000E+03 0.  0.
        998    1    1    2    0    0  0.36790472165E+01  0.25758880442E+00  0.14512381838E+04  0.14512773229E+04  0.10000000000E+02 0. -1.
</event>
<event>
 5    1  0.1068111E-008  0.3833147E+03  0.7957747E-01  0.3436851E+00
         13   -1    0    0    0    0  0.00000000000E+00  0.00000000000E+00  0.14999999963E+04  0.15000000000E+04  0.10566000000E+00 0.  1.
        994   -1    0    0    0    0 -0.00000000000E+00 -0.00000000000E+00  0.11368683772E-12  0.17120000000E+03  0.17120000000E+03 0.  0.
         13    1    1    2    0    0  0.14193133527E+02 -0.56859640425E+01  0.47163206082E+02  0.49579778120E+02  0.10566000000E+00 0.  1.
        994    1    1    2    0    0 -0.73612200972E+01  0.21902842513E+01  0.26642431150E+01  0.17139289104E+03  0.17120000000E+03 0.  0.
        998    1    1    2    0    0 -0.68319134296E+01  0.34956797911E+01  0.14501725471E+04  0.14502273308E+04  0.10000000000E+02 0.  1.
</event>
<event>
 5    1  0.1068111E-008  0.3775624E+03  0.7957747E-01  0.3461841E+00
         13   -1    0    0    0    0  0.00000000000E+00  0.00000000000E+00  0.14999999963E+04  0.15000000000E+04  0.10566000000E+00 0. -1.
        994   -1    0    0    0    0 -0.00000000000E+00 -0.00000000000E+00  0.11368683772E-12  0.17120000000E+03  0.17120000000E+03 0.  0.
         13    1    1    2    0    0 -0.52784996821E+02  0.18406344259E+02  0.33639452568E+03  0.34100782612E+03  0.10566000000E+00 0. -1.
        994    1    1    2    0    0  0.11403809793E+02 -0.14550040702E+02  0.65212817991E+01  0.17231865157E+03  0.17120000000E+03 0.  0.
        998    1    1    2    0    0  0.41381187028E+02 -0.38563035566E+01  0.11570841888E+04  0.11578735223E+04  0.10000000000E+02 0. -1.
</event>
<event>
 5    1  0.1068111E-008  0.3806818E+03  0.7957747E-01  0.3448195E+00
         13   -1    0    0    0    0  0.00000000000E+00  0.00000000000E+00  0.14999999963E+04  0.15000000000E+04  0.10566000000E+00 0.  1.
        994   -1    0    0    0    0 -0.00000000000E+00 -0.00000000000E+00  0.11368683772E-12  0.17120000000E+03  0.17120000000E+03 0.  0.
         13    1    1    2    0    0 -0.72396400739E+01 -0.17608323126E+02  0.45107631474E+02  0.48960953962E+02  0.10566000000E+00 0.  1.
        994    1    1    2    0    0  0.60012698123E+01  0.19479066786E+02  0.51763068389E+01  0.17248676307E+03  0.17120000000E+03 0.  0.
        998    1    1    2    0    0  0.12383702616E+01 -0.18707436601E+01  0.14497160580E+04  0.14497522830E+04  0.10000000000E+02 0.  1.
</event>
<event>
 5    1  0.1068111E-008  0.3816548E+03  0.7957747E-01  0.3443985E+00
         13   -1    0    0    0    0  0.00000000000E+00  0.00000000000E+00  0.14999999963E+04  0.15000000000E+04  0.10566000000E+00 0.  1.
        994   -1    0    0    0    0 -0.00000000000E+00 -0.00000000000E+00  0.11368683772E-12  0.17120000000E+03  0.17120000000E+03 0.  0.
         13    1    1    2    0    0 -0.10628228950E+02  0.33005019731E+02  0.18586703025E+03  0.18907367526E+03  0.10566000000E+00 0.  1.
        994    1    1    2    0    0  0.15787277250E+02 -0.12871055747E+02  0.46807784969E+01  0.17247101753E+03  0.17120000000E+03 0.  0.
        998    1    1    2    0    0 -0.51590482994E+01 -0.20133963984E+02  0.13094521875E+04  0.13096553072E+04  0.10000000000E+02 0.  1.
</event>
<event>
 5    1  0.1068111E-008  0.3729502E+03  0.7957747E-01  0.3482441E+00
         13   -1    0    0    0    0  0.00000000000E+00  0.00000000000E+00  0.14999999963E+04  0.15000000000E+04  0.10566000000E+00 0.  1.
        994   -1    0    0    0    0 -0.00000000000E+00 -0.00000000000E+00  0.11368683772E-12  0.17120000000E+03  0.17120000000E+03 0.  0.
         13    1    1    2    0    0 -0.23886955099E+02  0.27103454567E+02  0.45380838020E+02  0.58005305764E+02  0.10566000000E+00 0.  1.
        994    1    1    2    0    0  0.28262406790E+02 -0.30026857544E+02  0.18538046268E+02  0.17706912484E+03  0.17120000000E+03 0.  0.
        998    1    1    2    0    0 -0.43754516919E+01  0.29234029769E+01  0.14360811120E+04  0.14361255694E+04  0.10000000000E+02 0.  1.
</event>
<event>
 5    1  0.1068111E-008  0.3820080E+03  0.7957747E-01  0.3442462E+00
         13   -1    0    0    0    0  0.00000000000E+00  0.00000000000E+00  0.14999999963E+04  0.15000000000E+04  0.10566000000E+00 0. -1.
        994   -1    0    0    0    0 -0.00000000000E+00 -0.00000000000E+00  0.11368683772E-12  0.17120000000E+03  0.17120000000E+03 0.  0.
         13    1    1    2    0    0 -0.99650183243E+01 -0.89866295056E+00  0.14643524380E+02  0.17735646467E+02  0.10566000000E+00 0. -1.
        994    1    1    2    0    0  0.93907056943E+01  0.28573324117E+01  0.34429886559E+01  0.17151572486E+03  0.17120000000E+03 0.  0.
        998    1    1    2    0    0  0.57431262998E+00 -0.19586694611E+01  0.14819134832E+04  0.14819486287E+04  0.10000000000E+02 0. -1.
</event>
<event>
 5    1  0.1068111E-008  0.3767111E+03  0.7957747E-01  0.3465605E+00
         13   -1    0    0    0    0  0.00000000000E+00  0.00000000000E+00  0.14999999963E+04  0.15000000000E+04  0.10566000000E+00 0.  1.
        994   -1    0    0    0    0 -0.00000000000E+00 -0.00000000000E+00  0.11368683772E-12  0.17120000000E+03  0.17120000000E+03 0.  0.
         13    1    1    2    0    0  0.13518689616E+02  0.14831589059E+02  0.32440025524E+02  0.38145739251E+02  0.10566000000E+00 0.  1.
        994    1    1    2    0    0 -0.19065847587E+02  0.44537586799E+00  0.70328229816E+01  0.17240245214E+03  0.17120000000E+03 0.  0.
        998    1    1    2    0    0  0.55471579704E+01 -0.15276964927E+02  0.14605271478E+04  0.14606518086E+04  0.10000000000E+02 0.  1.
</event>
<event>
 5    1  0.1068111E-008  0.3816996E+03  0.7957747E-01  0.3443791E+00
         13   -1    0    0    0    0  0.00000000000E+00  0.00000000000E+00  0.14999999963E+04  0.15000000000E+04  0.10566000000E+00 0. -1.
        994   -1    0    0    0    0 -0.00000000000E+00 -0.00000000000E+00  0.11368683772E-12  0.17120000000E+03  0.17120000000E+03 0.  0.
         13    1    1    2    0    0  0.33360364307E+01 -0.10158838532E+02  0.16091160795E+02  0.19320138694E+02  0.10566000000E+00 0. -1.
        994    1    1    2    0    0  0.30497775333E+01  0.89909309283E+01  0.35773494333E+01  0.17150036563E+03  0.17120000000E+03 0.  0.
        998    1    1    2    0    0 -0.63858139640E+01  0.11679076041E+01  0.14803314861E+04  0.14803794957E+04  0.10000000000E+02 0. -1.
</event>
<event>
 5    1  0.1068111E-008  0.3706919E+03  0.7957747E-01  0.3492717E+00
         13   -1    0    0    0    0  0.00000000000E+00  0.00000000000E+00  0.14999999963E+04  0.15000000000E+04  0.10566000000E+00 0. -1.
        994   -1    0    0    0    0 -0.00000000000E+00 -0.00000000000E+00  0.11368683772E-12  0.17120000000E+03  0.17120000000E+03 0.  0.
         13    1    1    2    0    0  0.29155923929E+02 -0.89008949782E+02  0.45725892982E+03  0.46675304081E+03  0.10566000000E+00 0. -1.
        994    1    1    2    0    0 -0.46796314956E+02  0.51239760383E+02  0.25706312669E+02  0.18650914897E+03  0.17120000000E+03 0.  0.
        998    1    1    2    0    0  0.17640391027E+02  0.37769189399E+02  0.10170347538E+04  0.10179378102E+04  0.10000000000E+02 0. -1.
</event>
<event>
 5    1  0.1068111E-008  0.3843348E+03  0.7957747E-01  0.3432498E+00
         13   -1    0    0    0    0  0.00000000000E+00  0.00000000000E+00  0.14999999963E+04  0.15000000000E+04  0.10566000000E+00 0.  1.
        994   -1    0    0    0    0 -0.00000000000E+00 -0.00000000000E+00  0.11368683772E-12  0.17120000000E+03  0.17120000000E+03 0.  0.
         13    1    1    2    0    0  0.15614835469E+02  0.77320769407E+01  0.81124328732E+02  0.82974550175E+02  0.10566000000E+00 0.  1.
        994    1    1    2    0    0 -0.63208950633E+00 -0.67551867275E+01  0.21124745383E+01  0.17134740918E+03  0.17120000000E+03 0.  0.
        998    1    1    2    0    0 -0.14982745963E+02 -0.97689021324E+00  0.14167631930E+04  0.14168780406E+04  0.10000000000E+02 0.  1.
</event>
<event>
 5    1  0.1068111E-008  0.3793385E+03  0.7957747E-01  0.3454044E+00
         13   -1    0    0    0    0  0.00000000000E+00  0.00000000000E+00  0.14999999963E+04  0.15000000000E+04  0.10566000000E+00 0.  1.
        994   -1    0    0    0    0 -0.00000000000E+00 -0.00000000000E+00  0.11368683772E-12  0.17120000000E+03  0.17120000000E+03 0.  0.
         13    1    1    2    0    0  0.12350352160E+02  0.25616221807E+02  0.12192207490E+03  0.12519475041E+03  0.10566000000E+00 0.  1.
        994    1    1    2    0    0  0.28953014059E+02  0.27285486400E+02  0.97884011499E+01  0.17603416597E+03  0.17120000000E+03 0.  0.
        998    1    1    2    0    0 -0.41303366219E+02 -0.52901708207E+02  0.13682895202E+04  0.13699710836E+04  0.10000000000E+02 0.  1.
</event>
<event>
 5    1  0.1068111E-008  0.3847944E+03  0.7957747E-01  0.3430545E+00
         13   -1    0    0    0    0  0.00000000000E+00  0.00000000000E+00  0.14999999963E+04  0.15000000000E+04  0.10566000000E+00 0. -1.
        994   -1    0    0    0    0 -0.00000000000E+00 -0.00000000000E+00  0.11368683772E-12  0.17120000000E+03  0.17120000000E+03 0.  0.
         13    1    1    2    0    0 -0.12453092623E+02  0.61833890071E+01  0.52579667350E+02  0.54387005784E+02  0.10566000000E+00 0. -1.
        994    1    1    2    0    0  0.18225320972E+02 -0.73922967355E+01  0.30062034772E+01  0.17235221390E+03  0.17120000000E+03 0.  0.
        998    1    1    2    0    0 -0.57722283483E+01  0.12089077284E+01  0.14444141255E+04  0.14444607803E+04  0.10000000000E+02 0. -1.
</event>
<event>
 5    1  0.1068111E-008  0.3851641E+03  0.7957747E-01  0.3428976E+00
         13   -1    0    0    0    0  0.00000000000E+00  0.00000000000E+00  0.14999999963E+04  0.15000000000E+04  0.10566000000E+00 0. -1.
        994   -1    0    0    0    0 -0.00000000000E+00 -0.00000000000E+00  0.11368683772E-12  0.17120000000E+03  0.17120000000E+03 0.  0.
         13    1    1    2    0    0 -0.92973449887E+01 -0.70740920247E+01  0.40443539295E+02  0.42097202241E+02  0.10566000000E+00 0. -1.
        994    1    1    2    0    0  0.30819653069E+02  0.46402287313E+00  0.46776990804E+01  0.17401547977E+03  0.17120000000E+03 0.  0.
        998    1    1    2    0    0 -0.21522308081E+02  0.66100691516E+01  0.14548787579E+04  0.14550873180E+04  0.10000000000E+02 0. -1.
</event>
<event>
 5    1  0.1068111E-008  0.3800099E+03  0.7957747E-01  0.3451115E+00
         13   -1    0    0    0    0  0.00000000000E+00  0.00000000000E+00  0.14999999963E+04  0.15000000000E+04  0.10566000000E+00 0. -1.
        994   -1    0    0    0    0 -0.00000000000E+00 -0.00000000000E+00  0.11368683772E-12  0.17120000000E+03  0.17120000000E+03 0.  0.
         13    1    1    2    0    0 -0.54157604148E+02 -0.25126126476E+02  0.35952388236E+03  0.36444725472E+03  0.10566000000E+00 0. -1.
        994    1    1    2    0    0  0.43247763422E+02  0.29892616764E+02  0.13423384652E+02  0.17959277500E+03  0.17120000000E+03 0.  0.
        998    1    1    2    0    0  0.10909840726E+02 -0.47664902874E+01  0.11270527293E+04  0.11271599703E+04  0.10000000000E+02 0. -1.
</event>
<event>
 5    1  0.1068111E-008  0.3796958E+03  0.7957747E-01  0.3452484E+00
         13   -1    0    0    0    0  0.00000000000E+00  0.00000000000E+00  0.14999999963E+04  0.15000000000E+04  0.10566000000E+00 0.  1.
        994   -1    0    0    0    0 -0.00000000000E+00 -0.00000000000E+00  0.11368683772E-12  0.17120000000E+03  0.17120000000E+03 0.  0.
         13    1    1    2    0    0  0.62032865840E+01  0.38072649095E+02  0.17546970270E+03  0.17965977597E+03  0.10566000000E+00 0.  1.
        994    1    1    2    0    0 -0.24851738214E+02 -0.16423058179E+02  0.72617200598E+01  0.17392382905E+03  0.17120000000E+03 0.  0.
        998    1    1    2    0    0  0.18648451630E+02 -0.21649590916E+02  0.13172685735E+04  0.13176163950E+04  0.10000000000E+02 0.  1.
</event>
<event>
 5    1  0.1068111E-008  0.3834124E+03  0.7957747E-01  0.3436433E+00
         13   -1    0    0    0    0  0.00000000000E+00  0.00000000000E+00  0.14999999963E+04  0.15000000000E+04  0.10566000000E+00 0. -1.
        994   -1    0    0    0    0 -0.00000000000E+00 -0.00000000000E+00  0.11368683772E-12  0.17120000000E+03  0.17120000000E+03 0.  0.
         13    1    1    2    0    0  0.78741743852E+01  0.16343769020E+02  0.72904474119E+02  0.75127857141E+02  0.10566000000E+00 0. -1.
        994    1    1    2    0    0  0.69421723063E+01 -0.84362453692E+00  0.25820725538E+01  0.17136222617E+03  0.17120000000E+03 0.  0.
        998    1    1    2    0    0 -0.14816346691E+02 -0.15500144483E+02  0.14245134496E+04  0.14247099167E+04  0.10000000000E+02 0. -1.
</event>
<event>
 5    1  0.1068111E-008  0.3849463E+03  0.7957747E-01  0.3429900E+00
         13   -1    0    0    0    0  0.00000000000E+00  0.00000000000E+00  0.14999999963E+04  0.15000000000E+04  0.10566000000E+00 0. -1.
        994   -1    0    0    0    0 -0.00000000000E+00 -0.00000000000E+00  0.11368683772E-12  0.17120000000E+03  0.17120000000E+03 0.  0.
         13    1    1    2    0    0  0.19928534641E+02  0.40503017637E+01  0.11422991570E+03  0.11602601537E+03  0.10566000000E+00 0. -1.
        994    1    1    2    0    0 -0.24850760646E+02  0.33698295563E+01  0.37281559002E+01  0.17306719852E+03  0.17120000000E+03 0.  0.
        998    1    1    2    0    0  0.49222260049E+01 -0.74201313201E+01  0.13820419247E+04  0.13821067861E+04  0.10000000000E+02 0. -1.
</event>
<event>
 5    1  0.1068111E-008  0.3834529E+03  0.7957747E-01  0.3436260E+00
         13   -1    0    0    0    0  0.00000000000E+00  0.00000000000E+00  0.14999999963E+04  0.15000000000E+04  0.10566000000E+00 0. -1.
        994   -1    0    0    0    0 -0.00000000000E+00 -0.00000000000E+00  0.11368683772E-12  0.17120000000E+03  0.17120000000E+03 0.  0.
         13    1    1    2    0    0  0.97818593304E+01  0.23799207375E+01  0.20360598251E+02  0.22713738570E+02  0.10566000000E+00 0. -1.
        994    1    1    2    0    0 -0.52907125321E+01 -0.17713405480E+01  0.25031174326E+01  0.17130917921E+03  0.17120000000E+03 0.  0.
        998    1    1    2    0    0 -0.44911467983E+01 -0.60858018946E+00  0.14771362806E+04  0.14771770822E+04  0.10000000000E+02 0. -1.
</event>
<event>
 5    1  0.1068111E-008  0.3718393E+03  0.7957747E-01  0.3487480E+00
         13   -1    0    0    0    0  0.00000000000E+00  0.00000000000E+00  0.14999999963E+04  0.15000000000E+04  0.10566000000E+00 0. -1.
        994   -1    0    0    0    0 -0.00000000000E+00 -0.00000000000E+00  0.11368683772E-12  0.17120000000E+03  0.17120000000E+03 0.  0.
         13    1    1    2    0    0  0.32771876582E+02  0.34249843401E+02  0.14055193679E+03  0.14833039394E+03  0.10566000000E+00 0. -1.
        994    1    1    2    0    0 -0.22389807745E+02 -0.16198176464E+00  0.10035245728E+02  0.17294934486E+03  0.17120000000E+03 0.  0.
        998    1    1    2    0    0 -0.10382068837E+02 -0.34087861636E+02  0.13494128138E+04  0.13499202612E+04  0.10000000000E+02 0. -1.
</event>
<event>
 5    1  0.1068111E-008  0.3828362E+03  0.7957747E-01  0.3438901E+00
         13   -1    0    0    0    0  0.00000000000E+00  0.00000000000E+00  0.14999999963E+04  0.15000000000E+04  0.10566000000E+00 0. -1.
        994   -1    0    0    0    0 -0.00000000000E+00 -0.00000000000E+00  0.11368683772E-12  0.17120000000E+03  0.17120000000E+03 0.  0.
         13    1    1    2    0    0 -0.22375056004E+01 -0.13317044198E+02  0.32149336078E+02  0.34870346597E+02  0.10566000000E+00 0. -1.
        994    1    1    2    0    0  0.28441144958E+01  0.13926924013E+02  0.33776840349E+01  0.17182228304E+03  0.17120000000E+03 0.  0.
        998    1    1    2    0    0 -0.60660889538E+00 -0.60987981455E+00  0.14644729762E+04  0.14645073704E+04  0.10000000000E+02 0. -1.
</event>
<event>
 5    1  0.1068111E-008  0.3824855E+03  0.7957747E-01  0.3440407E+00
         13   -1    0    0    0    0  0.00000000000E+00  0.00000000000E+00  0.14999999963E+04  0.15000000000E+04  0.10566000000E+00 0.  1.
        994   -1    0    0    0    0 -0.00000000000E+00 -0.00000000000E+00  0.11368683772E-12  0.17120000000E+03  0.17120000000E+03 0.  0.
         13    1    1    2    0    0 -0.26257977562E+01  0.21602349837E+02  0.78386454491E+02  0.81351113969E+02  0.10566000000E+00 0.  1.
        994    1    1    2    0    0  0.25521214605E+01 -0.20217970208E+02  0.42618613897E+01  0.17246125103E+03  0.17120000000E+03 0.  0.
        998    1    1    2    0    0  0.73676295679E-01 -0.13843796287E+01  0.14173516804E+04  0.14173876350E+04  0.10000000000E+02 0.  1.
</event>
<event>
 5    1  0.1068111E-008  0.3829256E+03  0.7957747E-01  0.3438518E+00
         13   -1    0    0    0    0  0.00000000000E+00  0.00000000000E+00  0.14999999963E+04  0.15000000000E+04  0.10566000000E+00 0.  1.
        994   -1    0    0    0    0 -0.00000000000E+00 -0.00000000000E+00  0.11368683772E-12  0.17120000000E+03  0.17120000000E+03 0.  0.
         13    1    1    2    0    0  0.59800679065E+01  0.10405391505E+02  0.27067264402E+02  0.29608805291E+02  0.10566000000E+00 0.  1.
        994    1    1    2    0    0 -0.28380540375E+01  0.42141202596E+01  0.27490209081E+01  0.17129743278E+03  0.17120000000E+03 0.  0.
        998    1    1    2    0    0 -0.31420138690E+01 -0.14619511765E+02  0.14701837110E+04  0.14702937619E+04  0.10000000000E+02 0.  1.
</event>
<event>
 5    1  0.1068111E-008  0.3811153E+03  0.7957747E-01  0.3446316E+00
         13   -1    0    0    0    0  0.00000000000E+00  0.00000000000E+00  0.14999999963E+04  0.15000000000E+04  0.10566000000E+00 0.  1.
        994   -1    0    0    0    0 -0.00000000000E+00 -0.00000000000E+00  0.11368683772E-12  0.17120000000E+03  0.17120000000E+03 0.  0.
         13    1    1    2    0    0  0.60814707772E+01  0.10077306563E+02  0.17565418359E+02  0.21144537842E+02  0.10566000000E+00 0.  1.
        994    1    1    2    0    0 -0.86666515044E+01 -0.13118008821E+02  0.43949249014E+01  0.17197659250E+03  0.17120000000E+03 0.  0.
        998    1    1    2    0    0  0.25851807271E+01  0.30407022578E+01  0.14780396530E+04  0.14780788697E+04  0.10000000000E+02 0.  1.
</event>
<event>
 5    1  0.1068111E-008  0.3785994E+03  0.7957747E-01  0.3457280E+00
         13   -1    0    0    0    0  0.00000000000E+00  0.00000000000E+00  0.14999999963E+04  0.15000000000E+04  0.10566000000E+00 0. -1.
        994   -1    0    0    0    0 -0.00000000000E+00 -0.00000000000E+00  0.11368683772E-12  0.17120000000E+03  0.17120000000E+03 0.  0.
         13    1    1    2    0    0 -0.45561668471E+02  0.65261157076E+02  0.43099012876E+03  0.43827775041E+03  0.10566000000E+00 0. -1.
        994    1    1    2    0    0  0.42472011389E+02 -0.75313527513E+02  0.30374618283E+02  0.19418562412E+03  0.17120000000E+03 0.  0.
        998    1    1    2    0    0  0.30896570824E+01  0.10052370438E+02  0.10386352492E+04  0.10387366255E+04  0.10000000000E+02 0. -1.
</event>
<event>
 5    1  0.1068111E-008  0.4038237E+03  0.7957747E-01  0.3353562E+00
         13   -1    0    0    0    0  0.00000000000E+00  0.00000000000E+00  0.14999999963E+04  0.15000000000E+04  0.10566000000E+00 0. -1.
        994   -1    0    0    0    0 -0.00000000000E+00 -0.00000000000E+00  0.11368683772E-12  0.17120000000E+03  0.17120000000E+03 0.  0.
         13    1    1    2    0    0 -0.37936663894E+01  0.72073881758E+02  0.73110381465E+02  0.10273351633E+03  0.10566000000E+00 0. -1.
        994    1    1    2    0    0  0.10083165891E+01 -0.72900337689E+02  0.51548433705E+02  0.19308587974E+03  0.17120000000E+03 0.  0.
        998    1    1    2    0    0  0.27853498002E+01  0.82645593142E+00  0.13753411811E+04  0.13753806039E+04  0.10000000000E+02 0.  0.
</event>
<event>
 5    1  0.1068111E-008  0.3752694E+03  0.7957747E-01  0.3472019E+00
         13   -1    0    0    0    0  0.00000000000E+00  0.00000000000E+00  0.14999999963E+04  0.15000000000E+04  0.10566000000E+00 0.  1.
        994   -1    0    0    0    0 -0.00000000000E+00 -0.00000000000E+00  0.11368683772E-12  0.17120000000E+03  0.17120000000E+03 0.  0.
         13    1    1    2    0    0  0.11542948115E+02 -0.61168215754E+01  0.10118470024E+02  0.16524217289E+02  0.10566000000E+00 0.  1.
        994    1    1    2    0    0 -0.91768367240E+01  0.21953399246E+01  0.68428539419E+01  0.17159632426E+03  0.17120000000E+03 0.  0.
        998    1    1    2    0    0 -0.23661113907E+01  0.39214816508E+01  0.14830386723E+04  0.14830794585E+04  0.10000000000E+02 0.  1.
</event>
<event>
 5    1  0.1068111E-008  0.3849323E+03  0.7957747E-01  0.3429959E+00
         13   -1    0    0    0    0  0.00000000000E+00  0.00000000000E+00  0.14999999963E+04  0.15000000000E+04  0.10566000000E+00 0. -1.
        994   -1    0    0    0    0 -0.00000000000E+00 -0.00000000000E+00  0.11368683772E-12  0.17120000000E+03  0.17120000000E+03 0.  0.
         13    1    1    2    0    0  0.22452936440E+02 -0.15313228702E+02  0.15678255514E+03  0.15912074060E+03  0.10566000000E+00 0. -1.
        994    1    1    2    0    0 -0.48628143731E+02  0.24863050024E+02  0.11537797462E+02  0.18007062056E+03  0.17120000000E+03 0.  0.
        998    1    1    2    0    0  0.26175207292E+02 -0.95498213217E+01  0.13316796437E+04  0.13320086388E+04  0.10000000000E+02 0. -1.
</event>
<event>
 5    1  0.1068111E-008  0.3818520E+03  0.7957747E-01  0.3443134E+00
         13   -1    0    0    0    0  0.00000000000E+00  0.00000000000E+00  0.14999999963E+04  0.15000000000E+04  0.10566000000E+00 0. -1.
        994   -1    0    0    0    0 -0.00000000000E+00 -0.00000000000E+00  0.11368683772E-12  0.17120000000E+03  0.17120000000E+03 0.  0.
         13    1    1    2    0    0  0.98054405038E+00  0.26938550509E+02  0.11908268983E+03  0.12209563936E+03  0.10566000000E+00 0. -1.
        994    1    1    2    0    0 -0.38666968071E+02 -0.76649704047E+01  0.83813399664E+01  0.17587942759E+03  0.17120000000E+03 0.  0.
        998    1    1    2    0    0  0.37686424021E+02 -0.19273580104E+02  0.13725359665E+04  0.13732249330E+04  0.10000000000E+02 0. -1.
</event>
<event>
 5    1  0.1068111E-008  0.3857068E+03  0.7957747E-01  0.3426680E+00
         13   -1    0    0    0    0  0.00000000000E+00  0.00000000000E+00  0.14999999963E+04  0.15000000000E+04  0.10566000000E+00 0.  1.
        994   -1    0    0    0    0 -0.00000000000E+00 -0.00000000000E+00  0.11368683772E-12  0.17120000000E+03  0.17120000000E+03 0.  0.
         13    1    1    2    0    0  0.23133340882E+01  0.14863218707E+02  0.90713610137E+02  0.91952362738E+02  0.10566000000E+00 0.  1.
        994    1    1    2    0    0 -0.60739403735E+00 -0.75654792487E+01  0.14686628442E+01  0.17137445076E+03  0.17120000000E+03 0.  0.
        998    1    1    2    0    0 -0.17059400509E+01 -0.72977394587E+01  0.14078177233E+04  0.14078731865E+04  0.10000000000E+02 0.  1.
</event>
<event>
 5    1  0.1068111E-008  0.3843358E+03  0.7957747E-01  0.3432494E+00
         13   -1    0    0    0    0  0.00000000000E+00  0.00000000000E+00  0.14999999963E+04  0.15000000000E+04  0.10566000000E+00 0. -1.
        994   -1    0    0    0    0 -0.00000000000E+00 -0.00000000000E+00  0.11368683772E-12  0.17120000000E+03  0.17120000000E+03 0.  0.
         13    1    1    2    0    0 -0.86957566212E+01  0.14591483669E+02  0.70778197129E+02  0.72787993047E+02  0.10566000000E+00 0. -1.
        994    1    1    2    0    0  0.61308275480E+01 -0.15960314613E+02  0.29242763990E+01  0.17207646580E+03  0.17120000000E+03 0.  0.
        998    1    1    2    0    0  0.25649290732E+01  0.13688309443E+01  0.14262975228E+04  0.14263355412E+04  0.10000000000E+02 0. -1.
</event>
<event>
 5    1  0.1068111E-008  0.3742223E+03  0.7957747E-01  0.3476708E+00
         13   -1    0    0    0    0  0.00000000000E+00  0.00000000000E+00  0.14999999963E+04  0.15000000000E+04  0.10566000000E+00 0. -1.
        994   -1    0    0    0    0 -0.00000000000E+00 -0.00000000000E+00  0.11368683772E-12  0.17120000000E+03  0.17120000000E+03 0.  0.
         13    1    1    2    0    0  0.60633857665E+01 -0.25280330225E+02  0.43106157241E+02  0.50338968000E+02  0.10566000000E+00 0. -1.
        994    1    1    2    0    0 -0.15240530354E+02  0.28623713214E+02  0.10670977600E+02  0.17457061748E+03  0.17120000000E+03 0.  0.
        998    1    1    2    0    0  0.91771445875E+01 -0.33433829895E+01  0.14462228614E+04  0.14462904145E+04  0.10000000000E+02 0. -1.
</event>
<event>
 5    1  0.1068111E-008  0.3858145E+03  0.7957747E-01  0.3426225E+00
         13   -1    0    0    0    0  0.00000000000E+00  0.00000000000E+00  0.14999999963E+04  0.15000000000E+04  0.10566000000E+00 0. -1.
        994   -1    0    0    0    0 -0.00000000000E+00 -0.00000000000E+00  0.11368683772E-12  0.17120000000E+03  0.17120000000E+03 0.  0.
         13    1    1    2    0    0 -0.10599097164E+02  0.77977685590E+01  0.71560850544E+02  0.72760652484E+02  0.10566000000E+00 0. -1.
        994    1    1    2    0    0  0.11643356664E+02  0.19932757815E+01  0.16841361174E+01  0.17161531755E+03  0.17120000000E+03 0.  0.
        998    1    1    2    0    0 -0.10442595002E+01 -0.97910443405E+01  0.14267550096E+04  0.14268240300E+04  0.10000000000E+02 0. -1.
</event>
<event>
 5    1  0.1068111E-008  0.3787315E+03  0.7957747E-01  0.3456701E+00
         13   -1    0    0    0    0  0.00000000000E+00  0.00000000000E+00  0.14999999963E+04  0.15000000000E+04  0.10566000000E+00 0.  1.
        994   -1    0    0    0    0 -0.00000000000E+00 -0.00000000000E+00  0.11368683772E-12  0.17120000000E+03  0.17120000000E+03 0.  0.
         13    1    1    2    0    0 -0.96028776024E+01 -0.33203467636E+02  0.31488190822E+02  0.46756848125E+02  0.10566000000E+00 0.  1.
        994    1    1    2    0    0  0.10179844028E+02  0.30609256579E+02  0.19394313364E+02  0.17528871956E+03  0.17120000000E+03 0.  0.
        998    1    1    2    0    0 -0.57696642515E+00  0.25942110566E+01  0.14491174921E+04  0.14491544323E+04  0.10000000000E+02 0.  1.
</event>
<event>
 5    1  0.1068111E-008  0.3792557E+03  0.7957747E-01  0.3454406E+00
         13   -1    0    0    0    0  0.00000000000E+00  0.00000000000E+00  0.14999999963E+04  0.15000000000E+04  0.10566000000E+00 0. -1.
        994   -1    0    0    0    0 -0.00000000000E+00 -0.00000000000E+00  0.11368683772E-12  0.17120000000E+03  0.17120000000E+03 0.  0.
         13    1    1    2    0    0  0.10885119232E+02 -0.28303329454E+02  0.10463493140E+03  0.10894055403E+03  0.10566000000E+00 0. -1.
        994    1    1    2    0    0  0.23557465984E+02  0.20781505134E+02  0.78233906015E+01  0.17423395364E+03  0.17120000000E+03 0.  0.
        998    1    1    2    0    0 -0.34442585216E+02  0.75218243194E+01  0.13875416743E+04  0.13880254923E+04  0.10000000000E+02 0. -1.
</event>
<event>
 5    1  0.1068111E-008  0.3759773E+03  0.7957747E-01  0.3468864E+00
         13   -1    0    0    0    0  0.00000000000E+00  0.00000000000E+00  0.14999999963E+04  0.15000000000E+04  0.10566000000E+00 0. -1.
        994   -1    0    0    0    0 -0.00000000000E+00 -0.00000000000E+00  0.11368683772E-12  0.17120000000E+03  0.17120000000E+03 0.  0.
         13    1    1    2    0    0 -0.13108984790E+03  0.96433067288E+02  0.66094414066E+03  0.68068425347E+03  0.10566000000E+00 0. -1.
        994    1    1    2    0    0  0.14722260514E+03 -0.12931507645E+03  0.14985775172E+03  0.30027265978E+03  0.17120000000E+03 0.  0.
        998    1    1    2    0    0 -0.16132757238E+02  0.32882009166E+02  0.68919810390E+03  0.69024308674E+03  0.10000000000E+02 0. -1.
</event>
<event>
 5    1  0.1068111E-008  0.3827659E+03  0.7957747E-01  0.3439203E+00
         13   -1    0    0    0    0  0.00000000000E+00  0.00000000000E+00  0.14999999963E+04  0.15000000000E+04  0.10566000000E+00 0.  1.
        994   -1    0    0    0    0 -0.00000000000E+00 -0.00000000000E+00  0.11368683772E-12  0.17120000000E+03  0.17120000000E+03 0.  0.
         13    1    1    2    0    0  0.41320850169E+01 -0.99617997533E+01  0.20293861210E+02  0.22981809062E+02  0.10566000000E+00 0.  1.
        994    1    1    2    0    0  0.89948607555E+00  0.62605342388E+01  0.28759393601E+01  0.17134093029E+03  0.17120000000E+03 0.  0.
        998    1    1    2    0    0 -0.50315710924E+01  0.37012655145E+01  0.14768301957E+04  0.14768772607E+04  0.10000000000E+02 0.  1.
</event>
<event>
 5    1  0.1068111E-008  0.3814831E+03  0.7957747E-01  0.3444726E+00
         13   -1    0    0    0    0  0.00000000000E+00  0.00000000000E+00  0.14999999963E+04  0.15000000000E+04  0.10566000000E+00 0. -1.
        994   -1    0    0    0    0 -0.00000000000E+00 -0.00000000000E+00  0.11368683772E-12  0.17120000000E+03  0.17120000000E+03 0.  0.
         13    1    1    2    0    0  0.27024371191E+02 -0.28775030074E+02  0.23167670368E+03  0.23501579774E+03  0.10566000000E+00 0. -1.
        994    1    1    2    0    0 -0.97265081231E+01  0.20290507015E+02  0.50724457013E+01  0.17274686492E+03  0.17120000000E+03 0.  0.
        998    1    1    2    0    0 -0.17297863068E+02  0.84845230593E+01  0.12632508469E+04  0.12634373373E+04  0.10000000000E+02 0. -1.
</event>
<event>
 5    1  0.1068111E-008  0.3807153E+03  0.7957747E-01  0.3448050E+00
         13   -1    0    0    0    0  0.00000000000E+00  0.00000000000E+00  0.14999999963E+04  0.15000000000E+04  0.10566000000E+00 0.  1.
        994   -1    0    0    0    0 -0.00000000000E+00 -0.00000000000E+00  0.11368683772E-12  0.17120000000E+03  0.17120000000E+03 0.  0.
         13    1    1    2    0    0 -0.30542601719E+02 -0.17362255854E+03  0.97435970928E+03  0.99017902300E+03  0.10566000000E+00 0.  1.
        994    1    1    2    0    0  0.54558973675E+02  0.17855605682E+03  0.13042451775E+03  0.28491918480E+03  0.17120000000E+03 0.  0.
        998    1    1    2    0    0 -0.24016371955E+02 -0.49334982838E+01  0.39521576924E+03  0.39610179220E+03  0.10000000000E+02 0. -1.
</event>
<event>
 5    1  0.1068111E-008  0.3820768E+03  0.7957747E-01  0.3442165E+00
         13   -1    0    0    0    0  0.00000000000E+00  0.00000000000E+00  0.14999999963E+04  0.15000000000E+04  0.10566000000E+00 0. -1.
        994   -1    0    0    0    0 -0.00000000000E+00 -0.00000000000E+00  0.11368683772E-12  0.17120000000E+03  0.17120000000E+03 0.  0.
         13    1    1    2    0    0 -0.93050787365E+01  0.21951849985E+02  0.87802320744E+02  0.90982014157E+02  0.10566000000E+00 0. -1.
        994    1    1    2    0    0  0.20115098164E+02 -0.14926598508E+02  0.51743579355E+01  0.17310007076E+03  0.17120000000E+03 0.  0.
        998    1    1    2    0    0 -0.10810019427E+02 -0.70252514773E+01  0.14070233176E+04  0.14071179151E+04  0.10000000000E+02 0. -1.
</event>
<event>
 5    1  0.1068111E-008  0.3827451E+03  0.7957747E-01  0.3439292E+00
         13   -1    0    0    0    0  0.00000000000E+00  0.00000000000E+00  0.14999999963E+04  0.15000000000E+04  0.10566000000E+00 0. -1.
        994   -1    0    0    0    0 -0.00000000000E+00 -0.00000000000E+00  0.11368683772E-12  0.17120000000E+03  0.17120000000E+03 0.  0.
         13    1    1    2    0    0 -0.30484959123E+02 -0.33966387209E+02  0.53504852401E+02  0.70326585209E+02  0.10566000000E+00 0. -1.
        994    1    1    2    0    0  0.14093900844E+02  0.15065416117E+02  0.19402724833E+02  0.17352668537E+03  0.17120000000E+03 0.  0.
        998    1    1    2    0    0  0.16391058279E+02  0.18900971092E+02  0.14270924190E+04  0.14273467294E+04  0.10000000000E+02 0. -1.
</event>
<event>
 5    1  0.1184551E-008  0.3853050E+03  0.7957747E-01  0.3428380E+00
         13   -1    0    0    0    0  0.00000000000E+00  0.00000000000E+00  0.14999999963E+04  0.15000000000E+04  0.10566000000E+00 0.  1.
        994   -1    0    0    0    0 -0.00000000000E+00 -0.00000000000E+00  0.11368683772E-12  0.17120000000E+03  0.17120000000E+03 0.  0.
         13    1    1    2    0    0 -0.11398046133E+02  0.33563429751E+01  0.47609160421E+02  0.49069581350E+02  0.10566000000E+00 0.  1.
        994    1    1    2    0    0  0.92933656894E+01  0.50146854369E+00  0.17633959207E+01  0.17146185489E+03  0.17120000000E+03 0.  0.
        998    1    1    2    0    0  0.21046804433E+01 -0.38578115188E+01  0.14506274399E+04  0.14506685638E+04  0.10000000000E+02 0.  1.
</event>
<event>
 5    1  0.1068111E-008  0.3696648E+03  0.7957747E-01  0.3497433E+00
         13   -1    0    0    0    0  0.00000000000E+00  0.00000000000E+00  0.14999999963E+04  0.15000000000E+04  0.10566000000E+00 0.  1.
        994   -1    0    0    0    0 -0.00000000000E+00 -0.00000000000E+00  0.11368683772E-12  0.17120000000E+03  0.17120000000E+03 0.  0.
         13    1    1    2    0    0  0.69585359501E+02  0.54604905758E+01  0.22464124128E+03  0.23523528150E+03  0.10566000000E+00 0.  1.
        994    1    1    2    0    0 -0.64012811249E+02 -0.16458987533E+01  0.23775455324E+02  0.18432325209E+03  0.17120000000E+03 0.  0.
        998    1    1    2    0    0 -0.55725482519E+01 -0.38145918226E+01  0.12515832997E+04  0.12516414664E+04  0.10000000000E+02 0.  1.
</event>
<event>
 5    1  0.1068111E-008  0.3804846E+03  0.7957747E-01  0.3449051E+00
         13   -1    0    0    0    0  0.00000000000E+00  0.00000000000E+00  0.14999999963E+04  0.15000000000E+04  0.10566000000E+00 0. -1.
        994   -1    0    0    0    0 -0.00000000000E+00 -0.00000000000E+00  0.11368683772E-12  0.17120000000E+03  0.17120000000E+03 0.  0.
         13    1    1    2    0    0 -0.22258914079E+02 -0.24721656875E+02  0.16775172835E+03  0.17101834142E+03  0.10566000000E+00 0. -1.
        994    1    1    2    0    0  0.92434354310E+01 -0.14417131951E+02  0.48682455255E+01  0.17212331221E+03  0.17120000000E+03 0.  0.
        998    1    1    2    0    0  0.13015478648E+02  0.39138788826E+02  0.13273800224E+04  0.13280583464E+04  0.10000000000E+02 0. -1.
</event>
<event>
 5    1  0.1068111E-008  0.3843144E+03  0.7957747E-01  0.3432585E+00
         13   -1    0    0    0    0  0.00000000000E+00  0.00000000000E+00  0.14999999963E+04  0.15000000000E+04  0.10566000000E+00 0.  1.
        994   -1    0    0    0    0 -0.00000000000E+00 -0.00000000000E+00  0.11368683772E-12  0.17120000000E+03  0.17120000000E+03 0.  0.
         13    1    1    2    0    0 -0.52416862149E+01  0.92895184016E+01  0.28651563416E+02  0.30572760371E+02  0.10566000000E+00 0.  1.
        994    1    1    2    0    0  0.20956328591E+01 -0.42631250399E+01  0.20452925374E+01  0.17127810465E+03  0.17120000000E+03 0.  0.
        998    1    1    2    0    0  0.31460533558E+01 -0.50263933617E+01  0.14693031403E+04  0.14693491350E+04  0.10000000000E+02 0.  1.
</event>
<event>
 5    1  0.1068111E-008  0.3814639E+03  0.7957747E-01  0.3444809E+00
         13   -1    0    0    0    0  0.00000000000E+00  0.00000000000E+00  0.14999999963E+04  0.15000000000E+04  0.10566000000E+00 0. -1.
        994   -1    0    0    0    0 -0.00000000000E+00 -0.00000000000E+00  0.11368683772E-12  0.17120000000E+03  0.17120000000E+03 0.  0.
         13    1    1    2    0    0 -0.77184431795E+01  0.72188229367E+01  0.15045437035E+02  0.18386465384E+02  0.10566000000E+00 0. -1.
        994    1    1    2    0    0  0.31384627704E+01 -0.68950803979E+01  0.35869631177E+01  0.17140507106E+03  0.17120000000E+03 0.  0.
        998    1    1    2    0    0  0.45799804090E+01 -0.32374253872E+00  0.14813675961E+04  0.14814084636E+04  0.10000000000E+02 0. -1.
</event>
<event>
 5    1  0.1068111E-008  0.3809121E+03  0.7957747E-01  0.3447197E+00
         13   -1    0    0    0    0  0.00000000000E+00  0.00000000000E+00  0.14999999963E+04  0.15000000000E+04  0.10566000000E+00 0.  1.
        994   -1    0    0    0    0 -0.00000000000E+00 -0.00000000000E+00  0.11368683772E-12  0.17120000000E+03  0.17120000000E+03 0.  0.
         13    1    1    2    0    0  0.31968782315E+00 -0.26140359246E+02  0.86418202790E+02  0.90285865557E+02  0.10566000000E+00 0.  1.
        994    1    1    2    0    0 -0.70357710016E+01  0.28074021395E+02  0.64702441062E+01  0.17374969585E+03  0.17120000000E+03 0.  0.
        998    1    1    2    0    0  0.67160831784E+01 -0.19336621497E+01  0.14071115494E+04  0.14071644386E+04  0.10000000000E+02 0.  1.
</event>
<event>
 5    1  0.1068111E-008  0.3779641E+03  0.7957747E-01  0.3460071E+00
         13   -1    0    0    0    0  0.00000000000E+00  0.00000000000E+00  0.14999999963E+04  0.15000000000E+04  0.10566000000E+00 0. -1.
        994   -1    0    0    0    0 -0.00000000000E+00 -0.00000000000E+00  0.11368683772E-12  0.17120000000E+03  0.17120000000E+03 0.  0.
         13    1    1    2    0    0 -0.10813137981E+02 -0.46079830769E+02  0.24150593892E+03  0.24610039507E+03  0.10566000000E+00 0. -1.
        994    1    1    2    0    0 -0.86019228107E+01  0.14451774857E+02  0.61169110700E+01  0.17213280766E+03  0.17120000000E+03 0.  0.
        998    1    1    2    0    0  0.19415060792E+02  0.31628055911E+02  0.12523771463E+04  0.12529667973E+04  0.10000000000E+02 0. -1.
</event>
<event>
 5    1  0.1068111E-008  0.3860366E+03  0.7957747E-01  0.3425288E+00
         13   -1    0    0    0    0  0.00000000000E+00  0.00000000000E+00  0.14999999963E+04  0.15000000000E+04  0.10566000000E+00 0. -1.
        994   -1    0    0    0    0 -0.00000000000E+00 -0.00000000000E+00  0.11368683772E-12  0.17120000000E+03  0.17120000000E+03 0.  0.
         13    1    1    2    0    0  0.10015080052E+02  0.53276208757E+01  0.60630006738E+02  0.61682203704E+02  0.10566000000E+00 0. -1.
        994    1    1    2    0    0 -0.41110692067E+01  0.25271376612E+01  0.11926774839E+01  0.17127215125E+03  0.17120000000E+03 0.  0.
        998    1    1    2    0    0 -0.59040108450E+01 -0.78547585370E+01  0.14381773121E+04  0.14382456450E+04  0.10000000000E+02 0. -1.
</event>
<event>
 5    1  0.1068111E-008  0.3859076E+03  0.7957747E-01  0.3425832E+00
         13   -1    0    0    0    0  0.00000000000E+00  0.00000000000E+00  0.14999999963E+04  0.15000000000E+04  0.10566000000E+00 0. -1.
        994   -1    0    0    0    0 -0.00000000000E+00 -0.00000000000E+00  0.11368683772E-12  0.17120000000E+03  0.17120000000E+03 0.  0.
         13    1    1    2    0    0  0.12001634605E+02  0.24648253880E+00  0.59541610434E+02  0.60739727724E+02  0.10566000000E+00 0. -1.
        994    1    1    2    0    0 -0.13030876495E+02 -0.53610420024E+00  0.17381037693E+01  0.17170484022E+03  0.17120000000E+03 0.  0.
        998    1    1    2    0    0  0.10292418899E+01  0.28962166144E+00  0.14387202821E+04  0.14387554321E+04  0.10000000000E+02 0. -1.
</event>
<event>
 5    1  0.1068111E-008  0.3850890E+03  0.7957747E-01  0.3429295E+00
         13   -1    0    0    0    0  0.00000000000E+00  0.00000000000E+00  0.14999999963E+04  0.15000000000E+04  0.10566000000E+00 0.  1.
        994   -1    0    0    0    0 -0.00000000000E+00 -0.00000000000E+00  0.11368683772E-12  0.17120000000E+03  0.17120000000E+03 0.  0.
         13    1    1    2    0    0  0.98640708580E+00 -0.10066186915E+02  0.31901120857E+02  0.33466308340E+02  0.10566000000E+00 0.  1.
        994    1    1    2    0    0  0.41695609458E+01  0.85590125229E+01  0.18839956457E+01  0.17147487097E+03  0.17120000000E+03 0.  0.
        998    1    1    2    0    0 -0.51559680316E+01  0.15071743918E+01  0.14662148798E+04  0.14662588207E+04  0.10000000000E+02 0.  1.
</event>
<event>
 5    1  0.1317908E-008  0.3851348E+03  0.7957747E-01  0.3429101E+00
         13   -1    0    0    0    0  0.00000000000E+00  0.00000000000E+00  0.14999999963E+04  0.15000000000E+04  0.10566000000E+00 0.  1.
        994   -1    0    0    0    0 -0.00000000000E+00 -0.00000000000E+00  0.11368683772E-12  0.17120000000E+03  0.17120000000E+03 0.  0.
         13    1    1    2    0    0 -0.19049117740E+01 -0.18021074875E+02  0.99810057497E+02  0.10144183836E+03  0.10566000000E+00 0.  1.
        994    1    1    2    0    0  0.42473321260E+01  0.17848376132E+02  0.26705035402E+01  0.17220097546E+03  0.17120000000E+03 0.  0.
        998    1    1    2    0    0 -0.23424203520E+01  0.17269874350E+00  0.13975194352E+04  0.13975571862E+04  0.10000000000E+02 0.  1.
</event>
<event>
 5    1  0.1068111E-008  0.3796533E+03  0.7957747E-01  0.3452669E+00
         13   -1    0    0    0    0  0.00000000000E+00  0.00000000000E+00  0.14999999963E+04  0.15000000000E+04  0.10566000000E+00 0.  1.
        994   -1    0    0    0    0 -0.00000000000E+00 -0.00000000000E+00  0.11368683772E-12  0.17120000000E+03  0.17120000000E+03 0.  0.
         13    1    1    2    0    0 -0.10755205480E+02  0.10224869597E+02  0.23679232119E+02  0.27945296580E+02  0.10566000000E+00 0.  1.
        994    1    1    2    0    0  0.56248849381E+01 -0.11395597252E+02  0.48489351559E+01  0.17173948626E+03  0.17120000000E+03 0.  0.
        998    1    1    2    0    0  0.51303205419E+01  0.11707276550E+01  0.14714718290E+04  0.14715152172E+04  0.10000000000E+02 0.  1.
</event>
<event>
 5    1  0.1068111E-008  0.3826199E+03  0.7957747E-01  0.3439830E+00
         13   -1    0    0    0    0  0.00000000000E+00  0.00000000000E+00  0.14999999963E+04  0.15000000000E+04  0.10566000000E+00 0. -1.
        994   -1    0    0    0    0 -0.00000000000E+00 -0.00000000000E+00  0.11368683772E-12  0.17120000000E+03  0.17120000000E+03 0.  0.
         13    1    1    2    0    0 -0.62246771543E+01 -0.17510290455E+02  0.62831903220E+02  0.65522638102E+02  0.10566000000E+00 0. -1.
        994    1    1    2    0    0  0.19393138913E+01  0.36406553422E+01  0.28728311475E+01  0.17127378220E+03  0.17120000000E+03 0.  0.
        998    1    1    2    0    0  0.42853632629E+01  0.13869635113E+02  0.14342952619E+04  0.14344035797E+04  0.10000000000E+02 0. -1.
</event>
<event>
 5    1  0.1068111E-008  0.3738024E+03  0.7957747E-01  0.3478596E+00
         13   -1    0    0    0    0  0.00000000000E+00  0.00000000000E+00  0.14999999963E+04  0.15000000000E+04  0.10566000000E+00 0. -1.
        994   -1    0    0    0    0 -0.00000000000E+00 -0.00000000000E+00  0.11368683772E-12  0.17120000000E+03  0.17120000000E+03 0.  0.
         13    1    1    2    0    0 -0.62250149588E+01  0.17038725810E+02  0.19300739146E+02  0.26487708170E+02  0.10566000000E+00 0. -1.
        994    1    1    2    0    0  0.75446422550E+01 -0.13703708749E+02  0.81306643713E+01  0.17210537750E+03  0.17120000000E+03 0.  0.
        998    1    1    2    0    0 -0.13196272962E+01 -0.33350170612E+01  0.14725685928E+04  0.14726069143E+04  0.10000000000E+02 0. -1.
</event>
<event>
 5    1  0.1068111E-008  0.3813027E+03  0.7957747E-01  0.3445506E+00
         13   -1    0    0    0    0  0.00000000000E+00  0.00000000000E+00  0.14999999963E+04  0.15000000000E+04  0.10566000000E+00 0.  1.
        994   -1    0    0    0    0 -0.00000000000E+00 -0.00000000000E+00  0.11368683772E-12  0.17120000000E+03  0.17120000000E+03 0.  0.
         13    1    1    2    0    0 -0.90350634369E+01  0.75741336798E+01  0.19269187482E+02  0.22590100101E+02  0.10566000000E+00 0.  1.
        994    1    1    2    0    0  0.34377458223E+01  0.11952127668E+02  0.39920051964E+01  0.17169754674E+03  0.17120000000E+03 0.  0.
        998    1    1    2    0    0  0.55973176146E+01 -0.19526261348E+02  0.14767388036E+04  0.14769123532E+04  0.10000000000E+02 0.  1.
</event>
<event>
 5    1  0.1068111E-008  0.3771846E+03  0.7957747E-01  0.3463510E+00
         13   -1    0    0    0    0  0.00000000000E+00  0.00000000000E+00  0.14999999963E+04  0.15000000000E+04  0.10566000000E+00 0.  1.
        994   -1    0    0    0    0 -0.00000000000E+00 -0.00000000000E+00  0.11368683772E-12  0.17120000000E+03  0.17120000000E+03 0.  0.
         13    1    1    2    0    0  0.21610155929E+01  0.52275849787E+02  0.28417991772E+03  0.28895617533E+03  0.10566000000E+00 0.  1.
        994    1    1    2    0    0  0.92969686639E+01 -0.11799233492E+02  0.63229619941E+01  0.17197405440E+03  0.17120000000E+03 0.  0.
        998    1    1    2    0    0 -0.11457984257E+02 -0.40476616295E+02  0.12094971166E+04  0.12102697703E+04  0.10000000000E+02 0.  1.
</event>
<event>
 5    1  0.1068111E-008  0.3789094E+03  0.7957747E-01  0.3455921E+00
         13   -1    0    0    0    0  0.00000000000E+00  0.00000000000E+00  0.14999999963E+04  0.15000000000E+04  0.10566000000E+00 0.  1.
        994   -1    0    0    0    0 -0.00000000000E+00 -0.00000000000E+00  0.11368683772E-12  0.17120000000E+03  0.17120000000E+03 0.  0.
         13    1    1    2    0    0  0.54602604076E+02 -0.71380159317E+02  0.29958202937E+03  0.31277144211E+03  0.10566000000E+00 0.  1.
        994    1    1    2    0    0 -0.10596745896E+02  0.19419176911E+02  0.17497673900E+02  0.17350793655E+03  0.17120000000E+03 0.  0.
        998    1    1    2    0    0 -0.44005858180E+02  0.51960982406E+02  0.11829202930E+04  0.11849206213E+04  0.10000000000E+02 0.  1.
</event>
<event>
 5    1  0.1068111E-008  0.3730343E+03  0.7957747E-01  0.3482061E+00
         13   -1    0    0    0    0  0.00000000000E+00  0.00000000000E+00  0.14999999963E+04  0.15000000000E+04  0.10566000000E+00 0.  1.
        994   -1    0    0    0    0 -0.00000000000E+00 -0.00000000000E+00  0.11368683772E-12  0.17120000000E+03  0.17120000000E+03 0.  0.
         13    1    1    2    0    0 -0.13951394637E+03 -0.51148428155E+02  0.74567885586E+03  0.76034023317E+03  0.10566000000E+00 0.  1.
        994    1    1    2    0    0  0.14707575802E+03  0.17347160357E+02  0.86911782214E+02  0.24247742257E+03  0.17120000000E+03 0.  0.
        998    1    1    2    0    0 -0.75618116407E+01  0.33801267798E+02  0.66740935821E+03  0.66838234426E+03  0.10000000000E+02 0.  1.
</event>
<event>
 5    1  0.1068111E-008  0.3853837E+03  0.7957747E-01  0.3428047E+00
         13   -1    0    0    0    0  0.00000000000E+00  0.00000000000E+00  0.14999999963E+04  0.15000000000E+04  0.10566000000E+00 0.  1.
        994   -1    0    0    0    0 -0.00000000000E+00 -0.00000000000E+00  0.11368683772E-12  0.17120000000E+03  0.17120000000E+03 0.  0.
         13    1    1    2    0    0 -0.88542650971E+01  0.51049338307E+01  0.37140553514E+02  0.38521295918E+02  0.10566000000E+00 0.  1.
        994    1    1    2    0    0  0.52204489056E+01  0.41211644280E+01  0.15850780854E+01  0.17133648052E+03  0.17120000000E+03 0.  0.
        998    1    1    2    0    0  0.36338161915E+01 -0.92260982587E+01  0.14612743647E+04  0.14613422236E+04  0.10000000000E+02 0.  1.
</event>
<event>
 5    1  0.1068111E-008  0.3768339E+03  0.7957747E-01  0.3465061E+00
         13   -1    0    0    0    0  0.00000000000E+00  0.00000000000E+00  0.14999999963E+04  0.15000000000E+04  0.10566000000E+00 0.  1.
        994   -1    0    0    0    0 -0.00000000000E+00 -0.00000000000E+00  0.11368683772E-12  0.17120000000E+03  0.17120000000E+03 0.  0.
         13    1    1    2    0    0 -0.52413531033E+01  0.37191412446E+02  0.20029174587E+03  0.20378289323E+03  0.10566000000E+00 0.  1.
        994    1    1    2    0    0  0.93626129004E+01  0.51597509132E+02  0.15087224190E+02  0.17968590875E+03  0.17120000000E+03 0.  0.
        998    1    1    2    0    0 -0.41212597972E+01 -0.88788921578E+02  0.12846210262E+04  0.12877311980E+04  0.10000000000E+02 0.  1.
</event>
<event>
 5    1  0.1068111E-008  0.3841490E+03  0.7957747E-01  0.3433289E+00
         13   -1    0    0    0    0  0.00000000000E+00  0.00000000000E+00  0.14999999963E+04  0.15000000000E+04  0.10566000000E+00 0. -1.
        994   -1    0    0    0    0 -0.00000000000E+00 -0.00000000000E+00  0.11368683772E-12  0.17120000000E+03  0.17120000000E+03 0.  0.
         13    1    1    2    0    0 -0.10396008069E+02  0.14953134364E+02  0.77521620080E+02  0.79632191700E+02  0.10566000000E+00 0. -1.
        994    1    1    2    0    0  0.83515459874E+01 -0.15663587564E+02  0.30930311864E+01  0.17214558704E+03  0.17120000000E+03 0.  0.
        998    1    1    2    0    0  0.20444620812E+01  0.71045320027E+00  0.14193853450E+04  0.14194222213E+04  0.10000000000E+02 0. -1.
</event>
<event>
 5    1  0.1068111E-008  0.3853105E+03  0.7957747E-01  0.3428357E+00
         13   -1    0    0    0    0  0.00000000000E+00  0.00000000000E+00  0.14999999963E+04  0.15000000000E+04  0.10566000000E+00 0.  1.
        994   -1    0    0    0    0 -0.00000000000E+00 -0.00000000000E+00  0.11368683772E-12  0.17120000000E+03  0.17120000000E+03 0.  0.
         13    1    1    2    0    0  0.76330580276E+01  0.16647529618E+02  0.10471459825E+03  0.10630410184E+03  0.10566000000E+00 0.  1.
        994    1    1    2    0    0 -0.12869375773E+02 -0.18111732514E+02  0.30995859796E+01  0.17266355470E+03  0.17120000000E+03 0.  0.
        998    1    1    2    0    0  0.52363177454E+01  0.14642028960E+01  0.13921858121E+04  0.13922323435E+04  0.10000000000E+02 0.  0.
</event>
<event>
 5    1  0.1068111E-008  0.3803153E+03  0.7957747E-01  0.3449787E+00
         13   -1    0    0    0    0  0.00000000000E+00  0.00000000000E+00  0.14999999963E+04  0.15000000000E+04  0.10566000000E+00 0.  1.
        994   -1    0    0    0    0 -0.00000000000E+00 -0.00000000000E+00  0.11368683772E-12  0.17120000000E+03  0.17120000000E+03 0.  0.
         13    1    1    2    0    0 -0.80649475934E+01 -0.13888788509E+02  0.33128812749E+02  0.36816724788E+02  0.10566000000E+00 0.  1.
        994    1    1    2    0    0 -0.36425470919E+01 -0.10285094760E+02  0.43717570810E+01  0.17160304072E+03  0.17120000000E+03 0.  0.
        998    1    1    2    0    0  0.11707494685E+02  0.24173883269E+02  0.14624994264E+04  0.14627802345E+04  0.10000000000E+02 0.  1.
</event>
<event>
 5    1  0.1300304E-008  0.3853948E+03  0.7957747E-01  0.3427999E+00
         13   -1    0    0    0    0  0.00000000000E+00  0.00000000000E+00  0.14999999963E+04  0.15000000000E+04  0.10566000000E+00 0. -1.
        994   -1    0    0    0    0 -0.00000000000E+00 -0.00000000000E+00  0.11368683772E-12  0.17120000000E+03  0.17120000000E+03 0.  0.
         13    1    1    2    0    0 -0.37563279844E+01 -0.95138954268E+01  0.36367068702E+02  0.37778288158E+02  0.10566000000E+00 0. -1.
        994    1    1    2    0    0  0.28313522675E+01  0.70695338133E+01  0.16247465362E+01  0.17137699573E+03  0.17120000000E+03 0.  0.
        998    1    1    2    0    0  0.92497571685E+00  0.24443616135E+01  0.14620081810E+04  0.14620447161E+04  0.10000000000E+02 0. -1.
</event>
<event>
 5    1  0.1068111E-008  0.3829475E+03  0.7957747E-01  0.3438424E+00
         13   -1    0    0    0    0  0.00000000000E+00  0.00000000000E+00  0.14999999963E+04  0.15000000000E+04  0.10566000000E+00 0. -1.
        994   -1    0    0    0    0 -0.00000000000E+00 -0.00000000000E+00  0.11368683772E-12  0.17120000000E+03  0.17120000000E+03 0.  0.
         13    1    1    2    0    0 -0.12232479283E+02 -0.10938740233E+02  0.50858469512E+02  0.53440477846E+02  0.10566000000E+00 0. -1.
        994    1    1    2    0    0 -0.16186300575E+01  0.12205959771E+02  0.31546642400E+01  0.17167118956E+03  0.17120000000E+03 0.  0.
        998    1    1    2    0    0  0.13851109340E+02 -0.12672195380E+01  0.14459868625E+04  0.14460883326E+04  0.10000000000E+02 0. -1.
</event>
<event>
 5    1  0.1068111E-008  0.3779361E+03  0.7957747E-01  0.3460195E+00
         13   -1    0    0    0    0  0.00000000000E+00  0.00000000000E+00  0.14999999963E+04  0.15000000000E+04  0.10566000000E+00 0. -1.
        994   -1    0    0    0    0 -0.00000000000E+00 -0.00000000000E+00  0.11368683772E-12  0.17120000000E+03  0.17120000000E+03 0.  0.
         13    1    1    2    0    0 -0.11325815073E+02 -0.15124887909E+02  0.32063240600E+02  0.37216916626E+02  0.10566000000E+00 0. -1.
        994    1    1    2    0    0  0.12571663632E+02  0.10770208218E+02  0.61015843328E+01  0.17210669203E+03  0.17120000000E+03 0.  0.
        998    1    1    2    0    0 -0.12458485586E+01  0.43546796905E+01  0.14618351713E+04  0.14618763913E+04  0.10000000000E+02 0. -1.
</event>
<event>
 5    1  0.1068111E-008  0.3838915E+03  0.7957747E-01  0.3434387E+00
         13   -1    0    0    0    0  0.00000000000E+00  0.00000000000E+00  0.14999999963E+04  0.15000000000E+04  0.10566000000E+00 0. -1.
        994   -1    0    0    0    0 -0.00000000000E+00 -0.00000000000E+00  0.11368683772E-12  0.17120000000E+03  0.17120000000E+03 0.  0.
         13    1    1    2    0    0  0.11204857674E+02 -0.41186309432E+01  0.31990181123E+02  0.34145201840E+02  0.10566000000E+00 0. -1.
        994    1    1    2    0    0 -0.77130470852E+01  0.40693192927E+01  0.24325174853E+01  0.17143922421E+03  0.17120000000E+03 0.  0.
        998    1    1    2    0    0 -0.34918105890E+01  0.49311650506E-01  0.14655772977E+04  0.14656155740E+04  0.10000000000E+02 0.  0.
</event>
<event>
 5    1  0.1068111E-008  0.3832091E+03  0.7957747E-01  0.3437303E+00
         13   -1    0    0    0    0  0.00000000000E+00  0.00000000000E+00  0.14999999963E+04  0.15000000000E+04  0.10566000000E+00 0. -1.
        994   -1    0    0    0    0 -0.00000000000E+00 -0.00000000000E+00  0.11368683772E-12  0.17120000000E+03  0.17120000000E+03 0.  0.
         13    1    1    2    0    0  0.19523651851E+02  0.10077922616E+02  0.98542686611E+02  0.10096241753E+03  0.10566000000E+00 0. -1.
        994    1    1    2    0    0 -0.55287568090E+01 -0.67969173809E+01  0.27758581284E+01  0.17144652410E+03  0.17120000000E+03 0.  0.
        998    1    1    2    0    0 -0.13994895042E+02 -0.32810052355E+01  0.13986814515E+04  0.13987910584E+04  0.10000000000E+02 0. -1.
</event>
<event>
 5    1  0.1068111E-008  0.3793147E+03  0.7957747E-01  0.3454148E+00
         13   -1    0    0    0    0  0.00000000000E+00  0.00000000000E+00  0.14999999963E+04  0.15000000000E+04  0.10566000000E+00 0. -1.
        994   -1    0    0    0    0 -0.00000000000E+00 -0.00000000000E+00  0.11368683772E-12  0.17120000000E+03  0.17120000000E+03 0.  0.
         13    1    1    2    0    0 -0.31369676641E+02 -0.62080060699E+01  0.12036721236E+03  0.12454265505E+03  0.10566000000E+00 0. -1.
        994    1    1    2    0    0  0.90983644105E+01 -0.91596734417E+01  0.50381189201E+01  0.17176001425E+03  0.17120000000E+03 0.  0.
        998    1    1    2    0    0  0.22271312231E+02  0.15367679512E+02  0.13745946650E+04  0.13748973307E+04  0.10000000000E+02 0. -1.
</event>
<event>
 5    1  0.1068111E-008  0.3818815E+03  0.7957747E-01  0.3443007E+00
         13   -1    0    0    0    0  0.00000000000E+00  0.00000000000E+00  0.14999999963E+04  0.15000000000E+04  0.10566000000E+00 0. -1.
        994   -1    0    0    0    0 -0.00000000000E+00 -0.00000000000E+00  0.11368683772E-12  0.17120000000E+03  0.17120000000E+03 0.  0.
         13    1    1    2    0    0 -0.11661731353E+02 -0.30275149024E+02  0.17339652015E+03  0.17640562630E+03  0.10566000000E+00 0. -1.
        994    1    1    2    0    0  0.53747330752E+01  0.10749076715E+02  0.36663779046E+01  0.17166045769E+03  0.17120000000E+03 0.  0.
        998    1    1    2    0    0  0.62869982783E+01  0.19526072309E+02  0.13229370982E+04  0.13231339160E+04  0.10000000000E+02 0. -1.
</event>
<event>
 5    1  0.1068111E-008  0.3777085E+03  0.7957747E-01  0.3461197E+00
         13   -1    0    0    0    0  0.00000000000E+00  0.00000000000E+00  0.14999999963E+04  0.15000000000E+04  0.10566000000E+00 0. -1.
        994   -1    0    0    0    0 -0.00000000000E+00 -0.00000000000E+00  0.11368683772E-12  0.17120000000E+03  0.17120000000E+03 0.  0.
         13    1    1    2    0    0 -0.40593154651E+02  0.10590086629E+02  0.15090731947E+03  0.15663008770E+03  0.10566000000E+00 0. -1.
        994    1    1    2    0    0  0.36841493779E+02 -0.16723317873E+02  0.10828287168E+02  0.17624884915E+03  0.17120000000E+03 0.  0.
        998    1    1    2    0    0  0.37516608713E+01  0.61332312436E+01  0.13382643896E+04  0.13383210631E+04  0.10000000000E+02 0. -1.
</event>
<event>
 5    1  0.1068111E-008  0.3783444E+03  0.7957747E-01  0.3458399E+00
         13   -1    0    0    0    0  0.00000000000E+00  0.00000000000E+00  0.14999999963E+04  0.15000000000E+04  0.10566000000E+00 0.  1.
        994   -1    0    0    0    0 -0.00000000000E+00 -0.00000000000E+00  0.11368683772E-12  0.17120000000E+03  0.17120000000E+03 0.  0.
         13    1    1    2    0    0 -0.37302918206E+02  0.13894117544E+01  0.15623793120E+03  0.16063542723E+03  0.10566000000E+00 0.  1.
        994    1    1    2    0    0  0.20698842582E+01  0.13379731927E+01  0.49916325170E+01  0.17129048715E+03  0.17120000000E+03 0.  0.
        998    1    1    2    0    0  0.35233033948E+02 -0.27273849471E+01  0.13387704326E+04  0.13392740856E+04  0.10000000000E+02 0.  1.
</event>
<event>
 5    1  0.1068111E-008  0.3776289E+03  0.7957747E-01  0.3461548E+00
         13   -1    0    0    0    0  0.00000000000E+00  0.00000000000E+00  0.14999999963E+04  0.15000000000E+04  0.10566000000E+00 0. -1.
        994   -1    0    0    0    0 -0.00000000000E+00 -0.00000000000E+00  0.11368683772E-12  0.17120000000E+03  0.17120000000E+03 0.  0.
         13    1    1    2    0    0 -0.45417170909E+02  0.27954576882E+02  0.25448675583E+03  0.26001480311E+03  0.10566000000E+00 0. -1.
        994    1    1    2    0    0  0.28596041325E+02 -0.21748141932E+02  0.96960689741E+01  0.17519751428E+03  0.17120000000E+03 0.  0.
        998    1    1    2    0    0  0.16821129584E+02 -0.62064349494E+01  0.12358171715E+04  0.12359876826E+04  0.10000000000E+02 0. -1.
</event>
<event>
 5    1  0.1068111E-008  0.3765861E+03  0.7957747E-01  0.3466159E+00
         13   -1    0    0    0    0  0.00000000000E+00  0.00000000000E+00  0.14999999963E+04  0.15000000000E+04  0.10566000000E+00 0. -1.
        994   -1    0    0    0    0 -0.00000000000E+00 -0.00000000000E+00  0.11368683772E-12  0.17120000000E+03  0.17120000000E+03 0.  0.
         13    1    1    2    0    0 -0.26216556872E+02  0.12451827856E+02  0.81353791170E+02  0.86375959462E+02  0.10566000000E+00 0. -1.
        994    1    1    2    0    0 -0.28121661898E+02 -0.13648293521E+02  0.91772646026E+01  0.17427210325E+03  0.17120000000E+03 0.  0.
        998    1    1    2    0    0  0.54338218770E+02  0.11964656642E+01  0.14094689405E+04  0.14105519373E+04  0.10000000000E+02 0. -1.
</event>
<event>
 5    1  0.1068111E-008  0.3797314E+03  0.7957747E-01  0.3452329E+00
         13   -1    0    0    0    0  0.00000000000E+00  0.00000000000E+00  0.14999999963E+04  0.15000000000E+04  0.10566000000E+00 0. -1.
        994   -1    0    0    0    0 -0.00000000000E+00 -0.00000000000E+00  0.11368683772E-12  0.17120000000E+03  0.17120000000E+03 0.  0.
         13    1    1    2    0    0  0.20914527407E+02 -0.21939445955E+01  0.45626549750E+02  0.50239666158E+02  0.10566000000E+00 0. -1.
        994    1    1    2    0    0 -0.44337653390E+02 -0.33840469299E+02  0.14749059362E+02  0.18065984508E+03  0.17120000000E+03 0.  0.
        998    1    1    2    0    0  0.23423125983E+02  0.36034413894E+02  0.14396243872E+04  0.14403004888E+04  0.10000000000E+02 0. -1.
</event>
<event>
 5    1  0.1068111E-008  0.3838498E+03  0.7957747E-01  0.3434565E+00
         13   -1    0    0    0    0  0.00000000000E+00  0.00000000000E+00  0.14999999963E+04  0.15000000000E+04  0.10566000000E+00 0. -1.
        994   -1    0    0    0    0 -0.00000000000E+00 -0.00000000000E+00  0.11368683772E-12  0.17120000000E+03  0.17120000000E+03 0.  0.
         13    1    1    2    0    0 -0.14637573278E+02 -0.12614334955E+02  0.95712824555E+02  0.97643924266E+02  0.10566000000E+00 0. -1.
        994    1    1    2    0    0 -0.99966987782E+01  0.20137276997E+01  0.25456092970E+01  0.17152232861E+03  0.17120000000E+03 0.  0.
        998    1    1    2    0    0  0.24634272057E+02  0.10600607255E+02  0.14017415624E+04  0.14020337471E+04  0.10000000000E+02 0. -1.
</event>
<event>
 5    1  0.1068111E-008  0.3824892E+03  0.7957747E-01  0.3440391E+00
         13   -1    0    0    0    0  0.00000000000E+00  0.00000000000E+00  0.14999999963E+04  0.15000000000E+04  0.10566000000E+00 0. -1.
        994   -1    0    0    0    0 -0.00000000000E+00 -0.00000000000E+00  0.11368683772E-12  0.17120000000E+03  0.17120000000E+03 0.  0.
         13    1    1    2    0    0  0.24141893373E+02  0.61359304046E+01  0.11824288260E+03  0.12083820218E+03  0.10566000000E+00 0. -1.
        994    1    1    2    0    0 -0.12936889749E+01  0.51760520528E+01  0.29762387783E+01  0.17130896983E+03  0.17120000000E+03 0.  0.
        998    1    1    2    0    0 -0.22848204398E+02 -0.11311982457E+02  0.13787808749E+04  0.13790528280E+04  0.10000000000E+02 0. -1.
</event>
<event>
 5    1  0.1068111E-008  0.3823391E+03  0.7957747E-01  0.3441036E+00
         13   -1    0    0    0    0  0.00000000000E+00  0.00000000000E+00  0.14999999963E+04  0.15000000000E+04  0.10566000000E+00 0. -1.
        994   -1    0    0    0    0 -0.00000000000E+00 -0.00000000000E+00  0.11368683772E-12  0.17120000000E+03  0.17120000000E+03 0.  0.
         13    1    1    2    0    0  0.17525353834E+02 -0.11933754145E+02  0.73633294158E+02  0.76625228793E+02  0.10566000000E+00 0. -1.
        994    1    1    2    0    0 -0.35350098486E+02 -0.19472134132E+02  0.83790719620E+01  0.17609214156E+03  0.17120000000E+03 0.  0.
        998    1    1    2    0    0  0.17824744652E+02  0.31405888277E+02  0.14179876302E+04  0.14184826297E+04  0.10000000000E+02 0. -1.
</event>
<event>
 5    1  0.1068111E-008  0.3687388E+03  0.7957747E-01  0.3501707E+00
         13   -1    0    0    0    0  0.00000000000E+00  0.00000000000E+00  0.14999999963E+04  0.15000000000E+04  0.10566000000E+00 0. -1.
        994   -1    0    0    0    0 -0.00000000000E+00 -0.00000000000E+00  0.11368683772E-12  0.17120000000E+03  0.17120000000E+03 0.  0.
         13    1    1    2    0    0  0.10102923836E+03 -0.90033726829E+02  0.73331183250E+03  0.74569379361E+03  0.10566000000E+00 0. -1.
        994    1    1    2    0    0 -0.46667191583E+02  0.10258789171E+03  0.55888560494E+02  0.21245016707E+03  0.17120000000E+03 0.  0.
        998    1    1    2    0    0 -0.54362046774E+02 -0.12554164880E+02  0.71079960328E+03  0.71305603932E+03  0.10000000000E+02 0.  1.
</event>
<event>
 5    1  0.1068111E-008  0.3852299E+03  0.7957747E-01  0.3428698E+00
         13   -1    0    0    0    0  0.00000000000E+00  0.00000000000E+00  0.14999999963E+04  0.15000000000E+04  0.10566000000E+00 0. -1.
        994   -1    0    0    0    0 -0.00000000000E+00 -0.00000000000E+00  0.11368683772E-12  0.17120000000E+03  0.17120000000E+03 0.  0.
         13    1    1    2    0    0  0.23160128427E+02  0.37322457610E+00  0.13907132656E+03  0.14098714792E+03  0.10566000000E+00 0. -1.
        994    1    1    2    0    0 -0.41246885093E+02  0.14550522925E+02  0.78280341733E+01  0.17687210455E+03  0.17120000000E+03 0.  0.
        998    1    1    2    0    0  0.18086756666E+02 -0.14923747501E+02  0.13531006355E+04  0.13533407475E+04  0.10000000000E+02 0. -1.
</event>
<event>
 5    1  0.1068111E-008  0.3845639E+03  0.7957747E-01  0.3431524E+00
         13   -1    0    0    0    0  0.00000000000E+00  0.00000000000E+00  0.14999999963E+04  0.15000000000E+04  0.10566000000E+00 0.  1.
        994   -1    0    0    0    0 -0.00000000000E+00 -0.00000000000E+00  0.11368683772E-12  0.17120000000E+03  0.17120000000E+03 0.  0.
         13    1    1    2    0    0 -0.11786341925E+02  0.53567060622E+00  0.38094604934E+02  0.39880006120E+02  0.10566000000E+00 0.  1.
        994    1    1    2    0    0  0.39256515962E+01  0.30058674484E+01  0.19273250885E+01  0.17128222489E+03  0.17120000000E+03 0.  0.
        998    1    1    2    0    0  0.78606903291E+01 -0.35415380546E+01  0.14599780663E+04  0.14600377690E+04  0.10000000000E+02 0.  1.
</event>
<event>
 5    1  0.1068111E-008  0.3732142E+03  0.7957747E-01  0.3481248E+00
         13   -1    0    0    0    0  0.00000000000E+00  0.00000000000E+00  0.14999999963E+04  0.15000000000E+04  0.10566000000E+00 0.  1.
        994   -1    0    0    0    0 -0.00000000000E+00 -0.00000000000E+00  0.11368683772E-12  0.17120000000E+03  0.17120000000E+03 0.  0.
         13    1    1    2    0    0 -0.46698562003E+02  0.48832412543E+02  0.17664331850E+03  0.18912491465E+03  0.10566000000E+00 0.  1.
        994    1    1    2    0    0  0.35850039871E+02 -0.22421402978E+02  0.18997197669E+02  0.17736481666E+03  0.17120000000E+03 0.  0.
        998    1    1    2    0    0  0.10848522132E+02 -0.26411009565E+02  0.13043594801E+04  0.13047102687E+04  0.10000000000E+02 0.  1.
</event>
<event>
 5    1  0.1068111E-008  0.3694164E+03  0.7957747E-01  0.3498577E+00
         13   -1    0    0    0    0  0.00000000000E+00  0.00000000000E+00  0.14999999963E+04  0.15000000000E+04  0.10566000000E+00 0.  1.
        994   -1    0    0    0    0 -0.00000000000E+00 -0.00000000000E+00  0.11368683772E-12  0.17120000000E+03  0.17120000000E+03 0.  0.
         13    1    1    2    0    0  0.18566023904E+02 -0.23344473397E+01  0.14684170072E+02  0.23786191430E+02  0.10566000000E+00 0.  1.
        994    1    1    2    0    0  0.19271602776E+01 -0.23141563922E+02  0.11444928113E+02  0.17314638982E+03  0.17120000000E+03 0.  0.
        998    1    1    2    0    0 -0.20493184182E+02  0.25476011262E+02  0.14738708981E+04  0.14742674188E+04  0.10000000000E+02 0.  1.
</event>
<event>
 5    1  0.1068111E-008  0.3858285E+03  0.7957747E-01  0.3426166E+00
         13   -1    0    0    0    0  0.00000000000E+00  0.00000000000E+00  0.14999999963E+04  0.15000000000E+04  0.10566000000E+00 0.  1.
        994   -1    0    0    0    0 -0.00000000000E+00 -0.00000000000E+00  0.11368683772E-12  0.17120000000E+03  0.17120000000E+03 0.  0.
         13    1    1    2    0    0  0.11228958127E+02  0.14080269737E+01  0.52503887508E+02  0.53709788755E+02  0.10566000000E+00 0.  1.
        994    1    1    2    0    0 -0.87846391993E+01 -0.23701612359E+01  0.14909596897E+01  0.17144809859E+03  0.17120000000E+03 0.  0.
        998    1    1    2    0    0 -0.24443189277E+01  0.96213426218E+00  0.14460051491E+04  0.14460421127E+04  0.10000000000E+02 0.  1.
</event>
<event>
 5    1  0.1068111E-008  0.3823198E+03  0.7957747E-01  0.3441119E+00
         13   -1    0    0    0    0  0.00000000000E+00  0.00000000000E+00  0.14999999963E+04  0.15000000000E+04  0.10566000000E+00 0.  1.
        994   -1    0    0    0    0 -0.00000000000E+00 -0.00000000000E+00  0.11368683772E-12  0.17120000000E+03  0.17120000000E+03 0.  0.
         13    1    1    2    0    0  0.11299125456E+02  0.93053935335E+01  0.35697879097E+02  0.38582513149E+02  0.10566000000E+00 0.  1.
        994    1    1    2    0    0 -0.52471942420E+01 -0.16734653650E+01  0.30673393814E+01  0.17131602991E+03  0.17120000000E+03 0.  0.
        998    1    1    2    0    0 -0.60519312136E+01 -0.76319281685E+01  0.14612347778E+04  0.14613014569E+04  0.10000000000E+02 0.  1.
</event>
<event>
 5    1  0.1068111E-008  0.3817448E+03  0.7957747E-01  0.3443596E+00
         13   -1    0    0    0    0  0.00000000000E+00  0.00000000000E+00  0.14999999963E+04  0.15000000000E+04  0.10566000000E+00 0. -1.
        994   -1    0    0    0    0 -0.00000000000E+00 -0.00000000000E+00  0.11368683772E-12  0.17120000000E+03  0.17120000000E+03 0.  0.
         13    1    1    2    0    0  0.29540050376E+02 -0.48441986667E+02  0.33679387547E+03  0.34153969954E+03  0.10566000000E+00 0. -1.
        994    1    1    2    0    0 -0.62794926326E+02  0.44913039041E+02  0.23325757753E+02  0.18924564677E+03  0.17120000000E+03 0.  0.
        998    1    1    2    0    0  0.33254875950E+02  0.35289476263E+01  0.11398803631E+04  0.11404146537E+04  0.10000000000E+02 0. -1.
</event>
<event>
 5    1  0.1068111E-008  0.3849890E+03  0.7957747E-01  0.3429719E+00
         13   -1    0    0    0    0  0.00000000000E+00  0.00000000000E+00  0.14999999963E+04  0.15000000000E+04  0.10566000000E+00 0. -1.
        994   -1    0    0    0    0 -0.00000000000E+00 -0.00000000000E+00  0.11368683772E-12  0.17120000000E+03  0.17120000000E+03 0.  0.
         13    1    1    2    0    0  0.34581787540E+01  0.13370235287E+02  0.58408290495E+02  0.60018844995E+02  0.10566000000E+00 0. -1.
        994    1    1    2    0    0  0.27490503964E+01 -0.98455050398E+01  0.19793008029E+01  0.17151632249E+03  0.17120000000E+03 0.  0.
        998    1    1    2    0    0 -0.62072291504E+01 -0.35247302474E+01  0.14396124050E+04  0.14396648325E+04  0.10000000000E+02 0. -1.
</event>
<event>
 5    1  0.1068111E-008  0.3741291E+03  0.7957747E-01  0.3477127E+00
         13   -1    0    0    0    0  0.00000000000E+00  0.00000000000E+00  0.14999999963E+04  0.15000000000E+04  0.10566000000E+00 0.  1.
        994   -1    0    0    0    0 -0.00000000000E+00 -0.00000000000E+00  0.11368683772E-12  0.17120000000E+03  0.17120000000E+03 0.  0.
         13    1    1    2    0    0  0.41767982059E+02 -0.23825466220E+01  0.10671837178E+03  0.11462575144E+03  0.10566000000E+00 0.  1.
        994    1    1    2    0    0 -0.53493413458E+02  0.68900255140E+01  0.17109658694E+02  0.18030861919E+03  0.17120000000E+03 0.  0.
        998    1    1    2    0    0  0.11725431399E+02 -0.45074788921E+01  0.13761719658E+04  0.13762656294E+04  0.10000000000E+02 0.  1.
</event>
<event>
 5    1  0.1068111E-008  0.3828622E+03  0.7957747E-01  0.3438790E+00
         13   -1    0    0    0    0  0.00000000000E+00  0.00000000000E+00  0.14999999963E+04  0.15000000000E+04  0.10566000000E+00 0.  1.
        994   -1    0    0    0    0 -0.00000000000E+00 -0.00000000000E+00  0.11368683772E-12  0.17120000000E+03  0.17120000000E+03 0.  0.
         13    1    1    2    0    0 -0.41183212719E-01  0.14348057481E+02  0.38278305307E+02  0.40879191170E+02  0.10566000000E+00 0.  1.
        994    1    1    2    0    0  0.43532498588E+01 -0.32157364696E+01  0.27922815802E+01  0.17130828521E+03  0.17120000000E+03 0.  0.
        998    1    1    2    0    0 -0.43120666461E+01 -0.11132321011E+02  0.14589294094E+04  0.14590125236E+04  0.10000000000E+02 0.  1.
</event>
<event>
 5    1  0.1068111E-008  0.3688132E+03  0.7957747E-01  0.3501363E+00
         13   -1    0    0    0    0  0.00000000000E+00  0.00000000000E+00  0.14999999963E+04  0.15000000000E+04  0.10566000000E+00 0. -1.
        994   -1    0    0    0    0 -0.00000000000E+00 -0.00000000000E+00  0.11368683772E-12  0.17120000000E+03  0.17120000000E+03 0.  0.
         13    1    1    2    0    0  0.70341694972E+02  0.14952660506E+02  0.19946666571E+03  0.21203419064E+03  0.10566000000E+00 0. -1.
        994    1    1    2    0    0 -0.85171839611E+02 -0.12818716223E+02  0.36606131748E+02  0.19511025250E+03  0.17120000000E+03 0.  0.
        998    1    1    2    0    0  0.14830144639E+02 -0.21339442829E+01  0.12639271988E+04  0.12640555569E+04  0.10000000000E+02 0. -1.
</event>
<event>
 5    1  0.1068111E-008  0.3777457E+03  0.7957747E-01  0.3461033E+00
         13   -1    0    0    0    0  0.00000000000E+00  0.00000000000E+00  0.14999999963E+04  0.15000000000E+04  0.10566000000E+00 0. -1.
        994   -1    0    0    0    0 -0.00000000000E+00 -0.00000000000E+00  0.11368683772E-12  0.17120000000E+03  0.17120000000E+03 0.  0.
         13    1    1    2    0    0  0.64151295322E+02  0.17836999554E+02  0.38301367808E+03  0.38875832596E+03  0.10566000000E+00 0. -1.
        994    1    1    2    0    0 -0.54220131658E+02  0.13409293770E+02  0.15855433890E+02  0.18077739521E+03  0.17120000000E+03 0.  0.
        998    1    1    2    0    0 -0.99311636642E+01 -0.31246293324E+02  0.11011308843E+04  0.11016642788E+04  0.10000000000E+02 0. -1.
</event>
<event>
 5    1  0.1876217E-008  0.3857679E+03  0.7957747E-01  0.3426422E+00
         13   -1    0    0    0    0  0.00000000000E+00  0.00000000000E+00  0.14999999963E+04  0.15000000000E+04  0.10566000000E+00 0.  1.
        994   -1    0    0    0    0 -0.00000000000E+00 -0.00000000000E+00  0.11368683772E-12  0.17120000000E+03  0.17120000000E+03 0.  0.
         13    1    1    2    0    0 -0.10814609158E+02 -0.39451037746E+01  0.51984549653E+02  0.53244006063E+02  0.10566000000E+00 0.  1.
        994    1    1    2    0    0  0.11928335420E+02  0.26577548576E+01  0.17394679307E+01  0.17164444237E+03  0.17120000000E+03 0.  0.
        998    1    1    2    0    0 -0.11137262622E+01  0.12873489170E+01  0.14462759787E+04  0.14463115516E+04  0.10000000000E+02 0.  1.
</event>
<event>
 5    1  0.1068111E-008  0.3755830E+03  0.7957747E-01  0.3470620E+00
         13   -1    0    0    0    0  0.00000000000E+00  0.00000000000E+00  0.14999999963E+04  0.15000000000E+04  0.10566000000E+00 0.  1.
        994   -1    0    0    0    0 -0.00000000000E+00 -0.00000000000E+00  0.11368683772E-12  0.17120000000E+03  0.17120000000E+03 0.  0.
         13    1    1    2    0    0 -0.16654202975E+02  0.16841192683E+02  0.38709560696E+02  0.45380937639E+02  0.10566000000E+00 0.  1.
        994    1    1    2    0    0  0.26457943929E+02 -0.28305513007E+02  0.11489636334E+02  0.17590530579E+03  0.17120000000E+03 0.  0.
        998    1    1    2    0    0 -0.98037409542E+01  0.11464320324E+02  0.14498007992E+04  0.14499137566E+04  0.10000000000E+02 0.  1.
</event>
<event>
 5    1  0.1068111E-008  0.3837133E+03  0.7957747E-01  0.3435148E+00
         13   -1    0    0    0    0  0.00000000000E+00  0.00000000000E+00  0.14999999963E+04  0.15000000000E+04  0.10566000000E+00 0. -1.
        994   -1    0    0    0    0 -0.00000000000E+00 -0.00000000000E+00  0.11368683772E-12  0.17120000000E+03  0.17120000000E+03 0.  0.
         13    1    1    2    0    0  0.10519703478E+02  0.47484514062E+01  0.28750306343E+02  0.30980691259E+02  0.10566000000E+00 0. -1.
        994    1    1    2    0    0 -0.55133615184E+01 -0.46834659434E+01  0.24431420516E+01  0.17137018688E+03  0.17120000000E+03 0.  0.
        998    1    1    2    0    0 -0.50063419596E+01 -0.64985462796E-01  0.14688065479E+04  0.14688491219E+04  0.10000000000E+02 0. -1.
</event>
<event>
 5    1  0.1068111E-008  0.3828004E+03  0.7957747E-01  0.3439055E+00
         13   -1    0    0    0    0  0.00000000000E+00  0.00000000000E+00  0.14999999963E+04  0.15000000000E+04  0.10566000000E+00 0.  1.
        994   -1    0    0    0    0 -0.00000000000E+00 -0.00000000000E+00  0.11368683772E-12  0.17120000000E+03  0.17120000000E+03 0.  0.
         13    1    1    2    0    0 -0.24097284821E+02 -0.19830880517E+01  0.10351417126E+03  0.10630054840E+03  0.10566000000E+00 0.  1.
        994    1    1    2    0    0  0.19446485708E+02 -0.99217608797E+00  0.39830276779E+01  0.17234980339E+03  0.17120000000E+03 0.  0.
        998    1    1    2    0    0  0.46507991129E+01  0.29752641396E+01  0.13925027973E+04  0.13925496482E+04  0.10000000000E+02 0.  1.
</event>
<event>
 5    1  0.1068111E-008  0.3853259E+03  0.7957747E-01  0.3428291E+00
         13   -1    0    0    0    0  0.00000000000E+00  0.00000000000E+00  0.14999999963E+04  0.15000000000E+04  0.10566000000E+00 0.  1.
        994   -1    0    0    0    0 -0.00000000000E+00 -0.00000000000E+00  0.11368683772E-12  0.17120000000E+03  0.17120000000E+03 0.  0.
         13    1    1    2    0    0 -0.12303873963E+02  0.15243646821E+00  0.48844039907E+02  0.50370228805E+02  0.10566000000E+00 0.  1.
        994    1    1    2    0    0  0.18239710048E+02  0.76315997063E+01  0.27537312011E+01  0.17235994712E+03  0.17120000000E+03 0.  0.
        998    1    1    2    0    0 -0.59358360851E+01 -0.77840361745E+01  0.14484022252E+04  0.14484698241E+04  0.10000000000E+02 0.  1.
</event>
<event>
 5    1  0.1068111E-008  0.3816604E+03  0.7957747E-01  0.3443961E+00
         13   -1    0    0    0    0  0.00000000000E+00  0.00000000000E+00  0.14999999963E+04  0.15000000000E+04  0.10566000000E+00 0. -1.
        994   -1    0    0    0    0 -0.00000000000E+00 -0.00000000000E+00  0.11368683772E-12  0.17120000000E+03  0.17120000000E+03 0.  0.
         13    1    1    2    0    0  0.11900411218E+02  0.12936855124E+02  0.48720439474E+02  0.51794540197E+02  0.10566000000E+00 0. -1.
        994    1    1    2    0    0  0.45378848764E+01  0.14414132989E+01  0.33727225276E+01  0.17129940259E+03  0.17120000000E+03 0.  0.
        998    1    1    2    0    0 -0.16438296095E+02 -0.14378268423E+02  0.14479068343E+04  0.14481060572E+04  0.10000000000E+02 0. -1.
</event>
<event>
 5    1  0.1068111E-008  0.3767113E+03  0.7957747E-01  0.3465604E+00
         13   -1    0    0    0    0  0.00000000000E+00  0.00000000000E+00  0.14999999963E+04  0.15000000000E+04  0.10566000000E+00 0. -1.
        994   -1    0    0    0    0 -0.00000000000E+00 -0.00000000000E+00  0.11368683772E-12  0.17120000000E+03  0.17120000000E+03 0.  0.
         13    1    1    2    0    0 -0.25816955909E+02 -0.36530813342E+01  0.55885944167E+02  0.61669361397E+02  0.10566000000E+00 0. -1.
        994    1    1    2    0    0  0.18557985160E+02  0.69501649819E+01  0.71308839547E+01  0.17249055949E+03  0.17120000000E+03 0.  0.
        998    1    1    2    0    0  0.72589707485E+01 -0.32970836476E+01  0.14369831682E+04  0.14370400791E+04  0.10000000000E+02 0. -1.
</event>
<event>
 5    1  0.1068111E-008  0.3716255E+03  0.7957747E-01  0.3488453E+00
         13   -1    0    0    0    0  0.00000000000E+00  0.00000000000E+00  0.14999999963E+04  0.15000000000E+04  0.10566000000E+00 0. -1.
        994   -1    0    0    0    0 -0.00000000000E+00 -0.00000000000E+00  0.11368683772E-12  0.17120000000E+03  0.17120000000E+03 0.  0.
         13    1    1    2    0    0  0.54744029443E+02 -0.98087095975E+02  0.48434286081E+03  0.49719815480E+03  0.10566000000E+00 0. -1.
        994    1    1    2    0    0 -0.30207102229E+02  0.11505777935E+03  0.58768832632E+02  0.21659634647E+03  0.17120000000E+03 0.  0.
        998    1    1    2    0    0 -0.24536927214E+02 -0.16970683379E+02  0.95688830284E+03  0.95740549873E+03  0.10000000000E+02 0. -1.
</event>
<event>
 5    1  0.1153223E-008  0.3829298E+03  0.7957747E-01  0.3438500E+00
         13   -1    0    0    0    0  0.00000000000E+00  0.00000000000E+00  0.14999999963E+04  0.15000000000E+04  0.10566000000E+00 0. -1.
        994   -1    0    0    0    0 -0.00000000000E+00 -0.00000000000E+00  0.11368683772E-12  0.17120000000E+03  0.17120000000E+03 0.  0.
         13    1    1    2    0    0  0.37191197137E+01  0.17286639901E+02  0.56309495148E+02  0.59020591139E+02  0.10566000000E+00 0. -1.
        994    1    1    2    0    0 -0.91908711523E+00 -0.17804826526E+02  0.37145217793E+01  0.17216589163E+03  0.17120000000E+03 0.  0.
        998    1    1    2    0    0 -0.28000325985E+01  0.51818662485E+00  0.14399759794E+04  0.14400135172E+04  0.10000000000E+02 0. -1.
</event>
<event>
 5    1  0.1068111E-008  0.3810060E+03  0.7957747E-01  0.3446790E+00
         13   -1    0    0    0    0  0.00000000000E+00  0.00000000000E+00  0.14999999963E+04  0.15000000000E+04  0.10566000000E+00 0.  1.
        994   -1    0    0    0    0 -0.00000000000E+00 -0.00000000000E+00  0.11368683772E-12  0.17120000000E+03  0.17120000000E+03 0.  0.
         13    1    1    2    0    0  0.25349424158E+02 -0.13270915255E+02  0.11511812981E+03  0.11862084754E+03  0.10566000000E+00 0.  1.
        994    1    1    2    0    0 -0.13051160083E+02  0.12010478043E+01  0.41987270814E+01  0.17175227685E+03  0.17120000000E+03 0.  0.
        998    1    1    2    0    0 -0.12298264075E+02  0.12069867451E+02  0.13806831394E+04  0.13808268756E+04  0.10000000000E+02 0.  1.
</event>
<event>
 5    1  0.1068111E-008  0.3775213E+03  0.7957747E-01  0.3462023E+00
         13   -1    0    0    0    0  0.00000000000E+00  0.00000000000E+00  0.14999999963E+04  0.15000000000E+04  0.10566000000E+00 0. -1.
        994   -1    0    0    0    0 -0.00000000000E+00 -0.00000000000E+00  0.11368683772E-12  0.17120000000E+03  0.17120000000E+03 0.  0.
         13    1    1    2    0    0 -0.16471949175E+02  0.48897198122E+01  0.24926708184E+02  0.30275178189E+02  0.10566000000E+00 0. -1.
        994    1    1    2    0    0  0.15463221850E+02 -0.10620635823E+01  0.61998059861E+01  0.17201196704E+03  0.17120000000E+03 0.  0.
        998    1    1    2    0    0  0.10087273253E+01 -0.38276562299E+01  0.14688734821E+04  0.14689128548E+04  0.10000000000E+02 0. -1.
</event>
<event>
 5    1  0.1068111E-008  0.3795434E+03  0.7957747E-01  0.3453149E+00
         13   -1    0    0    0    0  0.00000000000E+00  0.00000000000E+00  0.14999999963E+04  0.15000000000E+04  0.10566000000E+00 0.  1.
        994   -1    0    0    0    0 -0.00000000000E+00 -0.00000000000E+00  0.11368683772E-12  0.17120000000E+03  0.17120000000E+03 0.  0.
         13    1    1    2    0    0  0.58553070044E+01  0.76316229253E+02  0.20391585439E+03  0.21780757173E+03  0.10566000000E+00 0.  1.
        994    1    1    2    0    0  0.69603607968E+01 -0.15657234997E+02  0.17139490805E+02  0.17290690494E+03  0.17120000000E+03 0.  0.
        998    1    1    2    0    0 -0.12815667801E+02 -0.60658994255E+02  0.12789446511E+04  0.12804855233E+04  0.10000000000E+02 0.  1.
</event>
<event>
 5    1  0.1068111E-008  0.3802595E+03  0.7957747E-01  0.3450030E+00
         13   -1    0    0    0    0  0.00000000000E+00  0.00000000000E+00  0.14999999963E+04  0.15000000000E+04  0.10566000000E+00 0.  1.
        994   -1    0    0    0    0 -0.00000000000E+00 -0.00000000000E+00  0.11368683772E-12  0.17120000000E+03  0.17120000000E+03 0.  0.
         13    1    1    2    0    0 -0.28221505693E+02  0.15989397507E+02  0.14715983758E+03  0.15069221339E+03  0.10566000000E+00 0.  1.
        994    1    1    2    0    0  0.57555765076E+01  0.95203397200E+01  0.44157175859E+01  0.17161789560E+03  0.17120000000E+03 0.  0.
        998    1    1    2    0    0  0.22465929185E+02 -0.25509737227E+02  0.13484244411E+04  0.13488898910E+04  0.10000000000E+02 0.  1.
</event>
<event>
 5    1  0.1068111E-008  0.3842410E+03  0.7957747E-01  0.3432898E+00
         13   -1    0    0    0    0  0.00000000000E+00  0.00000000000E+00  0.14999999963E+04  0.15000000000E+04  0.10566000000E+00 0.  1.
        994   -1    0    0    0    0 -0.00000000000E+00 -0.00000000000E+00  0.11368683772E-12  0.17120000000E+03  0.17120000000E+03 0.  0.
         13    1    1    2    0    0 -0.13274887480E+02  0.36316143218E+01  0.46246706427E+02  0.48251220498E+02  0.10566000000E+00 0.  1.
        994    1    1    2    0    0  0.12108939827E+02  0.49076601559E+00  0.24917719723E+01  0.17164648614E+03  0.17120000000E+03 0.  0.
        998    1    1    2    0    0  0.11659476529E+01 -0.41223803373E+01  0.14512615179E+04  0.14513022934E+04  0.10000000000E+02 0.  1.
</event>
<event>
 5    1  0.1068111E-008  0.3798597E+03  0.7957747E-01  0.3451770E+00
         13   -1    0    0    0    0  0.00000000000E+00  0.00000000000E+00  0.14999999963E+04  0.15000000000E+04  0.10566000000E+00 0.  1.
        994   -1    0    0    0    0 -0.00000000000E+00 -0.00000000000E+00  0.11368683772E-12  0.17120000000E+03  0.17120000000E+03 0.  0.
         13    1    1    2    0    0  0.48282978540E+02 -0.71965113201E+01  0.24038579843E+03  0.24529243577E+03  0.10566000000E+00 0.  1.
        994    1    1    2    0    0 -0.48190942672E+02  0.27341859752E+01  0.12035771418E+02  0.17828107730E+03  0.17120000000E+03 0.  0.
        998    1    1    2    0    0 -0.92035867955E-01  0.44623253449E+01  0.12475784264E+04  0.12476264869E+04  0.10000000000E+02 0.  0.
</event>
<event>
 5    1  0.1068111E-008  0.3757246E+03  0.7957747E-01  0.3469988E+00
         13   -1    0    0    0    0  0.00000000000E+00  0.00000000000E+00  0.14999999963E+04  0.15000000000E+04  0.10566000000E+00 0.  1.
        994   -1    0    0    0    0 -0.00000000000E+00 -0.00000000000E+00  0.11368683772E-12  0.17120000000E+03  0.17120000000E+03 0.  0.
         13    1    1    2    0    0 -0.65581565267E+01  0.17288315975E+02  0.24933022381E+02  0.31041295968E+02  0.10566000000E+00 0.  1.
        994    1    1    2    0    0  0.43351954252E+02  0.11855275668E+02  0.13187444333E+02  0.17749165667E+03  0.17120000000E+03 0.  0.
        998    1    1    2    0    0 -0.36793797725E+02 -0.29143591643E+02  0.14618795296E+04  0.14626670474E+04  0.10000000000E+02 0.  1.
</event>
<event>
 5    1  0.1068111E-008  0.3693135E+03  0.7957747E-01  0.3499052E+00
         13   -1    0    0    0    0  0.00000000000E+00  0.00000000000E+00  0.14999999963E+04  0.15000000000E+04  0.10566000000E+00 0. -1.
        994   -1    0    0    0    0 -0.00000000000E+00 -0.00000000000E+00  0.11368683772E-12  0.17120000000E+03  0.17120000000E+03 0.  0.
         13    1    1    2    0    0 -0.48023228511E+02 -0.34762597739E+02  0.15906791530E+03  0.16975653602E+03  0.10566000000E+00 0. -1.
        994    1    1    2    0    0  0.36522346333E+02  0.19479214944E+02  0.16575503746E+02  0.17691101978E+03  0.17120000000E+03 0.  0.
        998    1    1    2    0    0  0.11500882178E+02  0.15283382795E+02  0.13243565772E+04  0.13245324442E+04  0.10000000000E+02 0. -1.
</event>
<event>
 5    1  0.1068111E-008  0.3838920E+03  0.7957747E-01  0.3434385E+00
         13   -1    0    0    0    0  0.00000000000E+00  0.00000000000E+00  0.14999999963E+04  0.15000000000E+04  0.10566000000E+00 0.  1.
        994   -1    0    0    0    0 -0.00000000000E+00 -0.00000000000E+00  0.11368683772E-12  0.17120000000E+03  0.17120000000E+03 0.  0.
         13    1    1    2    0    0  0.90807111457E+01 -0.19045154619E+02  0.10252689808E+03  0.10467546620E+03  0.10566000000E+00 0.  1.
        994    1    1    2    0    0 -0.84727682857E+01  0.91282453171E+01  0.26933448160E+01  0.17167354709E+03  0.17120000000E+03 0.  0.
        998    1    1    2    0    0 -0.60794285997E+00  0.99169093019E+01  0.13947797534E+04  0.13948509867E+04  0.10000000000E+02 0.  1.
</event>
<event>
 5    1  0.1068111E-008  0.3801490E+03  0.7957747E-01  0.3450510E+00
         13   -1    0    0    0    0  0.00000000000E+00  0.00000000000E+00  0.14999999963E+04  0.15000000000E+04  0.10566000000E+00 0. -1.
        994   -1    0    0    0    0 -0.00000000000E+00 -0.00000000000E+00  0.11368683772E-12  0.17120000000E+03  0.17120000000E+03 0.  0.
         13    1    1    2    0    0 -0.17280720809E+02  0.11377964268E+02  0.49290924915E+02  0.53457345853E+02  0.10566000000E+00 0. -1.
        994    1    1    2    0    0  0.20612030562E+02 -0.12024725706E+02  0.59629431192E+01  0.17295793281E+03  0.17120000000E+03 0.  0.
        998    1    1    2    0    0 -0.33313097532E+01  0.64676143732E+00  0.14447461282E+04  0.14447847213E+04  0.10000000000E+02 0. -1.
</event>
<event>
 5    1  0.1068111E-008  0.3717824E+03  0.7957747E-01  0.3487739E+00
         13   -1    0    0    0    0  0.00000000000E+00  0.00000000000E+00  0.14999999963E+04  0.15000000000E+04  0.10566000000E+00 0. -1.
        994   -1    0    0    0    0 -0.00000000000E+00 -0.00000000000E+00  0.11368683772E-12  0.17120000000E+03  0.17120000000E+03 0.  0.
         13    1    1    2    0    0 -0.21496593059E+02  0.17476827202E+02  0.27910739798E+02  0.39326372351E+02  0.10566000000E+00 0. -1.
        994    1    1    2    0    0  0.15080910035E+02 -0.11819156107E+01  0.12689809622E+02  0.17233485440E+03  0.17120000000E+03 0.  0.
        998    1    1    2    0    0  0.64156830245E+01 -0.16294911591E+02  0.14593994469E+04  0.14595387733E+04  0.10000000000E+02 0. -1.
</event>
<event>
 5    1  0.1068111E-008  0.3699312E+03  0.7957747E-01  0.3496207E+00
         13   -1    0    0    0    0  0.00000000000E+00  0.00000000000E+00  0.14999999963E+04  0.15000000000E+04  0.10566000000E+00 0. -1.
        994   -1    0    0    0    0 -0.00000000000E+00 -0.00000000000E+00  0.11368683772E-12  0.17120000000E+03  0.17120000000E+03 0.  0.
         13    1    1    2    0    0 -0.11168498728E+03 -0.11426169538E+03  0.76567331792E+03  0.78216680596E+03  0.10566000000E+00 0. -1.
        994    1    1    2    0    0  0.10394916903E+03  0.99547160996E+02  0.84770320445E+02  0.23918719496E+03  0.17120000000E+03 0.  0.
        998    1    1    2    0    0  0.77358182500E+01  0.14714534389E+02  0.64955635792E+03  0.64984599908E+03  0.10000000000E+02 0.  0.
</event>
<event>
 5    1  0.1068111E-008  0.3798106E+03  0.7957747E-01  0.3451984E+00
         13   -1    0    0    0    0  0.00000000000E+00  0.00000000000E+00  0.14999999963E+04  0.15000000000E+04  0.10566000000E+00 0.  1.
        994   -1    0    0    0    0 -0.00000000000E+00 -0.00000000000E+00  0.11368683772E-12  0.17120000000E+03  0.17120000000E+03 0.  0.
         13    1    1    2    0    0  0.41507856509E+02 -0.49187351282E+01  0.23753155002E+03  0.24118114463E+03  0.10566000000E+00 0.  1.
        994    1    1    2    0    0 -0.60222170855E+01  0.27326384751E+01  0.43751027289E+01  0.17138353461E+03  0.17120000000E+03 0.  0.
        998    1    1    2    0    0 -0.35485639423E+02  0.21860966531E+01  0.12580933435E+04  0.12586353208E+04  0.10000000000E+02 0.  1.
</event>
<event>
 5    1  0.1068111E-008  0.3844187E+03  0.7957747E-01  0.3432141E+00
         13   -1    0    0    0    0  0.00000000000E+00  0.00000000000E+00  0.14999999963E+04  0.15000000000E+04  0.10566000000E+00 0. -1.
        994   -1    0    0    0    0 -0.00000000000E+00 -0.00000000000E+00  0.11368683772E-12  0.17120000000E+03  0.17120000000E+03 0.  0.
         13    1    1    2    0    0  0.11297521731E+02 -0.12647772048E+02  0.77541013500E+02  0.79373925654E+02  0.10566000000E+00 0. -1.
        994    1    1    2    0    0 -0.66661620842E+01  0.97750802179E+00  0.20686103300E+01  0.17134500981E+03  0.17120000000E+03 0.  0.
        998    1    1    2    0    0 -0.46313596473E+01  0.11670264026E+02  0.14203903724E+04  0.14204810645E+04  0.10000000000E+02 0. -1.
</event>
<event>
 5    1  0.1068111E-008  0.3842178E+03  0.7957747E-01  0.3432996E+00
         13   -1    0    0    0    0  0.00000000000E+00  0.00000000000E+00  0.14999999963E+04  0.15000000000E+04  0.10566000000E+00 0.  1.
        994   -1    0    0    0    0 -0.00000000000E+00 -0.00000000000E+00  0.11368683772E-12  0.17120000000E+03  0.17120000000E+03 0.  0.
         13    1    1    2    0    0 -0.78533980018E+01 -0.72200631255E+01  0.27471732503E+02  0.29470534818E+02  0.10566000000E+00 0.  1.
        994    1    1    2    0    0  0.53372388591E+01  0.73527057163E+01  0.22911928740E+01  0.17145622755E+03  0.17120000000E+03 0.  0.
        998    1    1    2    0    0  0.25161591427E+01 -0.13264259080E+00  0.14702370709E+04  0.14702732376E+04  0.10000000000E+02 0.  1.
</event>
<event>
 5    1  0.1068111E-008  0.3686099E+03  0.7957747E-01  0.3502304E+00
         13   -1    0    0    0    0  0.00000000000E+00  0.00000000000E+00  0.14999999963E+04  0.15000000000E+04  0.10566000000E+00 0.  1.
        994   -1    0    0    0    0 -0.00000000000E+00 -0.00000000000E+00  0.11368683772E-12  0.17120000000E+03  0.17120000000E+03 0.  0.
         13    1    1    2    0    0  0.13890817869E+03 -0.11693958558E+02  0.51591921472E+03  0.53442013254E+03  0.10566000000E+00 0.  1.
        994    1    1    2    0    0 -0.15313817861E+03  0.17151068967E+02  0.97681337402E+02  0.25019301467E+03  0.17120000000E+03 0.  0.
        998    1    1    2    0    0  0.14229999911E+02 -0.54571104089E+01  0.88639944415E+03  0.88658685279E+03  0.10000000000E+02 0.  1.
</event>
<event>
 5    1  0.1068111E-008  0.3751436E+03  0.7957747E-01  0.3472581E+00
         13   -1    0    0    0    0  0.00000000000E+00  0.00000000000E+00  0.14999999963E+04  0.15000000000E+04  0.10566000000E+00 0. -1.
        994   -1    0    0    0    0 -0.00000000000E+00 -0.00000000000E+00  0.11368683772E-12  0.17120000000E+03  0.17120000000E+03 0.  0.
         13    1    1    2    0    0  0.29908377395E+02 -0.19051684638E+02  0.92640505259E+02  0.99195524620E+02  0.10566000000E+00 0. -1.
        994    1    1    2    0    0 -0.28218703692E+02 -0.24695637199E+01  0.93360174456E+01  0.17377858097E+03  0.17120000000E+03 0.  0.
        998    1    1    2    0    0 -0.16896737038E+01  0.21521248358E+02  0.13980234736E+04  0.13982258944E+04  0.10000000000E+02 0. -1.
</event>
<event>
 5    1  0.1068111E-008  0.3807905E+03  0.7957747E-01  0.3447724E+00
         13   -1    0    0    0    0  0.00000000000E+00  0.00000000000E+00  0.14999999963E+04  0.15000000000E+04  0.10566000000E+00 0.  1.
        994   -1    0    0    0    0 -0.00000000000E+00 -0.00000000000E+00  0.11368683772E-12  0.17120000000E+03  0.17120000000E+03 0.  0.
         13    1    1    2    0    0  0.33519771680E+02  0.12583178967E+02  0.15226338840E+03  0.15641631020E+03  0.10566000000E+00 0.  1.
        994    1    1    2    0    0 -0.36301308965E+02 -0.11826897907E+02  0.86100825128E+01  0.17561672491E+03  0.17120000000E+03 0.  0.
        998    1    1    2    0    0  0.27815372849E+01 -0.75628106048E+00  0.13391265254E+04  0.13391669649E+04  0.10000000000E+02 0.  1.
</event>
<event>
 5    1  0.1068111E-008  0.3855549E+03  0.7957747E-01  0.3427322E+00
         13   -1    0    0    0    0  0.00000000000E+00  0.00000000000E+00  0.14999999963E+04  0.15000000000E+04  0.10566000000E+00 0. -1.
        994   -1    0    0    0    0 -0.00000000000E+00 -0.00000000000E+00  0.11368683772E-12  0.17120000000E+03  0.17120000000E+03 0.  0.
         13    1    1    2    0    0  0.12027819355E+02 -0.90331501001E+01  0.74703700867E+02  0.76203151683E+02  0.10566000000E+00 0. -1.
        994    1    1    2    0    0 -0.48565542432E+02 -0.16883101178E+02  0.10081904677E+02  0.17903836410E+03  0.17120000000E+03 0.  0.
        998    1    1    2    0    0  0.36537723077E+02  0.25916251278E+02  0.14152143907E+04  0.14159584842E+04  0.10000000000E+02 0. -1.
</event>
<event>
 5    1  0.1068111E-008  0.3843503E+03  0.7957747E-01  0.3432432E+00
         13   -1    0    0    0    0  0.00000000000E+00  0.00000000000E+00  0.14999999963E+04  0.15000000000E+04  0.10566000000E+00 0.  1.
        994   -1    0    0    0    0 -0.00000000000E+00 -0.00000000000E+00  0.11368683772E-12  0.17120000000E+03  0.17120000000E+03 0.  0.
         13    1    1    2    0    0 -0.19326986736E+02  0.25132988014E+01  0.92094833975E+02  0.94134577579E+02  0.10566000000E+00 0.  1.
        994    1    1    2    0    0  0.22117067608E+02  0.13247535963E+02  0.41465558199E+01  0.17317995211E+03  0.17120000000E+03 0.  0.
        998    1    1    2    0    0 -0.27900808725E+01 -0.15760834764E+02  0.14037586065E+04  0.14038854703E+04  0.10000000000E+02 0.  1.
</event>
<event>
 5    1  0.1068111E-008  0.3813740E+03  0.7957747E-01  0.3445197E+00
         13   -1    0    0    0    0  0.00000000000E+00  0.00000000000E+00  0.14999999963E+04  0.15000000000E+04  0.10566000000E+00 0.  1.
        994   -1    0    0    0    0 -0.00000000000E+00 -0.00000000000E+00  0.11368683772E-12  0.17120000000E+03  0.17120000000E+03 0.  0.
         13    1    1    2    0    0 -0.51651480431E+02  0.22746784287E+03  0.97562590579E+03  0.10031228311E+04  0.10566000000E+00 0.  1.
        994    1    1    2    0    0  0.55154942503E+02 -0.24064092369E+03  0.24356657376E+03  0.38676121534E+03  0.17120000000E+03 0.  0.
        998    1    1    2    0    0 -0.35034620714E+01  0.13173080817E+02  0.28080751673E+03  0.28131595361E+03  0.10000000000E+02 0.  1.
</event>
<event>
 5    1  0.1068111E-008  0.3854401E+03  0.7957747E-01  0.3427808E+00
         13   -1    0    0    0    0  0.00000000000E+00  0.00000000000E+00  0.14999999963E+04  0.15000000000E+04  0.10566000000E+00 0. -1.
        994   -1    0    0    0    0 -0.00000000000E+00 -0.00000000000E+00  0.11368683772E-12  0.17120000000E+03  0.17120000000E+03 0.  0.
         13    1    1    2    0    0  0.53461173214E+01  0.86952708322E+01  0.36202058802E+02  0.37613680102E+02  0.10566000000E+00 0. -1.
        994    1    1    2    0    0 -0.66694651079E+00 -0.12420994559E+02  0.19200859437E+01  0.17166203032E+03  0.17120000000E+03 0.  0.
        998    1    1    2    0    0 -0.46791708106E+01  0.37257237270E+01  0.14618778515E+04  0.14619242896E+04  0.10000000000E+02 0. -1.
</event>
<event>
 5    1  0.1068111E-008  0.3736626E+03  0.7957747E-01  0.3479226E+00
         13   -1    0    0    0    0  0.00000000000E+00  0.00000000000E+00  0.14999999963E+04  0.15000000000E+04  0.10566000000E+00 0. -1.
        994   -1    0    0    0    0 -0.00000000000E+00 -0.00000000000E+00  0.11368683772E-12  0.17120000000E+03  0.17120000000E+03 0.  0.
         13    1    1    2    0    0 -0.15354230961E+02 -0.15677801372E+02  0.12734682426E+02  0.25371818319E+02  0.10566000000E+00 0. -1.
        994    1    1    2    0    0  0.14402156484E+02  0.24499733559E+02  0.15754271111E+02  0.17425640910E+03  0.17120000000E+03 0.  0.
        998    1    1    2    0    0  0.95207447794E+00 -0.88219321875E+01  0.14715110427E+04  0.14715717726E+04  0.10000000000E+02 0. -1.
</event>
<event>
 5    1  0.1068111E-008  0.3836203E+03  0.7957747E-01  0.3435545E+00
         13   -1    0    0    0    0  0.00000000000E+00  0.00000000000E+00  0.14999999963E+04  0.15000000000E+04  0.10566000000E+00 0.  1.
        994   -1    0    0    0    0 -0.00000000000E+00 -0.00000000000E+00  0.11368683772E-12  0.17120000000E+03  0.17120000000E+03 0.  0.
         13    1    1    2    0    0 -0.19385327872E+02  0.72938418673E+01  0.10529287375E+03  0.10731072403E+03  0.10566000000E+00 0.  1.
        994    1    1    2    0    0 -0.23844318864E+01  0.10948978825E+02  0.27315790125E+01  0.17158807411E+03  0.17120000000E+03 0.  0.
        998    1    1    2    0    0  0.21769759758E+02 -0.18242820692E+02  0.13919755435E+04  0.13923012019E+04  0.10000000000E+02 0.  1.
</event>
<event>
 5    1  0.1068111E-008  0.3767290E+03  0.7957747E-01  0.3465526E+00
         13   -1    0    0    0    0  0.00000000000E+00  0.00000000000E+00  0.14999999963E+04  0.15000000000E+04  0.10566000000E+00 0. -1.
        994   -1    0    0    0    0 -0.00000000000E+00 -0.00000000000E+00  0.11368683772E-12  0.17120000000E+03  0.17120000000E+03 0.  0.
         13    1    1    2    0    0  0.18046701573E+01  0.12371417708E+02  0.10975195596E+02  0.16636552915E+02  0.10566000000E+00 0. -1.
        994    1    1    2    0    0 -0.12461796045E+01 -0.60390747151E+01  0.59220316639E+01  0.17141334209E+03  0.17120000000E+03 0.  0.
        998    1    1    2    0    0 -0.55849055278E+00 -0.63323429929E+01  0.14831027690E+04  0.14831501050E+04  0.10000000000E+02 0. -1.
</event>
<event>
 5    1  0.1068111E-008  0.3533762E+03  0.7957747E-01  0.3575962E+00
         13   -1    0    0    0    0  0.00000000000E+00  0.00000000000E+00  0.14999999963E+04  0.15000000000E+04  0.10566000000E+00 0. -1.
        994   -1    0    0    0    0 -0.00000000000E+00 -0.00000000000E+00  0.11368683772E-12  0.17120000000E+03  0.17120000000E+03 0.  0.
         13    1    1    2    0    0 -0.16892360901E+03  0.77889274557E+02  0.11091306931E+04  0.11246211941E+04  0.10566000000E+00 0. -1.
        994    1    1    2    0    0  0.14138835487E+03 -0.75863550856E+02  0.10137966014E+03  0.25560363990E+03  0.17120000000E+03 0.  0.
        998    1    1    2    0    0  0.27535254139E+02 -0.20257237017E+01  0.28948964305E+03  0.29097516596E+03  0.10000000000E+02 0. -1.
</event>
<event>
 5    1  0.1068111E-008  0.3705029E+03  0.7957747E-01  0.3493583E+00
         13   -1    0    0    0    0  0.00000000000E+00  0.00000000000E+00  0.14999999963E+04  0.15000000000E+04  0.10566000000E+00 0. -1.
        994   -1    0    0    0    0 -0.00000000000E+00 -0.00000000000E+00  0.11368683772E-12  0.17120000000E+03  0.17120000000E+03 0.  0.
         13    1    1    2    0    0 -0.14361820368E+03  0.78839941840E+02  0.46076310789E+03  0.48902410740E+03  0.10566000000E+00 0. -1.
        994    1    1    2    0    0  0.16336002658E+03 -0.15632265132E+03  0.21986196456E+03  0.35884814764E+03  0.17120000000E+03 0.  0.
        998    1    1    2    0    0 -0.19741822898E+02  0.77482709482E+02  0.81937492382E+03  0.82332774496E+03  0.10000000000E+02 0. -1.
</event>
<event>
 5    1  0.1068111E-008  0.3706381E+03  0.7957747E-01  0.3492963E+00
         13   -1    0    0    0    0  0.00000000000E+00  0.00000000000E+00  0.14999999963E+04  0.15000000000E+04  0.10566000000E+00 0. -1.
        994   -1    0    0    0    0 -0.00000000000E+00 -0.00000000000E+00  0.11368683772E-12  0.17120000000E+03  0.17120000000E+03 0.  0.
         13    1    1    2    0    0 -0.27224878418E+02 -0.17618797336E+02  0.40825614960E+02  0.52137875151E+02  0.10566000000E+00 0. -1.
        994    1    1    2    0    0  0.27214001943E+02  0.22550491369E+02  0.15665970861E+02  0.17551065268E+03  0.17120000000E+03 0.  0.
        998    1    1    2    0    0  0.10876474213E-01 -0.49316940329E+01  0.14435084105E+04  0.14435514722E+04  0.10000000000E+02 0. -1.
</event>
<event>
 5    1  0.1068111E-008  0.3842233E+03  0.7957747E-01  0.3432973E+00
         13   -1    0    0    0    0  0.00000000000E+00  0.00000000000E+00  0.14999999963E+04  0.15000000000E+04  0.10566000000E+00 0. -1.
        994   -1    0    0    0    0 -0.00000000000E+00 -0.00000000000E+00  0.11368683772E-12  0.17120000000E+03  0.17120000000E+03 0.  0.
         13    1    1    2    0    0 -0.19076424206E+02 -0.10333865626E+02  0.10179611361E+03  0.10408246082E+03  0.10566000000E+00 0. -1.
        994    1    1    2    0    0  0.27551001480E+02  0.17719127867E+02  0.55619947048E+01  0.17439438340E+03  0.17120000000E+03 0.  0.
        998    1    1    2    0    0 -0.84745772745E+01 -0.73852622414E+01  0.13926418880E+04  0.13927231558E+04  0.10000000000E+02 0. -1.
</event>
<event>
 5    1  0.1068111E-008  0.3731696E+03  0.7957747E-01  0.3481450E+00
         13   -1    0    0    0    0  0.00000000000E+00  0.00000000000E+00  0.14999999963E+04  0.15000000000E+04  0.10566000000E+00 0.  1.
        994   -1    0    0    0    0 -0.00000000000E+00 -0.00000000000E+00  0.11368683772E-12  0.17120000000E+03  0.17120000000E+03 0.  0.
         13    1    1    2    0    0  0.28665822026E+02 -0.18061437527E+02  0.74597514868E+02  0.81931344835E+02  0.10566000000E+00 0.  1.
        994    1    1    2    0    0 -0.14003377533E+02  0.30753721561E+01  0.83250642700E+01  0.17200086974E+03  0.17120000000E+03 0.  0.
        998    1    1    2    0    0 -0.14662444493E+02  0.14986065370E+02  0.14170774171E+04  0.14172677854E+04  0.10000000000E+02 0.  1.
</event>
<event>
 5    1  0.1068111E-008  0.3720695E+03  0.7957747E-01  0.3486434E+00
         13   -1    0    0    0    0  0.00000000000E+00  0.00000000000E+00  0.14999999963E+04  0.15000000000E+04  0.10566000000E+00 0. -1.
        994   -1    0    0    0    0 -0.00000000000E+00 -0.00000000000E+00  0.11368683772E-12  0.17120000000E+03  0.17120000000E+03 0.  0.
         13    1    1    2    0    0 -0.30190770227E+02 -0.12492452436E+03  0.49554591370E+03  0.51194080043E+03  0.10566000000E+00 0. -1.
        994    1    1    2    0    0  0.13506507739E+02  0.15566193967E+03  0.97299482000E+02  0.25137560424E+03  0.17120000000E+03 0.  0.
        998    1    1    2    0    0  0.16684262488E+02 -0.30737415302E+02  0.90715460058E+03  0.90788359533E+03  0.10000000000E+02 0. -1.
</event>
<event>
 5    1  0.1068111E-008  0.3808302E+03  0.7957747E-01  0.3447552E+00
         13   -1    0    0    0    0  0.00000000000E+00  0.00000000000E+00  0.14999999963E+04  0.15000000000E+04  0.10566000000E+00 0.  1.
        994   -1    0    0    0    0 -0.00000000000E+00 -0.00000000000E+00  0.11368683772E-12  0.17120000000E+03  0.17120000000E+03 0.  0.
         13    1    1    2    0    0 -0.65407383111E+01  0.36566773196E+02  0.18448303431E+03  0.18818584238E+03  0.10566000000E+00 0.  1.
        994    1    1    2    0    0  0.42781479552E+00 -0.21858181254E+02  0.53097122153E+01  0.17267193216E+03  0.17120000000E+03 0.  0.
        998    1    1    2    0    0  0.61129235155E+01 -0.14708591942E+02  0.13102072498E+04  0.13103422255E+04  0.10000000000E+02 0.  1.
</event>
<event>
 5    1  0.1068111E-008  0.3753526E+03  0.7957747E-01  0.3471647E+00
         13   -1    0    0    0    0  0.00000000000E+00  0.00000000000E+00  0.14999999963E+04  0.15000000000E+04  0.10566000000E+00 0. -1.
        994   -1    0    0    0    0 -0.00000000000E+00 -0.00000000000E+00  0.11368683772E-12  0.17120000000E+03  0.17120000000E+03 0.  0.
         13    1    1    2    0    0  0.75328387229E+00 -0.22679398855E+02  0.38085763851E+02  0.44333499085E+02  0.10566000000E+00 0. -1.
        994    1    1    2    0    0  0.16484566416E+02  0.58893722301E+01  0.75388170910E+01  0.17225765411E+03  0.17120000000E+03 0.  0.
        998    1    1    2    0    0 -0.17237850288E+02  0.16790026624E+02  0.14543754153E+04  0.14546088468E+04  0.10000000000E+02 0. -1.
</event>
<event>
 5    1  0.1068111E-008  0.3848145E+03  0.7957747E-01  0.3430459E+00
         13   -1    0    0    0    0  0.00000000000E+00  0.00000000000E+00  0.14999999963E+04  0.15000000000E+04  0.10566000000E+00 0. -1.
        994   -1    0    0    0    0 -0.00000000000E+00 -0.00000000000E+00  0.11368683772E-12  0.17120000000E+03  0.17120000000E+03 0.  0.
         13    1    1    2    0    0 -0.49475096133E+01  0.87971536326E+01  0.29518004089E+02  0.31196017259E+02  0.10566000000E+00 0. -1.
        994    1    1    2    0    0  0.23439413901E+02  0.73060201588E+01  0.37082978983E+01  0.17299125853E+03  0.17120000000E+03 0.  0.
        998    1    1    2    0    0 -0.18491904287E+02 -0.16103173791E+02  0.14667736943E+04  0.14670127242E+04  0.10000000000E+02 0. -1.
</event>
<event>
 5    1  0.1068111E-008  0.3863609E+03  0.7957747E-01  0.3423921E+00
         13   -1    0    0    0    0  0.00000000000E+00  0.00000000000E+00  0.14999999963E+04  0.15000000000E+04  0.10566000000E+00 0.  1.
        994   -1    0    0    0    0 -0.00000000000E+00 -0.00000000000E+00  0.11368683772E-12  0.17120000000E+03  0.17120000000E+03 0.  0.
         13    1    1    2    0    0 -0.10003370713E+02 -0.17259503718E+01  0.56020662976E+02  0.56933049933E+02  0.10566000000E+00 0.  1.
        994    1    1    2    0    0  0.64718541475E+01 -0.11305280514E+02  0.15117702747E+01  0.17170154255E+03  0.17120000000E+03 0.  0.
        998    1    1    2    0    0  0.35315165652E+01  0.13031230886E+02  0.14424675630E+04  0.14425654075E+04  0.10000000000E+02 0.  1.
</event>
<event>
 5    1  0.1068111E-008  0.4001631E+03  0.7957747E-01  0.3367804E+00
         13   -1    0    0    0    0  0.00000000000E+00  0.00000000000E+00  0.14999999963E+04  0.15000000000E+04  0.10566000000E+00 0.  1.
        994   -1    0    0    0    0 -0.00000000000E+00 -0.00000000000E+00  0.11368683772E-12  0.17120000000E+03  0.17120000000E+03 0.  0.
         13    1    1    2    0    0 -0.19950255444E+02 -0.14726541206E+03  0.29685628371E+03  0.33197707545E+03  0.10566000000E+00 0.  1.
        994    1    1    2    0    0 -0.50195358139E+01  0.15076291216E+03  0.12391177637E+03  0.25965018726E+03  0.17120000000E+03 0.  0.
        998    1    1    2    0    0  0.24969791258E+02 -0.34975001030E+01  0.10792319362E+04  0.10795727373E+04  0.10000000000E+02 0.  0.
</event>
<event>
 5    1  0.1068111E-008  0.3817628E+03  0.7957747E-01  0.3443519E+00
         13   -1    0    0    0    0  0.00000000000E+00  0.00000000000E+00  0.14999999963E+04  0.15000000000E+04  0.10566000000E+00 0. -1.
        994   -1    0    0    0    0 -0.00000000000E+00 -0.00000000000E+00  0.11368683772E-12  0.17120000000E+03  0.17120000000E+03 0.  0.
         13    1    1    2    0    0  0.12431162557E+02 -0.35032267665E+02  0.18542992715E+03  0.18911917572E+03  0.10566000000E+00 0. -1.
        994    1    1    2    0    0 -0.20230878824E+02  0.34054597012E+02  0.84782231723E+01  0.17592704256E+03  0.17120000000E+03 0.  0.
        998    1    1    2    0    0  0.77997162667E+01  0.97767065354E+00  0.13060918460E+04  0.13061537817E+04  0.10000000000E+02 0. -1.
</event>
<event>
 5    1  0.1068111E-008  0.3852647E+03  0.7957747E-01  0.3428550E+00
         13   -1    0    0    0    0  0.00000000000E+00  0.00000000000E+00  0.14999999963E+04  0.15000000000E+04  0.10566000000E+00 0.  1.
        994   -1    0    0    0    0 -0.00000000000E+00 -0.00000000000E+00  0.11368683772E-12  0.17120000000E+03  0.17120000000E+03 0.  0.
         13    1    1    2    0    0  0.16068224686E+02 -0.42094527199E+01  0.94159863456E+02  0.95613798098E+02  0.10566000000E+00 0.  1.
        994    1    1    2    0    0 -0.66009317009E+01  0.73206372725E+01  0.18180831590E+01  0.17149317612E+03  0.17120000000E+03 0.  0.
        998    1    1    2    0    0 -0.94672929852E+01 -0.31111845526E+01  0.14040220497E+04  0.14040930258E+04  0.10000000000E+02 0.  1.
</event>
<event>
 5    1  0.1068111E-008  0.3849647E+03  0.7957747E-01  0.3429822E+00
         13   -1    0    0    0    0  0.00000000000E+00  0.00000000000E+00  0.14999999963E+04  0.15000000000E+04  0.10566000000E+00 0. -1.
        994   -1    0    0    0    0 -0.00000000000E+00 -0.00000000000E+00  0.11368683772E-12  0.17120000000E+03  0.17120000000E+03 0.  0.
         13    1    1    2    0    0  0.10203832012E+01  0.13559329521E+02 -0.39374643817E+01  0.14156672940E+02  0.10566000000E+00 0. -1.
        994    1    1    2    0    0 -0.17868970996E+01 -0.16972690105E+02  0.20157305837E+02  0.17322535089E+03  0.17120000000E+03 0.  0.
        998    1    1    2    0    0  0.76651389839E+00  0.34133605840E+01  0.14837801548E+04  0.14838179762E+04  0.10000000000E+02 0. -1.
</event>
<event>
 5    1  0.1230613E-008  0.3862920E+03  0.7957747E-01  0.3424211E+00
         13   -1    0    0    0    0  0.00000000000E+00  0.00000000000E+00  0.14999999963E+04  0.15000000000E+04  0.10566000000E+00 0. -1.
        994   -1    0    0    0    0 -0.00000000000E+00 -0.00000000000E+00  0.11368683772E-12  0.17120000000E+03  0.17120000000E+03 0.  0.
         13    1    1    2    0    0 -0.65103018730E+01  0.80409297540E+01  0.55098551234E+02  0.56061591967E+02  0.10566000000E+00 0. -1.
        994    1    1    2    0    0  0.62910926945E+01 -0.35477530971E+01  0.11608910694E+01  0.17135621397E+03  0.17120000000E+03 0.  0.
        998    1    1    2    0    0  0.21920917842E+00 -0.44931766569E+01  0.14437405540E+04  0.14437821941E+04  0.10000000000E+02 0. -1.
</event>
<event>
 5    1  0.1068111E-008  0.3825697E+03  0.7957747E-01  0.3440045E+00
         13   -1    0    0    0    0  0.00000000000E+00  0.00000000000E+00  0.14999999963E+04  0.15000000000E+04  0.10566000000E+00 0. -1.
        994   -1    0    0    0    0 -0.00000000000E+00 -0.00000000000E+00  0.11368683772E-12  0.17120000000E+03  0.17120000000E+03 0.  0.
         13    1    1    2    0    0 -0.31668550723E+02  0.54066558687E+01  0.17778591187E+03  0.18066535544E+03  0.10566000000E+00 0. -1.
        994    1    1    2    0    0  0.22041135187E+02  0.45449655740E+01  0.45221716326E+01  0.17273204216E+03  0.17120000000E+03 0.  0.
        998    1    1    2    0    0  0.96274155355E+01 -0.99516214427E+01  0.13176919128E+04  0.13178026024E+04  0.10000000000E+02 0. -1.
</event>
<event>
 5    1  0.1068111E-008  0.3820592E+03  0.7957747E-01  0.3442241E+00
         13   -1    0    0    0    0  0.00000000000E+00  0.00000000000E+00  0.14999999963E+04  0.15000000000E+04  0.10566000000E+00 0. -1.
        994   -1    0    0    0    0 -0.00000000000E+00 -0.00000000000E+00  0.11368683772E-12  0.17120000000E+03  0.17120000000E+03 0.  0.
         13    1    1    2    0    0  0.37979193356E+02 -0.19647889621E+02  0.24322604082E+03  0.24695622445E+03  0.10566000000E+00 0. -1.
        994    1    1    2    0    0 -0.35220682477E+02  0.31281480414E+02  0.10500428342E+02  0.17787278175E+03  0.17120000000E+03 0.  0.
        998    1    1    2    0    0 -0.27585108799E+01 -0.11633590792E+02  0.12462735271E+04  0.12463709938E+04  0.10000000000E+02 0. -1.
</event>
<event>
 5    1  0.1068111E-008  0.3799085E+03  0.7957747E-01  0.3451557E+00
         13   -1    0    0    0    0  0.00000000000E+00  0.00000000000E+00  0.14999999963E+04  0.15000000000E+04  0.10566000000E+00 0. -1.
        994   -1    0    0    0    0 -0.00000000000E+00 -0.00000000000E+00  0.11368683772E-12  0.17120000000E+03  0.17120000000E+03 0.  0.
         13    1    1    2    0    0  0.51696248186E+02 -0.13036165417E+02  0.30469544707E+03  0.30932470046E+03  0.10566000000E+00 0. -1.
        994    1    1    2    0    0 -0.36729075754E+02  0.27729454580E+02  0.11294358535E+02  0.17763713067E+03  0.17120000000E+03 0.  0.
        998    1    1    2    0    0 -0.14967172431E+02 -0.14693289163E+02  0.11840101907E+04  0.11842381689E+04  0.10000000000E+02 0. -1.
</event>
<event>
 5    1  0.1068111E-008  0.3798632E+03  0.7957747E-01  0.3451754E+00
         13   -1    0    0    0    0  0.00000000000E+00  0.00000000000E+00  0.14999999963E+04  0.15000000000E+04  0.10566000000E+00 0. -1.
        994   -1    0    0    0    0 -0.00000000000E+00 -0.00000000000E+00  0.11368683772E-12  0.17120000000E+03  0.17120000000E+03 0.  0.
         13    1    1    2    0    0  0.47561405191E+02  0.13492145032E+02  0.27422872208E+03  0.27864947231E+03  0.10566000000E+00 0. -1.
        994    1    1    2    0    0 -0.41690011840E+02  0.16210890580E+02  0.10923104849E+02  0.17728396510E+03  0.17120000000E+03 0.  0.
        998    1    1    2    0    0 -0.58713933508E+01 -0.29703035612E+02  0.12148481693E+04  0.12152665626E+04  0.10000000000E+02 0. -1.
</event>
<event>
 5    1  0.1068111E-008  0.3838388E+03  0.7957747E-01  0.3434612E+00
         13   -1    0    0    0    0  0.00000000000E+00  0.00000000000E+00  0.14999999963E+04  0.15000000000E+04  0.10566000000E+00 0. -1.
        994   -1    0    0    0    0 -0.00000000000E+00 -0.00000000000E+00  0.11368683772E-12  0.17120000000E+03  0.17120000000E+03 0.  0.
         13    1    1    2    0    0 -0.24648528549E+02 -0.15441288604E+02  0.16389552593E+03  0.16645641453E+03  0.10566000000E+00 0. -1.
        994    1    1    2    0    0  0.37364176726E+02  0.72202626799E+01  0.70031177723E+01  0.17551836814E+03  0.17120000000E+03 0.  0.
        998    1    1    2    0    0 -0.12715648177E+02  0.82210259242E+01  0.13291013526E+04  0.13292252173E+04  0.10000000000E+02 0. -1.
</event>
<event>
 5    1  0.1068111E-008  0.3841943E+03  0.7957747E-01  0.3433096E+00
         13   -1    0    0    0    0  0.00000000000E+00  0.00000000000E+00  0.14999999963E+04  0.15000000000E+04  0.10566000000E+00 0. -1.
        994   -1    0    0    0    0 -0.00000000000E+00 -0.00000000000E+00  0.11368683772E-12  0.17120000000E+03  0.17120000000E+03 0.  0.
         13    1    1    2    0    0 -0.14770658850E+02 -0.13843390738E+02  0.98991832761E+02  0.10104061534E+03  0.10566000000E+00 0. -1.
        994    1    1    2    0    0  0.66543238660E+01  0.14887481640E+02  0.29079461981E+01  0.17199945723E+03  0.17120000000E+03 0.  0.
        998    1    1    2    0    0  0.81163349840E+01 -0.10440909027E+01  0.13981002173E+04  0.13981599274E+04  0.10000000000E+02 0. -1.
</event>
<event>
 5    1  0.1068111E-008  0.3852314E+03  0.7957747E-01  0.3428691E+00
         13   -1    0    0    0    0  0.00000000000E+00  0.00000000000E+00  0.14999999963E+04  0.15000000000E+04  0.10566000000E+00 0.  1.
        994   -1    0    0    0    0 -0.00000000000E+00 -0.00000000000E+00  0.11368683772E-12  0.17120000000E+03  0.17120000000E+03 0.  0.
         13    1    1    2    0    0 -0.10310358846E+02 -0.57812758433E+01  0.44934912534E+02  0.46463794275E+02  0.10566000000E+00 0.  1.
        994    1    1    2    0    0  0.11186730902E+02  0.61807395506E+01  0.20522690083E+01  0.17168866095E+03  0.17120000000E+03 0.  0.
        998    1    1    2    0    0 -0.87637205605E+00 -0.39946370732E+00  0.14530128147E+04  0.14530475448E+04  0.10000000000E+02 0.  1.
</event>
<event>
 5    1  0.1068111E-008  0.3852388E+03  0.7957747E-01  0.3428660E+00
         13   -1    0    0    0    0  0.00000000000E+00  0.00000000000E+00  0.14999999963E+04  0.15000000000E+04  0.10566000000E+00 0. -1.
        994   -1    0    0    0    0 -0.00000000000E+00 -0.00000000000E+00  0.11368683772E-12  0.17120000000E+03  0.17120000000E+03 0.  0.
         13    1    1    2    0    0  0.10396941818E+02 -0.11476691971E+01  0.35185866541E+02  0.36707899859E+02  0.10566000000E+00 0. -1.
        994    1    1    2    0    0 -0.12757535957E+02 -0.15191941352E+01  0.20542350482E+01  0.17169368817E+03  0.17120000000E+03 0.  0.
        998    1    1    2    0    0  0.23605941391E+01  0.26668633323E+01  0.14627598947E+04  0.14627984120E+04  0.10000000000E+02 0. -1.
</event>
<event>
 5    1  0.1068111E-008  0.3844205E+03  0.7957747E-01  0.3432134E+00
         13   -1    0    0    0    0  0.00000000000E+00  0.00000000000E+00  0.14999999963E+04  0.15000000000E+04  0.10566000000E+00 0. -1.
        994   -1    0    0    0    0 -0.00000000000E+00 -0.00000000000E+00  0.11368683772E-12  0.17120000000E+03  0.17120000000E+03 0.  0.
         13    1    1    2    0    0 -0.18375310613E+02 -0.10548054640E+02  0.10822982109E+03  0.11028426377E+03  0.10566000000E+00 0. -1.
        994    1    1    2    0    0  0.68017524040E+01  0.37823479235E+02  0.67994361466E+01  0.17559200366E+03  0.17120000000E+03 0.  0.
        998    1    1    2    0    0  0.11573558209E+02 -0.27275424595E+02  0.13849707390E+04  0.13853237326E+04  0.10000000000E+02 0. -1.
</event>
<event>
 5    1  0.1068111E-008  0.3779241E+03  0.7957747E-01  0.3460247E+00
         13   -1    0    0    0    0  0.00000000000E+00  0.00000000000E+00  0.14999999963E+04  0.15000000000E+04  0.10566000000E+00 0.  1.
        994   -1    0    0    0    0 -0.00000000000E+00 -0.00000000000E+00  0.11368683772E-12  0.17120000000E+03  0.17120000000E+03 0.  0.
         13    1    1    2    0    0 -0.16297416399E+01  0.35160628542E+02  0.14666885071E+03  0.15083331459E+03  0.10566000000E+00 0.  1.
        994    1    1    2    0    0  0.45031460749E+02  0.16665825289E+02  0.12984944032E+02  0.17827964259E+03  0.17120000000E+03 0.  0.
        998    1    1    2    0    0 -0.43401719109E+02 -0.51826453831E+02  0.13403462015E+04  0.13420870428E+04  0.10000000000E+02 0.  1.
</event>
<event>
 5    1  0.1068111E-008  0.3843216E+03  0.7957747E-01  0.3432554E+00
         13   -1    0    0    0    0  0.00000000000E+00  0.00000000000E+00  0.14999999963E+04  0.15000000000E+04  0.10566000000E+00 0. -1.
        994   -1    0    0    0    0 -0.00000000000E+00 -0.00000000000E+00  0.11368683772E-12  0.17120000000E+03  0.17120000000E+03 0.  0.
         13    1    1    2    0    0 -0.11920573083E+02  0.36266365156E+01  0.39612145912E+02  0.41525724832E+02  0.10566000000E+00 0. -1.
        994    1    1    2    0    0  0.91592455975E+01  0.11517185107E+02  0.26813150144E+01  0.17185216549E+03  0.17120000000E+03 0.  0.
        998    1    1    2    0    0  0.27613274857E+01 -0.15143821623E+02  0.14577065354E+04  0.14578221097E+04  0.10000000000E+02 0. -1.
</event>
<event>
 5    1  0.1068111E-008  0.3819734E+03  0.7957747E-01  0.3442610E+00
         13   -1    0    0    0    0  0.00000000000E+00  0.00000000000E+00  0.14999999963E+04  0.15000000000E+04  0.10566000000E+00 0.  1.
        994   -1    0    0    0    0 -0.00000000000E+00 -0.00000000000E+00  0.11368683772E-12  0.17120000000E+03  0.17120000000E+03 0.  0.
         13    1    1    2    0    0 -0.50852304289E+01 -0.23952022747E+02  0.91257308692E+02  0.94485271423E+02  0.10566000000E+00 0.  1.
        994    1    1    2    0    0  0.72906533696E+00  0.21706608320E+02  0.47084992975E+01  0.17263637608E+03  0.17120000000E+03 0.  0.
        998    1    1    2    0    0  0.43561650919E+01  0.22454144263E+01  0.14040341883E+04  0.14040783525E+04  0.10000000000E+02 0.  1.
</event>
<event>
 5    1  0.1068111E-008  0.3811983E+03  0.7957747E-01  0.3445957E+00
         13   -1    0    0    0    0  0.00000000000E+00  0.00000000000E+00  0.14999999963E+04  0.15000000000E+04  0.10566000000E+00 0.  1.
        994   -1    0    0    0    0 -0.00000000000E+00 -0.00000000000E+00  0.11368683772E-12  0.17120000000E+03  0.17120000000E+03 0.  0.
         13    1    1    2    0    0 -0.81102947091E+01  0.50477123421E+02  0.29303552128E+03  0.29746183749E+03  0.10566000000E+00 0.  1.
        994    1    1    2    0    0 -0.82419061031E+01 -0.55985627482E+02  0.14266751722E+02  0.18087371204E+03  0.17120000000E+03 0.  0.
        998    1    1    2    0    0  0.16352200812E+02  0.55085040610E+01  0.11926977233E+04  0.11928644505E+04  0.10000000000E+02 0.  1.
</event>
<event>
 5    1  0.1068111E-008  0.3784087E+03  0.7957747E-01  0.3458117E+00
         13   -1    0    0    0    0  0.00000000000E+00  0.00000000000E+00  0.14999999963E+04  0.15000000000E+04  0.10566000000E+00 0.  1.
        994   -1    0    0    0    0 -0.00000000000E+00 -0.00000000000E+00  0.11368683772E-12  0.17120000000E+03  0.17120000000E+03 0.  0.
         13    1    1    2    0    0 -0.45266517115E+01 -0.46283350923E+02  0.70983236149E+02  0.84860297705E+02  0.10566000000E+00 0.  1.
        994    1    1    2    0    0 -0.11962559328E+02 -0.14151387612E+01  0.15978912179E+02  0.17236551592E+03  0.17120000000E+03 0.  0.
        998    1    1    2    0    0  0.16489211040E+02  0.47698489684E+02  0.14130378480E+04  0.14139741864E+04  0.10000000000E+02 0.  1.
</event>
<event>
 5    1  0.1068111E-008  0.3800906E+03  0.7957747E-01  0.3450764E+00
         13   -1    0    0    0    0  0.00000000000E+00  0.00000000000E+00  0.14999999963E+04  0.15000000000E+04  0.10566000000E+00 0. -1.
        994   -1    0    0    0    0 -0.00000000000E+00 -0.00000000000E+00  0.11368683772E-12  0.17120000000E+03  0.17120000000E+03 0.  0.
         13    1    1    2    0    0 -0.29465580300E+02 -0.64598159178E+01  0.11779077846E+03  0.12159205688E+03  0.10566000000E+00 0. -1.
        994    1    1    2    0    0  0.69218757331E+01 -0.37641592133E+01  0.42949075638E+01  0.17143502410E+03  0.17120000000E+03 0.  0.
        998    1    1    2    0    0  0.22543704567E+02  0.10223975131E+02  0.13779143103E+04  0.13781729190E+04  0.10000000000E+02 0. -1.
</event>
<event>
 5    1  0.1068111E-008  0.3832742E+03  0.7957747E-01  0.3437024E+00
         13   -1    0    0    0    0  0.00000000000E+00  0.00000000000E+00  0.14999999963E+04  0.15000000000E+04  0.10566000000E+00 0. -1.
        994   -1    0    0    0    0 -0.00000000000E+00 -0.00000000000E+00  0.11368683772E-12  0.17120000000E+03  0.17120000000E+03 0.  0.
         13    1    1    2    0    0 -0.13876197595E+02 -0.30063151284E+01  0.38054030300E+02  0.40616587454E+02  0.10566000000E+00 0. -1.
        994    1    1    2    0    0  0.20977470655E+02 -0.15792722262E+01  0.39543187324E+01  0.17253296790E+03  0.17120000000E+03 0.  0.
        998    1    1    2    0    0 -0.71012730602E+01  0.45855873546E+01  0.14579916472E+04  0.14580504446E+04  0.10000000000E+02 0. -1.
</event>
<event>
 5    1  0.1068111E-008  0.3807397E+03  0.7957747E-01  0.3447944E+00
         13   -1    0    0    0    0  0.00000000000E+00  0.00000000000E+00  0.14999999963E+04  0.15000000000E+04  0.10566000000E+00 0.  1.
        994   -1    0    0    0    0 -0.00000000000E+00 -0.00000000000E+00  0.11368683772E-12  0.17120000000E+03  0.17120000000E+03 0.  0.
         13    1    1    2    0    0 -0.21069544719E+01  0.15277623402E+02  0.29884303622E+02  0.33629270003E+02  0.10566000000E+00 0.  1.
        994    1    1    2    0    0 -0.19633588818E+01 -0.13813060862E+02  0.44096134012E+01  0.17182415464E+03  0.17120000000E+03 0.  0.
        998    1    1    2    0    0  0.40703133537E+01 -0.14645625397E+01  0.14657060793E+04  0.14657465754E+04  0.10000000000E+02 0.  1.
</event>
<event>
 5    1  0.1068111E-008  0.3729497E+03  0.7957747E-01  0.3482444E+00
         13   -1    0    0    0    0  0.00000000000E+00  0.00000000000E+00  0.14999999963E+04  0.15000000000E+04  0.10566000000E+00 0.  1.
        994   -1    0    0    0    0 -0.00000000000E+00 -0.00000000000E+00  0.11368683772E-12  0.17120000000E+03  0.17120000000E+03 0.  0.
         13    1    1    2    0    0 -0.28931891385E+02 -0.33307250796E+02  0.12848078325E+03  0.13584458077E+03  0.10566000000E+00 0.  1.
        994    1    1    2    0    0  0.51571217562E+01  0.18422340815E+02  0.89890991646E+01  0.17249992014E+03  0.17120000000E+03 0.  0.
        998    1    1    2    0    0  0.23774769629E+02  0.14884909982E+02  0.13625301139E+04  0.13628554991E+04  0.10000000000E+02 0.  1.
</event>
<event>
 5    1  0.1068111E-008  0.3810031E+03  0.7957747E-01  0.3446802E+00
         13   -1    0    0    0    0  0.00000000000E+00  0.00000000000E+00  0.14999999963E+04  0.15000000000E+04  0.10566000000E+00 0. -1.
        994   -1    0    0    0    0 -0.00000000000E+00 -0.00000000000E+00  0.11368683772E-12  0.17120000000E+03  0.17120000000E+03 0.  0.
         13    1    1    2    0    0  0.40321135574E+02 -0.35888418843E+02  0.25043437338E+03  0.25618579023E+03  0.10566000000E+00 0. -1.
        994    1    1    2    0    0 -0.35614469384E+02  0.98277665285E+02  0.40935352563E+02  0.20472428535E+03  0.17120000000E+03 0.  0.
        998    1    1    2    0    0 -0.47066661894E+01 -0.62389246442E+02  0.12086302703E+04  0.12102899244E+04  0.10000000000E+02 0. -1.
</event>
<event>
 5    1  0.1068111E-008  0.3909031E+03  0.7957747E-01  0.3405016E+00
         13   -1    0    0    0    0  0.00000000000E+00  0.00000000000E+00  0.14999999963E+04  0.15000000000E+04  0.10566000000E+00 0.  1.
        994   -1    0    0    0    0 -0.00000000000E+00 -0.00000000000E+00  0.11368683772E-12  0.17120000000E+03  0.17120000000E+03 0.  0.
         13    1    1    2    0    0  0.66783377521E+02 -0.35545774122E+02  0.13002110877E+03  0.15042945676E+03  0.10566000000E+00 0.  1.
        994    1    1    2    0    0 -0.25169484993E+02  0.12340357988E+02  0.25422024329E+02  0.17533256038E+03  0.17120000000E+03 0.  0.
        998    1    1    2    0    0 -0.41613892528E+02  0.23205416133E+02  0.13445568632E+04  0.13454379829E+04  0.10000000000E+02 0.  1.
</event>
<event>
 5    1  0.1068111E-008  0.3796394E+03  0.7957747E-01  0.3452730E+00
         13   -1    0    0    0    0  0.00000000000E+00  0.00000000000E+00  0.14999999963E+04  0.15000000000E+04  0.10566000000E+00 0. -1.
        994   -1    0    0    0    0 -0.00000000000E+00 -0.00000000000E+00  0.11368683772E-12  0.17120000000E+03  0.17120000000E+03 0.  0.
         13    1    1    2    0    0 -0.20922523025E+02 -0.25481904718E+02  0.11033566784E+03  0.11515663333E+03  0.10566000000E+00 0. -1.
        994    1    1    2    0    0  0.29798557362E+02  0.30967286930E+02  0.10521661815E+02  0.17682497631E+03  0.17120000000E+03 0.  0.
        998    1    1    2    0    0 -0.88760343370E+01 -0.54853822121E+01  0.13791426666E+04  0.13792183904E+04  0.10000000000E+02 0. -1.
</event>
<event>
 5    1  0.1068111E-008  0.3741116E+03  0.7957747E-01  0.3477205E+00
         13   -1    0    0    0    0  0.00000000000E+00  0.00000000000E+00  0.14999999963E+04  0.15000000000E+04  0.10566000000E+00 0. -1.
        994   -1    0    0    0    0 -0.00000000000E+00 -0.00000000000E+00  0.11368683772E-12  0.17120000000E+03  0.17120000000E+03 0.  0.
         13    1    1    2    0    0  0.27045013207E+02  0.25552379923E+01  0.47783520331E+02  0.54965788995E+02  0.10566000000E+00 0. -1.
        994    1    1    2    0    0 -0.24820646173E+02 -0.10197093340E+02  0.95944563917E+01  0.17355557837E+03  0.17120000000E+03 0.  0.
        998    1    1    2    0    0 -0.22243670345E+01  0.76418553476E+01  0.14426220196E+04  0.14426786326E+04  0.10000000000E+02 0. -1.
</event>
<event>
 5    1  0.1068111E-008  0.3733813E+03  0.7957747E-01  0.3480494E+00
         13   -1    0    0    0    0  0.00000000000E+00  0.00000000000E+00  0.14999999963E+04  0.15000000000E+04  0.10566000000E+00 0.  1.
        994   -1    0    0    0    0 -0.00000000000E+00 -0.00000000000E+00  0.11368683772E-12  0.17120000000E+03  0.17120000000E+03 0.  0.
         13    1    1    2    0    0  0.72184235454E+01 -0.15350961027E+02  0.16556772810E+02  0.23704335739E+02  0.10566000000E+00 0.  1.
        994    1    1    2    0    0  0.74756219803E+01 -0.31563894214E+01  0.77374002382E+01  0.17156676566E+03  0.17120000000E+03 0.  0.
        998    1    1    2    0    0 -0.14694045526E+02  0.18507350448E+02  0.14757058232E+04  0.14759288986E+04  0.10000000000E+02 0.  1.
</event>
<event>
 5    1  0.1068111E-008  0.3724958E+03  0.7957747E-01  0.3484499E+00
         13   -1    0    0    0    0  0.00000000000E+00  0.00000000000E+00  0.14999999963E+04  0.15000000000E+04  0.10566000000E+00 0.  1.
        994   -1    0    0    0    0 -0.00000000000E+00 -0.00000000000E+00  0.11368683772E-12  0.17120000000E+03  0.17120000000E+03 0.  0.
         13    1    1    2    0    0 -0.29614204564E+02  0.21622046223E+02  0.12760853929E+03  0.13277222774E+03  0.10566000000E+00 0.  1.
        994    1    1    2    0    0 -0.65949956301E+02  0.34344951680E+02  0.27169235554E+02  0.18861754903E+03  0.17120000000E+03 0.  0.
        998    1    1    2    0    0  0.95564160865E+02 -0.55966997903E+02  0.13452222214E+04  0.13498102232E+04  0.10000000000E+02 0.  1.
</event>
<event>
 5    1  0.1068111E-008  0.3800762E+03  0.7957747E-01  0.3450827E+00
         13   -1    0    0    0    0  0.00000000000E+00  0.00000000000E+00  0.14999999963E+04  0.15000000000E+04  0.10566000000E+00 0. -1.
        994   -1    0    0    0    0 -0.00000000000E+00 -0.00000000000E+00  0.11368683772E-12  0.17120000000E+03  0.17120000000E+03 0.  0.
         13    1    1    2    0    0  0.76454235335E+01  0.76233815664E+01  0.12461044498E+02  0.16488093932E+02  0.10566000000E+00 0. -1.
        994    1    1    2    0    0 -0.65142334590E+01 -0.39714176415E+01  0.42892662854E+01  0.17142358414E+03  0.17120000000E+03 0.  0.
        998    1    1    2    0    0 -0.11311900744E+01 -0.36519639248E+01  0.14832496855E+04  0.14832883219E+04  0.10000000000E+02 0. -1.
</event>
<event>
 5    1  0.1068111E-008  0.3774208E+03  0.7957747E-01  0.3462466E+00
         13   -1    0    0    0    0  0.00000000000E+00  0.00000000000E+00  0.14999999963E+04  0.15000000000E+04  0.10566000000E+00 0. -1.
        994   -1    0    0    0    0 -0.00000000000E+00 -0.00000000000E+00  0.11368683772E-12  0.17120000000E+03  0.17120000000E+03 0.  0.
         13    1    1    2    0    0 -0.95841817592E+02  0.12938469520E+03  0.86945846975E+03  0.88424210211E+03  0.10566000000E+00 0. -1.
        994    1    1    2    0    0  0.93025455246E+02 -0.13140619212E+03  0.98513794505E+02  0.25482490137E+03  0.17120000000E+03 0.  0.
        998    1    1    2    0    0  0.28163623461E+01  0.20214969156E+01  0.53202773202E+03  0.53213299652E+03  0.10000000000E+02 0.  0.
</event>
<event>
 5    1  0.1068111E-008  0.3828844E+03  0.7957747E-01  0.3438695E+00
         13   -1    0    0    0    0  0.00000000000E+00  0.00000000000E+00  0.14999999963E+04  0.15000000000E+04  0.10566000000E+00 0.  1.
        994   -1    0    0    0    0 -0.00000000000E+00 -0.00000000000E+00  0.11368683772E-12  0.17120000000E+03  0.17120000000E+03 0.  0.
         13    1    1    2    0    0  0.12089157035E+02  0.14684852899E+02  0.68864188038E+02  0.71442845553E+02  0.10566000000E+00 0.  1.
        994    1    1    2    0    0 -0.52643627698E+01 -0.32131759689E+01  0.28101322643E+01  0.17133410302E+03  0.17120000000E+03 0.  0.
        998    1    1    2    0    0 -0.68247942655E+01 -0.11471676930E+02  0.14283256760E+04  0.14284230514E+04  0.10000000000E+02 0.  1.
</event>
<event>
 5    1  0.1068111E-008  0.3773758E+03  0.7957747E-01  0.3462665E+00
         13   -1    0    0    0    0  0.00000000000E+00  0.00000000000E+00  0.14999999963E+04  0.15000000000E+04  0.10566000000E+00 0.  1.
        994   -1    0    0    0    0 -0.00000000000E+00 -0.00000000000E+00  0.11368683772E-12  0.17120000000E+03  0.17120000000E+03 0.  0.
         13    1    1    2    0    0  0.95984275267E+01 -0.39623199156E+02  0.22675689139E+03  0.23039276612E+03  0.10566000000E+00 0.  1.
        994    1    1    2    0    0  0.27730177630E+02 -0.24450762254E+02  0.10086716739E+02  0.17543655372E+03  0.17120000000E+03 0.  0.
        998    1    1    2    0    0 -0.37328605156E+02  0.64073961410E+02  0.12631563881E+04  0.12653706802E+04  0.10000000000E+02 0.  1.
</event>
<event>
 5    1  0.1068111E-008  0.3796138E+03  0.7957747E-01  0.3452842E+00
         13   -1    0    0    0    0  0.00000000000E+00  0.00000000000E+00  0.14999999963E+04  0.15000000000E+04  0.10566000000E+00 0. -1.
        994   -1    0    0    0    0 -0.00000000000E+00 -0.00000000000E+00  0.11368683772E-12  0.17120000000E+03  0.17120000000E+03 0.  0.
         13    1    1    2    0    0  0.12831396192E+02 -0.39504975428E+00  0.17169854378E+02  0.21438653315E+02  0.10566000000E+00 0. -1.
        994    1    1    2    0    0 -0.96117880908E+01  0.34975165498E+01  0.46784566013E+01  0.17156907369E+03  0.17120000000E+03 0.  0.
        998    1    1    2    0    0 -0.32196081009E+01 -0.31024667955E+01  0.14781516853E+04  0.14781922730E+04  0.10000000000E+02 0. -1.
</event>
<event>
 5    1  0.1068111E-008  0.3862050E+03  0.7957747E-01  0.3424578E+00
         13   -1    0    0    0    0  0.00000000000E+00  0.00000000000E+00  0.14999999963E+04  0.15000000000E+04  0.10566000000E+00 0.  1.
        994   -1    0    0    0    0 -0.00000000000E+00 -0.00000000000E+00  0.11368683772E-12  0.17120000000E+03  0.17120000000E+03 0.  0.
         13    1    1    2    0    0  0.31456061005E+00  0.10149483590E+02  0.53654241801E+02  0.54606774239E+02  0.10566000000E+00 0.  1.
        994    1    1    2    0    0 -0.74169369084E+01  0.11654777272E+01  0.12177517001E+01  0.17136887760E+03  0.17120000000E+03 0.  0.
        998    1    1    2    0    0  0.71023762984E+01 -0.11314961317E+02  0.14451280028E+04  0.14452243482E+04  0.10000000000E+02 0.  1.
</event>
<event>
 5    1  0.1068111E-008  0.3841168E+03  0.7957747E-01  0.3433427E+00
         13   -1    0    0    0    0  0.00000000000E+00  0.00000000000E+00  0.14999999963E+04  0.15000000000E+04  0.10566000000E+00 0.  1.
        994   -1    0    0    0    0 -0.00000000000E+00 -0.00000000000E+00  0.11368683772E-12  0.17120000000E+03  0.17120000000E+03 0.  0.
         13    1    1    2    0    0  0.31458583809E+01  0.20319016361E+02  0.99207613861E+02  0.10131594476E+03  0.10566000000E+00 0.  1.
        994    1    1    2    0    0 -0.12919146124E-01 -0.16789610094E+02  0.29995235108E+01  0.17204745949E+03  0.17120000000E+03 0.  0.
        998    1    1    2    0    0 -0.31329392348E+01 -0.35294062673E+01  0.13977928589E+04  0.13978365958E+04  0.10000000000E+02 0.  1.
</event>
<event>
 5    1  0.1068111E-008  0.3747045E+03  0.7957747E-01  0.3474546E+00
         13   -1    0    0    0    0  0.00000000000E+00  0.00000000000E+00  0.14999999963E+04  0.15000000000E+04  0.10566000000E+00 0. -1.
        994   -1    0    0    0    0 -0.00000000000E+00 -0.00000000000E+00  0.11368683772E-12  0.17120000000E+03  0.17120000000E+03 0.  0.
         13    1    1    2    0    0 -0.99735645402E+01  0.54249201713E+01  0.62968199764E+01  0.12983175819E+02  0.10566000000E+00 0. -1.
        994    1    1    2    0    0  0.45607090249E+01 -0.10101125836E+02  0.72486297889E+01  0.17171143073E+03  0.17120000000E+03 0.  0.
        998    1    1    2    0    0  0.54128555153E+01  0.46762056651E+01  0.14864545465E+04  0.14865053934E+04  0.10000000000E+02 0. -1.
</event>
<event>
 5    1  0.1068111E-008  0.3743531E+03  0.7957747E-01  0.3476121E+00
         13   -1    0    0    0    0  0.00000000000E+00  0.00000000000E+00  0.14999999963E+04  0.15000000000E+04  0.10566000000E+00 0.  1.
        994   -1    0    0    0    0 -0.00000000000E+00 -0.00000000000E+00  0.11368683772E-12  0.17120000000E+03  0.17120000000E+03 0.  0.
         13    1    1    2    0    0 -0.64070882186E+02 -0.72423838150E+02  0.39874882746E+03  0.41030589667E+03  0.10566000000E+00 0.  1.
        994    1    1    2    0    0  0.41617302245E+02  0.13413240346E+02  0.20077949473E+02  0.17783272735E+03  0.17120000000E+03 0.  0.
        998    1    1    2    0    0  0.22453579941E+02  0.59010597805E+02  0.10811732193E+04  0.10830613760E+04  0.10000000000E+02 0.  1.
</event>
<event>
 5    1  0.1068111E-008  0.3713970E+03  0.7957747E-01  0.3489495E+00
         13   -1    0    0    0    0  0.00000000000E+00  0.00000000000E+00  0.14999999963E+04  0.15000000000E+04  0.10566000000E+00 0.  1.
        994   -1    0    0    0    0 -0.00000000000E+00 -0.00000000000E+00  0.11368683772E-12  0.17120000000E+03  0.17120000000E+03 0.  0.
         13    1    1    2    0    0  0.18247322733E+02  0.14282948636E+02  0.27614612503E+02  0.36049207986E+02  0.10566000000E+00 0.  1.
        994    1    1    2    0    0 -0.18618569938E+02 -0.89697168546E+01  0.10011750156E+02  0.17273326868E+03  0.17120000000E+03 0.  0.
        998    1    1    2    0    0  0.37124720575E+00 -0.53132317814E+01  0.14623736336E+04  0.14624175233E+04  0.10000000000E+02 0.  1.
</event>
<event>
 5    1  0.1068111E-008  0.3790707E+03  0.7957747E-01  0.3455215E+00
         13   -1    0    0    0    0  0.00000000000E+00  0.00000000000E+00  0.14999999963E+04  0.15000000000E+04  0.10566000000E+00 0.  1.
        994   -1    0    0    0    0 -0.00000000000E+00 -0.00000000000E+00  0.11368683772E-12  0.17120000000E+03  0.17120000000E+03 0.  0.
         13    1    1    2    0    0 -0.11124905961E+02 -0.12845119632E+02  0.28801667232E+02  0.33441109885E+02  0.10566000000E+00 0.  1.
        994    1    1    2    0    0  0.16220243248E+02  0.12178804006E+02  0.59837774398E+01  0.17250120333E+03  0.17120000000E+03 0.  0.
        998    1    1    2    0    0 -0.50953372865E+01  0.66631562631E+00  0.14652145516E+04  0.14652576868E+04  0.10000000000E+02 0.  1.
</event>
<event>
 5    1  0.1068111E-008  0.3823290E+03  0.7957747E-01  0.3441080E+00
         13   -1    0    0    0    0  0.00000000000E+00  0.00000000000E+00  0.14999999963E+04  0.15000000000E+04  0.10566000000E+00 0. -1.
        994   -1    0    0    0    0 -0.00000000000E+00 -0.00000000000E+00  0.11368683772E-12  0.17120000000E+03  0.17120000000E+03 0.  0.
         13    1    1    2    0    0  0.12991800629E+02  0.52172211922E+01  0.32353199389E+02  0.35252616290E+02  0.10566000000E+00 0. -1.
        994    1    1    2    0    0 -0.33114132273E+01 -0.97712948348E+01  0.33152679104E+01  0.17154263220E+03  0.17120000000E+03 0.  0.
        998    1    1    2    0    0 -0.96803874013E+01  0.45540736426E+01  0.14643315290E+04  0.14644047515E+04  0.10000000000E+02 0. -1.
</event>
<event>
 5    1  0.1068111E-008  0.3742681E+03  0.7957747E-01  0.3476503E+00
         13   -1    0    0    0    0  0.00000000000E+00  0.00000000000E+00  0.14999999963E+04  0.15000000000E+04  0.10566000000E+00 0.  1.
        994   -1    0    0    0    0 -0.00000000000E+00 -0.00000000000E+00  0.11368683772E-12  0.17120000000E+03  0.17120000000E+03 0.  0.
         13    1    1    2    0    0  0.35014550940E+02  0.18222966267E+02  0.88500255218E+02  0.96904084614E+02  0.10566000000E+00 0.  1.
        994    1    1    2    0    0 -0.66294545225E+02 -0.34816596953E+02  0.26409299169E+02  0.18871685996E+03  0.17120000000E+03 0.  0.
        998    1    1    2    0    0  0.31279994285E+02  0.16593630685E+02  0.13850904419E+04  0.13855790554E+04  0.10000000000E+02 0.  1.
</event>
<event>
 5    1  0.1068111E-008  0.3720731E+03  0.7957747E-01  0.3486417E+00
         13   -1    0    0    0    0  0.00000000000E+00  0.00000000000E+00  0.14999999963E+04  0.15000000000E+04  0.10566000000E+00 0.  1.
        994   -1    0    0    0    0 -0.00000000000E+00 -0.00000000000E+00  0.11368683772E-12  0.17120000000E+03  0.17120000000E+03 0.  0.
         13    1    1    2    0    0  0.24069470847E+01  0.60886085202E+02  0.21599429480E+03  0.22442472082E+03  0.10566000000E+00 0.  1.
        994    1    1    2    0    0 -0.30654178988E+02 -0.41443881221E+02  0.17367939811E+02  0.17963395924E+03  0.17120000000E+03 0.  0.
        998    1    1    2    0    0  0.28247231904E+02 -0.19442203981E+02  0.12666377617E+04  0.12671413199E+04  0.10000000000E+02 0.  1.
</event>
<event>
 5    1  0.1068111E-008  0.3684631E+03  0.7957747E-01  0.3502984E+00
         13   -1    0    0    0    0  0.00000000000E+00  0.00000000000E+00  0.14999999963E+04  0.15000000000E+04  0.10566000000E+00 0. -1.
        994   -1    0    0    0    0 -0.00000000000E+00 -0.00000000000E+00  0.11368683772E-12  0.17120000000E+03  0.17120000000E+03 0.  0.
         13    1    1    2    0    0  0.23964449014E+02  0.22359944652E+02  0.48149845274E+02  0.58246722700E+02  0.10566000000E+00 0. -1.
        994    1    1    2    0    0 -0.30234249697E+01 -0.42380626344E+02  0.16376159531E+02  0.17715213007E+03  0.17120000000E+03 0.  0.
        998    1    1    2    0    0 -0.20941024044E+02  0.20020681692E+02  0.14354739915E+04  0.14358011472E+04  0.10000000000E+02 0. -1.
</event>
<event>
 5    1  0.1068111E-008  0.3809712E+03  0.7957747E-01  0.3446940E+00
         13   -1    0    0    0    0  0.00000000000E+00  0.00000000000E+00  0.14999999963E+04  0.15000000000E+04  0.10566000000E+00 0. -1.
        994   -1    0    0    0    0 -0.00000000000E+00 -0.00000000000E+00  0.11368683772E-12  0.17120000000E+03  0.17120000000E+03 0.  0.
         13    1    1    2    0    0 -0.30936114340E+02  0.11923353219E+02  0.14371066138E+03  0.14748550736E+03  0.10566000000E+00 0. -1.
        994    1    1    2    0    0  0.24748693447E+02 -0.74714281414E+01  0.58738551180E+01  0.17324047518E+03  0.17120000000E+03 0.  0.
        998    1    1    2    0    0  0.61874208928E+01 -0.44519250779E+01  0.13504154798E+04  0.13504740175E+04  0.10000000000E+02 0.  0.
</event>
<event>
 5    1  0.1068111E-008  0.3833991E+03  0.7957747E-01  0.3436490E+00
         13   -1    0    0    0    0  0.00000000000E+00  0.00000000000E+00  0.14999999963E+04  0.15000000000E+04  0.10566000000E+00 0. -1.
        994   -1    0    0    0    0 -0.00000000000E+00 -0.00000000000E+00  0.11368683772E-12  0.17120000000E+03  0.17120000000E+03 0.  0.
         13    1    1    2    0    0 -0.17801192504E+02  0.96183961055E+01  0.81144920735E+02  0.83629572063E+02  0.10566000000E+00 0. -1.
        994    1    1    2    0    0  0.16392256221E+02 -0.78460769755E+01  0.35196213861E+01  0.17219783600E+03  0.17120000000E+03 0.  0.
        998    1    1    2    0    0  0.14089362827E+01 -0.17723191300E+01  0.14153354542E+04  0.14153725919E+04  0.10000000000E+02 0. -1.
</event>
<event>
 5    1  0.1068111E-008  0.3845305E+03  0.7957747E-01  0.3431666E+00
         13   -1    0    0    0    0  0.00000000000E+00  0.00000000000E+00  0.14999999963E+04  0.15000000000E+04  0.10566000000E+00 0.  1.
        994   -1    0    0    0    0 -0.00000000000E+00 -0.00000000000E+00  0.11368683772E-12  0.17120000000E+03  0.17120000000E+03 0.  0.
         13    1    1    2    0    0 -0.10110556515E+02  0.29019814172E+01  0.28476073243E+02  0.30356922778E+02  0.10566000000E+00 0.  1.
        994    1    1    2    0    0  0.12054745178E+02 -0.85637593726E+01  0.25839152478E+01  0.17185683424E+03  0.17120000000E+03 0.  0.
        998    1    1    2    0    0 -0.19441886628E+01  0.56617779555E+01  0.14689400078E+04  0.14689862430E+04  0.10000000000E+02 0.  1.
</event>
<event>
 5    1  0.1068111E-008  0.3847227E+03  0.7957747E-01  0.3430849E+00
         13   -1    0    0    0    0  0.00000000000E+00  0.00000000000E+00  0.14999999963E+04  0.15000000000E+04  0.10566000000E+00 0.  1.
        994   -1    0    0    0    0 -0.00000000000E+00 -0.00000000000E+00  0.11368683772E-12  0.17120000000E+03  0.17120000000E+03 0.  0.
         13    1    1    2    0    0  0.97582314649E+00 -0.18910536691E+02  0.10247906177E+03  0.10421386613E+03  0.10566000000E+00 0.  1.
        994    1    1    2    0    0  0.44426601114E+01  0.10799571315E+02  0.22168569106E+01  0.17161212785E+03  0.17120000000E+03 0.  0.
        998    1    1    2    0    0 -0.54184832579E+01  0.81109653762E+01  0.13953040776E+04  0.13953740060E+04  0.10000000000E+02 0.  1.
</event>
<event>
 5    1  0.1068111E-008  0.3851002E+03  0.7957747E-01  0.3429247E+00
         13   -1    0    0    0    0  0.00000000000E+00  0.00000000000E+00  0.14999999963E+04  0.15000000000E+04  0.10566000000E+00 0. -1.
        994   -1    0    0    0    0 -0.00000000000E+00 -0.00000000000E+00  0.11368683772E-12  0.17120000000E+03  0.17120000000E+03 0.  0.
         13    1    1    2    0    0 -0.10387237084E+02 -0.11860953302E+02  0.92761912445E+02  0.94092297623E+02  0.10566000000E+00 0. -1.
        994    1    1    2    0    0 -0.11538470482E+02 -0.36326545254E+01  0.20616328154E+01  0.17163922282E+03  0.17120000000E+03 0.  0.
        998    1    1    2    0    0  0.21925707566E+02  0.15493607827E+02  0.14051764510E+04  0.14054684796E+04  0.10000000000E+02 0. -1.
</event>
<event>
 5    1  0.1068111E-008  0.3842673E+03  0.7957747E-01  0.3432786E+00
         13   -1    0    0    0    0  0.00000000000E+00  0.00000000000E+00  0.14999999963E+04  0.15000000000E+04  0.10566000000E+00 0.  1.
        994   -1    0    0    0    0 -0.00000000000E+00 -0.00000000000E+00  0.11368683772E-12  0.17120000000E+03  0.17120000000E+03 0.  0.
         13    1    1    2    0    0  0.97625457427E+01 -0.13042995734E+02  0.62220839660E+02  0.64318512803E+02  0.10566000000E+00 0.  1.
        994    1    1    2    0    0 -0.41064140434E+02 -0.21494393017E+01  0.75883214768E+01  0.17623253486E+03  0.17120000000E+03 0.  0.
        998    1    1    2    0    0  0.31301594691E+02  0.15192435036E+02  0.14301908351E+04  0.14306489523E+04  0.10000000000E+02 0.  1.
</event>
<event>
 5    1  0.1068111E-008  0.3714394E+03  0.7957747E-01  0.3489302E+00
         13   -1    0    0    0    0  0.00000000000E+00  0.00000000000E+00  0.14999999963E+04  0.15000000000E+04  0.10566000000E+00 0. -1.
        994   -1    0    0    0    0 -0.00000000000E+00 -0.00000000000E+00  0.11368683772E-12  0.17120000000E+03  0.17120000000E+03 0.  0.
         13    1    1    2    0    0 -0.14789706118E+01 -0.44525558513E+02  0.75790182041E+02  0.87914023755E+02  0.10566000000E+00 0. -1.
        994    1    1    2    0    0  0.13822986637E+02  0.48371574979E+02  0.20648282495E+02  0.17962927321E+03  0.17120000000E+03 0.  0.
        998    1    1    2    0    0 -0.12344016025E+02 -0.38460164664E+01  0.14035615317E+04  0.14036567030E+04  0.10000000000E+02 0. -1.
</event>
<event>
 5    1  0.1068111E-008  0.3799859E+03  0.7957747E-01  0.3451220E+00
         13   -1    0    0    0    0  0.00000000000E+00  0.00000000000E+00  0.14999999963E+04  0.15000000000E+04  0.10566000000E+00 0.  1.
        994   -1    0    0    0    0 -0.00000000000E+00 -0.00000000000E+00  0.11368683772E-12  0.17120000000E+03  0.17120000000E+03 0.  0.
         13    1    1    2    0    0  0.11714994286E+02 -0.90871959030E+01  0.25191872279E+02  0.29231144580E+02  0.10566000000E+00 0.  1.
        994    1    1    2    0    0 -0.68929029894E+01  0.45168800938E+00  0.42997753763E+01  0.17139324433E+03  0.17120000000E+03 0.  0.
        998    1    1    2    0    0 -0.48220912970E+01  0.86355078936E+01  0.14705083486E+04  0.14705756111E+04  0.10000000000E+02 0.  1.
</event>
<event>
 5    1  0.1068111E-008  0.3818786E+03  0.7957747E-01  0.3443019E+00
         13   -1    0    0    0    0  0.00000000000E+00  0.00000000000E+00  0.14999999963E+04  0.15000000000E+04  0.10566000000E+00 0.  1.
        994   -1    0    0    0    0 -0.00000000000E+00 -0.00000000000E+00  0.11368683772E-12  0.17120000000E+03  0.17120000000E+03 0.  0.
         13    1    1    2    0    0  0.50146191950E+01  0.10800237893E+02  0.21279784288E+02  0.24385075919E+02  0.10566000000E+00 0.  1.
        994    1    1    2    0    0 -0.47818792420E+01 -0.17424193131E+01  0.32739164086E+01  0.17130692024E+03  0.17120000000E+03 0.  0.
        998    1    1    2    0    0 -0.23273995301E+00 -0.90578185796E+01  0.14754462956E+04  0.14755080038E+04  0.10000000000E+02 0.  1.
</event>
<event>
 5    1  0.1068111E-008  0.3838763E+03  0.7957747E-01  0.3434452E+00
         13   -1    0    0    0    0  0.00000000000E+00  0.00000000000E+00  0.14999999963E+04  0.15000000000E+04  0.10566000000E+00 0.  1.
        994   -1    0    0    0    0 -0.00000000000E+00 -0.00000000000E+00  0.11368683772E-12  0.17120000000E+03  0.17120000000E+03 0.  0.
         13    1    1    2    0    0  0.15738175801E+02 -0.67389471062E+01  0.65620846270E+02  0.67817477209E+02  0.10566000000E+00 0.  1.
        994    1    1    2    0    0 -0.12350983971E+02  0.53256013735E+01  0.27864042444E+01  0.17175014668E+03  0.17120000000E+03 0.  0.
        998    1    1    2    0    0 -0.33871918304E+01  0.14133457327E+01  0.14315927458E+04  0.14316323761E+04  0.10000000000E+02 0.  0.
</event>
<event>
 5    1  0.1068111E-008  0.3750316E+03  0.7957747E-01  0.3473081E+00
         13   -1    0    0    0    0  0.00000000000E+00  0.00000000000E+00  0.14999999963E+04  0.15000000000E+04  0.10566000000E+00 0.  1.
        994   -1    0    0    0    0 -0.00000000000E+00 -0.00000000000E+00  0.11368683772E-12  0.17120000000E+03  0.17120000000E+03 0.  0.
         13    1    1    2    0    0 -0.49413339268E+02  0.67526206194E+02  0.17279302865E+03  0.19198674052E+03  0.10566000000E+00 0.  1.
        994    1    1    2    0    0  0.95112600956E+02 -0.10208392491E+03  0.86573222106E+02  0.23721698373E+03  0.17120000000E+03 0.  0.
        998    1    1    2    0    0 -0.45699261688E+02  0.34557718720E+02  0.12406337455E+04  0.12419962757E+04  0.10000000000E+02 0.  1.
</event>
<event>
 5    1  0.1068111E-008  0.3740440E+03  0.7957747E-01  0.3477509E+00
         13   -1    0    0    0    0  0.00000000000E+00  0.00000000000E+00  0.14999999963E+04  0.15000000000E+04  0.10566000000E+00 0. -1.
        994   -1    0    0    0    0 -0.00000000000E+00 -0.00000000000E+00  0.11368683772E-12  0.17120000000E+03  0.17120000000E+03 0.  0.
         13    1    1    2    0    0  0.10917128727E+03 -0.69489213025E+02  0.70954688678E+03  0.72125163181E+03  0.10566000000E+00 0. -1.
        994    1    1    2    0    0 -0.97860422910E+02  0.62668596410E+02  0.54718186030E+02  0.21402694978E+03  0.17120000000E+03 0.  0.
        998    1    1    2    0    0 -0.11310864357E+02  0.68206166154E+01  0.73573492347E+03  0.73592141841E+03  0.10000000000E+02 0.  0.
</event>
<event>
 5    1  0.1068111E-008  0.3848607E+03  0.7957747E-01  0.3430263E+00
         13   -1    0    0    0    0  0.00000000000E+00  0.00000000000E+00  0.14999999963E+04  0.15000000000E+04  0.10566000000E+00 0. -1.
        994   -1    0    0    0    0 -0.00000000000E+00 -0.00000000000E+00  0.11368683772E-12  0.17120000000E+03  0.17120000000E+03 0.  0.
         13    1    1    2    0    0  0.57028727827E+01 -0.19610769588E+02  0.10493290316E+03  0.10690196617E+03  0.10566000000E+00 0. -1.
        994    1    1    2    0    0 -0.22594518480E+02  0.28364637073E+02  0.60380588407E+01  0.17510272144E+03  0.17120000000E+03 0.  0.
        998    1    1    2    0    0  0.16891645697E+02 -0.87538674847E+01  0.13890290343E+04  0.13891953124E+04  0.10000000000E+02 0. -1.
</event>
<event>
 5    1  0.1068111E-008  0.3776185E+03  0.7957747E-01  0.3461594E+00
         13   -1    0    0    0    0  0.00000000000E+00  0.00000000000E+00  0.14999999963E+04  0.15000000000E+04  0.10566000000E+00 0. -1.
        994   -1    0    0    0    0 -0.00000000000E+00 -0.00000000000E+00  0.11368683772E-12  0.17120000000E+03  0.17120000000E+03 0.  0.
         13    1    1    2    0    0 -0.30239527003E+02 -0.59809456677E+02  0.39364365917E+03  0.39930807865E+03  0.10566000000E+00 0. -1.
        994    1    1    2    0    0  0.58386628963E+02  0.24385802149E+02  0.18951238330E+02  0.18350001423E+03  0.17120000000E+03 0.  0.
        998    1    1    2    0    0 -0.28147101960E+02  0.35423654528E+02  0.10874050988E+04  0.10883919071E+04  0.10000000000E+02 0. -1.
</event>
<event>
 5    1  0.1068111E-008  0.3824730E+03  0.7957747E-01  0.3440461E+00
         13   -1    0    0    0    0  0.00000000000E+00  0.00000000000E+00  0.14999999963E+04  0.15000000000E+04  0.10566000000E+00 0.  1.
        994   -1    0    0    0    0 -0.00000000000E+00 -0.00000000000E+00  0.11368683772E-12  0.17120000000E+03  0.17120000000E+03 0.  0.
         13    1    1    2    0    0  0.51825690598E+01 -0.16651561886E+02  0.47199031913E+02  0.50317922382E+02  0.10566000000E+00 0.  1.
        994    1    1    2    0    0 -0.12786815977E+03  0.12717719396E+01  0.59149313603E+02  0.22172046587E+03  0.17120000000E+03 0.  0.
        998    1    1    2    0    0  0.12268559071E+03  0.15379789946E+02  0.13936516508E+04  0.13991616117E+04  0.10000000000E+02 0.  1.
</event>
<event>
 5    1  0.1285914E-008  0.3862511E+03  0.7957747E-01  0.3424383E+00
         13   -1    0    0    0    0  0.00000000000E+00  0.00000000000E+00  0.14999999963E+04  0.15000000000E+04  0.10566000000E+00 0.  1.
        994   -1    0    0    0    0 -0.00000000000E+00 -0.00000000000E+00  0.11368683772E-12  0.17120000000E+03  0.17120000000E+03 0.  0.
         13    1    1    2    0    0 -0.96390092988E+01 -0.31312333573E+01  0.52617162990E+02  0.53584439232E+02  0.10566000000E+00 0.  1.
        994    1    1    2    0    0  0.23012443224E+01  0.70769041798E+01  0.11916454607E+01  0.17136580265E+03  0.17120000000E+03 0.  0.
        998    1    1    2    0    0  0.73377649764E+01 -0.39456708226E+01  0.14461911878E+04  0.14462497581E+04  0.10000000000E+02 0.  1.
</event>
<event>
 5    1  0.1068111E-008  0.3811869E+03  0.7957747E-01  0.3446007E+00
         13   -1    0    0    0    0  0.00000000000E+00  0.00000000000E+00  0.14999999963E+04  0.15000000000E+04  0.10566000000E+00 0. -1.
        994   -1    0    0    0    0 -0.00000000000E+00 -0.00000000000E+00  0.11368683772E-12  0.17120000000E+03  0.17120000000E+03 0.  0.
         13    1    1    2    0    0 -0.28320027203E+02 -0.80129374461E+02  0.22732130292E+03  0.24268853809E+03  0.10566000000E+00 0. -1.
        994    1    1    2    0    0  0.49373051225E+02  0.17302974318E+02  0.27009950175E+02  0.18104162095E+03  0.17120000000E+03 0.  0.
        998    1    1    2    0    0 -0.21053024022E+02  0.62826400143E+02  0.12456687432E+04  0.12474698410E+04  0.10000000000E+02 0. -1.
</event>
<event>
 5    1  0.1068111E-008  0.3701799E+03  0.7957747E-01  0.3495065E+00
         13   -1    0    0    0    0  0.00000000000E+00  0.00000000000E+00  0.14999999963E+04  0.15000000000E+04  0.10566000000E+00 0. -1.
        994   -1    0    0    0    0 -0.00000000000E+00 -0.00000000000E+00  0.11368683772E-12  0.17120000000E+03  0.17120000000E+03 0.  0.
         13    1    1    2    0    0 -0.68985826496E+02 -0.17887456932E+03  0.88836270662E+03  0.90881431849E+03  0.10566000000E+00 0. -1.
        994    1    1    2    0    0  0.21631204870E+01  0.21274969355E+03  0.18676773328E+03  0.33084548870E+03  0.17120000000E+03 0.  0.
        998    1    1    2    0    0  0.66822706009E+02 -0.33875124237E+02  0.42486955638E+03  0.43154019282E+03  0.10000000000E+02 0. -1.
</event>
<event>
 5    1  0.1068111E-008  0.3828444E+03  0.7957747E-01  0.3438866E+00
         13   -1    0    0    0    0  0.00000000000E+00  0.00000000000E+00  0.14999999963E+04  0.15000000000E+04  0.10566000000E+00 0. -1.
        994   -1    0    0    0    0 -0.00000000000E+00 -0.00000000000E+00  0.11368683772E-12  0.17120000000E+03  0.17120000000E+03 0.  0.
         13    1    1    2    0    0  0.12730605029E+02  0.25142509555E+01  0.29711673847E+02  0.32421975404E+02  0.10566000000E+00 0. -1.
        994    1    1    2    0    0 -0.13783270041E+02  0.19845964493E+00  0.33336794347E+01  0.17178641197E+03  0.17120000000E+03 0.  0.
        998    1    1    2    0    0  0.10526650118E+01 -0.27127106005E+01  0.14669546430E+04  0.14669916126E+04  0.10000000000E+02 0. -1.
</event>
<event>
 5    1  0.1068111E-008  0.3779150E+03  0.7957747E-01  0.3460288E+00
         13   -1    0    0    0    0  0.00000000000E+00  0.00000000000E+00  0.14999999963E+04  0.15000000000E+04  0.10566000000E+00 0.  1.
        994   -1    0    0    0    0 -0.00000000000E+00 -0.00000000000E+00  0.11368683772E-12  0.17120000000E+03  0.17120000000E+03 0.  0.
         13    1    1    2    0    0  0.15790142223E+02 -0.51104338834E+01  0.23646055330E+02  0.28889309833E+02  0.10566000000E+00 0.  1.
        994    1    1    2    0    0 -0.21963450105E+02  0.62257873920E+01  0.69456226858E+01  0.17285495435E+03  0.17120000000E+03 0.  0.
        998    1    1    2    0    0  0.61733078816E+01 -0.11153535085E+01  0.14694083183E+04  0.14694557358E+04  0.10000000000E+02 0.  1.
</event>
<event>
 5    1  0.1068111E-008  0.3854981E+03  0.7957747E-01  0.3427563E+00
         13   -1    0    0    0    0  0.00000000000E+00  0.00000000000E+00  0.14999999963E+04  0.15000000000E+04  0.10566000000E+00 0.  1.
        994   -1    0    0    0    0 -0.00000000000E+00 -0.00000000000E+00  0.11368683772E-12  0.17120000000E+03  0.17120000000E+03 0.  0.
         13    1    1    2    0    0 -0.11829944455E+02  0.50836727713E+01  0.58988218090E+02  0.60377250287E+02  0.10566000000E+00 0.  1.
        994    1    1    2    0    0  0.98461491497E+01 -0.69507074526E+01  0.18601426639E+01  0.17163379364E+03  0.17120000000E+03 0.  0.
        998    1    1    2    0    0  0.19837953058E+01  0.18670346812E+01  0.14391516355E+04  0.14391889561E+04  0.10000000000E+02 0.  1.
</event>
<event>
 5    1  0.1068111E-008  0.3840573E+03  0.7957747E-01  0.3433680E+00
         13   -1    0    0    0    0  0.00000000000E+00  0.00000000000E+00  0.14999999963E+04  0.15000000000E+04  0.10566000000E+00 0. -1.
        994   -1    0    0    0    0 -0.00000000000E+00 -0.00000000000E+00  0.11368683772E-12  0.17120000000E+03  0.17120000000E+03 0.  0.
         13    1    1    2    0    0 -0.88117135741E+01 -0.47815223442E+01  0.23289587488E+02  0.25355971711E+02  0.10566000000E+00 0. -1.
        994    1    1    2    0    0  0.48632935398E+01  0.59674082217E+01  0.22944035796E+01  0.17138834812E+03  0.17120000000E+03 0.  0.
        998    1    1    2    0    0  0.39484200344E+01 -0.11858858775E+01  0.14744160052E+04  0.14744556802E+04  0.10000000000E+02 0. -1.
</event>
<event>
 5    1  0.1068111E-008  0.3812226E+03  0.7957747E-01  0.3445852E+00
         13   -1    0    0    0    0  0.00000000000E+00  0.00000000000E+00  0.14999999963E+04  0.15000000000E+04  0.10566000000E+00 0. -1.
        994   -1    0    0    0    0 -0.00000000000E+00 -0.00000000000E+00  0.11368683772E-12  0.17120000000E+03  0.17120000000E+03 0.  0.
         13    1    1    2    0    0  0.86753929601E+02 -0.69133856983E+02  0.41569342384E+03  0.43024036105E+03  0.10566000000E+00 0. -1.
        994    1    1    2    0    0 -0.18681115913E+02  0.45105360894E+02  0.25727045412E+02  0.17987439656E+03  0.17120000000E+03 0.  0.
        998    1    1    2    0    0 -0.68072813689E+02  0.24028496089E+02  0.10585795270E+04  0.10610852424E+04  0.10000000000E+02 0. -1.
</event>
<event>
 5    1  0.1068111E-008  0.3842042E+03  0.7957747E-01  0.3433054E+00
         13   -1    0    0    0    0  0.00000000000E+00  0.00000000000E+00  0.14999999963E+04  0.15000000000E+04  0.10566000000E+00 0. -1.
        994   -1    0    0    0    0 -0.00000000000E+00 -0.00000000000E+00  0.11368683772E-12  0.17120000000E+03  0.17120000000E+03 0.  0.
         13    1    1    2    0    0  0.11828843816E+02  0.20198472471E+02  0.12439865553E+03  0.12658173841E+03  0.10566000000E+00 0. -1.
        994    1    1    2    0    0 -0.27332919886E+01 -0.27273852549E+02  0.45069684823E+01  0.17343899989E+03  0.17120000000E+03 0.  0.
        998    1    1    2    0    0 -0.90955518273E+01  0.70753800778E+01  0.13710943723E+04  0.13711792617E+04  0.10000000000E+02 0. -1.
</event>
<event>
 5    1  0.1068111E-008  0.3720850E+03  0.7957747E-01  0.3486363E+00
         13   -1    0    0    0    0  0.00000000000E+00  0.00000000000E+00  0.14999999963E+04  0.15000000000E+04  0.10566000000E+00 0. -1.
        994   -1    0    0    0    0 -0.00000000000E+00 -0.00000000000E+00  0.11368683772E-12  0.17120000000E+03  0.17120000000E+03 0.  0.
         13    1    1    2    0    0 -0.53263367667E+02  0.63793446562E+02  0.31542549443E+03  0.32618988927E+03  0.10566000000E+00 0. -1.
        994    1    1    2    0    0  0.70415560099E+01 -0.11770081125E+03  0.57534849642E+02  0.21569136145E+03  0.17120000000E+03 0.  0.
        998    1    1    2    0    0  0.46221811657E+02  0.53907364688E+02  0.11270396522E+04  0.11293187493E+04  0.10000000000E+02 0. -1.
</event>
<event>
 5    1  0.1068111E-008  0.3756359E+03  0.7957747E-01  0.3470384E+00
         13   -1    0    0    0    0  0.00000000000E+00  0.00000000000E+00  0.14999999963E+04  0.15000000000E+04  0.10566000000E+00 0.  1.
        994   -1    0    0    0    0 -0.00000000000E+00 -0.00000000000E+00  0.11368683772E-12  0.17120000000E+03  0.17120000000E+03 0.  0.
         13    1    1    2    0    0  0.46633894344E+02 -0.22437930085E+02  0.30427713942E+03  0.30864667428E+03  0.10566000000E+00 0.  1.
        994    1    1    2    0    0  0.14489452200E+02 -0.59143703650E+01  0.71837260944E+01  0.17206385420E+03  0.17120000000E+03 0.  0.
        998    1    1    2    0    0 -0.61123346543E+02  0.28352300450E+02  0.11885391308E+04  0.11904894715E+04  0.10000000000E+02 0.  1.
</event>
<event>
 5    1  0.1779107E-008  0.3855583E+03  0.7957747E-01  0.3427308E+00
         13   -1    0    0    0    0  0.00000000000E+00  0.00000000000E+00  0.14999999963E+04  0.15000000000E+04  0.10566000000E+00 0.  1.
        994   -1    0    0    0    0 -0.00000000000E+00 -0.00000000000E+00  0.11368683772E-12  0.17120000000E+03  0.17120000000E+03 0.  0.
         13    1    1    2    0    0 -0.13074460617E+02 -0.20887491858E+01  0.54512451547E+02  0.56097441397E+02  0.10566000000E+00 0.  1.
        994    1    1    2    0    0  0.37837694810E+02  0.24243916983E+01  0.60866081695E+01  0.17545385611E+03  0.17120000000E+03 0.  0.
        998    1    1    2    0    0 -0.24763234193E+02 -0.33564251249E+00  0.14394009366E+04  0.14396487025E+04  0.10000000000E+02 0.  1.
</event>
<event>
 5    1  0.1068111E-008  0.3848296E+03  0.7957747E-01  0.3430395E+00
         13   -1    0    0    0    0  0.00000000000E+00  0.00000000000E+00  0.14999999963E+04  0.15000000000E+04  0.10566000000E+00 0.  1.
        994   -1    0    0    0    0 -0.00000000000E+00 -0.00000000000E+00  0.11368683772E-12  0.17120000000E+03  0.17120000000E+03 0.  0.
         13    1    1    2    0    0  0.41352390705E+01 -0.11812953956E+02  0.45144142679E+02  0.46847100931E+02  0.10566000000E+00 0.  1.
        994    1    1    2    0    0  0.63411553996E+00  0.10791091720E+02  0.20993322344E+01  0.17155377279E+03  0.17120000000E+03 0.  0.
        998    1    1    2    0    0 -0.47693546104E+01  0.10218622360E+01  0.14527565214E+04  0.14527991263E+04  0.10000000000E+02 0.  1.
</event>
<event>
 5    1  0.1068111E-008  0.2957055E+03  0.7957747E-01  0.3927163E+00
         13   -1    0    0    0    0  0.00000000000E+00  0.00000000000E+00  0.14999999963E+04  0.15000000000E+04  0.10566000000E+00 0.  1.
        994   -1    0    0    0    0 -0.00000000000E+00 -0.00000000000E+00  0.11368683772E-12  0.17120000000E+03  0.17120000000E+03 0.  0.
         13    1    1    2    0    0 -0.63260184979E+02  0.12548638694E+03  0.79173900855E+03  0.80411401750E+03  0.10566000000E+00 0.  1.
        994    1    1    2    0    0  0.25406768820E+02 -0.39759878301E+02  0.27341793351E+02  0.17967572315E+03  0.17120000000E+03 0.  0.
        998    1    1    2    0    0  0.37853416159E+02 -0.85726508638E+02  0.68091919438E+03  0.68741025936E+03  0.10000000000E+02 0.  1.
</event>
<event>
 5    1  0.1068111E-008  0.3806621E+03  0.7957747E-01  0.3448281E+00
         13   -1    0    0    0    0  0.00000000000E+00  0.00000000000E+00  0.14999999963E+04  0.15000000000E+04  0.10566000000E+00 0. -1.
        994   -1    0    0    0    0 -0.00000000000E+00 -0.00000000000E+00  0.11368683772E-12  0.17120000000E+03  0.17120000000E+03 0.  0.
         13    1    1    2    0    0  0.25795518953E+02  0.15667679331E+02  0.10993825118E+03  0.11400576832E+03  0.10566000000E+00 0. -1.
        994    1    1    2    0    0 -0.30024966001E+02 -0.11982459080E+02  0.72931096524E+01  0.17437805870E+03  0.17120000000E+03 0.  0.
        998    1    1    2    0    0  0.42294470485E+01 -0.36852202510E+01  0.13827686354E+04  0.13828161730E+04  0.10000000000E+02 0. -1.
</event>
<event>
 5    1  0.1068111E-008  0.3820866E+03  0.7957747E-01  0.3442123E+00
         13   -1    0    0    0    0  0.00000000000E+00  0.00000000000E+00  0.14999999963E+04  0.15000000000E+04  0.10566000000E+00 0. -1.
        994   -1    0    0    0    0 -0.00000000000E+00 -0.00000000000E+00  0.11368683772E-12  0.17120000000E+03  0.17120000000E+03 0.  0.
         13    1    1    2    0    0 -0.22361909924E+02  0.16254700314E+02  0.12949352904E+03  0.13241168953E+03  0.10566000000E+00 0. -1.
        994    1    1    2    0    0  0.90465324628E+01 -0.27562968002E+01  0.33805310796E+01  0.17149432910E+03  0.17120000000E+03 0.  0.
        998    1    1    2    0    0  0.13315377462E+02 -0.13498403514E+02  0.13671259362E+04  0.13672939814E+04  0.10000000000E+02 0. -1.
</event>
<event>
 5    1  0.1068111E-008  0.3843264E+03  0.7957747E-01  0.3432534E+00
         13   -1    0    0    0    0  0.00000000000E+00  0.00000000000E+00  0.14999999963E+04  0.15000000000E+04  0.10566000000E+00 0. -1.
        994   -1    0    0    0    0 -0.00000000000E+00 -0.00000000000E+00  0.11368683772E-12  0.17120000000E+03  0.17120000000E+03 0.  0.
         13    1    1    2    0    0 -0.86901624841E+01 -0.80345390130E+01  0.35648601595E+02  0.37562038029E+02  0.10566000000E+00 0. -1.
        994    1    1    2    0    0  0.23942272006E+01  0.50494259378E+01  0.20678892576E+01  0.17130366369E+03  0.17120000000E+03 0.  0.
        998    1    1    2    0    0  0.62959352836E+01  0.29851130752E+01  0.14622835054E+04  0.14623342983E+04  0.10000000000E+02 0. -1.
</event>
<event>
 5    1  0.1068111E-008  0.3777903E+03  0.7957747E-01  0.3460837E+00
         13   -1    0    0    0    0  0.00000000000E+00  0.00000000000E+00  0.14999999963E+04  0.15000000000E+04  0.10566000000E+00 0.  1.
        994   -1    0    0    0    0 -0.00000000000E+00 -0.00000000000E+00  0.11368683772E-12  0.17120000000E+03  0.17120000000E+03 0.  0.
         13    1    1    2    0    0 -0.58931426117E+02 -0.48558070466E+01  0.27127963486E+03  0.27764931713E+03  0.10566000000E+00 0.  1.
        994    1    1    2    0    0  0.59088236867E+02  0.10303162437E+02  0.17464919078E+02  0.18224170294E+03  0.17120000000E+03 0.  0.
        998    1    1    2    0    0 -0.15681075024E+00 -0.54473553907E+01  0.12112554423E+04  0.12113089799E+04  0.10000000000E+02 0.  1.
</event>
<event>
 5    1  0.1068111E-008  0.4097681E+03  0.7957747E-01  0.3330972E+00
         13   -1    0    0    0    0  0.00000000000E+00  0.00000000000E+00  0.14999999963E+04  0.15000000000E+04  0.10566000000E+00 0. -1.
        994   -1    0    0    0    0 -0.00000000000E+00 -0.00000000000E+00  0.11368683772E-12  0.17120000000E+03  0.17120000000E+03 0.  0.
         13    1    1    2    0    0  0.73286364949E+00  0.42186216227E+02  0.11035937033E+02  0.43612119863E+02  0.10566000000E+00 0. -1.
        994    1    1    2    0    0  0.48349701697E+02 -0.74204860477E+02  0.66528624440E+02  0.20391064916E+03  0.17120000000E+03 0.  0.
        998    1    1    2    0    0 -0.49082565346E+02  0.32018644250E+02  0.14224354348E+04  0.14236772310E+04  0.10000000000E+02 0. -1.
</event>
<event>
 5    1  0.1068111E-008  0.3803368E+03  0.7957747E-01  0.3449693E+00
         13   -1    0    0    0    0  0.00000000000E+00  0.00000000000E+00  0.14999999963E+04  0.15000000000E+04  0.10566000000E+00 0.  1.
        994   -1    0    0    0    0 -0.00000000000E+00 -0.00000000000E+00  0.11368683772E-12  0.17120000000E+03  0.17120000000E+03 0.  0.
         13    1    1    2    0    0 -0.17056032677E+02 -0.11209657204E+02  0.48935946098E+02  0.53021718662E+02  0.10566000000E+00 0.  1.
        994    1    1    2    0    0  0.23665450236E+02  0.90308820026E+01  0.61086218345E+01  0.17317149195E+03  0.17120000000E+03 0.  0.
        998    1    1    2    0    0 -0.66094175596E+01  0.21787752013E+01  0.14449554283E+04  0.14450067894E+04  0.10000000000E+02 0.  1.
</event>
<event>
 5    1  0.1068111E-008  0.3800383E+03  0.7957747E-01  0.3450992E+00
         13   -1    0    0    0    0  0.00000000000E+00  0.00000000000E+00  0.14999999963E+04  0.15000000000E+04  0.10566000000E+00 0. -1.
        994   -1    0    0    0    0 -0.00000000000E+00 -0.00000000000E+00  0.11368683772E-12  0.17120000000E+03  0.17120000000E+03 0.  0.
         13    1    1    2    0    0 -0.13968461189E+02 -0.98016107854E+01  0.32843569793E+02  0.37012169928E+02  0.10566000000E+00 0. -1.
        994    1    1    2    0    0  0.12960943430E+02  0.16978916004E+02  0.56403687853E+01  0.17261959160E+03  0.17120000000E+03 0.  0.
        998    1    1    2    0    0  0.10075177587E+01 -0.71773052184E+01  0.14615160577E+04  0.14615682385E+04  0.10000000000E+02 0. -1.
</event>
<event>
 5    1  0.1068111E-008  0.3773478E+03  0.7957747E-01  0.3462789E+00
         13   -1    0    0    0    0  0.00000000000E+00  0.00000000000E+00  0.14999999963E+04  0.15000000000E+04  0.10566000000E+00 0.  1.
        994   -1    0    0    0    0 -0.00000000000E+00 -0.00000000000E+00  0.11368683772E-12  0.17120000000E+03  0.17120000000E+03 0.  0.
         13    1    1    2    0    0  0.11845171219E+03  0.12230385109E+02  0.33899492469E+03  0.35930204643E+03  0.10566000000E+00 0.  1.
        994    1    1    2    0    0 -0.12626454644E+03 -0.96585281005E+01  0.74926174635E+02  0.22574187582E+03  0.17120000000E+03 0.  0.
        998    1    1    2    0    0  0.78128342490E+01 -0.25718570081E+01  0.10860788970E+04  0.10861560777E+04  0.10000000000E+02 0.  1.
</event>
<event>
 5    1  0.1068111E-008  0.3860736E+03  0.7957747E-01  0.3425132E+00
         13   -1    0    0    0    0  0.00000000000E+00  0.00000000000E+00  0.14999999963E+04  0.15000000000E+04  0.10566000000E+00 0.  1.
        994   -1    0    0    0    0 -0.00000000000E+00 -0.00000000000E+00  0.11368683772E-12  0.17120000000E+03  0.17120000000E+03 0.  0.
         13    1    1    2    0    0 -0.56749192992E+01 -0.95120134642E+01  0.55668605145E+02  0.56759914306E+02  0.10566000000E+00 0.  1.
        994    1    1    2    0    0  0.46479660827E+01  0.85979500250E+01  0.14111878683E+01  0.17148457594E+03  0.17120000000E+03 0.  0.
        998    1    1    2    0    0  0.10269532165E+01  0.91406343922E+00  0.14429202033E+04  0.14429555098E+04  0.10000000000E+02 0.  1.
</event>
<event>
 5    1  0.1068111E-008  0.3748516E+03  0.7957747E-01  0.3473887E+00
         13   -1    0    0    0    0  0.00000000000E+00  0.00000000000E+00  0.14999999963E+04  0.15000000000E+04  0.10566000000E+00 0. -1.
        994   -1    0    0    0    0 -0.00000000000E+00 -0.00000000000E+00  0.11368683772E-12  0.17120000000E+03  0.17120000000E+03 0.  0.
         13    1    1    2    0    0  0.45165730016E+02  0.12396797015E+02  0.16487777558E+03  0.17140103789E+03  0.10566000000E+00 0. -1.
        994    1    1    2    0    0 -0.21321608882E+02 -0.57496103984E+01  0.84152319746E+01  0.17282339296E+03  0.17120000000E+03 0.  0.
        998    1    1    2    0    0 -0.23844121133E+02 -0.66471866168E+01  0.13267069887E+04  0.13269755692E+04  0.10000000000E+02 0. -1.
</event>
<event>
 5    1  0.1068111E-008  0.3811794E+03  0.7957747E-01  0.3446039E+00
         13   -1    0    0    0    0  0.00000000000E+00  0.00000000000E+00  0.14999999963E+04  0.15000000000E+04  0.10566000000E+00 0.  1.
        994   -1    0    0    0    0 -0.00000000000E+00 -0.00000000000E+00  0.11368683772E-12  0.17120000000E+03  0.17120000000E+03 0.  0.
         13    1    1    2    0    0  0.12371974423E+02  0.21638429731E+02  0.79850309917E+02  0.83650287209E+02  0.10566000000E+00 0.  1.
        994    1    1    2    0    0 -0.13330633967E+02 -0.29286646593E+02  0.69944852330E+01  0.17433810913E+03  0.17120000000E+03 0.  0.
        998    1    1    2    0    0  0.95865954371E+00  0.76482168610E+01  0.14131552011E+04  0.14132116037E+04  0.10000000000E+02 0.  1.
</event>
<event>
 5    1  0.1068111E-008  0.3763642E+03  0.7957747E-01  0.3467144E+00
         13   -1    0    0    0    0  0.00000000000E+00  0.00000000000E+00  0.14999999963E+04  0.15000000000E+04  0.10566000000E+00 0. -1.
        994   -1    0    0    0    0 -0.00000000000E+00 -0.00000000000E+00  0.11368683772E-12  0.17120000000E+03  0.17120000000E+03 0.  0.
         13    1    1    2    0    0 -0.66492510566E+01  0.92525385193E+01  0.80733542238E+01  0.13964677623E+02  0.10566000000E+00 0. -1.
        994    1    1    2    0    0  0.60259290117E+01 -0.10399446390E+02  0.64688078932E+01  0.17174325542E+03  0.17120000000E+03 0.  0.
        998    1    1    2    0    0  0.62332204493E+00  0.11469078702E+01  0.14854578342E+04  0.14854920670E+04  0.10000000000E+02 0. -1.
</event>
<event>
 5    1  0.1068111E-008  0.3729041E+03  0.7957747E-01  0.3482650E+00
         13   -1    0    0    0    0  0.00000000000E+00  0.00000000000E+00  0.14999999963E+04  0.15000000000E+04  0.10566000000E+00 0. -1.
        994   -1    0    0    0    0 -0.00000000000E+00 -0.00000000000E+00  0.11368683772E-12  0.17120000000E+03  0.17120000000E+03 0.  0.
         13    1    1    2    0    0  0.29747046753E+02 -0.10338988570E+02  0.65706372541E+02  0.72863708605E+02  0.10566000000E+00 0. -1.
        994    1    1    2    0    0  0.33763623744E+01  0.37432671323E+01  0.78459607569E+01  0.17145381586E+03  0.17120000000E+03 0.  0.
        998    1    1    2    0    0 -0.33123409127E+02  0.65957214381E+01  0.14264476630E+04  0.14268824755E+04  0.10000000000E+02 0. -1.
</event>
<event>
 5    1  0.1068111E-008  0.3817878E+03  0.7957747E-01  0.3443411E+00
         13   -1    0    0    0    0  0.00000000000E+00  0.00000000000E+00  0.14999999963E+04  0.15000000000E+04  0.10566000000E+00 0. -1.
        994   -1    0    0    0    0 -0.00000000000E+00 -0.00000000000E+00  0.11368683772E-12  0.17120000000E+03  0.17120000000E+03 0.  0.
         13    1    1    2    0    0  0.96860078284E+01  0.23631656050E+02  0.96826450308E+02  0.10013813738E+03  0.10566000000E+00 0. -1.
        994    1    1    2    0    0 -0.98244294376E+01 -0.18773782999E+02  0.47269039666E+01  0.17257102295E+03  0.17120000000E+03 0.  0.
        998    1    1    2    0    0  0.13842160916E+00 -0.48578730510E+01  0.13984466420E+04  0.13984908397E+04  0.10000000000E+02 0. -1.
</event>
<event>
 5    1  0.1068111E-008  0.3737739E+03  0.7957747E-01  0.3478725E+00
         13   -1    0    0    0    0  0.00000000000E+00  0.00000000000E+00  0.14999999963E+04  0.15000000000E+04  0.10566000000E+00 0. -1.
        994   -1    0    0    0    0 -0.00000000000E+00 -0.00000000000E+00  0.11368683772E-12  0.17120000000E+03  0.17120000000E+03 0.  0.
         13    1    1    2    0    0  0.18397296616E+02  0.19647313987E+02  0.44848258382E+02  0.52305400425E+02  0.10566000000E+00 0. -1.
        994    1    1    2    0    0 -0.19437272372E+02 -0.24774549670E+02  0.10701783427E+02  0.17440055630E+03  0.17120000000E+03 0.  0.
        998    1    1    2    0    0  0.10399757563E+01  0.51272356838E+01  0.14444499545E+04  0.14444940433E+04  0.10000000000E+02 0. -1.
</event>
<event>
 5    1  0.1068111E-008  0.3750938E+03  0.7957747E-01  0.3472803E+00
         13   -1    0    0    0    0  0.00000000000E+00  0.00000000000E+00  0.14999999963E+04  0.15000000000E+04  0.10566000000E+00 0. -1.
        994   -1    0    0    0    0 -0.00000000000E+00 -0.00000000000E+00  0.11368683772E-12  0.17120000000E+03  0.17120000000E+03 0.  0.
         13    1    1    2    0    0  0.61056861307E+02 -0.25436859989E+02  0.31698855798E+03  0.32381589092E+03  0.10566000000E+00 0. -1.
        994    1    1    2    0    0 -0.42393667978E+02  0.78037401396E+01  0.12970964056E+02  0.17701922877E+03  0.17120000000E+03 0.  0.
        998    1    1    2    0    0 -0.18663193328E+02  0.17633119850E+02  0.11700404742E+04  0.11703648803E+04  0.10000000000E+02 0. -1.
</event>
<event>
 5    1  0.1068111E-008  0.3859308E+03  0.7957747E-01  0.3425734E+00
         13   -1    0    0    0    0  0.00000000000E+00  0.00000000000E+00  0.14999999963E+04  0.15000000000E+04  0.10566000000E+00 0.  1.
        994   -1    0    0    0    0 -0.00000000000E+00 -0.00000000000E+00  0.11368683772E-12  0.17120000000E+03  0.17120000000E+03 0.  0.
         13    1    1    2    0    0 -0.13518337789E+02 -0.42289404712E+01  0.83264190078E+02  0.84460439897E+02  0.10566000000E+00 0.  1.
        994    1    1    2    0    0  0.15525417965E+02 -0.21174243035E+01  0.19741459898E+01  0.17192690116E+03  0.17120000000E+03 0.  0.
        998    1    1    2    0    0 -0.20070801753E+01  0.63463647747E+01  0.14147616602E+04  0.14148126589E+04  0.10000000000E+02 0.  1.
</event>
<event>
 5    1  0.1122619E-008  0.3855200E+03  0.7957747E-01  0.3427470E+00
         13   -1    0    0    0    0  0.00000000000E+00  0.00000000000E+00  0.14999999963E+04  0.15000000000E+04  0.10566000000E+00 0. -1.
        994   -1    0    0    0    0 -0.00000000000E+00 -0.00000000000E+00  0.11368683772E-12  0.17120000000E+03  0.17120000000E+03 0.  0.
         13    1    1    2    0    0 -0.13446689918E+02 -0.52318108963E+01  0.73632528271E+02  0.75032964080E+02  0.10566000000E+00 0. -1.
        994    1    1    2    0    0  0.11039738919E+01  0.43201584750E+02  0.75278890949E+01  0.17673059949E+03  0.17120000000E+03 0.  0.
        998    1    1    2    0    0  0.12342716026E+02 -0.37969773853E+02  0.14188395789E+04  0.14194364364E+04  0.10000000000E+02 0. -1.
</event>
<event>
 5    1  0.1068111E-008  0.3787521E+03  0.7957747E-01  0.3456610E+00
         13   -1    0    0    0    0  0.00000000000E+00  0.00000000000E+00  0.14999999963E+04  0.15000000000E+04  0.10566000000E+00 0.  1.
        994   -1    0    0    0    0 -0.00000000000E+00 -0.00000000000E+00  0.11368683772E-12  0.17120000000E+03  0.17120000000E+03 0.  0.
         13    1    1    2    0    0 -0.78197030089E+01  0.25395675514E+02  0.76363187908E+02  0.80854410650E+02  0.10566000000E+00 0.  1.
        994    1    1    2    0    0  0.41829325990E+00 -0.41892781726E+01  0.48239176100E+01  0.17131968714E+03  0.17120000000E+03 0.  0.
        998    1    1    2    0    0  0.74014097490E+01 -0.21206397341E+02  0.14188128908E+04  0.14190259022E+04  0.10000000000E+02 0.  1.
</event>
<event>
 5    1  0.1068111E-008  0.3848778E+03  0.7957747E-01  0.3430190E+00
         13   -1    0    0    0    0  0.00000000000E+00  0.00000000000E+00  0.14999999963E+04  0.15000000000E+04  0.10566000000E+00 0. -1.
        994   -1    0    0    0    0 -0.00000000000E+00 -0.00000000000E+00  0.11368683772E-12  0.17120000000E+03  0.17120000000E+03 0.  0.
         13    1    1    2    0    0  0.74827781803E+01  0.10574310080E+02  0.49857468099E+02  0.51512972077E+02  0.10566000000E+00 0. -1.
        994    1    1    2    0    0 -0.27004349958E+01 -0.71257454944E+01  0.18818668077E+01  0.17137984135E+03  0.17120000000E+03 0.  0.
        998    1    1    2    0    0 -0.47823431845E+01 -0.34485645858E+01  0.14482606614E+04  0.14483071866E+04  0.10000000000E+02 0. -1.
</event>
<event>
 5    1  0.1068111E-008  0.3850453E+03  0.7957747E-01  0.3429480E+00
         13   -1    0    0    0    0  0.00000000000E+00  0.00000000000E+00  0.14999999963E+04  0.15000000000E+04  0.10566000000E+00 0. -1.
        994   -1    0    0    0    0 -0.00000000000E+00 -0.00000000000E+00  0.11368683772E-12  0.17120000000E+03  0.17120000000E+03 0.  0.
         13    1    1    2    0    0  0.10362261618E+02 -0.67177199320E+01  0.48498650736E+02  0.50046323683E+02  0.10566000000E+00 0. -1.
        994    1    1    2    0    0 -0.69928380487E+01 -0.32085406851E+01  0.18023273792E+01  0.17138227126E+03  0.17120000000E+03 0.  0.
        998    1    1    2    0    0 -0.33694235697E+01  0.99262606171E+01  0.14496990182E+04  0.14497714051E+04  0.10000000000E+02 0. -1.
</event>
<event>
 5    1  0.1068111E-008  0.3826675E+03  0.7957747E-01  0.3439625E+00
         13   -1    0    0    0    0  0.00000000000E+00  0.00000000000E+00  0.14999999963E+04  0.15000000000E+04  0.10566000000E+00 0. -1.
        994   -1    0    0    0    0 -0.00000000000E+00 -0.00000000000E+00  0.11368683772E-12  0.17120000000E+03  0.17120000000E+03 0.  0.
         13    1    1    2    0    0  0.28624011943E+02 -0.98225153162E+00  0.14223919571E+03  0.14509410339E+03  0.10566000000E+00 0. -1.
        994    1    1    2    0    0 -0.20641391677E+02  0.16771974466E+01  0.42150875654E+01  0.17249952755E+03  0.17120000000E+03 0.  0.
        998    1    1    2    0    0 -0.79826202665E+01 -0.69494591501E+00  0.13535457130E+04  0.13536063691E+04  0.10000000000E+02 0. -1.
</event>
<event>
 5    1  0.1068111E-008  0.3805555E+03  0.7957747E-01  0.3448743E+00
         13   -1    0    0    0    0  0.00000000000E+00  0.00000000000E+00  0.14999999963E+04  0.15000000000E+04  0.10566000000E+00 0. -1.
        994   -1    0    0    0    0 -0.00000000000E+00 -0.00000000000E+00  0.11368683772E-12  0.17120000000E+03  0.17120000000E+03 0.  0.
         13    1    1    2    0    0 -0.18503437253E+02  0.23698078104E+02  0.14564842968E+03  0.14871937443E+03  0.10566000000E+00 0. -1.
        994    1    1    2    0    0 -0.21759767347E+02  0.31091531633E+01  0.54668644879E+01  0.17269186696E+03  0.17120000000E+03 0.  0.
        998    1    1    2    0    0  0.40263204600E+02 -0.26807231267E+02  0.13488847021E+04  0.13497887586E+04  0.10000000000E+02 0. -1.
</event>
<event>
 5    1  0.1068111E-008  0.3820895E+03  0.7957747E-01  0.3442110E+00
         13   -1    0    0    0    0  0.00000000000E+00  0.00000000000E+00  0.14999999963E+04  0.15000000000E+04  0.10566000000E+00 0. -1.
        994   -1    0    0    0    0 -0.00000000000E+00 -0.00000000000E+00  0.11368683772E-12  0.17120000000E+03  0.17120000000E+03 0.  0.
         13    1    1    2    0    0 -0.10923837004E+02  0.11153446585E+02  0.39391268753E+02  0.42372311757E+02  0.10566000000E+00 0. -1.
        994    1    1    2    0    0  0.13283794217E+01 -0.45380962723E+01  0.31563139505E+01  0.17129437010E+03  0.17120000000E+03 0.  0.
        998    1    1    2    0    0  0.95954575826E+01 -0.66153503123E+01  0.14574524136E+04  0.14575333181E+04  0.10000000000E+02 0. -1.
</event>
<event>
 5    1  0.1068111E-008  0.4565282E+03  0.7957747E-01  0.3173412E+00
         13   -1    0    0    0    0  0.00000000000E+00  0.00000000000E+00  0.14999999963E+04  0.15000000000E+04  0.10566000000E+00 0. -1.
        994   -1    0    0    0    0 -0.00000000000E+00 -0.00000000000E+00  0.11368683772E-12  0.17120000000E+03  0.17120000000E+03 0.  0.
         13    1    1    2    0    0 -0.26793746709E+02  0.18622231700E+02 -0.18472276765E+02  0.37495713743E+02  0.10566000000E+00 0. -1.
        994    1    1    2    0    0  0.58571566642E+02 -0.95116143512E+01  0.85562495936E+02  0.20037834199E+03  0.17120000000E+03 0.  0.
        998    1    1    2    0    0 -0.31777819933E+02 -0.91106173485E+01  0.14329097771E+04  0.14333259443E+04  0.10000000000E+02 0. -1.
</event>
<event>
 5    1  0.1068111E-008  0.3764108E+03  0.7957747E-01  0.3466937E+00
         13   -1    0    0    0    0  0.00000000000E+00  0.00000000000E+00  0.14999999963E+04  0.15000000000E+04  0.10566000000E+00 0.  1.
        994   -1    0    0    0    0 -0.00000000000E+00 -0.00000000000E+00  0.11368683772E-12  0.17120000000E+03  0.17120000000E+03 0.  0.
         13    1    1    2    0    0  0.12727323773E+03  0.19613783930E+02  0.54722177941E+03  0.56216978271E+03  0.10566000000E+00 0.  1.
        994    1    1    2    0    0 -0.16485016598E+03 -0.65947614150E+01  0.10441207864E+03  0.25967362259E+03  0.17120000000E+03 0.  0.
        998    1    1    2    0    0  0.37576928253E+02 -0.13019022515E+02  0.84836613822E+03  0.84935659470E+03  0.10000000000E+02 0.  1.
</event>
<event>
 5    1  0.1068111E-008  0.3808928E+03  0.7957747E-01  0.3447280E+00
         13   -1    0    0    0    0  0.00000000000E+00  0.00000000000E+00  0.14999999963E+04  0.15000000000E+04  0.10566000000E+00 0. -1.
        994   -1    0    0    0    0 -0.00000000000E+00 -0.00000000000E+00  0.11368683772E-12  0.17120000000E+03  0.17120000000E+03 0.  0.
         13    1    1    2    0    0 -0.82304218453E+01  0.22113344804E+02  0.83150341798E+02  0.86433386879E+02  0.10566000000E+00 0. -1.
        994    1    1    2    0    0 -0.60684037663E+00  0.79117001989E+01  0.38930248676E+01  0.17142799917E+03  0.17120000000E+03 0.  0.
        998    1    1    2    0    0  0.88372622219E+01 -0.30025045003E+02  0.14129566296E+04  0.14133386140E+04  0.10000000000E+02 0. -1.
</event>
<event>
 5    1  0.1068111E-008  0.3724533E+03  0.7957747E-01  0.3484691E+00
         13   -1    0    0    0    0  0.00000000000E+00  0.00000000000E+00  0.14999999963E+04  0.15000000000E+04  0.10566000000E+00 0. -1.
        994   -1    0    0    0    0 -0.00000000000E+00 -0.00000000000E+00  0.11368683772E-12  0.17120000000E+03  0.17120000000E+03 0.  0.
         13    1    1    2    0    0  0.29244234395E+02  0.34213559601E+02  0.80991530468E+02  0.92657606690E+02  0.10566000000E+00 0. -1.
        994    1    1    2    0    0 -0.14488350615E+02 -0.12890870067E+02  0.13569217268E+02  0.17282838451E+03  0.17120000000E+03 0.  0.
        998    1    1    2    0    0 -0.14755883780E+02 -0.21322689535E+02  0.14054392485E+04  0.14057140088E+04  0.10000000000E+02 0. -1.
</event>
<event>
 5    1  0.1068111E-008  0.3721926E+03  0.7957747E-01  0.3485874E+00
         13   -1    0    0    0    0  0.00000000000E+00  0.00000000000E+00  0.14999999963E+04  0.15000000000E+04  0.10566000000E+00 0. -1.
        994   -1    0    0    0    0 -0.00000000000E+00 -0.00000000000E+00  0.11368683772E-12  0.17120000000E+03  0.17120000000E+03 0.  0.
         13    1    1    2    0    0  0.14871812233E+02 -0.27036280969E+01  0.10538438051E+02  0.18426889172E+02  0.10566000000E+00 0. -1.
        994    1    1    2    0    0 -0.78830917056E+01 -0.90515605840E+01  0.86220647631E+01  0.17183670703E+03  0.17120000000E+03 0.  0.
        998    1    1    2    0    0 -0.69887205270E+01  0.11755188681E+02  0.14808394935E+04  0.14809364038E+04  0.10000000000E+02 0. -1.
</event>
<event>
 5    1  0.1068111E-008  0.3726259E+03  0.7957747E-01  0.3483909E+00
         13   -1    0    0    0    0  0.00000000000E+00  0.00000000000E+00  0.14999999963E+04  0.15000000000E+04  0.10566000000E+00 0.  1.
        994   -1    0    0    0    0 -0.00000000000E+00 -0.00000000000E+00  0.11368683772E-12  0.17120000000E+03  0.17120000000E+03 0.  0.
         13    1    1    2    0    0  0.31083074578E+02  0.90363320752E+01  0.35630880833E+02  0.48139211206E+02  0.10566000000E+00 0.  1.
        994    1    1    2    0    0 -0.48573381430E+02  0.11732617794E+02  0.21197359892E+02  0.17959898599E+03  0.17120000000E+03 0.  0.
        998    1    1    2    0    0  0.17490306852E+02 -0.20768949869E+02  0.14431717556E+04  0.14434618028E+04  0.10000000000E+02 0.  1.
</event>
<event>
 5    1  0.1068111E-008  0.3762661E+03  0.7957747E-01  0.3467580E+00
         13   -1    0    0    0    0  0.00000000000E+00  0.00000000000E+00  0.14999999963E+04  0.15000000000E+04  0.10566000000E+00 0.  1.
        994   -1    0    0    0    0 -0.00000000000E+00 -0.00000000000E+00  0.11368683772E-12  0.17120000000E+03  0.17120000000E+03 0.  0.
         13    1    1    2    0    0 -0.18418703190E+02  0.33510956022E+02  0.13470797336E+03  0.14003028976E+03  0.10566000000E+00 0.  1.
        994    1    1    2    0    0 -0.13508804710E+02 -0.65343770818E+01  0.67925695654E+01  0.17199059535E+03  0.17120000000E+03 0.  0.
        998    1    1    2    0    0  0.31927507900E+02 -0.26976578940E+02  0.13584994534E+04  0.13591791149E+04  0.10000000000E+02 0.  1.
</event>
<event>
 5    1  0.1068111E-008  0.3798084E+03  0.7957747E-01  0.3451993E+00
         13   -1    0    0    0    0  0.00000000000E+00  0.00000000000E+00  0.14999999963E+04  0.15000000000E+04  0.10566000000E+00 0. -1.
        994   -1    0    0    0    0 -0.00000000000E+00 -0.00000000000E+00  0.11368683772E-12  0.17120000000E+03  0.17120000000E+03 0.  0.
         13    1    1    2    0    0 -0.31396485313E+02 -0.35228104893E+02  0.26654751636E+03  0.27069234992E+03  0.10566000000E+00 0. -1.
        994    1    1    2    0    0  0.20659467406E+02  0.14922718798E+02  0.64055359670E+01  0.17320499999E+03  0.17120000000E+03 0.  0.
        998    1    1    2    0    0  0.10737017907E+02  0.20305386096E+02  0.12270469439E+04  0.12273026501E+04  0.10000000000E+02 0. -1.
</event>
<event>
 5    1  0.1068111E-008  0.3719573E+03  0.7957747E-01  0.3486944E+00
         13   -1    0    0    0    0  0.00000000000E+00  0.00000000000E+00  0.14999999963E+04  0.15000000000E+04  0.10566000000E+00 0.  1.
        994   -1    0    0    0    0 -0.00000000000E+00 -0.00000000000E+00  0.11368683772E-12  0.17120000000E+03  0.17120000000E+03 0.  0.
         13    1    1    2    0    0 -0.80144629023E+02  0.39220982056E+02  0.36446074542E+03  0.37522405721E+03  0.10566000000E+00 0.  1.
        994    1    1    2    0    0  0.27317867713E+02 -0.27949992524E+02  0.17373650366E+02  0.17646175706E+03  0.17120000000E+03 0.  0.
        998    1    1    2    0    0  0.52826761310E+02 -0.11270989532E+02  0.11181656005E+04  0.11195141857E+04  0.10000000000E+02 0. -1.
</event>
<event>
 5    1  0.1068111E-008  0.3840928E+03  0.7957747E-01  0.3433529E+00
         13   -1    0    0    0    0  0.00000000000E+00  0.00000000000E+00  0.14999999963E+04  0.15000000000E+04  0.10566000000E+00 0.  1.
        994   -1    0    0    0    0 -0.00000000000E+00 -0.00000000000E+00  0.11368683772E-12  0.17120000000E+03  0.17120000000E+03 0.  0.
         13    1    1    2    0    0  0.12935104973E+02 -0.39694330397E+01  0.44676808801E+02  0.46680849907E+02  0.10566000000E+00 0.  1.
        994    1    1    2    0    0 -0.68541994435E+01 -0.99599813461E+01  0.25635002013E+01  0.17164554411E+03  0.17120000000E+03 0.  0.
        998    1    1    2    0    0 -0.60809055300E+01  0.13929414386E+02  0.14527596873E+04  0.14528736060E+04  0.10000000000E+02 0.  1.
</event>
<event>
 5    1  0.1068111E-008  0.2598200E+03  0.7957747E-01  0.4232477E+00
         13   -1    0    0    0    0  0.00000000000E+00  0.00000000000E+00  0.14999999963E+04  0.15000000000E+04  0.10566000000E+00 0. -1.
        994   -1    0    0    0    0 -0.00000000000E+00 -0.00000000000E+00  0.11368683772E-12  0.17120000000E+03  0.17120000000E+03 0.  0.
         13    1    1    2    0    0  0.13343164208E+03 -0.14598933993E+03  0.31642229480E+03  0.37314872409E+03  0.10566000000E+00 0. -1.
        994    1    1    2    0    0 -0.11543098905E+03  0.13210315285E+03  0.20608667068E+03  0.32024476898E+03  0.17120000000E+03 0.  0.
        998    1    1    2    0    0 -0.18000653029E+02  0.13886187078E+02  0.97749103080E+03  0.97780650693E+03  0.10000000000E+02 0. -1.
</event>
<event>
 5    1  0.1068111E-008  0.3849618E+03  0.7957747E-01  0.3429834E+00
         13   -1    0    0    0    0  0.00000000000E+00  0.00000000000E+00  0.14999999963E+04  0.15000000000E+04  0.10566000000E+00 0.  1.
        994   -1    0    0    0    0 -0.00000000000E+00 -0.00000000000E+00  0.11368683772E-12  0.17120000000E+03  0.17120000000E+03 0.  0.
         13    1    1    2    0    0 -0.12687960422E+02  0.77015299596E+01  0.76167903343E+02  0.77600635095E+02  0.10566000000E+00 0.  1.
        994    1    1    2    0    0 -0.10152593869E+02  0.68849293843E+00  0.19897802298E+01  0.17151369744E+03  0.17120000000E+03 0.  0.
        998    1    1    2    0    0  0.22840554291E+02 -0.83900228980E+01  0.14218423127E+04  0.14220856675E+04  0.10000000000E+02 0.  1.
</event>
<event>
 5    1  0.1068111E-008  0.4299918E+03  0.7957747E-01  0.3258729E+00
         13   -1    0    0    0    0  0.00000000000E+00  0.00000000000E+00  0.14999999963E+04  0.15000000000E+04  0.10566000000E+00 0.  1.
        994   -1    0    0    0    0 -0.00000000000E+00 -0.00000000000E+00  0.11368683772E-12  0.17120000000E+03  0.17120000000E+03 0.  0.
         13    1    1    2    0    0  0.18979206382E+02  0.28798802195E+02 -0.46852209521E+01  0.34807236922E+02  0.10566000000E+00 0.  1.
        994    1    1    2    0    0  0.43929276874E+02  0.27014962988E+02  0.59077142119E+02  0.18830596993E+03  0.17120000000E+03 0.  0.
        998    1    1    2    0    0 -0.62908483255E+02 -0.55813765183E+02  0.14456080751E+04  0.14480867931E+04  0.10000000000E+02 0.  1.
</event>
<event>
 5    1  0.1068111E-008  0.3770756E+03  0.7957747E-01  0.3463991E+00
         13   -1    0    0    0    0  0.00000000000E+00  0.00000000000E+00  0.14999999963E+04  0.15000000000E+04  0.10566000000E+00 0. -1.
        994   -1    0    0    0    0 -0.00000000000E+00 -0.00000000000E+00  0.11368683772E-12  0.17120000000E+03  0.17120000000E+03 0.  0.
         13    1    1    2    0    0 -0.12018930095E+02 -0.88120699076E+01  0.17135642618E+02  0.22710100587E+02  0.10566000000E+00 0. -1.
        994    1    1    2    0    0  0.12495417353E+02  0.92932636803E+01  0.64356763919E+01  0.17202720173E+03  0.17120000000E+03 0.  0.
        998    1    1    2    0    0 -0.47648725768E+00 -0.48119377273E+00  0.14764286773E+04  0.14764626977E+04  0.10000000000E+02 0. -1.
</event>
<event>
 5    1  0.1068111E-008  0.3850173E+03  0.7957747E-01  0.3429599E+00
         13   -1    0    0    0    0  0.00000000000E+00  0.00000000000E+00  0.14999999963E+04  0.15000000000E+04  0.10566000000E+00 0.  1.
        994   -1    0    0    0    0 -0.00000000000E+00 -0.00000000000E+00  0.11368683772E-12  0.17120000000E+03  0.17120000000E+03 0.  0.
         13    1    1    2    0    0  0.78381773308E+01 -0.87328718946E+01  0.41430291184E+02  0.43060193532E+02  0.10566000000E+00 0.  1.
        994    1    1    2    0    0 -0.55330345461E+01  0.11487612197E+02  0.21563680967E+01  0.17168770960E+03  0.17120000000E+03 0.  0.
        998    1    1    2    0    0 -0.23051427847E+01 -0.27547403019E+01  0.14564133370E+04  0.14564520969E+04  0.10000000000E+02 0.  1.
</event>
<event>
 5    1  0.1068111E-008  0.3823160E+03  0.7957747E-01  0.3441136E+00
         13   -1    0    0    0    0  0.00000000000E+00  0.00000000000E+00  0.14999999963E+04  0.15000000000E+04  0.10566000000E+00 0. -1.
        994   -1    0    0    0    0 -0.00000000000E+00 -0.00000000000E+00  0.11368683772E-12  0.17120000000E+03  0.17120000000E+03 0.  0.
         13    1    1    2    0    0  0.10004368383E+02  0.54394829425E+01  0.20501367883E+02  0.23451921254E+02  0.10566000000E+00 0. -1.
        994    1    1    2    0    0 -0.84678624916E+01 -0.75787404228E+01  0.33971524357E+01  0.17161038036E+03  0.17120000000E+03 0.  0.
        998    1    1    2    0    0 -0.15365058909E+01  0.21392574803E+01  0.14761014760E+04  0.14761376984E+04  0.10000000000E+02 0. -1.
</event>
<event>
 5    1  0.1068111E-008  0.3826580E+03  0.7957747E-01  0.3439666E+00
         13   -1    0    0    0    0  0.00000000000E+00  0.00000000000E+00  0.14999999963E+04  0.15000000000E+04  0.10566000000E+00 0.  1.
        994   -1    0    0    0    0 -0.00000000000E+00 -0.00000000000E+00  0.11368683772E-12  0.17120000000E+03  0.17120000000E+03 0.  0.
         13    1    1    2    0    0 -0.16019508133E+02 -0.19069866175E+02  0.11209926962E+03  0.11483266892E+03  0.10566000000E+00 0.  1.
        994    1    1    2    0    0 -0.13640968213E+01  0.17528469196E+02  0.38223812526E+01  0.17214284357E+03  0.17120000000E+03 0.  0.
        998    1    1    2    0    0  0.17383604955E+02  0.15413969793E+01  0.13840783454E+04  0.13842244875E+04  0.10000000000E+02 0.  1.
</event>
<event>
 5    1  0.1068111E-008  0.3842952E+03  0.7957747E-01  0.3432667E+00
         13   -1    0    0    0    0  0.00000000000E+00  0.00000000000E+00  0.14999999963E+04  0.15000000000E+04  0.10566000000E+00 0. -1.
        994   -1    0    0    0    0 -0.00000000000E+00 -0.00000000000E+00  0.11368683772E-12  0.17120000000E+03  0.17120000000E+03 0.  0.
         13    1    1    2    0    0 -0.23565116539E+02 -0.39318877212E+01  0.13858346113E+03  0.14062774023E+03  0.10566000000E+00 0. -1.
        994    1    1    2    0    0  0.23775904335E+02 -0.20803489204E+02  0.52772308867E+01  0.17417051403E+03  0.17120000000E+03 0.  0.
        998    1    1    2    0    0 -0.21078779628E+00  0.24735376925E+02  0.13561393043E+04  0.13564017457E+04  0.10000000000E+02 0. -1.
</event>
<event>
 5    1  0.1068111E-008  0.3741109E+03  0.7957747E-01  0.3477209E+00
         13   -1    0    0    0    0  0.00000000000E+00  0.00000000000E+00  0.14999999963E+04  0.15000000000E+04  0.10566000000E+00 0. -1.
        994   -1    0    0    0    0 -0.00000000000E+00 -0.00000000000E+00  0.11368683772E-12  0.17120000000E+03  0.17120000000E+03 0.  0.
         13    1    1    2    0    0  0.34753188268E+02  0.33400075981E+02  0.15028883468E+03  0.15782931972E+03  0.10566000000E+00 0. -1.
        994    1    1    2    0    0 -0.26698987591E+02 -0.32278078320E+02  0.13142173081E+02  0.17673954564E+03  0.17120000000E+03 0.  0.
        998    1    1    2    0    0 -0.80542006779E+01 -0.11219976612E+01  0.13365689885E+04  0.13366311346E+04  0.10000000000E+02 0. -1.
</event>
<event>
 5    1  0.1068111E-008  0.3801488E+03  0.7957747E-01  0.3450511E+00
         13   -1    0    0    0    0  0.00000000000E+00  0.00000000000E+00  0.14999999963E+04  0.15000000000E+04  0.10566000000E+00 0.  1.
        994   -1    0    0    0    0 -0.00000000000E+00 -0.00000000000E+00  0.11368683772E-12  0.17120000000E+03  0.17120000000E+03 0.  0.
         13    1    1    2    0    0  0.18731324307E+02  0.24602370176E+02  0.98309799119E+02  0.10305807535E+03  0.10566000000E+00 0.  1.
        994    1    1    2    0    0 -0.23679622791E+02 -0.47611007829E+02  0.13564081577E+02  0.17978030179E+03  0.17120000000E+03 0.  0.
        998    1    1    2    0    0  0.49482984842E+01  0.23008637653E+02  0.13881261156E+04  0.13883616229E+04  0.10000000000E+02 0.  1.
</event>
<event>
 5    1  0.1068111E-008  0.3761433E+03  0.7957747E-01  0.3468125E+00
         13   -1    0    0    0    0  0.00000000000E+00  0.00000000000E+00  0.14999999963E+04  0.15000000000E+04  0.10566000000E+00 0. -1.
        994   -1    0    0    0    0 -0.00000000000E+00 -0.00000000000E+00  0.11368683772E-12  0.17120000000E+03  0.17120000000E+03 0.  0.
         13    1    1    2    0    0  0.72748947562E+00 -0.53592011854E+02  0.32323387926E+03  0.32764734829E+03  0.10566000000E+00 0. -1.
        994    1    1    2    0    0  0.42217244130E+01 -0.64389569782E+01  0.62935703359E+01  0.17148857732E+03  0.17120000000E+03 0.  0.
        998    1    1    2    0    0 -0.49492138886E+01  0.60030968832E+02  0.11704725467E+04  0.11720640744E+04  0.10000000000E+02 0. -1.
</event>
<event>
 5    1  0.1068111E-008  0.3859021E+03  0.7957747E-01  0.3425855E+00
         13   -1    0    0    0    0  0.00000000000E+00  0.00000000000E+00  0.14999999963E+04  0.15000000000E+04  0.10566000000E+00 0.  1.
        994   -1    0    0    0    0 -0.00000000000E+00 -0.00000000000E+00  0.11368683772E-12  0.17120000000E+03  0.17120000000E+03 0.  0.
         13    1    1    2    0    0  0.20783499381E+02  0.45330991584E+02  0.95809176129E+02  0.10801047190E+03  0.10566000000E+00 0.  1.
        994    1    1    2    0    0 -0.31626972965E+02  0.18197720511E+03  0.16011679080E+03  0.29843390440E+03  0.17120000000E+03 0.  0.
        998    1    1    2    0    0  0.10843473584E+02 -0.22730819669E+03  0.12440740293E+04  0.12647556237E+04  0.10000000000E+02 0.  1.
</event>
<event>
 5    1  0.1068111E-008  0.3837733E+03  0.7957747E-01  0.3434891E+00
         13   -1    0    0    0    0  0.00000000000E+00  0.00000000000E+00  0.14999999963E+04  0.15000000000E+04  0.10566000000E+00 0. -1.
        994   -1    0    0    0    0 -0.00000000000E+00 -0.00000000000E+00  0.11368683772E-12  0.17120000000E+03  0.17120000000E+03 0.  0.
         13    1    1    2    0    0 -0.13580863311E+03 -0.11518309511E+03  0.83355979500E+03  0.85236909448E+03  0.10566000000E+00 0. -1.
        994    1    1    2    0    0  0.17489772990E+03  0.13465449063E+03  0.18440285245E+03  0.33471614804E+03  0.17120000000E+03 0.  0.
        998    1    1    2    0    0 -0.39089096794E+02 -0.19471395518E+02  0.48203734883E+03  0.48411475747E+03  0.10000000000E+02 0. -1.
</event>
<event>
 5    1  0.1068111E-008  0.3733959E+03  0.7957747E-01  0.3480428E+00
         13   -1    0    0    0    0  0.00000000000E+00  0.00000000000E+00  0.14999999963E+04  0.15000000000E+04  0.10566000000E+00 0. -1.
        994   -1    0    0    0    0 -0.00000000000E+00 -0.00000000000E+00  0.11368683772E-12  0.17120000000E+03  0.17120000000E+03 0.  0.
         13    1    1    2    0    0  0.35760629860E+02 -0.13157913379E+01  0.45100806733E+02  0.57572978791E+02  0.10566000000E+00 0. -1.
        994    1    1    2    0    0 -0.27052073216E+02 -0.46774710673E+01  0.15417021381E+02  0.17407130134E+03  0.17120000000E+03 0.  0.
        998    1    1    2    0    0 -0.87085566446E+01  0.59932624053E+01  0.14394821682E+04  0.14395557199E+04  0.10000000000E+02 0. -1.
</event>
<event>
 5    1  0.1121785E-008  0.3849774E+03  0.7957747E-01  0.3429768E+00
         13   -1    0    0    0    0  0.00000000000E+00  0.00000000000E+00  0.14999999963E+04  0.15000000000E+04  0.10566000000E+00 0. -1.
        994   -1    0    0    0    0 -0.00000000000E+00 -0.00000000000E+00  0.11368683772E-12  0.17120000000E+03  0.17120000000E+03 0.  0.
         13    1    1    2    0    0  0.44578846601E+01 -0.13352075827E+02  0.60040535851E+02  0.61668693628E+02  0.10566000000E+00 0. -1.
        994    1    1    2    0    0 -0.28693906644E+01  0.97498878691E+01  0.19811667042E+01  0.17151285298E+03  0.17120000000E+03 0.  0.
        998    1    1    2    0    0 -0.15884939957E+01  0.36021879578E+01  0.14379782937E+04  0.14380184534E+04  0.10000000000E+02 0. -1.
</event>
<event>
 5    1  0.1068111E-008  0.3707466E+03  0.7957747E-01  0.3492467E+00
         13   -1    0    0    0    0  0.00000000000E+00  0.00000000000E+00  0.14999999963E+04  0.15000000000E+04  0.10566000000E+00 0.  1.
        994   -1    0    0    0    0 -0.00000000000E+00 -0.00000000000E+00  0.11368683772E-12  0.17120000000E+03  0.17120000000E+03 0.  0.
         13    1    1    2    0    0 -0.59810564093E+01  0.61406015731E+02  0.26888156429E+03  0.27586913308E+03  0.10566000000E+00 0.  1.
        994    1    1    2    0    0  0.56609456718E+02  0.29346179986E+01  0.20043888943E+02  0.18145093016E+03  0.17120000000E+03 0.  0.
        998    1    1    2    0    0 -0.50628400309E+02 -0.64340633730E+02  0.12110745430E+04  0.12138799368E+04  0.10000000000E+02 0.  1.
</event>
<event>
 5    1  0.1068111E-008  0.3822093E+03  0.7957747E-01  0.3441595E+00
         13   -1    0    0    0    0  0.00000000000E+00  0.00000000000E+00  0.14999999963E+04  0.15000000000E+04  0.10566000000E+00 0. -1.
        994   -1    0    0    0    0 -0.00000000000E+00 -0.00000000000E+00  0.11368683772E-12  0.17120000000E+03  0.17120000000E+03 0.  0.
         13    1    1    2    0    0 -0.36634501359E+01  0.10006338619E+02  0.17657022717E+02  0.20623513152E+02  0.10566000000E+00 0. -1.
        994    1    1    2    0    0  0.31828601701E+01 -0.52231270555E+01  0.31462169536E+01  0.17133811700E+03  0.17120000000E+03 0.  0.
        998    1    1    2    0    0  0.48058996580E+00 -0.47832115632E+01  0.14791967566E+04  0.14792383699E+04  0.10000000000E+02 0. -1.
</event>
<event>
 5    1  0.1068111E-008  0.3813996E+03  0.7957747E-01  0.3445087E+00
         13   -1    0    0    0    0  0.00000000000E+00  0.00000000000E+00  0.14999999963E+04  0.15000000000E+04  0.10566000000E+00 0. -1.
        994   -1    0    0    0    0 -0.00000000000E+00 -0.00000000000E+00  0.11368683772E-12  0.17120000000E+03  0.17120000000E+03 0.  0.
         13    1    1    2    0    0 -0.91103565624E+01 -0.70815607299E+01  0.17882858375E+02  0.21282736825E+02  0.10566000000E+00 0. -1.
        994    1    1    2    0    0  0.91526860649E+01  0.58495089673E+01  0.38210069245E+01  0.17158679585E+03  0.17120000000E+03 0.  0.
        998    1    1    2    0    0 -0.42329502559E-01  0.12320517626E+01  0.14782961310E+04  0.14783304673E+04  0.10000000000E+02 0. -1.
</event>
<event>
 5    1  0.1068111E-008  0.3753318E+03  0.7957747E-01  0.3471740E+00
         13   -1    0    0    0    0  0.00000000000E+00  0.00000000000E+00  0.14999999963E+04  0.15000000000E+04  0.10566000000E+00 0. -1.
        994   -1    0    0    0    0 -0.00000000000E+00 -0.00000000000E+00  0.11368683772E-12  0.17120000000E+03  0.17120000000E+03 0.  0.
         13    1    1    2    0    0 -0.95089348962E+01  0.71834907891E+01  0.78275889811E+01  0.14258495575E+02  0.10566000000E+00 0. -1.
        994    1    1    2    0    0  0.10892483330E+02 -0.11377948129E+02  0.73513179659E+01  0.17208017251E+03  0.17120000000E+03 0.  0.
        998    1    1    2    0    0 -0.13835484339E+01  0.41944573404E+01  0.14848210893E+04  0.14848613319E+04  0.10000000000E+02 0. -1.
</event>
<event>
 5    1  0.1068111E-008  0.3830010E+03  0.7957747E-01  0.3438195E+00
         13   -1    0    0    0    0  0.00000000000E+00  0.00000000000E+00  0.14999999963E+04  0.15000000000E+04  0.10566000000E+00 0.  1.
        994   -1    0    0    0    0 -0.00000000000E+00 -0.00000000000E+00  0.11368683772E-12  0.17120000000E+03  0.17120000000E+03 0.  0.
         13    1    1    2    0    0 -0.71970785878E+01 -0.13817692127E+02  0.47080200361E+02  0.49591158345E+02  0.10566000000E+00 0.  1.
        994    1    1    2    0    0 -0.19278876865E+02  0.12826037902E+02  0.44026961977E+01  0.17281494749E+03  0.17120000000E+03 0.  0.
        998    1    1    2    0    0  0.26475955452E+02  0.99165422571E+00  0.14485170997E+04  0.14487938942E+04  0.10000000000E+02 0.  1.
</event>
<event>
 5    1  0.1246490E-008  0.3853890E+03  0.7957747E-01  0.3428024E+00
         13   -1    0    0    0    0  0.00000000000E+00  0.00000000000E+00  0.14999999963E+04  0.15000000000E+04  0.10566000000E+00 0. -1.
        994   -1    0    0    0    0 -0.00000000000E+00 -0.00000000000E+00  0.11368683772E-12  0.17120000000E+03  0.17120000000E+03 0.  0.
         13    1    1    2    0    0 -0.11190714434E+02 -0.15075535474E+00  0.42426705502E+02  0.43878141717E+02  0.10566000000E+00 0. -1.
        994    1    1    2    0    0  0.12858163656E+02 -0.15505866047E+00  0.19804461197E+01  0.17169367659E+03  0.17120000000E+03 0.  0.
        998    1    1    2    0    0 -0.16674492221E+01  0.30581401520E+00  0.14555928447E+04  0.14556281817E+04  0.10000000000E+02 0. -1.
</event>
<event>
 5    1  0.1068111E-008  0.3866756E+03  0.7957747E-01  0.3422597E+00
         13   -1    0    0    0    0  0.00000000000E+00  0.00000000000E+00  0.14999999963E+04  0.15000000000E+04  0.10566000000E+00 0. -1.
        994   -1    0    0    0    0 -0.00000000000E+00 -0.00000000000E+00  0.11368683772E-12  0.17120000000E+03  0.17120000000E+03 0.  0.
         13    1    1    2    0    0  0.52092284903E+02  0.13138756123E+02  0.65567518713E+02  0.84766406866E+02  0.10566000000E+00 0. -1.
        994    1    1    2    0    0 -0.38589634599E+02  0.91510863039E+01  0.25908797126E+02  0.17763335286E+03  0.17120000000E+03 0.  0.
        998    1    1    2    0    0 -0.13502650304E+02 -0.22289842427E+02  0.14085236804E+04  0.14088002403E+04  0.10000000000E+02 0. -1.
</event>
<event>
 5    1  0.1068111E-008  0.3789331E+03  0.7957747E-01  0.3455817E+00
         13   -1    0    0    0    0  0.00000000000E+00  0.00000000000E+00  0.14999999963E+04  0.15000000000E+04  0.10566000000E+00 0.  1.
        994   -1    0    0    0    0 -0.00000000000E+00 -0.00000000000E+00  0.11368683772E-12  0.17120000000E+03  0.17120000000E+03 0.  0.
         13    1    1    2    0    0  0.52644850493E+02  0.22101611445E+01  0.28540719954E+03  0.29023033233E+03  0.10566000000E+00 0.  1.
        994    1    1    2    0    0 -0.33796778340E+02 -0.16172846880E+02  0.93964587595E+01  0.17550360862E+03  0.17120000000E+03 0.  0.
        998    1    1    2    0    0 -0.18848072153E+02  0.13962685736E+02  0.12051963380E+04  0.12054660590E+04  0.10000000000E+02 0.  1.
</event>
<event>
 5    1  0.1068111E-008  0.3849677E+03  0.7957747E-01  0.3429809E+00
         13   -1    0    0    0    0  0.00000000000E+00  0.00000000000E+00  0.14999999963E+04  0.15000000000E+04  0.10566000000E+00 0.  1.
        994   -1    0    0    0    0 -0.00000000000E+00 -0.00000000000E+00  0.11368683772E-12  0.17120000000E+03  0.17120000000E+03 0.  0.
         13    1    1    2    0    0  0.27054817692E+00 -0.13874500941E+02  0.57854793557E+02  0.59495909727E+02  0.10566000000E+00 0.  1.
        994    1    1    2    0    0 -0.24243498222E+01  0.10926338607E+02  0.20582525372E+01  0.17157779213E+03  0.17120000000E+03 0.  0.
        998    1    1    2    0    0  0.21538016453E+01  0.29481623339E+01  0.14400869502E+04  0.14401262981E+04  0.10000000000E+02 0.  1.
</event>
<event>
 5    1  0.1068111E-008  0.3726046E+03  0.7957747E-01  0.3484006E+00
         13   -1    0    0    0    0  0.00000000000E+00  0.00000000000E+00  0.14999999963E+04  0.15000000000E+04  0.10566000000E+00 0.  1.
        994   -1    0    0    0    0 -0.00000000000E+00 -0.00000000000E+00  0.11368683772E-12  0.17120000000E+03  0.17120000000E+03 0.  0.
         13    1    1    2    0    0 -0.25077663587E+02 -0.63415846152E+00  0.36508352628E+02  0.44296301692E+02  0.10566000000E+00 0.  1.
        994    1    1    2    0    0  0.17680265678E+02  0.60656314081E+00  0.89872067334E+01  0.17234607509E+03  0.17120000000E+03 0.  0.
        998    1    1    2    0    0  0.73973979089E+01  0.27595320706E-01  0.14545044369E+04  0.14545576232E+04  0.10000000000E+02 0.  1.
</event>
<event>
 5    1  0.1068111E-008  0.3831844E+03  0.7957747E-01  0.3437409E+00
         13   -1    0    0    0    0  0.00000000000E+00  0.00000000000E+00  0.14999999963E+04  0.15000000000E+04  0.10566000000E+00 0.  1.
        994   -1    0    0    0    0 -0.00000000000E+00 -0.00000000000E+00  0.11368683772E-12  0.17120000000E+03  0.17120000000E+03 0.  0.
         13    1    1    2    0    0 -0.86738961383E+01 -0.13537113019E+02  0.50356948102E+02  0.52861359132E+02  0.10566000000E+00 0.  1.
        994    1    1    2    0    0  0.98266174879E+01  0.58523434716E+01  0.29671111224E+01  0.17160727282E+03  0.17120000000E+03 0.  0.
        998    1    1    2    0    0 -0.11527213496E+01  0.76847695479E+01  0.14466759371E+04  0.14467313681E+04  0.10000000000E+02 0.  1.
</event>
<event>
 5    1  0.1068111E-008  0.3684535E+03  0.7957747E-01  0.3503029E+00
         13   -1    0    0    0    0  0.00000000000E+00  0.00000000000E+00  0.14999999963E+04  0.15000000000E+04  0.10566000000E+00 0.  1.
        994   -1    0    0    0    0 -0.00000000000E+00 -0.00000000000E+00  0.11368683772E-12  0.17120000000E+03  0.17120000000E+03 0.  0.
         13    1    1    2    0    0  0.22544077211E+02 -0.10915109637E+02  0.26424118489E+02  0.36409068069E+02  0.10566000000E+00 0.  1.
        994    1    1    2    0    0 -0.18075434799E+02  0.16334724497E+02  0.12189954830E+02  0.17335391419E+03  0.17120000000E+03 0.  0.
        998    1    1    2    0    0 -0.44686424112E+01 -0.54196148603E+01  0.14613859230E+04  0.14614370177E+04  0.10000000000E+02 0.  1.
</event>
<event>
 5    1  0.1068111E-008  0.3749715E+03  0.7957747E-01  0.3473350E+00
         13   -1    0    0    0    0  0.00000000000E+00  0.00000000000E+00  0.14999999963E+04  0.15000000000E+04  0.10566000000E+00 0.  1.
        994   -1    0    0    0    0 -0.00000000000E+00 -0.00000000000E+00  0.11368683772E-12  0.17120000000E+03  0.17120000000E+03 0.  0.
         13    1    1    2    0    0  0.36572374821E+01 -0.27195985254E+02  0.54603383491E+02  0.61110863623E+02  0.10566000000E+00 0.  1.
        994    1    1    2    0    0 -0.80705875277E+01  0.11676313380E+02  0.73785476399E+01  0.17194578693E+03  0.17120000000E+03 0.  0.
        998    1    1    2    0    0  0.44133500456E+01  0.15519671874E+02  0.14380180651E+04  0.14381433494E+04  0.10000000000E+02 0.  1.
</event>
<event>
 5    1  0.1068111E-008  0.3766055E+03  0.7957747E-01  0.3466073E+00
         13   -1    0    0    0    0  0.00000000000E+00  0.00000000000E+00  0.14999999963E+04  0.15000000000E+04  0.10566000000E+00 0.  1.
        994   -1    0    0    0    0 -0.00000000000E+00 -0.00000000000E+00  0.11368683772E-12  0.17120000000E+03  0.17120000000E+03 0.  0.
         13    1    1    2    0    0  0.97638594834E+02 -0.55562336940E+02  0.34538951211E+03  0.36320021300E+03  0.10566000000E+00 0.  1.
        994    1    1    2    0    0 -0.93792294120E+02  0.44311109213E+02  0.54068693895E+02  0.20734833613E+03  0.17120000000E+03 0.  0.
        998    1    1    2    0    0 -0.38463007136E+01  0.11251227726E+02  0.11005417903E+04  0.11006514509E+04  0.10000000000E+02 0.  0.
</event>
<event>
 5    1  0.1068111E-008  0.3804520E+03  0.7957747E-01  0.3449193E+00
         13   -1    0    0    0    0  0.00000000000E+00  0.00000000000E+00  0.14999999963E+04  0.15000000000E+04  0.10566000000E+00 0. -1.
        994   -1    0    0    0    0 -0.00000000000E+00 -0.00000000000E+00  0.11368683772E-12  0.17120000000E+03  0.17120000000E+03 0.  0.
         13    1    1    2    0    0  0.45838149822E+01  0.13998700748E+02  0.25848801293E+02  0.29751414667E+02  0.10566000000E+00 0. -1.
        994    1    1    2    0    0 -0.19249633912E+01 -0.15052685157E+02  0.46742233586E+01  0.17193480502E+03  0.17120000000E+03 0.  0.
        998    1    1    2    0    0 -0.26588515909E+01  0.10539844091E+01  0.14694769716E+04  0.14695137803E+04  0.10000000000E+02 0. -1.
</event>
<event>
 5    1  0.1068111E-008  0.3837290E+03  0.7957747E-01  0.3435081E+00
         13   -1    0    0    0    0  0.00000000000E+00  0.00000000000E+00  0.14999999963E+04  0.15000000000E+04  0.10566000000E+00 0.  1.
        994   -1    0    0    0    0 -0.00000000000E+00 -0.00000000000E+00  0.11368683772E-12  0.17120000000E+03  0.17120000000E+03 0.  0.
         13    1    1    2    0    0 -0.81675184686E+01  0.68273197390E+01  0.24735590254E+02  0.26929189405E+02  0.10566000000E+00 0.  1.
        994    1    1    2    0    0 -0.73423848597E+00 -0.48707555166E+01  0.23426071802E+01  0.17128686807E+03  0.17120000000E+03 0.  0.
        998    1    1    2    0    0  0.89017569546E+01 -0.19565642224E+01  0.14729217988E+04  0.14729839425E+04  0.10000000000E+02 0.  1.
</event>
<event>
 5    1  0.1068111E-008  0.3816438E+03  0.7957747E-01  0.3444032E+00
         13   -1    0    0    0    0  0.00000000000E+00  0.00000000000E+00  0.14999999963E+04  0.15000000000E+04  0.10566000000E+00 0. -1.
        994   -1    0    0    0    0 -0.00000000000E+00 -0.00000000000E+00  0.11368683772E-12  0.17120000000E+03  0.17120000000E+03 0.  0.
         13    1    1    2    0    0  0.10124312824E+02  0.24073536078E+02  0.83959693270E+02  0.87927686809E+02  0.10566000000E+00 0. -1.
        994    1    1    2    0    0 -0.22789735163E+02 -0.49466260554E+02  0.13231646644E+02  0.18014105427E+03  0.17120000000E+03 0.  0.
        998    1    1    2    0    0  0.12665422339E+02  0.25392724476E+02  0.14028086564E+04  0.14031312589E+04  0.10000000000E+02 0. -1.
</event>
