<event>
 4    1  0.2489496E+000  0.5247844E+02  0.7957747E-01  0.1432414E+00
         13   -1    0    0    0    0  0.00000000000E+00  0.00000000000E+00  0.99999944179E+02  0.99999999999E+02  0.10566000000E+00 0. -1.
         22   -1    0    0    0    0 -0.00000000000E+00 -0.00000000000E+00 -0.12426823571E+02  0.12426823571E+02  0.00000000000E+00 0. -1.
         13    1    1    2    0    0  0.49254724083E+01 -0.15156740225E+02  0.10152265154E+02  0.18896208733E+02  0.10566000000E+00 0.  1.
        996    1    1    2    0    0 -0.49254724083E+01  0.15156740225E+02  0.77420855453E+02  0.93530614837E+02  0.50000000000E+02 0.  0.
<mgrwt>
<rscale>  0 0.52478444E+02</rscale>
<asrwt>0</asrwt>
<pdfrwt beam="1">  1       13 0.10000000E+01 0.52478444E+02</pdfrwt>
<pdfrwt beam="2">  1       22 0.12426848E+00 0.52478444E+02</pdfrwt>
<totfact> 0.10196437E+00</totfact>
</mgrwt>
</event>
<event>
 4    1  0.2489496E+000  0.5602279E+02  0.7957747E-01  0.1415323E+00
         13   -1    0    0    0    0  0.00000000000E+00  0.00000000000E+00  0.99999944183E+02  0.10000000000E+03  0.10566000000E+00 0. -1.
         22   -1    0    0    0    0 -0.00000000000E+00 -0.00000000000E+00 -0.21918258730E+02  0.21918258730E+02  0.00000000000E+00 0.  1.
         13    1    1    2    0    0  0.19115350833E+02  0.16527439117E+02 -0.66275748709E+00  0.25278514449E+02  0.10566000000E+00 0.  1.
        996    1    1    2    0    0 -0.19115350833E+02 -0.16527439117E+02  0.78744442940E+02  0.96639744283E+02  0.50000000000E+02 0.  0.
<mgrwt>
<rscale>  0 0.56022789E+02</rscale>
<asrwt>0</asrwt>
<pdfrwt beam="1">  1       13 0.10000000E+01 0.56022789E+02</pdfrwt>
<pdfrwt beam="2">  1       22 0.21918281E+00 0.56022789E+02</pdfrwt>
<totfact> 0.38344987E-01</totfact>
</mgrwt>
</event>
<event>
 4    1  0.2489496E+000  0.5160682E+02  0.7957747E-01  0.1436863E+00
         13   -1    0    0    0    0  0.00000000000E+00  0.00000000000E+00  0.99999944182E+02  0.10000000000E+03  0.10566000000E+00 0. -1.
         22   -1    0    0    0    0 -0.00000000000E+00 -0.00000000000E+00 -0.10710329577E+02  0.10710329577E+02  0.00000000000E+00 0.  1.
         13    1    1    2    0    0  0.96431627300E+01 -0.83828878104E+01  0.10572863921E+02  0.16584933253E+02  0.10566000000E+00 0.  1.
        996    1    1    2    0    0 -0.96431627300E+01  0.83828878104E+01  0.78716750684E+02  0.94125396327E+02  0.50000000000E+02 0.  0.
<mgrwt>
<rscale>  0 0.51606815E+02</rscale>
<asrwt>0</asrwt>
<pdfrwt beam="1">  1       13 0.10000000E+01 0.51606815E+02</pdfrwt>
<pdfrwt beam="2">  1       22 0.10710355E+00 0.51606815E+02</pdfrwt>
<totfact> 0.12740031E+00</totfact>
</mgrwt>
</event>
<event>
 4    1  0.2489496E+000  0.5104301E+02  0.7957747E-01  0.1439796E+00
         13   -1    0    0    0    0  0.00000000000E+00  0.00000000000E+00  0.99999944178E+02  0.99999999998E+02  0.10566000000E+00 0.  1.
         22   -1    0    0    0    0 -0.00000000000E+00 -0.00000000000E+00 -0.14183926849E+02  0.14183926849E+02  0.00000000000E+00 0. -1.
         13    1    1    2    0    0  0.50275346795E+01  0.89505502547E+01 -0.38850975557E+01  0.10976957769E+02  0.10566000000E+00 0. -1.
        996    1    1    2    0    0 -0.50275346795E+01 -0.89505502547E+01  0.89701114885E+02  0.10320696908E+03  0.50000000000E+02 0.  0.
<mgrwt>
<rscale>  0 0.51043006E+02</rscale>
<asrwt>0</asrwt>
<pdfrwt beam="1">  1       13 0.10000000E+01 0.51043006E+02</pdfrwt>
<pdfrwt beam="2">  1       22 0.14183951E+00 0.51043006E+02</pdfrwt>
<totfact> 0.82391512E-01</totfact>
</mgrwt>
</event>
<event>
 4    1  0.2489496E+000  0.5404458E+02  0.7957747E-01  0.1424672E+00
         13   -1    0    0    0    0  0.00000000000E+00  0.00000000000E+00  0.99999944184E+02  0.10000000000E+03  0.10566000000E+00 0.  1.
         22   -1    0    0    0    0 -0.00000000000E+00 -0.00000000000E+00 -0.16454180695E+02  0.16454180695E+02  0.00000000000E+00 0. -1.
         13    1    1    2    0    0  0.16811647482E+02 -0.11755209998E+02  0.50055720625E+01  0.21115950580E+02  0.10566000000E+00 0. -1.
        996    1    1    2    0    0 -0.16811647482E+02  0.11755209998E+02  0.78540191426E+02  0.95338230120E+02  0.50000000000E+02 0.  0.
<mgrwt>
<rscale>  0 0.54044578E+02</rscale>
<asrwt>0</asrwt>
<pdfrwt beam="1">  1       13 0.10000000E+01 0.54044578E+02</pdfrwt>
<pdfrwt beam="2">  1       22 0.16454204E+00 0.54044578E+02</pdfrwt>
<totfact> 0.64605772E-01</totfact>
</mgrwt>
</event>
<event>
 4    1  0.2489496E+000  0.5117561E+02  0.7957747E-01  0.1439102E+00
         13   -1    0    0    0    0  0.00000000000E+00  0.00000000000E+00  0.99999944177E+02  0.99999999997E+02  0.10566000000E+00 0. -1.
         22   -1    0    0    0    0 -0.00000000000E+00 -0.00000000000E+00 -0.19185878365E+02  0.19185878365E+02  0.00000000000E+00 0.  1.
         13    1    1    2    0    0 -0.10872250192E+02 -0.85880890739E+00 -0.10095552072E+02  0.14861854280E+02  0.10566000000E+00 0.  1.
        996    1    1    2    0    0  0.10872250192E+02  0.85880890739E+00  0.90909617884E+02  0.10432402408E+03  0.50000000000E+02 0.  0.
<mgrwt>
<rscale>  0 0.51175613E+02</rscale>
<asrwt>0</asrwt>
<pdfrwt beam="1">  1       13 0.10000000E+01 0.51175613E+02</pdfrwt>
<pdfrwt beam="2">  1       22 0.19185901E+00 0.51175613E+02</pdfrwt>
<totfact> 0.48857247E-01</totfact>
</mgrwt>
</event>
<event>
 4    1  0.2489496E+000  0.5678547E+02  0.7957747E-01  0.1411839E+00
         13   -1    0    0    0    0  0.00000000000E+00  0.00000000000E+00  0.99999944172E+02  0.99999999992E+02  0.10566000000E+00 0.  1.
         22   -1    0    0    0    0 -0.00000000000E+00 -0.00000000000E+00 -0.29107852304E+02  0.29107852304E+02  0.00000000000E+00 0. -1.
         13    1    1    2    0    0  0.14438725099E+02  0.22718123965E+02 -0.11310931617E+02  0.29198258117E+02  0.10566000000E+00 0. -1.
        996    1    1    2    0    0 -0.14438725099E+02 -0.22718123965E+02  0.82203023485E+02  0.99909594179E+02  0.50000000000E+02 0.  0.
<mgrwt>
<rscale>  0 0.56785473E+02</rscale>
<asrwt>0</asrwt>
<pdfrwt beam="1">  1       13 0.10000000E+01 0.56785473E+02</pdfrwt>
<pdfrwt beam="2">  1       22 0.29107872E+00 0.56785473E+02</pdfrwt>
<totfact> 0.22053529E-01</totfact>
</mgrwt>
</event>
<event>
 4    1  0.2489496E+000  0.5103670E+02  0.7957747E-01  0.1439829E+00
         13   -1    0    0    0    0  0.00000000000E+00  0.00000000000E+00  0.99999944174E+02  0.99999999995E+02  0.10566000000E+00 0. -1.
         22   -1    0    0    0    0 -0.00000000000E+00 -0.00000000000E+00 -0.14782833496E+02  0.14782833496E+02  0.00000000000E+00 0.  1.
         13    1    1    2    0    0 -0.97329235843E+01 -0.31645710471E+01 -0.47996513773E+01  0.11304518070E+02  0.10566000000E+00 0.  1.
        996    1    1    2    0    0  0.97329235843E+01  0.31645710471E+01  0.90016762055E+02  0.10347831542E+03  0.50000000000E+02 0.  0.
<mgrwt>
<rscale>  0 0.51036696E+02</rscale>
<asrwt>0</asrwt>
<pdfrwt beam="1">  1       13 0.10000000E+01 0.51036696E+02</pdfrwt>
<pdfrwt beam="2">  1       22 0.14782857E+00 0.51036696E+02</pdfrwt>
<totfact> 0.76983596E-01</totfact>
</mgrwt>
</event>
<event>
 4    1  0.2489496E+000  0.5132417E+02  0.7957747E-01  0.1438327E+00
         13   -1    0    0    0    0  0.00000000000E+00  0.00000000000E+00  0.99999944178E+02  0.99999999998E+02  0.10566000000E+00 0. -1.
         22   -1    0    0    0    0 -0.00000000000E+00 -0.00000000000E+00 -0.10344164376E+02  0.10344164376E+02  0.00000000000E+00 0.  1.
         13    1    1    2    0    0  0.14677708216E+01  0.11489806257E+02  0.86871705433E+01  0.14479229783E+02  0.10566000000E+00 0.  1.
        996    1    1    2    0    0 -0.14677708216E+01 -0.11489806257E+02  0.80968609259E+02  0.95864934592E+02  0.50000000000E+02 0.  0.
<mgrwt>
<rscale>  0 0.51324166E+02</rscale>
<asrwt>0</asrwt>
<pdfrwt beam="1">  1       13 0.10000000E+01 0.51324166E+02</pdfrwt>
<pdfrwt beam="2">  1       22 0.10344189E+00 0.51324166E+02</pdfrwt>
<totfact> 0.13398825E+00</totfact>
</mgrwt>
</event>
<event>
 4    1  0.2489496E+000  0.5118929E+02  0.7957747E-01  0.1439030E+00
         13   -1    0    0    0    0  0.00000000000E+00  0.00000000000E+00  0.99999944180E+02  0.10000000000E+03  0.10566000000E+00 0. -1.
         22   -1    0    0    0    0 -0.00000000000E+00 -0.00000000000E+00 -0.11273180559E+02  0.11273180559E+02  0.00000000000E+00 0.  1.
         13    1    1    2    0    0  0.90197170931E+01 -0.62440759517E+01  0.29118565118E+01  0.11350500135E+02  0.10566000000E+00 0.  1.
        996    1    1    2    0    0 -0.90197170931E+01  0.62440759517E+01  0.85814907110E+02  0.99922680424E+02  0.50000000000E+02 0.  0.
<mgrwt>
<rscale>  0 0.51189294E+02</rscale>
<asrwt>0</asrwt>
<pdfrwt beam="1">  1       13 0.10000000E+01 0.51189294E+02</pdfrwt>
<pdfrwt beam="2">  1       22 0.11273205E+00 0.51189294E+02</pdfrwt>
<totfact> 0.11794212E+00</totfact>
</mgrwt>
</event>
<event>
 4    1  0.2489496E+000  0.5108686E+02  0.7957747E-01  0.1439566E+00
         13   -1    0    0    0    0  0.00000000000E+00  0.00000000000E+00  0.99999944177E+02  0.99999999997E+02  0.10566000000E+00 0.  1.
         22   -1    0    0    0    0 -0.00000000000E+00 -0.00000000000E+00 -0.56682543009E+02  0.56682543009E+02  0.00000000000E+00 0. -1.
         13    1    1    2    0    0 -0.91395768225E+01  0.51317689419E+01 -0.49573892300E+02  0.50669999790E+02  0.10566000000E+00 0. -1.
        996    1    1    2    0    0  0.91395768225E+01 -0.51317689419E+01  0.92891293468E+02  0.10601254322E+03  0.50000000000E+02 0.  0.
<mgrwt>
<rscale>  0 0.51086857E+02</rscale>
<asrwt>0</asrwt>
<pdfrwt beam="1">  1       13 0.10000000E+01 0.51086857E+02</pdfrwt>
<pdfrwt beam="2">  1       22 0.56682555E+00 0.51086857E+02</pdfrwt>
<totfact> 0.57928889E-02</totfact>
</mgrwt>
</event>
<event>
 4    1  0.2489496E+000  0.5100211E+02  0.7957747E-01  0.1440010E+00
         13   -1    0    0    0    0  0.00000000000E+00  0.00000000000E+00  0.99999944179E+02  0.99999999999E+02  0.10566000000E+00 0. -1.
         22   -1    0    0    0    0 -0.00000000000E+00 -0.00000000000E+00 -0.12859859381E+02  0.12859859381E+02  0.00000000000E+00 0. -1.
         13    1    1    2    0    0 -0.31268852222E+01 -0.95623241598E+01 -0.19078319814E+01  0.10240431702E+02  0.10566000000E+00 0.  1.
        996    1    1    2    0    0  0.31268852222E+01  0.95623241598E+01  0.89047916779E+02  0.10261942768E+03  0.50000000000E+02 0.  0.
<mgrwt>
<rscale>  0 0.51002112E+02</rscale>
<asrwt>0</asrwt>
<pdfrwt beam="1">  1       13 0.10000000E+01 0.51002112E+02</pdfrwt>
<pdfrwt beam="2">  1       22 0.12859884E+00 0.51002112E+02</pdfrwt>
<totfact> 0.96346667E-01</totfact>
</mgrwt>
</event>
<event>
 4    1  0.2489496E+000  0.5164151E+02  0.7957747E-01  0.1436684E+00
         13   -1    0    0    0    0  0.00000000000E+00  0.00000000000E+00  0.99999944179E+02  0.99999999999E+02  0.10566000000E+00 0. -1.
         22   -1    0    0    0    0 -0.00000000000E+00 -0.00000000000E+00 -0.10481306040E+02  0.10481306040E+02  0.00000000000E+00 0. -1.
         13    1    1    2    0    0  0.47335611195E+01 -0.12018257448E+02  0.14671707823E+02  0.19547769372E+02  0.10566000000E+00 0.  1.
        996    1    1    2    0    0 -0.47335611195E+01  0.12018257448E+02  0.74846930317E+02  0.90933536667E+02  0.50000000000E+02 0.  0.
<mgrwt>
<rscale>  0 0.51641506E+02</rscale>
<asrwt>0</asrwt>
<pdfrwt beam="1">  1       13 0.10000000E+01 0.51641506E+02</pdfrwt>
<pdfrwt beam="2">  1       22 0.10481331E+00 0.51641506E+02</pdfrwt>
<totfact> 0.13152851E+00</totfact>
</mgrwt>
</event>
<event>
 4    1  0.2489496E+000  0.5209561E+02  0.7957747E-01  0.1434355E+00
         13   -1    0    0    0    0  0.00000000000E+00  0.00000000000E+00  0.99999944176E+02  0.99999999996E+02  0.10566000000E+00 0. -1.
         22   -1    0    0    0    0 -0.00000000000E+00 -0.00000000000E+00 -0.12926636090E+02  0.12926636090E+02  0.00000000000E+00 0. -1.
         13    1    1    2    0    0  0.11917560147E+02  0.84808405218E+01  0.45198462181E+01  0.15309901034E+02  0.10566000000E+00 0.  1.
        996    1    1    2    0    0 -0.11917560147E+02 -0.84808405218E+01  0.82553461868E+02  0.97616735052E+02  0.50000000000E+02 0.  0.
<mgrwt>
<rscale>  0 0.52095613E+02</rscale>
<asrwt>0</asrwt>
<pdfrwt beam="1">  1       13 0.10000000E+01 0.52095613E+02</pdfrwt>
<pdfrwt beam="2">  1       22 0.12926660E+00 0.52095613E+02</pdfrwt>
<totfact> 0.95795623E-01</totfact>
</mgrwt>
</event>
<event>
 4    1  0.2489496E+000  0.7158910E+02  0.7957747E-01  0.1354771E+00
         13   -1    0    0    0    0  0.00000000000E+00  0.00000000000E+00  0.99999944177E+02  0.99999999997E+02  0.10566000000E+00 0.  1.
         22   -1    0    0    0    0 -0.00000000000E+00 -0.00000000000E+00 -0.56147106488E+02  0.56147106488E+02  0.00000000000E+00 0. -1.
         13    1    1    2    0    0  0.40050676482E+02  0.31952187139E+02 -0.24833604753E+02  0.56936087315E+02  0.10566000000E+00 0. -1.
        996    1    1    2    0    0 -0.40050676482E+02 -0.31952187139E+02  0.68686442441E+02  0.99211019171E+02  0.50000000000E+02 0.  0.
<mgrwt>
<rscale>  0 0.71589098E+02</rscale>
<asrwt>0</asrwt>
<pdfrwt beam="1">  1       13 0.10000000E+01 0.71589098E+02</pdfrwt>
<pdfrwt beam="2">  1       22 0.56147119E+00 0.71589098E+02</pdfrwt>
<totfact> 0.58587924E-02</totfact>
</mgrwt>
</event>
<event>
 4    1  0.2489496E+000  0.5459769E+02  0.7957747E-01  0.1422011E+00
         13   -1    0    0    0    0  0.00000000000E+00  0.00000000000E+00  0.99999944187E+02  0.10000000001E+03  0.10566000000E+00 0.  1.
         22   -1    0    0    0    0 -0.00000000000E+00 -0.00000000000E+00 -0.25166543951E+02  0.25166543951E+02  0.00000000000E+00 0. -1.
         13    1    1    2    0    0  0.48151009579E+00  0.21924334496E+02 -0.10143120794E+02  0.24162002370E+02  0.10566000000E+00 0. -1.
        996    1    1    2    0    0 -0.48151009579E+00 -0.21924334496E+02  0.84976521030E+02  0.10100454159E+03  0.50000000000E+02 0.  0.
<mgrwt>
<rscale>  0 0.54597695E+02</rscale>
<asrwt>0</asrwt>
<pdfrwt beam="1">  1       13 0.10000000E+01 0.54597695E+02</pdfrwt>
<pdfrwt beam="2">  1       22 0.25166565E+00 0.54597695E+02</pdfrwt>
<totfact> 0.29211993E-01</totfact>
</mgrwt>
</event>
<event>
 4    1  0.2489496E+000  0.5372412E+02  0.7957747E-01  0.1426231E+00
         13   -1    0    0    0    0  0.00000000000E+00  0.00000000000E+00  0.99999944174E+02  0.99999999994E+02  0.10566000000E+00 0.  1.
         22   -1    0    0    0    0 -0.00000000000E+00 -0.00000000000E+00 -0.16336001183E+02  0.16336001183E+02  0.00000000000E+00 0. -1.
         13    1    1    2    0    0 -0.18591868757E+02  0.63736510866E+01  0.36984086820E+01  0.19999260058E+02  0.10566000000E+00 0. -1.
        996    1    1    2    0    0  0.18591868757E+02 -0.63736510866E+01  0.79965534309E+02  0.96336741119E+02  0.50000000000E+02 0.  0.
<mgrwt>
<rscale>  0 0.53724119E+02</rscale>
<asrwt>0</asrwt>
<pdfrwt beam="1">  1       13 0.10000000E+01 0.53724119E+02</pdfrwt>
<pdfrwt beam="2">  1       22 0.16336025E+00 0.53724119E+02</pdfrwt>
<totfact> 0.65375927E-01</totfact>
</mgrwt>
</event>
<event>
 4    1  0.2489496E+000  0.5165419E+02  0.7957747E-01  0.1436618E+00
         13   -1    0    0    0    0  0.00000000000E+00  0.00000000000E+00  0.99999944175E+02  0.99999999995E+02  0.10566000000E+00 0.  1.
         22   -1    0    0    0    0 -0.00000000000E+00 -0.00000000000E+00 -0.38893085265E+02  0.38893085265E+02  0.00000000000E+00 0. -1.
         13    1    1    2    0    0  0.24768827877E+01 -0.12728729077E+02 -0.30825984850E+02  0.33442607528E+02  0.10566000000E+00 0. -1.
        996    1    1    2    0    0 -0.24768827877E+01  0.12728729077E+02  0.91932843760E+02  0.10545047773E+03  0.50000000000E+02 0.  0.
<mgrwt>
<rscale>  0 0.51654191E+02</rscale>
<asrwt>0</asrwt>
<pdfrwt beam="1">  1       13 0.10000000E+01 0.51654191E+02</pdfrwt>
<pdfrwt beam="2">  1       22 0.38893102E+00 0.51654191E+02</pdfrwt>
<totfact> 0.13028823E-01</totfact>
</mgrwt>
</event>
<event>
 4    1  0.2489496E+000  0.5277163E+02  0.7957747E-01  0.1430941E+00
         13   -1    0    0    0    0  0.00000000000E+00  0.00000000000E+00  0.99999944180E+02  0.10000000000E+03  0.10566000000E+00 0. -1.
         22   -1    0    0    0    0 -0.00000000000E+00 -0.00000000000E+00 -0.17501394113E+02  0.17501394113E+02  0.00000000000E+00 0.  1.
         13    1    1    2    0    0  0.60315333643E+01 -0.15762779175E+02 -0.28885828414E+01  0.17123074400E+02  0.10566000000E+00 0.  1.
        996    1    1    2    0    0 -0.60315333643E+01  0.15762779175E+02  0.85387132909E+02  0.10037831971E+03  0.50000000000E+02 0.  0.
<mgrwt>
<rscale>  0 0.52771627E+02</rscale>
<asrwt>0</asrwt>
<pdfrwt beam="1">  1       13 0.10000000E+01 0.52771627E+02</pdfrwt>
<pdfrwt beam="2">  1       22 0.17501417E+00 0.52771627E+02</pdfrwt>
<totfact> 0.57846747E-01</totfact>
</mgrwt>
</event>
<event>
 4    1  0.2489496E+000  0.5214939E+02  0.7957747E-01  0.1434081E+00
         13   -1    0    0    0    0  0.00000000000E+00  0.00000000000E+00  0.99999944170E+02  0.99999999991E+02  0.10566000000E+00 0.  1.
         22   -1    0    0    0    0 -0.00000000000E+00 -0.00000000000E+00 -0.33474429655E+02  0.33474429655E+02  0.00000000000E+00 0. -1.
         13    1    1    2    0    0  0.13529211502E+02  0.60431202208E+01 -0.24462999672E+02  0.28600845842E+02  0.10566000000E+00 0. -1.
        996    1    1    2    0    0 -0.13529211502E+02 -0.60431202208E+01  0.90988514187E+02  0.10487358380E+03  0.50000000000E+02 0.  0.
<mgrwt>
<rscale>  0 0.52149390E+02</rscale>
<asrwt>0</asrwt>
<pdfrwt beam="1">  1       13 0.10000000E+01 0.52149390E+02</pdfrwt>
<pdfrwt beam="2">  1       22 0.33474448E+00 0.52149390E+02</pdfrwt>
<totfact> 0.16989623E-01</totfact>
</mgrwt>
</event>
<event>
 4    1  0.2489496E+000  0.5331629E+02  0.7957747E-01  0.1428233E+00
         13   -1    0    0    0    0  0.00000000000E+00  0.00000000000E+00  0.99999944178E+02  0.99999999999E+02  0.10566000000E+00 0.  1.
         22   -1    0    0    0    0 -0.00000000000E+00 -0.00000000000E+00 -0.15331792158E+02  0.15331792158E+02  0.00000000000E+00 0.  1.
         13    1    1    2    0    0 -0.10266381462E+02  0.15402218903E+02  0.45659480094E+02  0.49268917402E+02  0.10566000000E+00 0. -1.
        996    1    1    2    0    0  0.10266381462E+02 -0.15402218903E+02  0.39008671926E+02  0.66062874755E+02  0.50000000000E+02 0.  0.
<mgrwt>
<rscale>  0 0.53316291E+02</rscale>
<asrwt>0</asrwt>
<pdfrwt beam="1">  1       13 0.10000000E+01 0.53316291E+02</pdfrwt>
<pdfrwt beam="2">  1       22 0.15331816E+00 0.53316291E+02</pdfrwt>
<totfact> 0.72778527E-01</totfact>
</mgrwt>
</event>
<event>
 4    1  0.2489496E+000  0.5154042E+02  0.7957747E-01  0.1437206E+00
         13   -1    0    0    0    0  0.00000000000E+00  0.00000000000E+00  0.99999944180E+02  0.10000000000E+03  0.10566000000E+00 0.  1.
         22   -1    0    0    0    0 -0.00000000000E+00 -0.00000000000E+00 -0.11776440766E+02  0.11776440766E+02  0.00000000000E+00 0.  1.
         13    1    1    2    0    0 -0.76264363681E+01 -0.99122094898E+01  0.41786241699E+01  0.13186602771E+02  0.10566000000E+00 0. -1.
        996    1    1    2    0    0  0.76264363681E+01  0.99122094898E+01  0.84044879244E+02  0.98589837995E+02  0.50000000000E+02 0.  0.
<mgrwt>
<rscale>  0 0.51540415E+02</rscale>
<asrwt>0</asrwt>
<pdfrwt beam="1">  1       13 0.10000000E+01 0.51540415E+02</pdfrwt>
<pdfrwt beam="2">  1       22 0.11776465E+00 0.51540415E+02</pdfrwt>
<totfact> 0.11050939E+00</totfact>
</mgrwt>
</event>
<event>
 4    1  0.2489496E+000  0.5129937E+02  0.7957747E-01  0.1438457E+00
         13   -1    0    0    0    0  0.00000000000E+00  0.00000000000E+00  0.99999944179E+02  0.99999999999E+02  0.10566000000E+00 0.  1.
         22   -1    0    0    0    0 -0.00000000000E+00 -0.00000000000E+00 -0.10248843304E+02  0.10248843304E+02  0.00000000000E+00 0.  1.
         13    1    1    2    0    0 -0.75393490902E+01  0.86477517257E+01  0.90053660724E+01  0.14585375441E+02  0.10566000000E+00 0. -1.
        996    1    1    2    0    0  0.75393490902E+01 -0.86477517257E+01  0.80745734803E+02  0.95663467862E+02  0.50000000000E+02 0.  0.
<mgrwt>
<rscale>  0 0.51299370E+02</rscale>
<asrwt>0</asrwt>
<pdfrwt beam="1">  1       13 0.10000000E+01 0.51299370E+02</pdfrwt>
<pdfrwt beam="2">  1       22 0.10248868E+00 0.51299370E+02</pdfrwt>
<totfact> 0.13580288E+00</totfact>
</mgrwt>
</event>
<event>
 4    1  0.2489496E+000  0.5181062E+02  0.7957747E-01  0.1435813E+00
         13   -1    0    0    0    0  0.00000000000E+00  0.00000000000E+00  0.99999944173E+02  0.99999999993E+02  0.10566000000E+00 0. -1.
         22   -1    0    0    0    0 -0.00000000000E+00 -0.00000000000E+00 -0.10701439138E+02  0.10701439138E+02  0.00000000000E+00 0. -1.
         13    1    1    2    0    0  0.10089848976E+02 -0.90848815829E+01  0.20102685630E+02  0.24258385340E+02  0.10566000000E+00 0.  1.
        996    1    1    2    0    0 -0.10089848976E+02  0.90848815829E+01  0.69195819405E+02  0.86443053791E+02  0.50000000000E+02 0.  0.
<mgrwt>
<rscale>  0 0.51810618E+02</rscale>
<asrwt>0</asrwt>
<pdfrwt beam="1">  1       13 0.10000000E+01 0.51810618E+02</pdfrwt>
<pdfrwt beam="2">  1       22 0.10701464E+00 0.51810618E+02</pdfrwt>
<totfact> 0.12761760E+00</totfact>
</mgrwt>
</event>
<event>
 4    1  0.2489496E+000  0.5260471E+02  0.7957747E-01  0.1431778E+00
         13   -1    0    0    0    0  0.00000000000E+00  0.00000000000E+00  0.99999944180E+02  0.10000000000E+03  0.10566000000E+00 0.  1.
         22   -1    0    0    0    0 -0.00000000000E+00 -0.00000000000E+00 -0.12786547527E+02  0.12786547527E+02  0.00000000000E+00 0.  1.
         13    1    1    2    0    0 -0.58348696691E+01  0.15271215105E+02  0.93939030068E+01  0.18855033614E+02  0.10566000000E+00 0. -1.
        996    1    1    2    0    0  0.58348696691E+01 -0.15271215105E+02  0.77819493645E+02  0.93931513913E+02  0.50000000000E+02 0.  0.
<mgrwt>
<rscale>  0 0.52604712E+02</rscale>
<asrwt>0</asrwt>
<pdfrwt beam="1">  1       13 0.10000000E+01 0.52604712E+02</pdfrwt>
<pdfrwt beam="2">  1       22 0.12786572E+00 0.52604712E+02</pdfrwt>
<totfact> 0.97555192E-01</totfact>
</mgrwt>
</event>
<event>
 4    1  0.2489496E+000  0.5567613E+02  0.7957747E-01  0.1416928E+00
         13   -1    0    0    0    0  0.00000000000E+00  0.00000000000E+00  0.99999944175E+02  0.99999999995E+02  0.10566000000E+00 0. -1.
         22   -1    0    0    0    0 -0.00000000000E+00 -0.00000000000E+00 -0.40985779271E+02  0.40985779271E+02  0.00000000000E+00 0.  1.
         13    1    1    2    0    0 -0.91593879562E+01 -0.22714244480E+02 -0.28302893767E+02  0.37428548591E+02  0.10566000000E+00 0.  1.
        996    1    1    2    0    0  0.91593879562E+01  0.22714244480E+02  0.87317058671E+02  0.10355723067E+03  0.50000000000E+02 0.  0.
<mgrwt>
<rscale>  0 0.55676129E+02</rscale>
<asrwt>0</asrwt>
<pdfrwt beam="1">  1       13 0.10000000E+01 0.55676129E+02</pdfrwt>
<pdfrwt beam="2">  1       22 0.40985796E+00 0.55676129E+02</pdfrwt>
<totfact> 0.11831142E-01</totfact>
</mgrwt>
</event>
<event>
 4    1  0.2489496E+000  0.5296341E+02  0.7957747E-01  0.1429983E+00
         13   -1    0    0    0    0  0.00000000000E+00  0.00000000000E+00  0.99999944181E+02  0.10000000000E+03  0.10566000000E+00 0. -1.
         22   -1    0    0    0    0 -0.00000000000E+00 -0.00000000000E+00 -0.13367154232E+02  0.13367154232E+02  0.00000000000E+00 0. -1.
         13    1    1    2    0    0 -0.72970273483E+01  0.15870620855E+02  0.97433121260E+01  0.20001662673E+02  0.10566000000E+00 0.  1.
        996    1    1    2    0    0  0.72970273483E+01 -0.15870620855E+02  0.76889477823E+02  0.93365491561E+02  0.50000000000E+02 0.  0.
<mgrwt>
<rscale>  0 0.52963414E+02</rscale>
<asrwt>0</asrwt>
<pdfrwt beam="1">  1       13 0.10000000E+01 0.52963414E+02</pdfrwt>
<pdfrwt beam="2">  1       22 0.13367178E+00 0.52963414E+02</pdfrwt>
<totfact> 0.91016637E-01</totfact>
</mgrwt>
</event>
<event>
 4    1  0.2489496E+000  0.5357979E+02  0.7957747E-01  0.1426937E+00
         13   -1    0    0    0    0  0.00000000000E+00  0.00000000000E+00  0.99999944177E+02  0.99999999997E+02  0.10566000000E+00 0. -1.
         22   -1    0    0    0    0 -0.00000000000E+00 -0.00000000000E+00 -0.13532801471E+02  0.13532801471E+02  0.00000000000E+00 0. -1.
         13    1    1    2    0    0  0.87967994437E+01  0.17129236289E+02  0.16173396441E+02  0.25147252986E+02  0.10566000000E+00 0.  1.
        996    1    1    2    0    0 -0.87967994437E+01 -0.17129236289E+02  0.70293746265E+02  0.88385548481E+02  0.50000000000E+02 0.  0.
<mgrwt>
<rscale>  0 0.53579795E+02</rscale>
<asrwt>0</asrwt>
<pdfrwt beam="1">  1       13 0.10000000E+01 0.53579795E+02</pdfrwt>
<pdfrwt beam="2">  1       22 0.13532826E+00 0.53579795E+02</pdfrwt>
<totfact> 0.89359134E-01</totfact>
</mgrwt>
</event>
<event>
 4    1  0.2489496E+000  0.5102595E+02  0.7957747E-01  0.1439885E+00
         13   -1    0    0    0    0  0.00000000000E+00  0.00000000000E+00  0.99999944180E+02  0.10000000000E+03  0.10566000000E+00 0.  1.
         22   -1    0    0    0    0 -0.00000000000E+00 -0.00000000000E+00 -0.95731510403E+01  0.95731510403E+01  0.00000000000E+00 0.  1.
         13    1    1    2    0    0 -0.80965528909E+01 -0.61719933968E+01  0.21752477477E+02  0.24017266948E+02  0.10566000000E+00 0. -1.
        996    1    1    2    0    0  0.80965528909E+01  0.61719933968E+01  0.68674315663E+02  0.85555884093E+02  0.50000000000E+02 0.  0.
<mgrwt>
<rscale>  0 0.51025951E+02</rscale>
<asrwt>0</asrwt>
<pdfrwt beam="1">  1       13 0.10000000E+01 0.51025951E+02</pdfrwt>
<pdfrwt beam="2">  1       22 0.95731763E-01 0.51025951E+02</pdfrwt>
<totfact> 0.14976207E+00</totfact>
</mgrwt>
</event>
<event>
 4    1  0.2489496E+000  0.6478797E+02  0.7957747E-01  0.1378771E+00
         13   -1    0    0    0    0  0.00000000000E+00  0.00000000000E+00  0.99999944183E+02  0.10000000000E+03  0.10566000000E+00 0. -1.
         22   -1    0    0    0    0 -0.00000000000E+00 -0.00000000000E+00 -0.66698595363E+02  0.66698595363E+02  0.00000000000E+00 0.  1.
         13    1    1    2    0    0  0.13321463121E+02  0.38987431954E+02 -0.47663858316E+02  0.63002664893E+02  0.10566000000E+00 0.  1.
        996    1    1    2    0    0 -0.13321463121E+02 -0.38987431954E+02  0.80965207136E+02  0.10369593047E+03  0.50000000000E+02 0.  0.
<mgrwt>
<rscale>  0 0.64787971E+02</rscale>
<asrwt>0</asrwt>
<pdfrwt beam="1">  1       13 0.10000000E+01 0.64787971E+02</pdfrwt>
<pdfrwt beam="2">  1       22 0.66698605E+00 0.64787971E+02</pdfrwt>
<totfact> 0.86765177E-02</totfact>
</mgrwt>
</event>
<event>
 4    1  0.2489496E+000  0.5121973E+02  0.7957747E-01  0.1438872E+00
         13   -1    0    0    0    0  0.00000000000E+00  0.00000000000E+00  0.99999944182E+02  0.10000000000E+03  0.10566000000E+00 0. -1.
         22   -1    0    0    0    0 -0.00000000000E+00 -0.00000000000E+00 -0.30182374453E+02  0.30182374453E+02  0.00000000000E+00 0.  1.
         13    1    1    2    0    0 -0.75792809577E+01 -0.81249490582E+01 -0.22225106889E+02  0.24848075122E+02  0.10566000000E+00 0.  1.
        996    1    1    2    0    0  0.75792809577E+01  0.81249490582E+01  0.92042676617E+02  0.10533429933E+03  0.50000000000E+02 0.  0.
<mgrwt>
<rscale>  0 0.51219726E+02</rscale>
<asrwt>0</asrwt>
<pdfrwt beam="1">  1       13 0.10000000E+01 0.51219726E+02</pdfrwt>
<pdfrwt beam="2">  1       22 0.30182394E+00 0.51219726E+02</pdfrwt>
<totfact> 0.20449141E-01</totfact>
</mgrwt>
</event>
<event>
 4    1  0.2489496E+000  0.5330611E+02  0.7957747E-01  0.1428284E+00
         13   -1    0    0    0    0  0.00000000000E+00  0.00000000000E+00  0.99999944183E+02  0.10000000000E+03  0.10566000000E+00 0. -1.
         22   -1    0    0    0    0 -0.00000000000E+00 -0.00000000000E+00 -0.17915359584E+02  0.17915359584E+02  0.00000000000E+00 0.  1.
         13    1    1    2    0    0  0.99021151322E+01  0.15604147322E+02 -0.17551061812E+01  0.18564289900E+02  0.10566000000E+00 0.  1.
        996    1    1    2    0    0 -0.99021151322E+01 -0.15604147322E+02  0.83839690780E+02  0.99351069686E+02  0.50000000000E+02 0.  0.
<mgrwt>
<rscale>  0 0.53306109E+02</rscale>
<asrwt>0</asrwt>
<pdfrwt beam="1">  1       13 0.10000000E+01 0.53306109E+02</pdfrwt>
<pdfrwt beam="2">  1       22 0.17915383E+00 0.53306109E+02</pdfrwt>
<totfact> 0.55541526E-01</totfact>
</mgrwt>
</event>
<event>
 4    1  0.2489496E+000  0.6140042E+02  0.7957747E-01  0.1392047E+00
         13   -1    0    0    0    0  0.00000000000E+00  0.00000000000E+00  0.99999944175E+02  0.99999999995E+02  0.10566000000E+00 0. -1.
         22   -1    0    0    0    0 -0.00000000000E+00 -0.00000000000E+00 -0.24545837573E+02  0.24545837573E+02  0.00000000000E+00 0.  1.
         13    1    1    2    0    0 -0.28030077260E+02 -0.22007403657E+02  0.40288293316E+02  0.53788184476E+02  0.10566000000E+00 0.  1.
        996    1    1    2    0    0  0.28030077260E+02  0.22007403657E+02  0.35165813286E+02  0.70757653091E+02  0.50000000000E+02 0.  0.
<mgrwt>
<rscale>  0 0.61400416E+02</rscale>
<asrwt>0</asrwt>
<pdfrwt beam="1">  1       13 0.10000000E+01 0.61400416E+02</pdfrwt>
<pdfrwt beam="2">  1       22 0.24545859E+00 0.61400416E+02</pdfrwt>
<totfact> 0.30981513E-01</totfact>
</mgrwt>
</event>
<event>
 4    1  0.2489496E+000  0.5610051E+02  0.7957747E-01  0.1414965E+00
         13   -1    0    0    0    0  0.00000000000E+00  0.00000000000E+00  0.99999944172E+02  0.99999999992E+02  0.10566000000E+00 0. -1.
         22   -1    0    0    0    0 -0.00000000000E+00 -0.00000000000E+00 -0.29095716147E+02  0.29095716147E+02  0.00000000000E+00 0.  1.
         13    1    1    2    0    0  0.21228218093E+02 -0.14022466395E+02 -0.12682804342E+02  0.28427653741E+02  0.10566000000E+00 0.  1.
        996    1    1    2    0    0 -0.21228218093E+02  0.14022466395E+02  0.83587032367E+02  0.10066806240E+03  0.50000000000E+02 0.  0.
<mgrwt>
<rscale>  0 0.56100506E+02</rscale>
<asrwt>0</asrwt>
<pdfrwt beam="1">  1       13 0.10000000E+01 0.56100506E+02</pdfrwt>
<pdfrwt beam="2">  1       22 0.29095736E+00 0.56100506E+02</pdfrwt>
<totfact> 0.22052162E-01</totfact>
</mgrwt>
</event>
<event>
 4    1  0.2489496E+000  0.5248090E+02  0.7957747E-01  0.1432402E+00
         13   -1    0    0    0    0  0.00000000000E+00  0.00000000000E+00  0.99999944178E+02  0.99999999998E+02  0.10566000000E+00 0. -1.
         22   -1    0    0    0    0 -0.00000000000E+00 -0.00000000000E+00 -0.25122162436E+02  0.25122162436E+02  0.00000000000E+00 0.  1.
         13    1    1    2    0    0 -0.15558432168E+02 -0.34899263549E+01 -0.14449883732E+02  0.21518705848E+02  0.10566000000E+00 0.  1.
        996    1    1    2    0    0  0.15558432168E+02  0.34899263549E+01  0.89327665474E+02  0.10360345659E+03  0.50000000000E+02 0.  0.
<mgrwt>
<rscale>  0 0.52480896E+02</rscale>
<asrwt>0</asrwt>
<pdfrwt beam="1">  1       13 0.10000000E+01 0.52480896E+02</pdfrwt>
<pdfrwt beam="2">  1       22 0.25122183E+00 0.52480896E+02</pdfrwt>
<totfact> 0.29219819E-01</totfact>
</mgrwt>
</event>
<event>
 4    1  0.2489496E+000  0.5700639E+02  0.7957747E-01  0.1410842E+00
         13   -1    0    0    0    0  0.00000000000E+00  0.00000000000E+00  0.99999944177E+02  0.99999999997E+02  0.10566000000E+00 0.  1.
         22   -1    0    0    0    0 -0.00000000000E+00 -0.00000000000E+00 -0.29742466066E+02  0.29742466066E+02  0.00000000000E+00 0.  1.
         13    1    1    2    0    0  0.16781850604E+02  0.21635562077E+02  0.67302843540E+02  0.72659562129E+02  0.10566000000E+00 0. -1.
        996    1    1    2    0    0 -0.16781850604E+02 -0.21635562077E+02  0.29546345703E+01  0.57082903934E+02  0.50000000000E+02 0.  0.
<mgrwt>
<rscale>  0 0.57006386E+02</rscale>
<asrwt>0</asrwt>
<pdfrwt beam="1">  1       13 0.10000000E+01 0.57006386E+02</pdfrwt>
<pdfrwt beam="2">  1       22 0.29742486E+00 0.57006386E+02</pdfrwt>
<totfact> 0.21174560E-01</totfact>
</mgrwt>
</event>
<event>
 4    1  0.2489496E+000  0.5165245E+02  0.7957747E-01  0.1436627E+00
         13   -1    0    0    0    0  0.00000000000E+00  0.00000000000E+00  0.99999944187E+02  0.10000000001E+03  0.10566000000E+00 0.  1.
         22   -1    0    0    0    0 -0.00000000000E+00 -0.00000000000E+00 -0.42191212090E+02  0.42191212090E+02  0.00000000000E+00 0. -1.
         13    1    1    2    0    0  0.29617874862E+01 -0.12617590863E+02 -0.34256348797E+02  0.36626279926E+02  0.10566000000E+00 0. -1.
        996    1    1    2    0    0 -0.29617874862E+01  0.12617590863E+02  0.92065080894E+02  0.10556493217E+03  0.50000000000E+02 0.  0.
<mgrwt>
<rscale>  0 0.51652452E+02</rscale>
<asrwt>0</asrwt>
<pdfrwt beam="1">  1       13 0.10000000E+01 0.51652452E+02</pdfrwt>
<pdfrwt beam="2">  1       22 0.42191228E+00 0.51652452E+02</pdfrwt>
<totfact> 0.11128249E-01</totfact>
</mgrwt>
</event>
<event>
 4    1  0.2489496E+000  0.5118504E+02  0.7957747E-01  0.1439053E+00
         13   -1    0    0    0    0  0.00000000000E+00  0.00000000000E+00  0.99999944180E+02  0.10000000000E+03  0.10566000000E+00 0. -1.
         22   -1    0    0    0    0 -0.00000000000E+00 -0.00000000000E+00 -0.11449807207E+02  0.11449807207E+02  0.00000000000E+00 0.  1.
         13    1    1    2    0    0 -0.61747800604E+01 -0.90432540097E+01  0.23528100656E+01  0.11200679940E+02  0.10566000000E+00 0.  1.
        996    1    1    2    0    0  0.61747800604E+01  0.90432540097E+01  0.86197326908E+02  0.10024912727E+03  0.50000000000E+02 0.  0.
<mgrwt>
<rscale>  0 0.51185040E+02</rscale>
<asrwt>0</asrwt>
<pdfrwt beam="1">  1       13 0.10000000E+01 0.51185040E+02</pdfrwt>
<pdfrwt beam="2">  1       22 0.11449832E+00 0.51185040E+02</pdfrwt>
<totfact> 0.11521887E+00</totfact>
</mgrwt>
</event>
<event>
 4    1  0.2489496E+000  0.5430540E+02  0.7957747E-01  0.1423413E+00
         13   -1    0    0    0    0  0.00000000000E+00  0.00000000000E+00  0.99999944185E+02  0.10000000001E+03  0.10566000000E+00 0.  1.
         22   -1    0    0    0    0 -0.00000000000E+00 -0.00000000000E+00 -0.24384156934E+02  0.24384156934E+02  0.00000000000E+00 0.  1.
         13    1    1    2    0    0 -0.19510759309E+02 -0.82708439282E+01 -0.96563920836E+01  0.23288058318E+02  0.10566000000E+00 0. -1.
        996    1    1    2    0    0  0.19510759309E+02  0.82708439282E+01  0.85272179334E+02  0.10109609862E+03  0.50000000000E+02 0.  0.
<mgrwt>
<rscale>  0 0.54305401E+02</rscale>
<asrwt>0</asrwt>
<pdfrwt beam="1">  1       13 0.10000000E+01 0.54305401E+02</pdfrwt>
<pdfrwt beam="2">  1       22 0.24384178E+00 0.54305401E+02</pdfrwt>
<totfact> 0.31072006E-01</totfact>
</mgrwt>
</event>
<event>
 4    1  0.2489496E+000  0.5348306E+02  0.7957747E-01  0.1427412E+00
         13   -1    0    0    0    0  0.00000000000E+00  0.00000000000E+00  0.99999944185E+02  0.10000000001E+03  0.10566000000E+00 0.  1.
         22   -1    0    0    0    0 -0.00000000000E+00 -0.00000000000E+00 -0.13140037739E+02  0.13140037739E+02  0.00000000000E+00 0. -1.
         13    1    1    2    0    0  0.90283268400E+01  0.16701114338E+02  0.21344264542E+02  0.28566181028E+02  0.10566000000E+00 0. -1.
        996    1    1    2    0    0 -0.90283268400E+01 -0.16701114338E+02  0.65515641904E+02  0.84573856716E+02  0.50000000000E+02 0.  0.
<mgrwt>
<rscale>  0 0.53483062E+02</rscale>
<asrwt>0</asrwt>
<pdfrwt beam="1">  1       13 0.10000000E+01 0.53483062E+02</pdfrwt>
<pdfrwt beam="2">  1       22 0.13140062E+00 0.53483062E+02</pdfrwt>
<totfact> 0.93628861E-01</totfact>
</mgrwt>
</event>
<event>
 4    1  0.2489496E+000  0.5433920E+02  0.7957747E-01  0.1423250E+00
         13   -1    0    0    0    0  0.00000000000E+00  0.00000000000E+00  0.99999944183E+02  0.10000000000E+03  0.10566000000E+00 0.  1.
         22   -1    0    0    0    0 -0.00000000000E+00 -0.00000000000E+00 -0.27840718677E+02  0.27840718677E+02  0.00000000000E+00 0. -1.
         13    1    1    2    0    0  0.20345560905E+02  0.62295058431E+01 -0.14361563818E+02  0.25671273263E+02  0.10566000000E+00 0. -1.
        996    1    1    2    0    0 -0.20345560905E+02 -0.62295058431E+01  0.86520789324E+02  0.10216944542E+03  0.50000000000E+02 0.  0.
<mgrwt>
<rscale>  0 0.54339199E+02</rscale>
<asrwt>0</asrwt>
<pdfrwt beam="1">  1       13 0.10000000E+01 0.54339199E+02</pdfrwt>
<pdfrwt beam="2">  1       22 0.27840739E+00 0.54339199E+02</pdfrwt>
<totfact> 0.23951486E-01</totfact>
</mgrwt>
</event>
<event>
 4    1  0.2489496E+000  0.5211295E+02  0.7957747E-01  0.1434267E+00
         13   -1    0    0    0    0  0.00000000000E+00  0.00000000000E+00  0.99999944179E+02  0.99999999999E+02  0.10566000000E+00 0. -1.
         22   -1    0    0    0    0 -0.00000000000E+00 -0.00000000000E+00 -0.25732123692E+02  0.25732123692E+02  0.00000000000E+00 0.  1.
         13    1    1    2    0    0 -0.30562746711E+01 -0.14367277925E+02 -0.15863304447E+02  0.21619784500E+02  0.10566000000E+00 0.  1.
        996    1    1    2    0    0  0.30562746711E+01  0.14367277925E+02  0.90131124934E+02  0.10411233919E+03  0.50000000000E+02 0.  0.
<mgrwt>
<rscale>  0 0.52112949E+02</rscale>
<asrwt>0</asrwt>
<pdfrwt beam="1">  1       13 0.10000000E+01 0.52112949E+02</pdfrwt>
<pdfrwt beam="2">  1       22 0.25732144E+00 0.52112949E+02</pdfrwt>
<totfact> 0.27856377E-01</totfact>
</mgrwt>
</event>
<event>
 4    1  0.2489496E+000  0.5243390E+02  0.7957747E-01  0.1432639E+00
         13   -1    0    0    0    0  0.00000000000E+00  0.00000000000E+00  0.99999944181E+02  0.10000000000E+03  0.10566000000E+00 0.  1.
         22   -1    0    0    0    0 -0.00000000000E+00 -0.00000000000E+00 -0.15656907868E+02  0.15656907868E+02  0.00000000000E+00 0. -1.
         13    1    1    2    0    0  0.10454062215E+02  0.11833273015E+02 -0.63648620329E+00  0.15802849292E+02  0.10566000000E+00 0. -1.
        996    1    1    2    0    0 -0.10454062215E+02 -0.11833273015E+02  0.84979522517E+02  0.99854058577E+02  0.50000000000E+02 0.  0.
<mgrwt>
<rscale>  0 0.52433899E+02</rscale>
<asrwt>0</asrwt>
<pdfrwt beam="1">  1       13 0.10000000E+01 0.52433899E+02</pdfrwt>
<pdfrwt beam="2">  1       22 0.15656931E+00 0.52433899E+02</pdfrwt>
<totfact> 0.70123390E-01</totfact>
</mgrwt>
</event>
<event>
 4    1  0.2489496E+000  0.5197494E+02  0.7957747E-01  0.1434971E+00
         13   -1    0    0    0    0  0.00000000000E+00  0.00000000000E+00  0.99999944177E+02  0.99999999997E+02  0.10566000000E+00 0.  1.
         22   -1    0    0    0    0 -0.00000000000E+00 -0.00000000000E+00 -0.11091461116E+02  0.11091461116E+02  0.00000000000E+00 0.  1.
         13    1    1    2    0    0 -0.75760100113E+01  0.11999924378E+02  0.14148818942E+02  0.20039819217E+02  0.10566000000E+00 0. -1.
        996    1    1    2    0    0  0.75760100113E+01 -0.11999924378E+02  0.74759664119E+02  0.91051641896E+02  0.50000000000E+02 0.  0.
<mgrwt>
<rscale>  0 0.51974937E+02</rscale>
<asrwt>0</asrwt>
<pdfrwt beam="1">  1       13 0.10000000E+01 0.51974937E+02</pdfrwt>
<pdfrwt beam="2">  1       22 0.11091486E+00 0.51974937E+02</pdfrwt>
<totfact> 0.12106268E+00</totfact>
</mgrwt>
</event>
<event>
 4    1  0.2489496E+000  0.5108718E+02  0.7957747E-01  0.1439564E+00
         13   -1    0    0    0    0  0.00000000000E+00  0.00000000000E+00  0.99999944176E+02  0.99999999996E+02  0.10566000000E+00 0. -1.
         22   -1    0    0    0    0 -0.00000000000E+00 -0.00000000000E+00 -0.15960952516E+02  0.15960952516E+02  0.00000000000E+00 0.  1.
         13    1    1    2    0    0 -0.48079473474E+00  0.10472296378E+02 -0.62611365763E+01  0.12211189552E+02  0.10566000000E+00 0.  1.
        996    1    1    2    0    0  0.48079473474E+00 -0.10472296378E+02  0.90300128236E+02  0.10374976296E+03  0.50000000000E+02 0.  0.
<mgrwt>
<rscale>  0 0.51087182E+02</rscale>
<asrwt>0</asrwt>
<pdfrwt beam="1">  1       13 0.10000000E+01 0.51087182E+02</pdfrwt>
<pdfrwt beam="2">  1       22 0.15960976E+00 0.51087182E+02</pdfrwt>
<totfact> 0.67683014E-01</totfact>
</mgrwt>
</event>
<event>
 4    1  0.2489496E+000  0.5427108E+02  0.7957747E-01  0.1423578E+00
         13   -1    0    0    0    0  0.00000000000E+00  0.00000000000E+00  0.99999944185E+02  0.10000000000E+03  0.10566000000E+00 0. -1.
         22   -1    0    0    0    0 -0.00000000000E+00 -0.00000000000E+00 -0.20711103522E+02  0.20711103522E+02  0.00000000000E+00 0.  1.
         13    1    1    2    0    0  0.11487921860E+01  0.21072039764E+02 -0.38250755794E+01  0.21447446248E+02  0.10566000000E+00 0.  1.
        996    1    1    2    0    0 -0.11487921860E+01 -0.21072039764E+02  0.83113916242E+02  0.99263657279E+02  0.50000000000E+02 0.  0.
<mgrwt>
<rscale>  0 0.54271084E+02</rscale>
<asrwt>0</asrwt>
<pdfrwt beam="1">  1       13 0.10000000E+01 0.54271084E+02</pdfrwt>
<pdfrwt beam="2">  1       22 0.20711126E+00 0.54271084E+02</pdfrwt>
<totfact> 0.42598860E-01</totfact>
</mgrwt>
</event>
<event>
 4    1  0.2489496E+000  0.6659624E+02  0.7957747E-01  0.1372066E+00
         13   -1    0    0    0    0  0.00000000000E+00  0.00000000000E+00  0.99999944172E+02  0.99999999992E+02  0.10566000000E+00 0. -1.
         22   -1    0    0    0    0 -0.00000000000E+00 -0.00000000000E+00 -0.31478208159E+02  0.31478208159E+02  0.00000000000E+00 0.  1.
         13    1    1    2    0    0  0.10730236645E+02  0.42660532181E+02  0.38377973496E+02  0.58377555603E+02  0.10566000000E+00 0.  1.
        996    1    1    2    0    0 -0.10730236645E+02 -0.42660532181E+02  0.30143762516E+02  0.73100652549E+02  0.50000000000E+02 0.  0.
<mgrwt>
<rscale>  0 0.66596239E+02</rscale>
<asrwt>0</asrwt>
<pdfrwt beam="1">  1       13 0.10000000E+01 0.66596239E+02</pdfrwt>
<pdfrwt beam="2">  1       22 0.31478227E+00 0.66596239E+02</pdfrwt>
<totfact> 0.19252800E-01</totfact>
</mgrwt>
</event>
<event>
 4    1  0.2489496E+000  0.5137374E+02  0.7957747E-01  0.1438070E+00
         13   -1    0    0    0    0  0.00000000000E+00  0.00000000000E+00  0.99999944184E+02  0.10000000000E+03  0.10566000000E+00 0.  1.
         22   -1    0    0    0    0 -0.00000000000E+00 -0.00000000000E+00 -0.12426053910E+02  0.12426053910E+02  0.00000000000E+00 0. -1.
         13    1    1    2    0    0  0.57240655079E+01  0.10319707077E+02  0.11127209758E+01  0.11853716384E+02  0.10566000000E+00 0. -1.
        996    1    1    2    0    0 -0.57240655079E+01 -0.10319707077E+02  0.86461169297E+02  0.10057233753E+03  0.50000000000E+02 0.  0.
<mgrwt>
<rscale>  0 0.51373741E+02</rscale>
<asrwt>0</asrwt>
<pdfrwt beam="1">  1       13 0.10000000E+01 0.51373741E+02</pdfrwt>
<pdfrwt beam="2">  1       22 0.12426078E+00 0.51373741E+02</pdfrwt>
<totfact> 0.10172575E+00</totfact>
</mgrwt>
</event>
<event>
 4    1  0.2489496E+000  0.5540628E+02  0.7957747E-01  0.1418187E+00
         13   -1    0    0    0    0  0.00000000000E+00  0.00000000000E+00  0.99999944183E+02  0.10000000000E+03  0.10566000000E+00 0.  1.
         22   -1    0    0    0    0 -0.00000000000E+00 -0.00000000000E+00 -0.40509080073E+02  0.40509080073E+02  0.00000000000E+00 0. -1.
         13    1    1    2    0    0  0.13563687464E+02  0.19643871685E+02 -0.28096459346E+02  0.36868380819E+02  0.10566000000E+00 0. -1.
        996    1    1    2    0    0 -0.13563687464E+02 -0.19643871685E+02  0.87587323455E+02  0.10364069926E+03  0.50000000000E+02 0.  0.
<mgrwt>
<rscale>  0 0.55406275E+02</rscale>
<asrwt>0</asrwt>
<pdfrwt beam="1">  1       13 0.10000000E+01 0.55406275E+02</pdfrwt>
<pdfrwt beam="2">  1       22 0.40509097E+00 0.55406275E+02</pdfrwt>
<totfact> 0.12102312E-01</totfact>
</mgrwt>
</event>
<event>
 4    1  0.2489496E+000  0.5136579E+02  0.7957747E-01  0.1438111E+00
         13   -1    0    0    0    0  0.00000000000E+00  0.00000000000E+00  0.99999944178E+02  0.99999999999E+02  0.10566000000E+00 0.  1.
         22   -1    0    0    0    0 -0.00000000000E+00 -0.00000000000E+00 -0.10569837978E+02  0.10569837978E+02  0.00000000000E+00 0. -1.
         13    1    1    2    0    0 -0.10626195749E+02  0.50525122050E+01  0.77789585534E+01  0.14105576056E+02  0.10566000000E+00 0. -1.
        996    1    1    2    0    0  0.10626195749E+02 -0.50525122050E+01  0.81651147647E+02  0.96464261920E+02  0.50000000000E+02 0.  0.
<mgrwt>
<rscale>  0 0.51365785E+02</rscale>
<asrwt>0</asrwt>
<pdfrwt beam="1">  1       13 0.10000000E+01 0.51365785E+02</pdfrwt>
<pdfrwt beam="2">  1       22 0.10569863E+00 0.51365785E+02</pdfrwt>
<totfact> 0.12982874E+00</totfact>
</mgrwt>
</event>
<event>
 4    1  0.2489496E+000  0.6308417E+02  0.7957747E-01  0.1385326E+00
         13   -1    0    0    0    0  0.00000000000E+00  0.00000000000E+00  0.99999944171E+02  0.99999999991E+02  0.10566000000E+00 0.  1.
         22   -1    0    0    0    0 -0.00000000000E+00 -0.00000000000E+00 -0.80372715846E+02  0.80372715846E+02  0.00000000000E+00 0. -1.
         13    1    1    2    0    0  0.37762903508E+02 -0.73194946097E+01 -0.64573136330E+02  0.75161911779E+02  0.10566000000E+00 0. -1.
        996    1    1    2    0    0 -0.37762903508E+02  0.73194946097E+01  0.84200364655E+02  0.10521080406E+03  0.50000000000E+02 0.  0.
<mgrwt>
<rscale>  0 0.63084165E+02</rscale>
<asrwt>0</asrwt>
<pdfrwt beam="1">  1       13 0.10000000E+01 0.63084165E+02</pdfrwt>
<pdfrwt beam="2">  1       22 0.80372721E+00 0.63084165E+02</pdfrwt>
<totfact> 0.29827716E-02</totfact>
</mgrwt>
</event>
<event>
 4    1  0.2489496E+000  0.5361377E+02  0.7957747E-01  0.1426771E+00
         13   -1    0    0    0    0  0.00000000000E+00  0.00000000000E+00  0.99999944177E+02  0.99999999997E+02  0.10566000000E+00 0.  1.
         22   -1    0    0    0    0 -0.00000000000E+00 -0.00000000000E+00 -0.14189330924E+02  0.14189330924E+02  0.00000000000E+00 0.  1.
         13    1    1    2    0    0 -0.16469848116E+02  0.10157763077E+02  0.11344978641E+02  0.22431133544E+02  0.10566000000E+00 0. -1.
        996    1    1    2    0    0  0.16469848116E+02 -0.10157763077E+02  0.74465634612E+02  0.91758197377E+02  0.50000000000E+02 0.  0.
<mgrwt>
<rscale>  0 0.53613767E+02</rscale>
<asrwt>0</asrwt>
<pdfrwt beam="1">  1       13 0.10000000E+01 0.53613767E+02</pdfrwt>
<pdfrwt beam="2">  1       22 0.14189355E+00 0.53613767E+02</pdfrwt>
<totfact> 0.82781218E-01</totfact>
</mgrwt>
</event>
<event>
 4    1  0.2489496E+000  0.5397084E+02  0.7957747E-01  0.1425029E+00
         13   -1    0    0    0    0  0.00000000000E+00  0.00000000000E+00  0.99999944180E+02  0.10000000000E+03  0.10566000000E+00 0.  1.
         22   -1    0    0    0    0 -0.00000000000E+00 -0.00000000000E+00 -0.14239189528E+02  0.14239189528E+02  0.00000000000E+00 0.  1.
         13    1    1    2    0    0 -0.10547934082E+02  0.17366428112E+02  0.33064263263E+02  0.38808612548E+02  0.10566000000E+00 0. -1.
        996    1    1    2    0    0  0.10547934082E+02 -0.17366428112E+02  0.52696491389E+02  0.75430576980E+02  0.50000000000E+02 0.  0.
<mgrwt>
<rscale>  0 0.53970842E+02</rscale>
<asrwt>0</asrwt>
<pdfrwt beam="1">  1       13 0.10000000E+01 0.53970842E+02</pdfrwt>
<pdfrwt beam="2">  1       22 0.14239213E+00 0.53970842E+02</pdfrwt>
<totfact> 0.82367977E-01</totfact>
</mgrwt>
</event>
<event>
 4    1  0.2489496E+000  0.5101881E+02  0.7957747E-01  0.1439923E+00
         13   -1    0    0    0    0  0.00000000000E+00  0.00000000000E+00  0.99999944185E+02  0.10000000000E+03  0.10566000000E+00 0.  1.
         22   -1    0    0    0    0 -0.00000000000E+00 -0.00000000000E+00 -0.39794942880E+02  0.39794942880E+02  0.00000000000E+00 0. -1.
         13    1    1    2    0    0  0.68239861515E+01 -0.75067846667E+01 -0.32462685929E+02  0.34011112078E+02  0.10566000000E+00 0. -1.
        996    1    1    2    0    0 -0.68239861515E+01  0.75067846667E+01  0.92667687233E+02  0.10578383081E+03  0.50000000000E+02 0.  0.
<mgrwt>
<rscale>  0 0.51018806E+02</rscale>
<asrwt>0</asrwt>
<pdfrwt beam="1">  1       13 0.10000000E+01 0.51018806E+02</pdfrwt>
<pdfrwt beam="2">  1       22 0.39794960E+00 0.51018806E+02</pdfrwt>
<totfact> 0.12478682E-01</totfact>
</mgrwt>
</event>
<event>
 4    1  0.2489496E+000  0.5135972E+02  0.7957747E-01  0.1438143E+00
         13   -1    0    0    0    0  0.00000000000E+00  0.00000000000E+00  0.99999944180E+02  0.10000000000E+03  0.10566000000E+00 0. -1.
         22   -1    0    0    0    0 -0.00000000000E+00 -0.00000000000E+00 -0.12363368068E+02  0.12363368068E+02  0.00000000000E+00 0. -1.
         13    1    1    2    0    0 -0.95500631641E+00 -0.11700801246E+02  0.11763095378E+01  0.11798968388E+02  0.10566000000E+00 0.  1.
        996    1    1    2    0    0  0.95500631641E+00  0.11700801246E+02  0.86460266575E+02  0.10056439968E+03  0.50000000000E+02 0.  0.
<mgrwt>
<rscale>  0 0.51359719E+02</rscale>
<asrwt>0</asrwt>
<pdfrwt beam="1">  1       13 0.10000000E+01 0.51359719E+02</pdfrwt>
<pdfrwt beam="2">  1       22 0.12363393E+00 0.51359719E+02</pdfrwt>
<totfact> 0.10252230E+00</totfact>
</mgrwt>
</event>
<event>
 4    1  0.2489496E+000  0.5421311E+02  0.7957747E-01  0.1423857E+00
         13   -1    0    0    0    0  0.00000000000E+00  0.00000000000E+00  0.99999944178E+02  0.99999999998E+02  0.10566000000E+00 0. -1.
         22   -1    0    0    0    0 -0.00000000000E+00 -0.00000000000E+00 -0.15313904325E+02  0.15313904325E+02  0.00000000000E+00 0. -1.
         13    1    1    2    0    0 -0.15868456402E+02 -0.13684074143E+02  0.10520953967E+02  0.23447034571E+02  0.10566000000E+00 0.  1.
        996    1    1    2    0    0  0.15868456402E+02  0.13684074143E+02  0.74165085885E+02  0.91866869752E+02  0.50000000000E+02 0.  0.
<mgrwt>
<rscale>  0 0.54213115E+02</rscale>
<asrwt>0</asrwt>
<pdfrwt beam="1">  1       13 0.10000000E+01 0.54213115E+02</pdfrwt>
<pdfrwt beam="2">  1       22 0.15313928E+00 0.54213115E+02</pdfrwt>
<totfact> 0.73049320E-01</totfact>
</mgrwt>
</event>
<event>
 4    1  0.2489496E+000  0.5126828E+02  0.7957747E-01  0.1438618E+00
         13   -1    0    0    0    0  0.00000000000E+00  0.00000000000E+00  0.99999944178E+02  0.99999999998E+02  0.10566000000E+00 0. -1.
         22   -1    0    0    0    0 -0.00000000000E+00 -0.00000000000E+00 -0.98166298569E+01  0.98166298569E+01  0.00000000000E+00 0. -1.
         13    1    1    2    0    0 -0.90595604566E+01  0.68088759407E+01  0.18254796535E+02  0.21486860818E+02  0.10566000000E+00 0.  1.
        996    1    1    2    0    0  0.90595604566E+01 -0.68088759407E+01  0.71928517786E+02  0.88329769037E+02  0.50000000000E+02 0.  0.
<mgrwt>
<rscale>  0 0.51268279E+02</rscale>
<asrwt>0</asrwt>
<pdfrwt beam="1">  1       13 0.10000000E+01 0.51268279E+02</pdfrwt>
<pdfrwt beam="2">  1       22 0.98166550E-01 0.51268279E+02</pdfrwt>
<totfact> 0.14454260E+00</totfact>
</mgrwt>
</event>
<event>
 4    1  0.2489496E+000  0.5650298E+02  0.7957747E-01  0.1413122E+00
         13   -1    0    0    0    0  0.00000000000E+00  0.00000000000E+00  0.99999944181E+02  0.10000000000E+03  0.10566000000E+00 0. -1.
         22   -1    0    0    0    0 -0.00000000000E+00 -0.00000000000E+00 -0.19126517876E+02  0.19126517876E+02  0.00000000000E+00 0.  1.
         13    1    1    2    0    0  0.24526547741E+02 -0.95412310572E+01  0.45203604390E+02  0.52306439833E+02  0.10566000000E+00 0.  1.
        996    1    1    2    0    0 -0.24526547741E+02  0.95412310572E+01  0.35669821915E+02  0.66820078043E+02  0.50000000000E+02 0.  0.
<mgrwt>
<rscale>  0 0.56502979E+02</rscale>
<asrwt>0</asrwt>
<pdfrwt beam="1">  1       13 0.10000000E+01 0.56502979E+02</pdfrwt>
<pdfrwt beam="2">  1       22 0.19126540E+00 0.56502979E+02</pdfrwt>
<totfact> 0.49601309E-01</totfact>
</mgrwt>
</event>
<event>
 4    1  0.2489496E+000  0.5312217E+02  0.7957747E-01  0.1429194E+00
         13   -1    0    0    0    0  0.00000000000E+00  0.00000000000E+00  0.99999944182E+02  0.10000000000E+03  0.10566000000E+00 0.  1.
         22   -1    0    0    0    0 -0.00000000000E+00 -0.00000000000E+00 -0.39943077885E+02  0.39943077885E+02  0.00000000000E+00 0. -1.
         13    1    1    2    0    0  0.43178985375E+01  0.17416101827E+02 -0.30249380219E+02  0.35171025266E+02  0.10566000000E+00 0. -1.
        996    1    1    2    0    0 -0.43178985375E+01 -0.17416101827E+02  0.90306246516E+02  0.10477205262E+03  0.50000000000E+02 0.  0.
<mgrwt>
<rscale>  0 0.53122169E+02</rscale>
<asrwt>0</asrwt>
<pdfrwt beam="1">  1       13 0.10000000E+01 0.53122169E+02</pdfrwt>
<pdfrwt beam="2">  1       22 0.39943095E+00 0.53122169E+02</pdfrwt>
<totfact> 0.12411993E-01</totfact>
</mgrwt>
</event>
<event>
 4    1  0.2489496E+000  0.6187211E+02  0.7957747E-01  0.1390139E+00
         13   -1    0    0    0    0  0.00000000000E+00  0.00000000000E+00  0.99999944179E+02  0.99999999999E+02  0.10566000000E+00 0.  1.
         22   -1    0    0    0    0 -0.00000000000E+00 -0.00000000000E+00 -0.58700054732E+02  0.58700054732E+02  0.00000000000E+00 0. -1.
         13    1    1    2    0    0  0.28674143209E+02 -0.22493360269E+02 -0.41568339426E+02  0.55281965881E+02  0.10566000000E+00 0. -1.
        996    1    1    2    0    0 -0.28674143209E+02  0.22493360269E+02  0.82868228873E+02  0.10341808885E+03  0.50000000000E+02 0.  0.
<mgrwt>
<rscale>  0 0.61872108E+02</rscale>
<asrwt>0</asrwt>
<pdfrwt beam="1">  1       13 0.10000000E+01 0.61872108E+02</pdfrwt>
<pdfrwt beam="2">  1       22 0.58700066E+00 0.61872108E+02</pdfrwt>
<totfact> 0.59750886E-02</totfact>
</mgrwt>
</event>
<event>
 4    1  0.2489496E+000  0.5994995E+02  0.7957747E-01  0.1398042E+00
         13   -1    0    0    0    0  0.00000000000E+00  0.00000000000E+00  0.99999944177E+02  0.99999999997E+02  0.10566000000E+00 0. -1.
         22   -1    0    0    0    0 -0.00000000000E+00 -0.00000000000E+00 -0.39826298706E+02  0.39826298706E+02  0.00000000000E+00 0.  1.
         13    1    1    2    0    0 -0.27040662937E+02 -0.19047282066E+02 -0.20802351187E+02  0.39073589356E+02  0.10566000000E+00 0.  1.
        996    1    1    2    0    0  0.27040662937E+02  0.19047282066E+02  0.80975996658E+02  0.10075270935E+03  0.50000000000E+02 0.  0.
<mgrwt>
<rscale>  0 0.59949949E+02</rscale>
<asrwt>0</asrwt>
<pdfrwt beam="1">  1       13 0.10000000E+01 0.59949949E+02</pdfrwt>
<pdfrwt beam="2">  1       22 0.39826316E+00 0.59949949E+02</pdfrwt>
<totfact> 0.12543363E-01</totfact>
</mgrwt>
</event>
<event>
 4    1  0.2489496E+000  0.5461283E+02  0.7957747E-01  0.1421939E+00
         13   -1    0    0    0    0  0.00000000000E+00  0.00000000000E+00  0.99999944178E+02  0.99999999999E+02  0.10566000000E+00 0. -1.
         22   -1    0    0    0    0 -0.00000000000E+00 -0.00000000000E+00 -0.20410142386E+02  0.20410142386E+02  0.00000000000E+00 0.  1.
         13    1    1    2    0    0  0.21947328860E+02  0.93596537687E+00 -0.21846608740E+01  0.22075895961E+02  0.10566000000E+00 0.  1.
        996    1    1    2    0    0 -0.21947328860E+02 -0.93596537687E+00  0.81774462667E+02  0.98334246424E+02  0.50000000000E+02 0.  0.
<mgrwt>
<rscale>  0 0.54612831E+02</rscale>
<asrwt>0</asrwt>
<pdfrwt beam="1">  1       13 0.10000000E+01 0.54612831E+02</pdfrwt>
<pdfrwt beam="2">  1       22 0.20410165E+00 0.54612831E+02</pdfrwt>
<totfact> 0.43816118E-01</totfact>
</mgrwt>
</event>
<event>
 4    1  0.2489496E+000  0.5241615E+02  0.7957747E-01  0.1432729E+00
         13   -1    0    0    0    0  0.00000000000E+00  0.00000000000E+00  0.99999944171E+02  0.99999999992E+02  0.10566000000E+00 0.  1.
         22   -1    0    0    0    0 -0.00000000000E+00 -0.00000000000E+00 -0.27039906157E+02  0.27039906157E+02  0.00000000000E+00 0. -1.
         13    1    1    2    0    0  0.39728975589E+01 -0.15220658653E+02 -0.16850688888E+02  0.23052315391E+02  0.10566000000E+00 0. -1.
        996    1    1    2    0    0 -0.39728975589E+01  0.15220658653E+02  0.89810726902E+02  0.10398759076E+03  0.50000000000E+02 0.  0.
<mgrwt>
<rscale>  0 0.52416146E+02</rscale>
<asrwt>0</asrwt>
<pdfrwt beam="1">  1       13 0.10000000E+01 0.52416146E+02</pdfrwt>
<pdfrwt beam="2">  1       22 0.27039927E+00 0.52416146E+02</pdfrwt>
<totfact> 0.25284811E-01</totfact>
</mgrwt>
</event>
<event>
 4    1  0.2489496E+000  0.5163518E+02  0.7957747E-01  0.1436716E+00
         13   -1    0    0    0    0  0.00000000000E+00  0.00000000000E+00  0.99999944182E+02  0.10000000000E+03  0.10566000000E+00 0. -1.
         22   -1    0    0    0    0 -0.00000000000E+00 -0.00000000000E+00 -0.12270218738E+02  0.12270218738E+02  0.00000000000E+00 0. -1.
         13    1    1    2    0    0 -0.99723857402E+01  0.81696885909E+01  0.33081870881E+01  0.13309678992E+02  0.10566000000E+00 0.  1.
        996    1    1    2    0    0  0.99723857402E+01 -0.81696885909E+01  0.84421538356E+02  0.98960539749E+02  0.50000000000E+02 0.  0.
<mgrwt>
<rscale>  0 0.51635185E+02</rscale>
<asrwt>0</asrwt>
<pdfrwt beam="1">  1       13 0.10000000E+01 0.51635185E+02</pdfrwt>
<pdfrwt beam="2">  1       22 0.12270243E+00 0.51635185E+02</pdfrwt>
<totfact> 0.10379123E+00</totfact>
</mgrwt>
</event>
<event>
 4    1  0.2489496E+000  0.5395750E+02  0.7957747E-01  0.1425094E+00
         13   -1    0    0    0    0  0.00000000000E+00  0.00000000000E+00  0.99999944175E+02  0.99999999995E+02  0.10566000000E+00 0.  1.
         22   -1    0    0    0    0 -0.00000000000E+00 -0.00000000000E+00 -0.13937346178E+02  0.13937346178E+02  0.00000000000E+00 0.  1.
         13    1    1    2    0    0  0.20240771389E+02  0.13127570149E+01  0.18320490644E+02  0.27332466022E+02  0.10566000000E+00 0. -1.
        996    1    1    2    0    0 -0.20240771389E+02 -0.13127570149E+01  0.67742107352E+02  0.86604880151E+02  0.50000000000E+02 0.  0.
<mgrwt>
<rscale>  0 0.53957503E+02</rscale>
<asrwt>0</asrwt>
<pdfrwt beam="1">  1       13 0.10000000E+01 0.53957503E+02</pdfrwt>
<pdfrwt beam="2">  1       22 0.13937370E+00 0.53957503E+02</pdfrwt>
<totfact> 0.85286165E-01</totfact>
</mgrwt>
</event>
<event>
 4    1  0.2489496E+000  0.5301218E+02  0.7957747E-01  0.1429740E+00
         13   -1    0    0    0    0  0.00000000000E+00  0.00000000000E+00  0.99999944175E+02  0.99999999995E+02  0.10566000000E+00 0. -1.
         22   -1    0    0    0    0 -0.00000000000E+00 -0.00000000000E+00 -0.13440458429E+02  0.13440458429E+02  0.00000000000E+00 0. -1.
         13    1    1    2    0    0  0.13042660525E+02  0.11839789671E+02  0.36497491513E+02  0.40526160240E+02  0.10566000000E+00 0.  1.
        996    1    1    2    0    0 -0.13042660525E+02 -0.11839789671E+02  0.50061994233E+02  0.72914298184E+02  0.50000000000E+02 0.  0.
<mgrwt>
<rscale>  0 0.53012184E+02</rscale>
<asrwt>0</asrwt>
<pdfrwt beam="1">  1       13 0.10000000E+01 0.53012184E+02</pdfrwt>
<pdfrwt beam="2">  1       22 0.13440483E+00 0.53012184E+02</pdfrwt>
<totfact> 0.90235803E-01</totfact>
</mgrwt>
</event>
<event>
 4    1  0.2489496E+000  0.5123562E+02  0.7957747E-01  0.1438789E+00
         13   -1    0    0    0    0  0.00000000000E+00  0.00000000000E+00  0.99999944181E+02  0.10000000000E+03  0.10566000000E+00 0.  1.
         22   -1    0    0    0    0 -0.00000000000E+00 -0.00000000000E+00 -0.11031503348E+02  0.11031503348E+02  0.00000000000E+00 0.  1.
         13    1    1    2    0    0 -0.57565951350E+01  0.95890946633E+01  0.41314709421E+01  0.11923478527E+02  0.10566000000E+00 0. -1.
        996    1    1    2    0    0  0.57565951350E+01 -0.95890946633E+01  0.84836969890E+02  0.99108024822E+02  0.50000000000E+02 0.  0.
<mgrwt>
<rscale>  0 0.51235624E+02</rscale>
<asrwt>0</asrwt>
<pdfrwt beam="1">  1       13 0.10000000E+01 0.51235624E+02</pdfrwt>
<pdfrwt beam="2">  1       22 0.11031528E+00 0.51235624E+02</pdfrwt>
<totfact> 0.12183493E+00</totfact>
</mgrwt>
</event>
<event>
 4    1  0.2489496E+000  0.6389589E+02  0.7957747E-01  0.1382173E+00
         13   -1    0    0    0    0  0.00000000000E+00  0.00000000000E+00  0.99999944182E+02  0.10000000000E+03  0.10566000000E+00 0.  1.
         22   -1    0    0    0    0 -0.00000000000E+00 -0.00000000000E+00 -0.31851875015E+02  0.31851875015E+02  0.00000000000E+00 0. -1.
         13    1    1    2    0    0 -0.16369665815E+02  0.36259058144E+02  0.19257496674E+01  0.39829699122E+02  0.10566000000E+00 0. -1.
        996    1    1    2    0    0  0.16369665815E+02 -0.36259058144E+02  0.66222319500E+02  0.92022175894E+02  0.50000000000E+02 0.  0.
<mgrwt>
<rscale>  0 0.63895894E+02</rscale>
<asrwt>0</asrwt>
<pdfrwt beam="1">  1       13 0.10000000E+01 0.63895894E+02</pdfrwt>
<pdfrwt beam="2">  1       22 0.31851894E+00 0.63895894E+02</pdfrwt>
<totfact> 0.18793672E-01</totfact>
</mgrwt>
</event>
<event>
 4    1  0.2489496E+000  0.5266451E+02  0.7957747E-01  0.1431478E+00
         13   -1    0    0    0    0  0.00000000000E+00  0.00000000000E+00  0.99999944184E+02  0.10000000000E+03  0.10566000000E+00 0.  1.
         22   -1    0    0    0    0 -0.00000000000E+00 -0.00000000000E+00 -0.35842056586E+02  0.35842056586E+02  0.00000000000E+00 0. -1.
         13    1    1    2    0    0 -0.78849410263E+01 -0.14538861375E+02 -0.26359482704E+02  0.31118873333E+02  0.10566000000E+00 0. -1.
        996    1    1    2    0    0  0.78849410263E+01  0.14538861375E+02  0.90517370303E+02  0.10472318326E+03  0.50000000000E+02 0.  0.
<mgrwt>
<rscale>  0 0.52664512E+02</rscale>
<asrwt>0</asrwt>
<pdfrwt beam="1">  1       13 0.10000000E+01 0.52664512E+02</pdfrwt>
<pdfrwt beam="2">  1       22 0.35842075E+00 0.52664512E+02</pdfrwt>
<totfact> 0.15085841E-01</totfact>
</mgrwt>
</event>
<event>
 4    1  0.2489496E+000  0.5149208E+02  0.7957747E-01  0.1437456E+00
         13   -1    0    0    0    0  0.00000000000E+00  0.00000000000E+00  0.99999944184E+02  0.10000000000E+03  0.10566000000E+00 0.  1.
         22   -1    0    0    0    0 -0.00000000000E+00 -0.00000000000E+00 -0.14546715525E+02  0.14546715525E+02  0.00000000000E+00 0. -1.
         13    1    1    2    0    0  0.10203224051E+02 -0.68795817541E+01 -0.25670487361E+01  0.12571210339E+02  0.10566000000E+00 0. -1.
        996    1    1    2    0    0 -0.10203224051E+02  0.68795817541E+01  0.88020277394E+02  0.10197550519E+03  0.50000000000E+02 0.  0.
<mgrwt>
<rscale>  0 0.51492081E+02</rscale>
<asrwt>0</asrwt>
<pdfrwt beam="1">  1       13 0.10000000E+01 0.51492081E+02</pdfrwt>
<pdfrwt beam="2">  1       22 0.14546739E+00 0.51492081E+02</pdfrwt>
<totfact> 0.79131106E-01</totfact>
</mgrwt>
</event>
<event>
 4    1  0.2489496E+000  0.5353002E+02  0.7957747E-01  0.1427181E+00
         13   -1    0    0    0    0  0.00000000000E+00  0.00000000000E+00  0.99999944177E+02  0.99999999997E+02  0.10566000000E+00 0. -1.
         22   -1    0    0    0    0 -0.00000000000E+00 -0.00000000000E+00 -0.15660191167E+02  0.15660191167E+02  0.00000000000E+00 0. -1.
         13    1    1    2    0    0  0.18732925962E+02  0.38131449187E+01  0.46006006674E+02  0.49819939817E+02  0.10566000000E+00 0.  1.
        996    1    1    2    0    0 -0.18732925962E+02 -0.38131449187E+01  0.38333746336E+02  0.65840251347E+02  0.50000000000E+02 0.  0.
<mgrwt>
<rscale>  0 0.53530016E+02</rscale>
<asrwt>0</asrwt>
<pdfrwt beam="1">  1       13 0.10000000E+01 0.53530016E+02</pdfrwt>
<pdfrwt beam="2">  1       22 0.15660215E+00 0.53530016E+02</pdfrwt>
<totfact> 0.70249785E-01</totfact>
</mgrwt>
</event>
<event>
 4    1  0.2489496E+000  0.5362667E+02  0.7957747E-01  0.1426707E+00
         13   -1    0    0    0    0  0.00000000000E+00  0.00000000000E+00  0.99999944179E+02  0.99999999999E+02  0.10566000000E+00 0.  1.
         22   -1    0    0    0    0 -0.00000000000E+00 -0.00000000000E+00 -0.13349108638E+02  0.13349108638E+02  0.00000000000E+00 0.  1.
         13    1    1    2    0    0 -0.12998636758E+02 -0.14382452458E+02  0.25067756490E+02  0.31689478944E+02  0.10566000000E+00 0. -1.
        996    1    1    2    0    0  0.12998636758E+02  0.14382452458E+02  0.61583079050E+02  0.81659629693E+02  0.50000000000E+02 0.  0.
<mgrwt>
<rscale>  0 0.53626668E+02</rscale>
<asrwt>0</asrwt>
<pdfrwt beam="1">  1       13 0.10000000E+01 0.53626668E+02</pdfrwt>
<pdfrwt beam="2">  1       22 0.13349133E+00 0.53626668E+02</pdfrwt>
<totfact> 0.91338894E-01</totfact>
</mgrwt>
</event>
<event>
 4    1  0.2489496E+000  0.8506256E+02  0.7957747E-01  0.1315269E+00
         13   -1    0    0    0    0  0.00000000000E+00  0.00000000000E+00  0.99999944177E+02  0.99999999997E+02  0.10566000000E+00 0.  1.
         22   -1    0    0    0    0 -0.00000000000E+00 -0.00000000000E+00 -0.59735564987E+02  0.59735564987E+02  0.00000000000E+00 0. -1.
         13    1    1    2    0    0  0.61632930060E+02 -0.30610787927E+02  0.25570491211E+02  0.73413211278E+02  0.10566000000E+00 0. -1.
        996    1    1    2    0    0 -0.61632930060E+02  0.30610787927E+02  0.14693887979E+02  0.86322353706E+02  0.50000000000E+02 0.  0.
<mgrwt>
<rscale>  0 0.85062556E+02</rscale>
<asrwt>0</asrwt>
<pdfrwt beam="1">  1       13 0.10000000E+01 0.85062556E+02</pdfrwt>
<pdfrwt beam="2">  1       22 0.59735576E+00 0.85062556E+02</pdfrwt>
<totfact> 0.62885679E-02</totfact>
</mgrwt>
</event>
<event>
 4    1  0.2489496E+000  0.5281266E+02  0.7957747E-01  0.1430735E+00
         13   -1    0    0    0    0  0.00000000000E+00  0.00000000000E+00  0.99999944186E+02  0.10000000001E+03  0.10566000000E+00 0.  1.
         22   -1    0    0    0    0 -0.00000000000E+00 -0.00000000000E+00 -0.13335004619E+02  0.13335004619E+02  0.00000000000E+00 0.  1.
         13    1    1    2    0    0  0.17005205912E+02  0.34114449972E-02  0.85280659191E+01  0.19024092938E+02  0.10566000000E+00 0. -1.
        996    1    1    2    0    0 -0.17005205912E+02 -0.34114449972E-02  0.78136873648E+02  0.94310911687E+02  0.50000000000E+02 0.  0.
<mgrwt>
<rscale>  0 0.52812660E+02</rscale>
<asrwt>0</asrwt>
<pdfrwt beam="1">  1       13 0.10000000E+01 0.52812660E+02</pdfrwt>
<pdfrwt beam="2">  1       22 0.13335029E+00 0.52812660E+02</pdfrwt>
<totfact> 0.91337192E-01</totfact>
</mgrwt>
</event>
<event>
 4    1  0.2489496E+000  0.5181054E+02  0.7957747E-01  0.1435814E+00
         13   -1    0    0    0    0  0.00000000000E+00  0.00000000000E+00  0.99999944176E+02  0.99999999996E+02  0.10566000000E+00 0. -1.
         22   -1    0    0    0    0 -0.00000000000E+00 -0.00000000000E+00 -0.34576600693E+02  0.34576600693E+02  0.00000000000E+00 0.  1.
         13    1    1    2    0    0 -0.78528737229E+01 -0.11075374713E+02 -0.26091879148E+02  0.29413073152E+02  0.10566000000E+00 0.  1.
        996    1    1    2    0    0  0.78528737229E+01  0.11075374713E+02  0.91515222631E+02  0.10516352754E+03  0.50000000000E+02 0.  0.
<mgrwt>
<rscale>  0 0.51810535E+02</rscale>
<asrwt>0</asrwt>
<pdfrwt beam="1">  1       13 0.10000000E+01 0.51810535E+02</pdfrwt>
<pdfrwt beam="2">  1       22 0.34576619E+00 0.51810535E+02</pdfrwt>
<totfact> 0.16048065E-01</totfact>
</mgrwt>
</event>
<event>
 4    1  0.2489496E+000  0.5458328E+02  0.7957747E-01  0.1422080E+00
         13   -1    0    0    0    0  0.00000000000E+00  0.00000000000E+00  0.99999944175E+02  0.99999999995E+02  0.10566000000E+00 0. -1.
         22   -1    0    0    0    0 -0.00000000000E+00 -0.00000000000E+00 -0.16106598059E+02  0.16106598059E+02  0.00000000000E+00 0. -1.
         13    1    1    2    0    0 -0.19836554149E+02 -0.92652879583E+01  0.95721268935E+01  0.23895004054E+02  0.10566000000E+00 0.  1.
        996    1    1    2    0    0  0.19836554149E+02  0.92652879583E+01  0.74321219222E+02  0.92211594000E+02  0.50000000000E+02 0.  0.
<mgrwt>
<rscale>  0 0.54583280E+02</rscale>
<asrwt>0</asrwt>
<pdfrwt beam="1">  1       13 0.10000000E+01 0.54583280E+02</pdfrwt>
<pdfrwt beam="2">  1       22 0.16106621E+00 0.54583280E+02</pdfrwt>
<totfact> 0.67095516E-01</totfact>
</mgrwt>
</event>
<event>
 4    1  0.2489496E+000  0.5632586E+02  0.7957747E-01  0.1413931E+00
         13   -1    0    0    0    0  0.00000000000E+00  0.00000000000E+00  0.99999944185E+02  0.10000000001E+03  0.10566000000E+00 0.  1.
         22   -1    0    0    0    0 -0.00000000000E+00 -0.00000000000E+00 -0.22708103018E+02  0.22708103018E+02  0.00000000000E+00 0.  1.
         13    1    1    2    0    0 -0.24651181576E+02 -0.80574036411E+01  0.57375547052E+02  0.62964808187E+02  0.10566000000E+00 0. -1.
        996    1    1    2    0    0  0.24651181576E+02  0.80574036411E+01  0.19916294115E+02  0.59743294835E+02  0.50000000000E+02 0.  0.
<mgrwt>
<rscale>  0 0.56325860E+02</rscale>
<asrwt>0</asrwt>
<pdfrwt beam="1">  1       13 0.10000000E+01 0.56325860E+02</pdfrwt>
<pdfrwt beam="2">  1       22 0.22708125E+00 0.56325860E+02</pdfrwt>
<totfact> 0.35824930E-01</totfact>
</mgrwt>
</event>
<event>
 4    1  0.2489496E+000  0.8503822E+02  0.7957747E-01  0.1315333E+00
         13   -1    0    0    0    0  0.00000000000E+00  0.00000000000E+00  0.99999944187E+02  0.10000000001E+03  0.10566000000E+00 0.  1.
         22   -1    0    0    0    0 -0.00000000000E+00 -0.00000000000E+00 -0.81834844187E+02  0.81834844187E+02  0.00000000000E+00 0. -1.
         13    1    1    2    0    0 -0.42592752497E+02 -0.54012553874E+02 -0.39280721297E+02  0.79211645425E+02  0.10566000000E+00 0. -1.
        996    1    1    2    0    0  0.42592752497E+02  0.54012553874E+02  0.57445821297E+02  0.10262319877E+03  0.50000000000E+02 0.  0.
<mgrwt>
<rscale>  0 0.85038218E+02</rscale>
<asrwt>0</asrwt>
<pdfrwt beam="1">  1       13 0.10000000E+01 0.85038218E+02</pdfrwt>
<pdfrwt beam="2">  1       22 0.81834849E+00 0.85038218E+02</pdfrwt>
<totfact> 0.25987455E-02</totfact>
</mgrwt>
</event>
<event>
 4    1  0.2489496E+000  0.6077063E+02  0.7957747E-01  0.1394626E+00
         13   -1    0    0    0    0  0.00000000000E+00  0.00000000000E+00  0.99999944177E+02  0.99999999997E+02  0.10566000000E+00 0.  1.
         22   -1    0    0    0    0 -0.00000000000E+00 -0.00000000000E+00 -0.52655959417E+02  0.52655959417E+02  0.00000000000E+00 0. -1.
         13    1    1    2    0    0  0.22604721108E+02  0.26116962734E+02 -0.35750221117E+02  0.49710749670E+02  0.10566000000E+00 0. -1.
        996    1    1    2    0    0 -0.22604721108E+02 -0.26116962734E+02  0.83094205878E+02  0.10294520974E+03  0.50000000000E+02 0.  0.
<mgrwt>
<rscale>  0 0.60770627E+02</rscale>
<asrwt>0</asrwt>
<pdfrwt beam="1">  1       13 0.10000000E+01 0.60770627E+02</pdfrwt>
<pdfrwt beam="2">  1       22 0.52655973E+00 0.60770627E+02</pdfrwt>
<totfact> 0.64381104E-02</totfact>
</mgrwt>
</event>
<event>
 4    1  0.2489496E+000  0.5112113E+02  0.7957747E-01  0.1439387E+00
         13   -1    0    0    0    0  0.00000000000E+00  0.00000000000E+00  0.99999944178E+02  0.99999999998E+02  0.10566000000E+00 0. -1.
         22   -1    0    0    0    0 -0.00000000000E+00 -0.00000000000E+00 -0.96577463592E+01  0.96577463592E+01  0.00000000000E+00 0. -1.
         13    1    1    2    0    0  0.39328449030E+01  0.98945820603E+01  0.20561513086E+02  0.23155064405E+02  0.10566000000E+00 0.  1.
        996    1    1    2    0    0 -0.39328449030E+01 -0.98945820603E+01  0.69780684733E+02  0.86502681952E+02  0.50000000000E+02 0.  0.
<mgrwt>
<rscale>  0 0.51121131E+02</rscale>
<asrwt>0</asrwt>
<pdfrwt beam="1">  1       13 0.10000000E+01 0.51121131E+02</pdfrwt>
<pdfrwt beam="2">  1       22 0.96577716E-01 0.51121131E+02</pdfrwt>
<totfact> 0.14792055E+00</totfact>
</mgrwt>
</event>
<event>
 4    1  0.2489496E+000  0.5211095E+02  0.7957747E-01  0.1434277E+00
         13   -1    0    0    0    0  0.00000000000E+00  0.00000000000E+00  0.99999944182E+02  0.10000000000E+03  0.10566000000E+00 0. -1.
         22   -1    0    0    0    0 -0.00000000000E+00 -0.00000000000E+00 -0.19610266602E+02  0.19610266602E+02  0.00000000000E+00 0.  1.
         13    1    1    2    0    0 -0.45031643235E+00  0.14674741257E+02 -0.82102060835E+01  0.16821696223E+02  0.10566000000E+00 0.  1.
        996    1    1    2    0    0  0.45031643235E+00 -0.14674741257E+02  0.88599883663E+02  0.10278857038E+03  0.50000000000E+02 0.  0.
<mgrwt>
<rscale>  0 0.52110947E+02</rscale>
<asrwt>0</asrwt>
<pdfrwt beam="1">  1       13 0.10000000E+01 0.52110947E+02</pdfrwt>
<pdfrwt beam="2">  1       22 0.19610289E+00 0.52110947E+02</pdfrwt>
<totfact> 0.47005429E-01</totfact>
</mgrwt>
</event>
<event>
 4    1  0.2489496E+000  0.5496650E+02  0.7957747E-01  0.1420257E+00
         13   -1    0    0    0    0  0.00000000000E+00  0.00000000000E+00  0.99999944178E+02  0.99999999998E+02  0.10566000000E+00 0.  1.
         22   -1    0    0    0    0 -0.00000000000E+00 -0.00000000000E+00 -0.15472597266E+02  0.15472597266E+02  0.00000000000E+00 0. -1.
         13    1    1    2    0    0  0.12928993755E+02 -0.18819076430E+02  0.17369665870E+02  0.28688551265E+02  0.10566000000E+00 0. -1.
        996    1    1    2    0    0 -0.12928993755E+02  0.18819076430E+02  0.67157681042E+02  0.86784046000E+02  0.50000000000E+02 0.  0.
<mgrwt>
<rscale>  0 0.54966504E+02</rscale>
<asrwt>0</asrwt>
<pdfrwt beam="1">  1       13 0.10000000E+01 0.54966504E+02</pdfrwt>
<pdfrwt beam="2">  1       22 0.15472621E+00 0.54966504E+02</pdfrwt>
<totfact> 0.71895400E-01</totfact>
</mgrwt>
</event>
<event>
 4    1  0.2489496E+000  0.5412522E+02  0.7957747E-01  0.1424282E+00
         13   -1    0    0    0    0  0.00000000000E+00  0.00000000000E+00  0.99999944178E+02  0.99999999998E+02  0.10566000000E+00 0.  1.
         22   -1    0    0    0    0 -0.00000000000E+00 -0.00000000000E+00 -0.26825367208E+02  0.26825367208E+02  0.00000000000E+00 0.  1.
         13    1    1    2    0    0  0.51251645478E+01 -0.20081633127E+02 -0.13431479792E+02  0.24697269365E+02  0.10566000000E+00 0. -1.
        996    1    1    2    0    0 -0.51251645478E+01  0.20081633127E+02  0.86606056761E+02  0.10212809784E+03  0.50000000000E+02 0.  0.
<mgrwt>
<rscale>  0 0.54125219E+02</rscale>
<asrwt>0</asrwt>
<pdfrwt beam="1">  1       13 0.10000000E+01 0.54125219E+02</pdfrwt>
<pdfrwt beam="2">  1       22 0.26825388E+00 0.54125219E+02</pdfrwt>
<totfact> 0.25745524E-01</totfact>
</mgrwt>
</event>
<event>
 4    1  0.2489496E+000  0.5325387E+02  0.7957747E-01  0.1428542E+00
         13   -1    0    0    0    0  0.00000000000E+00  0.00000000000E+00  0.99999944181E+02  0.10000000000E+03  0.10566000000E+00 0.  1.
         22   -1    0    0    0    0 -0.00000000000E+00 -0.00000000000E+00 -0.12857197405E+02  0.12857197405E+02  0.00000000000E+00 0. -1.
         13    1    1    2    0    0 -0.18211226549E+02 -0.20797990287E+01  0.19422992955E+02  0.26706518976E+02  0.10566000000E+00 0. -1.
        996    1    1    2    0    0  0.18211226549E+02  0.20797990287E+01  0.67719753820E+02  0.86150678430E+02  0.50000000000E+02 0.  0.
<mgrwt>
<rscale>  0 0.53253867E+02</rscale>
<asrwt>0</asrwt>
<pdfrwt beam="1">  1       13 0.10000000E+01 0.53253867E+02</pdfrwt>
<pdfrwt beam="2">  1       22 0.12857222E+00 0.53253867E+02</pdfrwt>
<totfact> 0.96849910E-01</totfact>
</mgrwt>
</event>
<event>
 4    1  0.2489496E+000  0.5119633E+02  0.7957747E-01  0.1438994E+00
         13   -1    0    0    0    0  0.00000000000E+00  0.00000000000E+00  0.99999944177E+02  0.99999999998E+02  0.10566000000E+00 0. -1.
         22   -1    0    0    0    0 -0.00000000000E+00 -0.00000000000E+00 -0.18437851443E+02  0.18437851443E+02  0.00000000000E+00 0.  1.
         13    1    1    2    0    0  0.66383343771E+01  0.87747619108E+01 -0.91268029099E+01  0.14295930375E+02  0.10566000000E+00 0.  1.
        996    1    1    2    0    0 -0.66383343771E+01 -0.87747619108E+01  0.90688895645E+02  0.10414192107E+03  0.50000000000E+02 0.  0.
<mgrwt>
<rscale>  0 0.51196327E+02</rscale>
<asrwt>0</asrwt>
<pdfrwt beam="1">  1       13 0.10000000E+01 0.51196327E+02</pdfrwt>
<pdfrwt beam="2">  1       22 0.18437874E+00 0.51196327E+02</pdfrwt>
<totfact> 0.52532995E-01</totfact>
</mgrwt>
</event>
<event>
 4    1  0.2489496E+000  0.5107659E+02  0.7957747E-01  0.1439620E+00
         13   -1    0    0    0    0  0.00000000000E+00  0.00000000000E+00  0.99999944182E+02  0.10000000000E+03  0.10566000000E+00 0. -1.
         22   -1    0    0    0    0 -0.00000000000E+00 -0.00000000000E+00 -0.17595202191E+02  0.17595202191E+02  0.00000000000E+00 0.  1.
         13    1    1    2    0    0  0.12833249189E+01 -0.10352359002E+02 -0.84116765222E+01  0.13400959880E+02  0.10566000000E+00 0.  1.
        996    1    1    2    0    0 -0.12833249189E+01  0.10352359002E+02  0.90816418513E+02  0.10419424231E+03  0.50000000000E+02 0.  0.
<mgrwt>
<rscale>  0 0.51076592E+02</rscale>
<asrwt>0</asrwt>
<pdfrwt beam="1">  1       13 0.10000000E+01 0.51076592E+02</pdfrwt>
<pdfrwt beam="2">  1       22 0.17595225E+00 0.51076592E+02</pdfrwt>
<totfact> 0.57114978E-01</totfact>
</mgrwt>
</event>
<event>
 4    1  0.2489496E+000  0.5104278E+02  0.7957747E-01  0.1439797E+00
         13   -1    0    0    0    0  0.00000000000E+00  0.00000000000E+00  0.99999944173E+02  0.99999999993E+02  0.10566000000E+00 0.  1.
         22   -1    0    0    0    0 -0.00000000000E+00 -0.00000000000E+00 -0.94245912977E+01  0.94245912977E+01  0.00000000000E+00 0.  1.
         13    1    1    2    0    0  0.73416347086E+01 -0.71739425469E+01  0.13028725777E+02  0.16586859596E+02  0.10566000000E+00 0. -1.
        996    1    1    2    0    0 -0.73416347086E+01  0.71739425469E+01  0.77546627099E+02  0.92837731695E+02  0.50000000000E+02 0.  0.
<mgrwt>
<rscale>  0 0.51042777E+02</rscale>
<asrwt>0</asrwt>
<pdfrwt beam="1">  1       13 0.10000000E+01 0.51042777E+02</pdfrwt>
<pdfrwt beam="2">  1       22 0.94246166E-01 0.51042777E+02</pdfrwt>
<totfact> 0.15315231E+00</totfact>
</mgrwt>
</event>
<event>
 4    1  0.2489496E+000  0.5223709E+02  0.7957747E-01  0.1433636E+00
         13   -1    0    0    0    0  0.00000000000E+00  0.00000000000E+00  0.99999944177E+02  0.99999999998E+02  0.10566000000E+00 0. -1.
         22   -1    0    0    0    0 -0.00000000000E+00 -0.00000000000E+00 -0.11345798802E+02  0.11345798802E+02  0.00000000000E+00 0. -1.
         13    1    1    2    0    0 -0.10698846800E+01 -0.15085381035E+02  0.19268865660E+02  0.24495177527E+02  0.10566000000E+00 0.  1.
        996    1    1    2    0    0  0.10698846800E+01  0.15085381035E+02  0.69385279715E+02  0.86850621272E+02  0.50000000000E+02 0.  0.
<mgrwt>
<rscale>  0 0.52237088E+02</rscale>
<asrwt>0</asrwt>
<pdfrwt beam="1">  1       13 0.10000000E+01 0.52237088E+02</pdfrwt>
<pdfrwt beam="2">  1       22 0.11345824E+00 0.52237088E+02</pdfrwt>
<totfact> 0.11709321E+00</totfact>
</mgrwt>
</event>
<event>
 4    1  0.2489496E+000  0.5997738E+02  0.7957747E-01  0.1397927E+00
         13   -1    0    0    0    0  0.00000000000E+00  0.00000000000E+00  0.99999944174E+02  0.99999999995E+02  0.10566000000E+00 0.  1.
         22   -1    0    0    0    0 -0.00000000000E+00 -0.00000000000E+00 -0.33874728398E+02  0.33874728398E+02  0.00000000000E+00 0. -1.
         13    1    1    2    0    0 -0.33092822006E+02  0.14669009611E+01 -0.12131943690E+02  0.35277214863E+02  0.10566000000E+00 0. -1.
        996    1    1    2    0    0  0.33092822006E+02 -0.14669009611E+01  0.78257159466E+02  0.98597513531E+02  0.50000000000E+02 0.  0.
<mgrwt>
<rscale>  0 0.59977385E+02</rscale>
<asrwt>0</asrwt>
<pdfrwt beam="1">  1       13 0.10000000E+01 0.59977385E+02</pdfrwt>
<pdfrwt beam="2">  1       22 0.33874747E+00 0.59977385E+02</pdfrwt>
<totfact> 0.16772710E-01</totfact>
</mgrwt>
</event>
<event>
 4    1  0.2489496E+000  0.5112210E+02  0.7957747E-01  0.1439382E+00
         13   -1    0    0    0    0  0.00000000000E+00  0.00000000000E+00  0.99999944181E+02  0.10000000000E+03  0.10566000000E+00 0.  1.
         22   -1    0    0    0    0 -0.00000000000E+00 -0.00000000000E+00 -0.95431636071E+01  0.95431636071E+01  0.00000000000E+00 0.  1.
         13    1    1    2    0    0  0.45623175449E+01  0.96257199224E+01  0.14890160929E+02  0.18308393756E+02  0.10566000000E+00 0. -1.
        996    1    1    2    0    0 -0.45623175449E+01 -0.96257199224E+01  0.75566619645E+02  0.91234769852E+02  0.50000000000E+02 0.  0.
<mgrwt>
<rscale>  0 0.51122101E+02</rscale>
<asrwt>0</asrwt>
<pdfrwt beam="1">  1       13 0.10000000E+01 0.51122101E+02</pdfrwt>
<pdfrwt beam="2">  1       22 0.95431889E-01 0.51122101E+02</pdfrwt>
<totfact> 0.15047182E+00</totfact>
</mgrwt>
</event>
<event>
 4    1  0.2489496E+000  0.5271221E+02  0.7957747E-01  0.1431238E+00
         13   -1    0    0    0    0  0.00000000000E+00  0.00000000000E+00  0.99999944177E+02  0.99999999997E+02  0.10566000000E+00 0. -1.
         22   -1    0    0    0    0 -0.00000000000E+00 -0.00000000000E+00 -0.19480827064E+02  0.19480827064E+02  0.00000000000E+00 0.  1.
         13    1    1    2    0    0 -0.62693277521E+01 -0.15468446055E+02 -0.63596002392E+01  0.17861494144E+02  0.10566000000E+00 0.  1.
        996    1    1    2    0    0  0.62693277521E+01  0.15468446055E+02  0.86878717352E+02  0.10161933292E+03  0.50000000000E+02 0.  0.
<mgrwt>
<rscale>  0 0.52712212E+02</rscale>
<asrwt>0</asrwt>
<pdfrwt beam="1">  1       13 0.10000000E+01 0.52712212E+02</pdfrwt>
<pdfrwt beam="2">  1       22 0.19480850E+00 0.52712212E+02</pdfrwt>
<totfact> 0.47636582E-01</totfact>
</mgrwt>
</event>
<event>
 4    1  0.2489496E+000  0.5134251E+02  0.7957747E-01  0.1438232E+00
         13   -1    0    0    0    0  0.00000000000E+00  0.00000000000E+00  0.99999944182E+02  0.10000000000E+03  0.10566000000E+00 0.  1.
         22   -1    0    0    0    0 -0.00000000000E+00 -0.00000000000E+00 -0.15129760462E+02  0.15129760462E+02  0.00000000000E+00 0. -1.
         13    1    1    2    0    0  0.10292751820E+02  0.54875189223E+01 -0.41365353163E+01  0.12376416784E+02  0.10566000000E+00 0. -1.
        996    1    1    2    0    0 -0.10292751820E+02 -0.54875189223E+01  0.89006719037E+02  0.10275334368E+03  0.50000000000E+02 0.  0.
<mgrwt>
<rscale>  0 0.51342513E+02</rscale>
<asrwt>0</asrwt>
<pdfrwt beam="1">  1       13 0.10000000E+01 0.51342513E+02</pdfrwt>
<pdfrwt beam="2">  1       22 0.15129784E+00 0.51342513E+02</pdfrwt>
<totfact> 0.74118512E-01</totfact>
</mgrwt>
</event>
<event>
 4    1  0.2489496E+000  0.5195289E+02  0.7957747E-01  0.1435084E+00
         13   -1    0    0    0    0  0.00000000000E+00  0.00000000000E+00  0.99999944186E+02  0.10000000001E+03  0.10566000000E+00 0. -1.
         22   -1    0    0    0    0 -0.00000000000E+00 -0.00000000000E+00 -0.73802854403E+02  0.73802854403E+02  0.00000000000E+00 0.  1.
         13    1    1    2    0    0 -0.10856779921E+02 -0.90129552803E+01 -0.66261705475E+02  0.67747529915E+02  0.10566000000E+00 0.  1.
        996    1    1    2    0    0  0.10856779921E+02  0.90129552803E+01  0.92458795257E+02  0.10605532449E+03  0.50000000000E+02 0.  0.
<mgrwt>
<rscale>  0 0.51952892E+02</rscale>
<asrwt>0</asrwt>
<pdfrwt beam="1">  1       13 0.10000000E+01 0.51952892E+02</pdfrwt>
<pdfrwt beam="2">  1       22 0.73802862E+00 0.51952892E+02</pdfrwt>
<totfact> 0.54705629E-02</totfact>
</mgrwt>
</event>
<event>
 4    1  0.2489496E+000  0.5160593E+02  0.7957747E-01  0.1436867E+00
         13   -1    0    0    0    0  0.00000000000E+00  0.00000000000E+00  0.99999944184E+02  0.10000000000E+03  0.10566000000E+00 0.  1.
         22   -1    0    0    0    0 -0.00000000000E+00 -0.00000000000E+00 -0.16874258061E+02  0.16874258061E+02  0.00000000000E+00 0. -1.
         13    1    1    2    0    0 -0.16806795617E+01  0.12662841375E+02 -0.58232650302E+01  0.14039010475E+02  0.10566000000E+00 0. -1.
        996    1    1    2    0    0  0.16806795617E+01 -0.12662841375E+02  0.88948951154E+02  0.10283524759E+03  0.50000000000E+02 0.  0.
<mgrwt>
<rscale>  0 0.51605932E+02</rscale>
<asrwt>0</asrwt>
<pdfrwt beam="1">  1       13 0.10000000E+01 0.51605932E+02</pdfrwt>
<pdfrwt beam="2">  1       22 0.16874281E+00 0.51605932E+02</pdfrwt>
<totfact> 0.61545959E-01</totfact>
</mgrwt>
</event>
<event>
 4    1  0.2489496E+000  0.5148669E+02  0.7957747E-01  0.1437484E+00
         13   -1    0    0    0    0  0.00000000000E+00  0.00000000000E+00  0.99999944179E+02  0.10000000000E+03  0.10566000000E+00 0. -1.
         22   -1    0    0    0    0 -0.00000000000E+00 -0.00000000000E+00 -0.10274390761E+02  0.10274390761E+02  0.00000000000E+00 0. -1.
         13    1    1    2    0    0 -0.10787781090E+02  0.58738961648E+01  0.13104912297E+02  0.17961869818E+02  0.10566000000E+00 0.  1.
        996    1    1    2    0    0  0.10787781090E+02 -0.58738961648E+01  0.76620641122E+02  0.92312520943E+02  0.50000000000E+02 0.  0.
<mgrwt>
<rscale>  0 0.51486686E+02</rscale>
<asrwt>0</asrwt>
<pdfrwt beam="1">  1       13 0.10000000E+01 0.51486686E+02</pdfrwt>
<pdfrwt beam="2">  1       22 0.10274416E+00 0.51486686E+02</pdfrwt>
<totfact> 0.13537163E+00</totfact>
</mgrwt>
</event>
<event>
 4    1  0.2489496E+000  0.5131485E+02  0.7957747E-01  0.1438376E+00
         13   -1    0    0    0    0  0.00000000000E+00  0.00000000000E+00  0.99999944177E+02  0.99999999997E+02  0.10566000000E+00 0. -1.
         22   -1    0    0    0    0 -0.00000000000E+00 -0.00000000000E+00 -0.13875290120E+02  0.13875290120E+02  0.00000000000E+00 0. -1.
         13    1    1    2    0    0  0.86131898160E+01  0.76829099593E+01  0.49507953408E+02  0.50835644571E+02  0.10566000000E+00 0.  1.
        996    1    1    2    0    0 -0.86131898160E+01 -0.76829099593E+01  0.36616700649E+02  0.63039645547E+02  0.50000000000E+02 0.  0.
<mgrwt>
<rscale>  0 0.51314853E+02</rscale>
<asrwt>0</asrwt>
<pdfrwt beam="1">  1       13 0.10000000E+01 0.51314853E+02</pdfrwt>
<pdfrwt beam="2">  1       22 0.13875314E+00 0.51314853E+02</pdfrwt>
<totfact> 0.85432745E-01</totfact>
</mgrwt>
</event>
<event>
 4    1  0.2489496E+000  0.5635310E+02  0.7957747E-01  0.1413806E+00
         13   -1    0    0    0    0  0.00000000000E+00  0.00000000000E+00  0.99999944177E+02  0.99999999997E+02  0.10566000000E+00 0. -1.
         22   -1    0    0    0    0 -0.00000000000E+00 -0.00000000000E+00 -0.38317840566E+02  0.38317840566E+02  0.00000000000E+00 0. -1.
         13    1    1    2    0    0  0.21710295584E+02 -0.14294595054E+02 -0.24254464989E+02  0.35552251941E+02  0.10566000000E+00 0.  1.
        996    1    1    2    0    0 -0.21710295584E+02  0.14294595054E+02  0.85936568600E+02  0.10276558862E+03  0.50000000000E+02 0.  0.
<mgrwt>
<rscale>  0 0.56353104E+02</rscale>
<asrwt>0</asrwt>
<pdfrwt beam="1">  1       13 0.10000000E+01 0.56353104E+02</pdfrwt>
<pdfrwt beam="2">  1       22 0.38317858E+00 0.56353104E+02</pdfrwt>
<totfact> 0.13440123E-01</totfact>
</mgrwt>
</event>
<event>
 4    1  0.2489496E+000  0.5106471E+02  0.7957747E-01  0.1439682E+00
         13   -1    0    0    0    0  0.00000000000E+00  0.00000000000E+00  0.99999944173E+02  0.99999999994E+02  0.10566000000E+00 0.  1.
         22   -1    0    0    0    0 -0.00000000000E+00 -0.00000000000E+00 -0.17242303949E+02  0.17242303949E+02  0.00000000000E+00 0. -1.
         13    1    1    2    0    0 -0.43748849261E+01 -0.94056074704E+01 -0.80032895725E+01  0.13102247060E+02  0.10566000000E+00 0. -1.
        996    1    1    2    0    0  0.43748849261E+01  0.94056074704E+01  0.90760929797E+02  0.10414005688E+03  0.50000000000E+02 0.  0.
<mgrwt>
<rscale>  0 0.51064715E+02</rscale>
<asrwt>0</asrwt>
<pdfrwt beam="1">  1       13 0.10000000E+01 0.51064715E+02</pdfrwt>
<pdfrwt beam="2">  1       22 0.17242327E+00 0.51064715E+02</pdfrwt>
<totfact> 0.59197390E-01</totfact>
</mgrwt>
</event>
<event>
 4    1  0.2489496E+000  0.5112274E+02  0.7957747E-01  0.1439378E+00
         13   -1    0    0    0    0  0.00000000000E+00  0.00000000000E+00  0.99999944176E+02  0.99999999997E+02  0.10566000000E+00 0. -1.
         22   -1    0    0    0    0 -0.00000000000E+00 -0.00000000000E+00 -0.21086927357E+02  0.21086927357E+02  0.00000000000E+00 0.  1.
         13    1    1    2    0    0  0.60682544786E+01 -0.87584832301E+01 -0.12453644259E+02  0.16390215382E+02  0.10566000000E+00 0.  1.
        996    1    1    2    0    0 -0.60682544786E+01  0.87584832301E+01  0.91366661079E+02  0.10469671197E+03  0.50000000000E+02 0.  0.
<mgrwt>
<rscale>  0 0.51122742E+02</rscale>
<asrwt>0</asrwt>
<pdfrwt beam="1">  1       13 0.10000000E+01 0.51122742E+02</pdfrwt>
<pdfrwt beam="2">  1       22 0.21086949E+00 0.51122742E+02</pdfrwt>
<totfact> 0.40948672E-01</totfact>
</mgrwt>
</event>
<event>
 4    1  0.2489496E+000  0.5224962E+02  0.7957747E-01  0.1433572E+00
         13   -1    0    0    0    0  0.00000000000E+00  0.00000000000E+00  0.99999944182E+02  0.10000000000E+03  0.10566000000E+00 0.  1.
         22   -1    0    0    0    0 -0.00000000000E+00 -0.00000000000E+00 -0.11678082157E+02  0.11678082157E+02  0.00000000000E+00 0.  1.
         13    1    1    2    0    0 -0.11907559754E+01  0.15119671572E+02  0.28238139959E+02  0.32053487807E+02  0.10566000000E+00 0. -1.
        996    1    1    2    0    0  0.11907559754E+01 -0.15119671572E+02  0.60083722066E+02  0.79624594351E+02  0.50000000000E+02 0.  0.
<mgrwt>
<rscale>  0 0.52249616E+02</rscale>
<asrwt>0</asrwt>
<pdfrwt beam="1">  1       13 0.10000000E+01 0.52249616E+02</pdfrwt>
<pdfrwt beam="2">  1       22 0.11678107E+00 0.52249616E+02</pdfrwt>
<totfact> 0.11210486E+00</totfact>
</mgrwt>
</event>
<event>
 4    1  0.2489496E+000  0.5173064E+02  0.7957747E-01  0.1436224E+00
         13   -1    0    0    0    0  0.00000000000E+00  0.00000000000E+00  0.99999944181E+02  0.10000000000E+03  0.10566000000E+00 0. -1.
         22   -1    0    0    0    0 -0.00000000000E+00 -0.00000000000E+00 -0.11134216015E+02  0.11134216015E+02  0.00000000000E+00 0. -1.
         13    1    1    2    0    0 -0.35419067675E+00  0.13263993041E+02  0.92004878243E+01  0.16146798527E+02  0.10566000000E+00 0.  1.
        996    1    1    2    0    0  0.35419067675E+00 -0.13263993041E+02  0.79665240342E+02  0.94987417489E+02  0.50000000000E+02 0.  0.
<mgrwt>
<rscale>  0 0.51730639E+02</rscale>
<asrwt>0</asrwt>
<pdfrwt beam="1">  1       13 0.10000000E+01 0.51730639E+02</pdfrwt>
<pdfrwt beam="2">  1       22 0.11134241E+00 0.51730639E+02</pdfrwt>
<totfact> 0.12030166E+00</totfact>
</mgrwt>
</event>
<event>
 4    1  0.2489496E+000  0.5148815E+02  0.7957747E-01  0.1437476E+00
         13   -1    0    0    0    0  0.00000000000E+00  0.00000000000E+00  0.99999944174E+02  0.99999999995E+02  0.10566000000E+00 0.  1.
         22   -1    0    0    0    0 -0.00000000000E+00 -0.00000000000E+00 -0.13374372589E+02  0.13374372589E+02  0.00000000000E+00 0. -1.
         13    1    1    2    0    0 -0.12124404441E+02 -0.20069812458E+01 -0.35720308589E+00  0.12295036188E+02  0.10566000000E+00 0. -1.
        996    1    1    2    0    0  0.12124404441E+02  0.20069812458E+01  0.86982774671E+02  0.10107933640E+03  0.50000000000E+02 0.  0.
<mgrwt>
<rscale>  0 0.51488146E+02</rscale>
<asrwt>0</asrwt>
<pdfrwt beam="1">  1       13 0.10000000E+01 0.51488146E+02</pdfrwt>
<pdfrwt beam="2">  1       22 0.13374397E+00 0.51488146E+02</pdfrwt>
<totfact> 0.90652905E-01</totfact>
</mgrwt>
</event>
<event>
 4    1  0.2489496E+000  0.6289279E+02  0.7957747E-01  0.1386078E+00
         13   -1    0    0    0    0  0.00000000000E+00  0.00000000000E+00  0.99999944171E+02  0.99999999991E+02  0.10566000000E+00 0. -1.
         22   -1    0    0    0    0 -0.00000000000E+00 -0.00000000000E+00 -0.60182821668E+02  0.60182821668E+02  0.00000000000E+00 0.  1.
         13    1    1    2    0    0 -0.35599810010E+01 -0.37984595225E+02 -0.42159997187E+02  0.56859295335E+02  0.10566000000E+00 0.  1.
        996    1    1    2    0    0  0.35599810010E+01  0.37984595225E+02  0.81977119690E+02  0.10332352632E+03  0.50000000000E+02 0.  0.
<mgrwt>
<rscale>  0 0.62892789E+02</rscale>
<asrwt>0</asrwt>
<pdfrwt beam="1">  1       13 0.10000000E+01 0.62892789E+02</pdfrwt>
<pdfrwt beam="2">  1       22 0.60182833E+00 0.62892789E+02</pdfrwt>
<totfact> 0.64318009E-02</totfact>
</mgrwt>
</event>
<event>
 4    1  0.2489496E+000  0.5513302E+02  0.7957747E-01  0.1419471E+00
         13   -1    0    0    0    0  0.00000000000E+00  0.00000000000E+00  0.99999944183E+02  0.10000000000E+03  0.10566000000E+00 0. -1.
         22   -1    0    0    0    0 -0.00000000000E+00 -0.00000000000E+00 -0.33573929735E+02  0.33573929735E+02  0.00000000000E+00 0.  1.
         13    1    1    2    0    0 -0.20162778156E+02  0.11537411765E+02 -0.20271030366E+02  0.30831401676E+02  0.10566000000E+00 0.  1.
        996    1    1    2    0    0  0.20162778156E+02 -0.11537411765E+02  0.86697044814E+02  0.10274252806E+03  0.50000000000E+02 0.  0.
<mgrwt>
<rscale>  0 0.55133016E+02</rscale>
<asrwt>0</asrwt>
<pdfrwt beam="1">  1       13 0.10000000E+01 0.55133016E+02</pdfrwt>
<pdfrwt beam="2">  1       22 0.33573948E+00 0.55133016E+02</pdfrwt>
<totfact> 0.16956062E-01</totfact>
</mgrwt>
</event>
<event>
 4    1  0.2489496E+000  0.5167661E+02  0.7957747E-01  0.1436503E+00
         13   -1    0    0    0    0  0.00000000000E+00  0.00000000000E+00  0.99999944181E+02  0.10000000000E+03  0.10566000000E+00 0. -1.
         22   -1    0    0    0    0 -0.00000000000E+00 -0.00000000000E+00 -0.10550440414E+02  0.10550440414E+02  0.00000000000E+00 0. -1.
         13    1    1    2    0    0 -0.12410431729E+02  0.40563004329E+01  0.21962394199E+02  0.25550544258E+02  0.10566000000E+00 0.  1.
        996    1    1    2    0    0  0.12410431729E+02 -0.40563004329E+01  0.67487109568E+02  0.84999896157E+02  0.50000000000E+02 0.  0.
<mgrwt>
<rscale>  0 0.51676614E+02</rscale>
<asrwt>0</asrwt>
<pdfrwt beam="1">  1       13 0.10000000E+01 0.51676614E+02</pdfrwt>
<pdfrwt beam="2">  1       22 0.10550465E+00 0.51676614E+02</pdfrwt>
<totfact> 0.13027568E+00</totfact>
</mgrwt>
</event>
<event>
 4    1  0.2489496E+000  0.5790416E+02  0.7957747E-01  0.1406844E+00
         13   -1    0    0    0    0  0.00000000000E+00  0.00000000000E+00  0.99999944184E+02  0.10000000000E+03  0.10566000000E+00 0. -1.
         22   -1    0    0    0    0 -0.00000000000E+00 -0.00000000000E+00 -0.29777664832E+02  0.29777664832E+02  0.00000000000E+00 0.  1.
         13    1    1    2    0    0 -0.13341837863E+02  0.25978578294E+02 -0.99750292236E+01  0.30861035948E+02  0.10566000000E+00 0.  1.
        996    1    1    2    0    0  0.13341837863E+02 -0.25978578294E+02  0.80197308576E+02  0.98916628888E+02  0.50000000000E+02 0.  0.
<mgrwt>
<rscale>  0 0.57904155E+02</rscale>
<asrwt>0</asrwt>
<pdfrwt beam="1">  1       13 0.10000000E+01 0.57904155E+02</pdfrwt>
<pdfrwt beam="2">  1       22 0.29777684E+00 0.57904155E+02</pdfrwt>
<totfact> 0.21150066E-01</totfact>
</mgrwt>
</event>
<event>
 4    1  0.2489496E+000  0.5484010E+02  0.7957747E-01  0.1420857E+00
         13   -1    0    0    0    0  0.00000000000E+00  0.00000000000E+00  0.99999944171E+02  0.99999999991E+02  0.10566000000E+00 0. -1.
         22   -1    0    0    0    0 -0.00000000000E+00 -0.00000000000E+00 -0.57010055026E+02  0.57010055026E+02  0.00000000000E+00 0.  1.
         13    1    1    2    0    0 -0.20227972643E+02 -0.99128971683E+01 -0.46719241627E+02  0.51866512412E+02  0.10566000000E+00 0.  1.
        996    1    1    2    0    0  0.20227972643E+02  0.99128971683E+01  0.89709130773E+02  0.10514354260E+03  0.50000000000E+02 0.  0.
<mgrwt>
<rscale>  0 0.54840099E+02</rscale>
<asrwt>0</asrwt>
<pdfrwt beam="1">  1       13 0.10000000E+01 0.54840099E+02</pdfrwt>
<pdfrwt beam="2">  1       22 0.57010067E+00 0.54840099E+02</pdfrwt>
<totfact> 0.57857126E-02</totfact>
</mgrwt>
</event>
<event>
 4    1  0.2489496E+000  0.6299987E+02  0.7957747E-01  0.1385657E+00
         13   -1    0    0    0    0  0.00000000000E+00  0.00000000000E+00  0.99999944175E+02  0.99999999995E+02  0.10566000000E+00 0.  1.
         22   -1    0    0    0    0 -0.00000000000E+00 -0.00000000000E+00 -0.36158232402E+02  0.36158232402E+02  0.00000000000E+00 0. -1.
         13    1    1    2    0    0 -0.37342077995E+01  0.38144983860E+02 -0.94859297260E+01  0.39483897077E+02  0.10566000000E+00 0. -1.
        996    1    1    2    0    0  0.37342077995E+01 -0.38144983860E+02  0.73327641499E+02  0.96674335319E+02  0.50000000000E+02 0.  0.
<mgrwt>
<rscale>  0 0.62999874E+02</rscale>
<asrwt>0</asrwt>
<pdfrwt beam="1">  1       13 0.10000000E+01 0.62999874E+02</pdfrwt>
<pdfrwt beam="2">  1       22 0.36158250E+00 0.62999874E+02</pdfrwt>
<totfact> 0.14990481E-01</totfact>
</mgrwt>
</event>
<event>
 4    1  0.2489496E+000  0.5966921E+02  0.7957747E-01  0.1399225E+00
         13   -1    0    0    0    0  0.00000000000E+00  0.00000000000E+00  0.99999944171E+02  0.99999999991E+02  0.10566000000E+00 0.  1.
         22   -1    0    0    0    0 -0.00000000000E+00 -0.00000000000E+00 -0.24912327603E+02  0.24912327603E+02  0.00000000000E+00 0. -1.
         13    1    1    2    0    0  0.14719777073E+02 -0.29047243206E+02  0.51328172570E+01  0.32966212279E+02  0.10566000000E+00 0. -1.
        996    1    1    2    0    0 -0.14719777073E+02  0.29047243206E+02  0.69954799311E+02  0.91946115315E+02  0.50000000000E+02 0.  0.
<mgrwt>
<rscale>  0 0.59669206E+02</rscale>
<asrwt>0</asrwt>
<pdfrwt beam="1">  1       13 0.10000000E+01 0.59669206E+02</pdfrwt>
<pdfrwt beam="2">  1       22 0.24912349E+00 0.59669206E+02</pdfrwt>
<totfact> 0.30018132E-01</totfact>
</mgrwt>
</event>
<event>
 4    1  0.2489496E+000  0.5100327E+02  0.7957747E-01  0.1440004E+00
         13   -1    0    0    0    0  0.00000000000E+00  0.00000000000E+00  0.99999944182E+02  0.10000000000E+03  0.10566000000E+00 0. -1.
         22   -1    0    0    0    0 -0.00000000000E+00 -0.00000000000E+00 -0.11912605542E+02  0.11912605542E+02  0.00000000000E+00 0.  1.
         13    1    1    2    0    0 -0.88162066626E+01 -0.48587957519E+01 -0.66777208224E-01  0.10067225005E+02  0.10566000000E+00 0.  1.
        996    1    1    2    0    0  0.88162066626E+01  0.48587957519E+01  0.88154115849E+02  0.10184538054E+03  0.50000000000E+02 0.  0.
<mgrwt>
<rscale>  0 0.51003268E+02</rscale>
<asrwt>0</asrwt>
<pdfrwt beam="1">  1       13 0.10000000E+01 0.51003268E+02</pdfrwt>
<pdfrwt beam="2">  1       22 0.11912630E+00 0.51003268E+02</pdfrwt>
<totfact> 0.10845779E+00</totfact>
</mgrwt>
</event>
<event>
 4    1  0.2489496E+000  0.5131967E+02  0.7957747E-01  0.1438351E+00
         13   -1    0    0    0    0  0.00000000000E+00  0.00000000000E+00  0.99999944182E+02  0.10000000000E+03  0.10566000000E+00 0. -1.
         22   -1    0    0    0    0 -0.00000000000E+00 -0.00000000000E+00 -0.12619304653E+02  0.12619304653E+02  0.00000000000E+00 0. -1.
         13    1    1    2    0    0 -0.19046490923E+01  0.11405278101E+02  0.43772232983E+02  0.45273917448E+02  0.10566000000E+00 0.  1.
        996    1    1    2    0    0  0.19046490923E+01 -0.11405278101E+02  0.43608406545E+02  0.67345387208E+02  0.50000000000E+02 0.  0.
<mgrwt>
<rscale>  0 0.51319665E+02</rscale>
<asrwt>0</asrwt>
<pdfrwt beam="1">  1       13 0.10000000E+01 0.51319665E+02</pdfrwt>
<pdfrwt beam="2">  1       22 0.12619329E+00 0.51319665E+02</pdfrwt>
<totfact> 0.99303235E-01</totfact>
</mgrwt>
</event>
<event>
 4    1  0.2489496E+000  0.5109604E+02  0.7957747E-01  0.1439518E+00
         13   -1    0    0    0    0  0.00000000000E+00  0.00000000000E+00  0.99999944179E+02  0.99999999999E+02  0.10566000000E+00 0. -1.
         22   -1    0    0    0    0 -0.00000000000E+00 -0.00000000000E+00 -0.95328592117E+01  0.95328592117E+01  0.00000000000E+00 0. -1.
         13    1    1    2    0    0  0.12660552357E+01  0.10449973426E+02  0.18232282763E+02  0.21053079091E+02  0.10566000000E+00 0.  1.
        996    1    1    2    0    0 -0.12660552357E+01 -0.10449973426E+02  0.72234802204E+02  0.88479780119E+02  0.50000000000E+02 0.  0.
<mgrwt>
<rscale>  0 0.51096035E+02</rscale>
<asrwt>0</asrwt>
<pdfrwt beam="1">  1       13 0.10000000E+01 0.51096035E+02</pdfrwt>
<pdfrwt beam="2">  1       22 0.95328845E-01 0.51096035E+02</pdfrwt>
<totfact> 0.15069474E+00</totfact>
</mgrwt>
</event>
<event>
 4    1  0.2489496E+000  0.7950869E+02  0.7957747E-01  0.1330451E+00
         13   -1    0    0    0    0  0.00000000000E+00  0.00000000000E+00  0.99999944181E+02  0.10000000000E+03  0.10566000000E+00 0.  1.
         22   -1    0    0    0    0 -0.00000000000E+00 -0.00000000000E+00 -0.53933261935E+02  0.53933261935E+02  0.00000000000E+00 0. -1.
         13    1    1    2    0    0 -0.60765951856E+02 -0.11363605983E+02 -0.44172924859E+00  0.61821021786E+02  0.10566000000E+00 0. -1.
        996    1    1    2    0    0  0.60765951856E+02  0.11363605983E+02  0.46508411495E+02  0.92112240151E+02  0.50000000000E+02 0.  0.
<mgrwt>
<rscale>  0 0.79508694E+02</rscale>
<asrwt>0</asrwt>
<pdfrwt beam="1">  1       13 0.10000000E+01 0.79508694E+02</pdfrwt>
<pdfrwt beam="2">  1       22 0.53933275E+00 0.79508694E+02</pdfrwt>
<totfact> 0.61209587E-02</totfact>
</mgrwt>
</event>
<event>
 4    1  0.2489496E+000  0.7205572E+02  0.7957747E-01  0.1353239E+00
         13   -1    0    0    0    0  0.00000000000E+00  0.00000000000E+00  0.99999944186E+02  0.10000000001E+03  0.10566000000E+00 0.  1.
         22   -1    0    0    0    0 -0.00000000000E+00 -0.00000000000E+00 -0.45101049423E+02  0.45101049423E+02  0.00000000000E+00 0. -1.
         13    1    1    2    0    0 -0.50020503344E+02  0.13783176573E+02 -0.39960154015E+01  0.52038505113E+02  0.10566000000E+00 0. -1.
        996    1    1    2    0    0  0.50020503344E+02 -0.13783176573E+02  0.58894910165E+02  0.93062544316E+02  0.50000000000E+02 0.  0.
<mgrwt>
<rscale>  0 0.72055719E+02</rscale>
<asrwt>0</asrwt>
<pdfrwt beam="1">  1       13 0.10000000E+01 0.72055719E+02</pdfrwt>
<pdfrwt beam="2">  1       22 0.45101065E+00 0.72055719E+02</pdfrwt>
<totfact> 0.97077236E-02</totfact>
</mgrwt>
</event>
<event>
 4    1  0.2489496E+000  0.5508794E+02  0.7957747E-01  0.1419683E+00
         13   -1    0    0    0    0  0.00000000000E+00  0.00000000000E+00  0.99999944180E+02  0.10000000000E+03  0.10566000000E+00 0. -1.
         22   -1    0    0    0    0 -0.00000000000E+00 -0.00000000000E+00 -0.20372889178E+02  0.20372889178E+02  0.00000000000E+00 0.  1.
         13    1    1    2    0    0 -0.53683744764E+01  0.22491365423E+02 -0.50841247660E+00  0.23128999338E+02  0.10566000000E+00 0.  1.
        996    1    1    2    0    0  0.53683744764E+01 -0.22491365423E+02  0.80135467479E+02  0.97243889840E+02  0.50000000000E+02 0.  0.
<mgrwt>
<rscale>  0 0.55087938E+02</rscale>
<asrwt>0</asrwt>
<pdfrwt beam="1">  1       13 0.10000000E+01 0.55087938E+02</pdfrwt>
<pdfrwt beam="2">  1       22 0.20372911E+00 0.55087938E+02</pdfrwt>
<totfact> 0.44001977E-01</totfact>
</mgrwt>
</event>
<event>
 4    1  0.2489496E+000  0.5222152E+02  0.7957747E-01  0.1433715E+00
         13   -1    0    0    0    0  0.00000000000E+00  0.00000000000E+00  0.99999944176E+02  0.99999999996E+02  0.10566000000E+00 0.  1.
         22   -1    0    0    0    0 -0.00000000000E+00 -0.00000000000E+00 -0.11552862876E+02  0.11552862876E+02  0.00000000000E+00 0.  1.
         13    1    1    2    0    0  0.11749164161E+02  0.94363299947E+01  0.13671518679E+02  0.20347205441E+02  0.10566000000E+00 0. -1.
        996    1    1    2    0    0 -0.11749164161E+02 -0.94363299947E+01  0.74775562620E+02  0.91205657431E+02  0.50000000000E+02 0.  0.
<mgrwt>
<rscale>  0 0.52221520E+02</rscale>
<asrwt>0</asrwt>
<pdfrwt beam="1">  1       13 0.10000000E+01 0.52221520E+02</pdfrwt>
<pdfrwt beam="2">  1       22 0.11552888E+00 0.52221520E+02</pdfrwt>
<totfact> 0.11394181E+00</totfact>
</mgrwt>
</event>
<event>
 4    1  0.2489496E+000  0.5190829E+02  0.7957747E-01  0.1435312E+00
         13   -1    0    0    0    0  0.00000000000E+00  0.00000000000E+00  0.99999944174E+02  0.99999999994E+02  0.10566000000E+00 0.  1.
         22   -1    0    0    0    0 -0.00000000000E+00 -0.00000000000E+00 -0.12789049762E+02  0.12789049762E+02  0.00000000000E+00 0.  1.
         13    1    1    2    0    0 -0.95027195509E+01  0.10206306725E+02  0.40945347849E+02  0.43255092767E+02  0.10566000000E+00 0. -1.
        996    1    1    2    0    0  0.95027195509E+01 -0.10206306725E+02  0.46265546563E+02  0.69533956989E+02  0.50000000000E+02 0.  0.
<mgrwt>
<rscale>  0 0.51908288E+02</rscale>
<asrwt>0</asrwt>
<pdfrwt beam="1">  1       13 0.10000000E+01 0.51908288E+02</pdfrwt>
<pdfrwt beam="2">  1       22 0.12789074E+00 0.51908288E+02</pdfrwt>
<totfact> 0.97378100E-01</totfact>
</mgrwt>
</event>
<event>
 4    1  0.2489496E+000  0.5197461E+02  0.7957747E-01  0.1434973E+00
         13   -1    0    0    0    0  0.00000000000E+00  0.00000000000E+00  0.99999944177E+02  0.99999999997E+02  0.10566000000E+00 0. -1.
         22   -1    0    0    0    0 -0.00000000000E+00 -0.00000000000E+00 -0.15106588357E+02  0.15106588357E+02  0.00000000000E+00 0.  1.
         13    1    1    2    0    0 -0.20556351830E+01  0.14040445296E+02 -0.15150981209E+01  0.14271174671E+02  0.10566000000E+00 0.  1.
        996    1    1    2    0    0  0.20556351830E+01 -0.14040445296E+02  0.86408453941E+02  0.10083541368E+03  0.50000000000E+02 0.  0.
<mgrwt>
<rscale>  0 0.51974607E+02</rscale>
<asrwt>0</asrwt>
<pdfrwt beam="1">  1       13 0.10000000E+01 0.51974607E+02</pdfrwt>
<pdfrwt beam="2">  1       22 0.15106612E+00 0.51974607E+02</pdfrwt>
<totfact> 0.74404862E-01</totfact>
</mgrwt>
</event>
<event>
 4    1  0.2489496E+000  0.5626376E+02  0.7957747E-01  0.1414215E+00
         13   -1    0    0    0    0  0.00000000000E+00  0.00000000000E+00  0.99999944176E+02  0.99999999997E+02  0.10566000000E+00 0. -1.
         22   -1    0    0    0    0 -0.00000000000E+00 -0.00000000000E+00 -0.30641379400E+02  0.30641379400E+02  0.00000000000E+00 0.  1.
         13    1    1    2    0    0  0.17522543831E+02 -0.18935972237E+02 -0.14546742199E+02  0.29618059685E+02  0.10566000000E+00 0.  1.
        996    1    1    2    0    0 -0.17522543831E+02  0.18935972237E+02  0.83905306975E+02  0.10102331971E+03  0.50000000000E+02 0.  0.
<mgrwt>
<rscale>  0 0.56263759E+02</rscale>
<asrwt>0</asrwt>
<pdfrwt beam="1">  1       13 0.10000000E+01 0.56263759E+02</pdfrwt>
<pdfrwt beam="2">  1       22 0.30641399E+00 0.56263759E+02</pdfrwt>
<totfact> 0.20011233E-01</totfact>
</mgrwt>
</event>
<event>
 4    1  0.2489496E+000  0.5169093E+02  0.7957747E-01  0.1436429E+00
         13   -1    0    0    0    0  0.00000000000E+00  0.00000000000E+00  0.99999944176E+02  0.99999999996E+02  0.10566000000E+00 0. -1.
         22   -1    0    0    0    0 -0.00000000000E+00 -0.00000000000E+00 -0.11455968877E+02  0.11455968877E+02  0.00000000000E+00 0. -1.
         13    1    1    2    0    0 -0.97012501673E+01  0.88225747730E+01  0.68835736861E+01  0.14810362290E+02  0.10566000000E+00 0.  1.
        996    1    1    2    0    0  0.97012501673E+01 -0.88225747730E+01  0.81660401612E+02  0.96645606584E+02  0.50000000000E+02 0.  0.
<mgrwt>
<rscale>  0 0.51690928E+02</rscale>
<asrwt>0</asrwt>
<pdfrwt beam="1">  1       13 0.10000000E+01 0.51690928E+02</pdfrwt>
<pdfrwt beam="2">  1       22 0.11455994E+00 0.51690928E+02</pdfrwt>
<totfact> 0.11525965E+00</totfact>
</mgrwt>
</event>
<event>
 4    1  0.2489496E+000  0.5482331E+02  0.7957747E-01  0.1420936E+00
         13   -1    0    0    0    0  0.00000000000E+00  0.00000000000E+00  0.99999944165E+02  0.99999999985E+02  0.10566000000E+00 0. -1.
         22   -1    0    0    0    0 -0.00000000000E+00 -0.00000000000E+00 -0.81474882942E+02  0.81474882942E+02  0.00000000000E+00 0.  1.
         13    1    1    2    0    0 -0.27616896885E+01  0.22315210181E+02 -0.72117971726E+02  0.75542097835E+02  0.10566000000E+00 0.  1.
        996    1    1    2    0    0  0.27616896885E+01 -0.22315210181E+02  0.90643032949E+02  0.10593278509E+03  0.50000000000E+02 0.  0.
<mgrwt>
<rscale>  0 0.54823312E+02</rscale>
<asrwt>0</asrwt>
<pdfrwt beam="1">  1       13 0.10000000E+01 0.54823312E+02</pdfrwt>
<pdfrwt beam="2">  1       22 0.81474888E+00 0.54823312E+02</pdfrwt>
<totfact> 0.26915175E-02</totfact>
</mgrwt>
</event>
<event>
 4    1  0.2489496E+000  0.5724662E+02  0.7957747E-01  0.1409764E+00
         13   -1    0    0    0    0  0.00000000000E+00  0.00000000000E+00  0.99999944175E+02  0.99999999995E+02  0.10566000000E+00 0. -1.
         22   -1    0    0    0    0 -0.00000000000E+00 -0.00000000000E+00 -0.20098941445E+02  0.20098941445E+02  0.00000000000E+00 0.  1.
         13    1    1    2    0    0  0.48269270114E+01  0.27456798991E+02  0.97041805604E+01  0.29518762163E+02  0.10566000000E+00 0.  1.
        996    1    1    2    0    0 -0.48269270114E+01 -0.27456798991E+02  0.70196822170E+02  0.90580179277E+02  0.50000000000E+02 0.  0.
<mgrwt>
<rscale>  0 0.57246616E+02</rscale>
<asrwt>0</asrwt>
<pdfrwt beam="1">  1       13 0.10000000E+01 0.57246616E+02</pdfrwt>
<pdfrwt beam="2">  1       22 0.20098964E+00 0.57246616E+02</pdfrwt>
<totfact> 0.45294477E-01</totfact>
</mgrwt>
</event>
<event>
 4    1  0.2489496E+000  0.5195056E+02  0.7957747E-01  0.1435096E+00
         13   -1    0    0    0    0  0.00000000000E+00  0.00000000000E+00  0.99999944180E+02  0.10000000000E+03  0.10566000000E+00 0. -1.
         22   -1    0    0    0    0 -0.00000000000E+00 -0.00000000000E+00 -0.12270982997E+02  0.12270982997E+02  0.00000000000E+00 0. -1.
         13    1    1    2    0    0 -0.78632774655E+01  0.11705970588E+02  0.37270244015E+02  0.39849004164E+02  0.10566000000E+00 0.  1.
        996    1    1    2    0    0  0.78632774655E+01 -0.11705970588E+02  0.50458717168E+02  0.72421978834E+02  0.50000000000E+02 0.  0.
<mgrwt>
<rscale>  0 0.51950562E+02</rscale>
<asrwt>0</asrwt>
<pdfrwt beam="1">  1       13 0.10000000E+01 0.51950562E+02</pdfrwt>
<pdfrwt beam="2">  1       22 0.12271007E+00 0.51950562E+02</pdfrwt>
<totfact> 0.10385410E+00</totfact>
</mgrwt>
</event>
<event>
 4    1  0.2489496E+000  0.5491731E+02  0.7957747E-01  0.1420490E+00
         13   -1    0    0    0    0  0.00000000000E+00  0.00000000000E+00  0.99999944178E+02  0.99999999998E+02  0.10566000000E+00 0. -1.
         22   -1    0    0    0    0 -0.00000000000E+00 -0.00000000000E+00 -0.79137217370E+02  0.79137217370E+02  0.00000000000E+00 0.  1.
         13    1    1    2    0    0 -0.10056463747E+02  0.20366123529E+02 -0.69653909237E+02  0.73263836145E+02  0.10566000000E+00 0.  1.
        996    1    1    2    0    0  0.10056463747E+02 -0.20366123529E+02  0.90516636045E+02  0.10587338122E+03  0.50000000000E+02 0.  0.
<mgrwt>
<rscale>  0 0.54917315E+02</rscale>
<asrwt>0</asrwt>
<pdfrwt beam="1">  1       13 0.10000000E+01 0.54917315E+02</pdfrwt>
<pdfrwt beam="2">  1       22 0.79137223E+00 0.54917315E+02</pdfrwt>
<totfact> 0.33432051E-02</totfact>
</mgrwt>
</event>
<event>
 4    1  0.2489496E+000  0.5430845E+02  0.7957747E-01  0.1423398E+00
         13   -1    0    0    0    0  0.00000000000E+00  0.00000000000E+00  0.99999944186E+02  0.10000000001E+03  0.10566000000E+00 0.  1.
         22   -1    0    0    0    0 -0.00000000000E+00 -0.00000000000E+00 -0.23758324391E+02  0.23758324391E+02  0.00000000000E+00 0. -1.
         13    1    1    2    0    0  0.21139943595E+02 -0.15844997864E+01 -0.87196212705E+01  0.22922713930E+02  0.10566000000E+00 0. -1.
        996    1    1    2    0    0 -0.21139943595E+02  0.15844997864E+01  0.84961241066E+02  0.10083561047E+03  0.50000000000E+02 0.  0.
<mgrwt>
<rscale>  0 0.54308451E+02</rscale>
<asrwt>0</asrwt>
<pdfrwt beam="1">  1       13 0.10000000E+01 0.54308451E+02</pdfrwt>
<pdfrwt beam="2">  1       22 0.23758346E+00 0.54308451E+02</pdfrwt>
<totfact> 0.32698401E-01</totfact>
</mgrwt>
</event>
<event>
 4    1  0.2489496E+000  0.5394140E+02  0.7957747E-01  0.1425172E+00
         13   -1    0    0    0    0  0.00000000000E+00  0.00000000000E+00  0.99999944178E+02  0.99999999998E+02  0.10566000000E+00 0. -1.
         22   -1    0    0    0    0 -0.00000000000E+00 -0.00000000000E+00 -0.30996102380E+02  0.30996102380E+02  0.00000000000E+00 0.  1.
         13    1    1    2    0    0  0.20216016983E+02 -0.99368347226E+00 -0.19009730433E+02  0.27767890893E+02  0.10566000000E+00 0.  1.
        996    1    1    2    0    0 -0.20216016983E+02  0.99368347226E+00  0.88013572230E+02  0.10322821148E+03  0.50000000000E+02 0.  0.
<mgrwt>
<rscale>  0 0.53941401E+02</rscale>
<asrwt>0</asrwt>
<pdfrwt beam="1">  1       13 0.10000000E+01 0.53941401E+02</pdfrwt>
<pdfrwt beam="2">  1       22 0.30996122E+00 0.53941401E+02</pdfrwt>
<totfact> 0.19537620E-01</totfact>
</mgrwt>
</event>
<event>
 4    1  0.2489496E+000  0.5109221E+02  0.7957747E-01  0.1439538E+00
         13   -1    0    0    0    0  0.00000000000E+00  0.00000000000E+00  0.99999944184E+02  0.10000000000E+03  0.10566000000E+00 0.  1.
         22   -1    0    0    0    0 -0.00000000000E+00 -0.00000000000E+00 -0.15239673999E+02  0.15239673999E+02  0.00000000000E+00 0.  1.
         13    1    1    2    0    0 -0.47516195736E+01  0.93720923422E+01 -0.52445284455E+01  0.11744370826E+02  0.10566000000E+00 0. -1.
        996    1    1    2    0    0  0.47516195736E+01 -0.93720923422E+01  0.90004798630E+02  0.10349530318E+03  0.50000000000E+02 0.  0.
<mgrwt>
<rscale>  0 0.51092211E+02</rscale>
<asrwt>0</asrwt>
<pdfrwt beam="1">  1       13 0.10000000E+01 0.51092211E+02</pdfrwt>
<pdfrwt beam="2">  1       22 0.15239698E+00 0.51092211E+02</pdfrwt>
<totfact> 0.73188727E-01</totfact>
</mgrwt>
</event>
<event>
 4    1  0.2489496E+000  0.6142973E+02  0.7957747E-01  0.1391928E+00
         13   -1    0    0    0    0  0.00000000000E+00  0.00000000000E+00  0.99999944180E+02  0.10000000000E+03  0.10566000000E+00 0. -1.
         22   -1    0    0    0    0 -0.00000000000E+00 -0.00000000000E+00 -0.63841800374E+02  0.63841800374E+02  0.00000000000E+00 0.  1.
         13    1    1    2    0    0 -0.33179705830E+02 -0.13142261785E+02 -0.47897778815E+02  0.59731233900E+02  0.10566000000E+00 0.  1.
        996    1    1    2    0    0  0.33179705830E+02  0.13142261785E+02  0.84055922622E+02  0.10411056647E+03  0.50000000000E+02 0.  0.
<mgrwt>
<rscale>  0 0.61429732E+02</rscale>
<asrwt>0</asrwt>
<pdfrwt beam="1">  1       13 0.10000000E+01 0.61429732E+02</pdfrwt>
<pdfrwt beam="2">  1       22 0.63841810E+00 0.61429732E+02</pdfrwt>
<totfact> 0.82749756E-02</totfact>
</mgrwt>
</event>
<event>
 4    1  0.2489496E+000  0.5325902E+02  0.7957747E-01  0.1428516E+00
         13   -1    0    0    0    0  0.00000000000E+00  0.00000000000E+00  0.99999944177E+02  0.99999999998E+02  0.10566000000E+00 0. -1.
         22   -1    0    0    0    0 -0.00000000000E+00 -0.00000000000E+00 -0.38383132326E+02  0.38383132326E+02  0.00000000000E+00 0.  1.
         13    1    1    2    0    0  0.10478353543E+02 -0.15057464705E+02 -0.28388917373E+02  0.33800368784E+02  0.10566000000E+00 0.  1.
        996    1    1    2    0    0 -0.10478353543E+02  0.15057464705E+02  0.90005729224E+02  0.10458276354E+03  0.50000000000E+02 0.  0.
<mgrwt>
<rscale>  0 0.53259019E+02</rscale>
<asrwt>0</asrwt>
<pdfrwt beam="1">  1       13 0.10000000E+01 0.53259019E+02</pdfrwt>
<pdfrwt beam="2">  1       22 0.38383150E+00 0.53259019E+02</pdfrwt>
<totfact> 0.13364695E-01</totfact>
</mgrwt>
</event>
<event>
 4    1  0.2489496E+000  0.5360553E+02  0.7957747E-01  0.1426811E+00
         13   -1    0    0    0    0  0.00000000000E+00  0.00000000000E+00  0.99999944172E+02  0.99999999992E+02  0.10566000000E+00 0.  1.
         22   -1    0    0    0    0 -0.00000000000E+00 -0.00000000000E+00 -0.31556935025E+02  0.31556935025E+02  0.00000000000E+00 0. -1.
         13    1    1    2    0    0 -0.19136263805E+02  0.27123310876E+01 -0.20205414803E+02  0.27961103049E+02  0.10566000000E+00 0. -1.
        996    1    1    2    0    0  0.19136263805E+02 -0.27123310876E+01  0.88648423950E+02  0.10359583197E+03  0.50000000000E+02 0.  0.
<mgrwt>
<rscale>  0 0.53605535E+02</rscale>
<asrwt>0</asrwt>
<pdfrwt beam="1">  1       13 0.10000000E+01 0.53605535E+02</pdfrwt>
<pdfrwt beam="2">  1       22 0.31556954E+00 0.53605535E+02</pdfrwt>
<totfact> 0.18902489E-01</totfact>
</mgrwt>
</event>
<event>
 4    1  0.2489496E+000  0.5223732E+02  0.7957747E-01  0.1433635E+00
         13   -1    0    0    0    0  0.00000000000E+00  0.00000000000E+00  0.99999944178E+02  0.99999999998E+02  0.10566000000E+00 0.  1.
         22   -1    0    0    0    0 -0.00000000000E+00 -0.00000000000E+00 -0.16721332356E+02  0.16721332356E+02  0.00000000000E+00 0. -1.
         13    1    1    2    0    0  0.11048269084E+02  0.10328281216E+02 -0.34158567386E+01  0.15505382418E+02  0.10566000000E+00 0. -1.
        996    1    1    2    0    0 -0.11048269084E+02 -0.10328281216E+02  0.86694468560E+02  0.10121594994E+03  0.50000000000E+02 0.  0.
<mgrwt>
<rscale>  0 0.52237320E+02</rscale>
<asrwt>0</asrwt>
<pdfrwt beam="1">  1       13 0.10000000E+01 0.52237320E+02</pdfrwt>
<pdfrwt beam="2">  1       22 0.16721356E+00 0.52237320E+02</pdfrwt>
<totfact> 0.62607823E-01</totfact>
</mgrwt>
</event>
<event>
 4    1  0.2489496E+000  0.5240762E+02  0.7957747E-01  0.1432772E+00
         13   -1    0    0    0    0  0.00000000000E+00  0.00000000000E+00  0.99999944181E+02  0.10000000000E+03  0.10566000000E+00 0. -1.
         22   -1    0    0    0    0 -0.00000000000E+00 -0.00000000000E+00 -0.30406693266E+02  0.30406693266E+02  0.00000000000E+00 0.  1.
         13    1    1    2    0    0 -0.82878487654E+01  0.13336807573E+02 -0.20714708002E+02  0.25993637010E+02  0.10566000000E+00 0.  1.
        996    1    1    2    0    0  0.82878487654E+01 -0.13336807573E+02  0.90307958916E+02  0.10441305626E+03  0.50000000000E+02 0.  0.
<mgrwt>
<rscale>  0 0.52407622E+02</rscale>
<asrwt>0</asrwt>
<pdfrwt beam="1">  1       13 0.10000000E+01 0.52407622E+02</pdfrwt>
<pdfrwt beam="2">  1       22 0.30406713E+00 0.52407622E+02</pdfrwt>
<totfact> 0.20201604E-01</totfact>
</mgrwt>
</event>
<event>
 4    1  0.2489496E+000  0.5221854E+02  0.7957747E-01  0.1433730E+00
         13   -1    0    0    0    0  0.00000000000E+00  0.00000000000E+00  0.99999944182E+02  0.10000000000E+03  0.10566000000E+00 0. -1.
         22   -1    0    0    0    0 -0.00000000000E+00 -0.00000000000E+00 -0.13639228837E+02  0.13639228837E+02  0.00000000000E+00 0. -1.
         13    1    1    2    0    0 -0.13625595108E+02  0.64123753796E+01  0.31260544061E+01  0.15380467491E+02  0.10566000000E+00 0.  1.
        996    1    1    2    0    0  0.13625595108E+02 -0.64123753796E+01  0.83234660939E+02  0.98258761348E+02  0.50000000000E+02 0.  0.
<mgrwt>
<rscale>  0 0.52218535E+02</rscale>
<asrwt>0</asrwt>
<pdfrwt beam="1">  1       13 0.10000000E+01 0.52218535E+02</pdfrwt>
<pdfrwt beam="2">  1       22 0.13639253E+00 0.52218535E+02</pdfrwt>
<totfact> 0.87994057E-01</totfact>
</mgrwt>
</event>
<event>
 4    1  0.2489496E+000  0.5388863E+02  0.7957747E-01  0.1425429E+00
         13   -1    0    0    0    0  0.00000000000E+00  0.00000000000E+00  0.99999944181E+02  0.10000000000E+03  0.10566000000E+00 0. -1.
         22   -1    0    0    0    0 -0.00000000000E+00 -0.00000000000E+00 -0.14053320781E+02  0.14053320781E+02  0.00000000000E+00 0. -1.
         13    1    1    2    0    0 -0.14259017197E+02  0.14165614624E+02  0.32096046692E+02  0.37870193905E+02  0.10566000000E+00 0.  1.
        996    1    1    2    0    0  0.14259017197E+02 -0.14165614624E+02  0.53850576708E+02  0.76183126878E+02  0.50000000000E+02 0.  0.
<mgrwt>
<rscale>  0 0.53888628E+02</rscale>
<asrwt>0</asrwt>
<pdfrwt beam="1">  1       13 0.10000000E+01 0.53888628E+02</pdfrwt>
<pdfrwt beam="2">  1       22 0.14053345E+00 0.53888628E+02</pdfrwt>
<totfact> 0.84135777E-01</totfact>
</mgrwt>
</event>
<event>
 4    1  0.2489496E+000  0.5160746E+02  0.7957747E-01  0.1436859E+00
         13   -1    0    0    0    0  0.00000000000E+00  0.00000000000E+00  0.99999944175E+02  0.99999999995E+02  0.10566000000E+00 0.  1.
         22   -1    0    0    0    0 -0.00000000000E+00 -0.00000000000E+00 -0.21791872492E+02  0.21791872492E+02  0.00000000000E+00 0. -1.
         13    1    1    2    0    0  0.94423514476E+01 -0.86123326025E+01 -0.12214459184E+02  0.17678643922E+02  0.10566000000E+00 0. -1.
        996    1    1    2    0    0 -0.94423514476E+01  0.86123326025E+01  0.90422530868E+02  0.10411322857E+03  0.50000000000E+02 0.  0.
<mgrwt>
<rscale>  0 0.51607463E+02</rscale>
<asrwt>0</asrwt>
<pdfrwt beam="1">  1       13 0.10000000E+01 0.51607463E+02</pdfrwt>
<pdfrwt beam="2">  1       22 0.21791894E+00 0.51607463E+02</pdfrwt>
<totfact> 0.38491590E-01</totfact>
</mgrwt>
</event>
<event>
 4    1  0.2489496E+000  0.5125863E+02  0.7957747E-01  0.1438669E+00
         13   -1    0    0    0    0  0.00000000000E+00  0.00000000000E+00  0.99999944180E+02  0.10000000000E+03  0.10566000000E+00 0. -1.
         22   -1    0    0    0    0 -0.00000000000E+00 -0.00000000000E+00 -0.12838888456E+02  0.12838888456E+02  0.00000000000E+00 0. -1.
         13    1    1    2    0    0  0.31949079771E+01 -0.10827711269E+02  0.45220688079E+02  0.46608674758E+02  0.10566000000E+00 0.  1.
        996    1    1    2    0    0 -0.31949079771E+01  0.10827711269E+02  0.41940367646E+02  0.66230213699E+02  0.50000000000E+02 0.  0.
<mgrwt>
<rscale>  0 0.51258626E+02</rscale>
<asrwt>0</asrwt>
<pdfrwt beam="1">  1       13 0.10000000E+01 0.51258626E+02</pdfrwt>
<pdfrwt beam="2">  1       22 0.12838913E+00 0.51258626E+02</pdfrwt>
<totfact> 0.96648448E-01</totfact>
</mgrwt>
</event>
<event>
 4    1  0.2489496E+000  0.5552468E+02  0.7957747E-01  0.1417634E+00
         13   -1    0    0    0    0  0.00000000000E+00  0.00000000000E+00  0.99999944176E+02  0.99999999996E+02  0.10566000000E+00 0. -1.
         22   -1    0    0    0    0 -0.00000000000E+00 -0.00000000000E+00 -0.20355297710E+02  0.20355297710E+02  0.00000000000E+00 0.  1.
         13    1    1    2    0    0 -0.23731104029E+02  0.44525623491E+01  0.11049331121E+01  0.24170698192E+02  0.10566000000E+00 0.  1.
        996    1    1    2    0    0  0.23731104029E+02 -0.44525623491E+01  0.78539713354E+02  0.96184599514E+02  0.50000000000E+02 0.  0.
<mgrwt>
<rscale>  0 0.55524685E+02</rscale>
<asrwt>0</asrwt>
<pdfrwt beam="1">  1       13 0.10000000E+01 0.55524685E+02</pdfrwt>
<pdfrwt beam="2">  1       22 0.20355320E+00 0.55524685E+02</pdfrwt>
<totfact> 0.44105544E-01</totfact>
</mgrwt>
</event>
<event>
 4    1  0.2489496E+000  0.5134629E+02  0.7957747E-01  0.1438212E+00
         13   -1    0    0    0    0  0.00000000000E+00  0.00000000000E+00  0.99999944180E+02  0.10000000000E+03  0.10566000000E+00 0. -1.
         22   -1    0    0    0    0 -0.00000000000E+00 -0.00000000000E+00 -0.19499555732E+02  0.19499555732E+02  0.00000000000E+00 0.  1.
         13    1    1    2    0    0  0.11498607523E+02  0.20552257899E+01 -0.10046545223E+02  0.15407341204E+02  0.10566000000E+00 0.  1.
        996    1    1    2    0    0 -0.11498607523E+02 -0.20552257899E+01  0.90546933671E+02  0.10409221453E+03  0.50000000000E+02 0.  0.
<mgrwt>
<rscale>  0 0.51346294E+02</rscale>
<asrwt>0</asrwt>
<pdfrwt beam="1">  1       13 0.10000000E+01 0.51346294E+02</pdfrwt>
<pdfrwt beam="2">  1       22 0.19499578E+00 0.51346294E+02</pdfrwt>
<totfact> 0.47434118E-01</totfact>
</mgrwt>
</event>
<event>
 4    1  0.2489496E+000  0.6203997E+02  0.7957747E-01  0.1389465E+00
         13   -1    0    0    0    0  0.00000000000E+00  0.00000000000E+00  0.99999944179E+02  0.99999999999E+02  0.10566000000E+00 0.  1.
         22   -1    0    0    0    0 -0.00000000000E+00 -0.00000000000E+00 -0.67800646540E+02  0.67800646540E+02  0.00000000000E+00 0. -1.
         13    1    1    2    0    0 -0.15106776594E+02  0.33477499792E+02 -0.51722663629E+02  0.63436604483E+02  0.10566000000E+00 0. -1.
        996    1    1    2    0    0  0.15106776594E+02 -0.33477499792E+02  0.83921961267E+02  0.10436404206E+03  0.50000000000E+02 0.  0.
<mgrwt>
<rscale>  0 0.62039968E+02</rscale>
<asrwt>0</asrwt>
<pdfrwt beam="1">  1       13 0.10000000E+01 0.62039968E+02</pdfrwt>
<pdfrwt beam="2">  1       22 0.67800656E+00 0.62039968E+02</pdfrwt>
<totfact> 0.84138343E-02</totfact>
</mgrwt>
</event>
<event>
 4    1  0.2489496E+000  0.5195292E+02  0.7957747E-01  0.1435084E+00
         13   -1    0    0    0    0  0.00000000000E+00  0.00000000000E+00  0.99999944184E+02  0.10000000000E+03  0.10566000000E+00 0.  1.
         22   -1    0    0    0    0 -0.00000000000E+00 -0.00000000000E+00 -0.11231069606E+02  0.11231069606E+02  0.00000000000E+00 0.  1.
         13    1    1    2    0    0  0.13036729478E+02 -0.53990674709E+01  0.11936380153E+02  0.18482277464E+02  0.10566000000E+00 0. -1.
        996    1    1    2    0    0 -0.13036729478E+02  0.53990674709E+01  0.76832494425E+02  0.92748792146E+02  0.50000000000E+02 0.  0.
<mgrwt>
<rscale>  0 0.51952923E+02</rscale>
<asrwt>0</asrwt>
<pdfrwt beam="1">  1       13 0.10000000E+01 0.51952923E+02</pdfrwt>
<pdfrwt beam="2">  1       22 0.11231094E+00 0.51952923E+02</pdfrwt>
<totfact> 0.11881460E+00</totfact>
</mgrwt>
</event>
<event>
 4    1  0.2489496E+000  0.5404021E+02  0.7957747E-01  0.1424693E+00
         13   -1    0    0    0    0  0.00000000000E+00  0.00000000000E+00  0.99999944177E+02  0.99999999998E+02  0.10566000000E+00 0.  1.
         22   -1    0    0    0    0 -0.00000000000E+00 -0.00000000000E+00 -0.14353368038E+02  0.14353368038E+02  0.00000000000E+00 0.  1.
         13    1    1    2    0    0  0.11890424902E+02 -0.16702155576E+02  0.14979767974E+02  0.25391904573E+02  0.10566000000E+00 0. -1.
        996    1    1    2    0    0 -0.11890424902E+02  0.16702155576E+02  0.70666808165E+02  0.88961463463E+02  0.50000000000E+02 0.  0.
<mgrwt>
<rscale>  0 0.54040209E+02</rscale>
<asrwt>0</asrwt>
<pdfrwt beam="1">  1       13 0.10000000E+01 0.54040209E+02</pdfrwt>
<pdfrwt beam="2">  1       22 0.14353392E+00 0.54040209E+02</pdfrwt>
<totfact> 0.81310354E-01</totfact>
</mgrwt>
</event>
<event>
 4    1  0.2489496E+000  0.6792327E+02  0.7957747E-01  0.1367301E+00
         13   -1    0    0    0    0  0.00000000000E+00  0.00000000000E+00  0.99999944185E+02  0.10000000001E+03  0.10566000000E+00 0.  1.
         22   -1    0    0    0    0 -0.00000000000E+00 -0.00000000000E+00 -0.41257884380E+02  0.41257884380E+02  0.00000000000E+00 0. -1.
         13    1    1    2    0    0 -0.44151441431E+02  0.12814858491E+02 -0.72661219279E+01  0.46544366690E+02  0.10566000000E+00 0. -1.
        996    1    1    2    0    0  0.44151441431E+02 -0.12814858491E+02  0.66008181733E+02  0.94713517696E+02  0.50000000000E+02 0.  0.
<mgrwt>
<rscale>  0 0.67923268E+02</rscale>
<asrwt>0</asrwt>
<pdfrwt beam="1">  1       13 0.10000000E+01 0.67923268E+02</pdfrwt>
<pdfrwt beam="2">  1       22 0.41257901E+00 0.67923268E+02</pdfrwt>
<totfact> 0.11765430E-01</totfact>
</mgrwt>
</event>
<event>
 4    1  0.2489496E+000  0.5329214E+02  0.7957747E-01  0.1428353E+00
         13   -1    0    0    0    0  0.00000000000E+00  0.00000000000E+00  0.99999944177E+02  0.99999999997E+02  0.10566000000E+00 0. -1.
         22   -1    0    0    0    0 -0.00000000000E+00 -0.00000000000E+00 -0.12900793722E+02  0.12900793722E+02  0.00000000000E+00 0. -1.
         13    1    1    2    0    0  0.18431069170E+02 -0.58951764403E+00  0.19815630221E+02  0.27068841994E+02  0.10566000000E+00 0.  1.
        996    1    1    2    0    0 -0.18431069170E+02  0.58951764403E+00  0.67283520234E+02  0.85831951724E+02  0.50000000000E+02 0.  0.
<mgrwt>
<rscale>  0 0.53292137E+02</rscale>
<asrwt>0</asrwt>
<pdfrwt beam="1">  1       13 0.10000000E+01 0.53292137E+02</pdfrwt>
<pdfrwt beam="2">  1       22 0.12900818E+00 0.53292137E+02</pdfrwt>
<totfact> 0.96343957E-01</totfact>
</mgrwt>
</event>
<event>
 4    1  0.2489496E+000  0.6497221E+02  0.7957747E-01  0.1378076E+00
         13   -1    0    0    0    0  0.00000000000E+00  0.00000000000E+00  0.99999944182E+02  0.10000000000E+03  0.10566000000E+00 0. -1.
         22   -1    0    0    0    0 -0.00000000000E+00 -0.00000000000E+00 -0.82397806344E+02  0.82397806344E+02  0.00000000000E+00 0.  1.
         13    1    1    2    0    0 -0.22913110098E+02 -0.34588691900E+02 -0.65117889736E+02  0.77212297916E+02  0.10566000000E+00 0.  1.
        996    1    1    2    0    0  0.22913110098E+02  0.34588691900E+02  0.82720027574E+02  0.10518550843E+03  0.50000000000E+02 0.  0.
<mgrwt>
<rscale>  0 0.64972211E+02</rscale>
<asrwt>0</asrwt>
<pdfrwt beam="1">  1       13 0.10000000E+01 0.64972211E+02</pdfrwt>
<pdfrwt beam="2">  1       22 0.82397811E+00 0.64972211E+02</pdfrwt>
<totfact> 0.24643314E-02</totfact>
</mgrwt>
</event>
<event>
 4    1  0.2489496E+000  0.5121830E+02  0.7957747E-01  0.1438879E+00
         13   -1    0    0    0    0  0.00000000000E+00  0.00000000000E+00  0.99999944177E+02  0.99999999998E+02  0.10566000000E+00 0.  1.
         22   -1    0    0    0    0 -0.00000000000E+00 -0.00000000000E+00 -0.13740462633E+02  0.13740462633E+02  0.00000000000E+00 0.  1.
         13    1    1    2    0    0  0.19598876261E+01 -0.10930386501E+02 -0.23891860938E+01  0.11359308201E+02  0.10566000000E+00 0. -1.
        996    1    1    2    0    0 -0.19598876261E+01  0.10930386501E+02  0.88648667638E+02  0.10238115443E+03  0.50000000000E+02 0.  0.
<mgrwt>
<rscale>  0 0.51218302E+02</rscale>
<asrwt>0</asrwt>
<pdfrwt beam="1">  1       13 0.10000000E+01 0.51218302E+02</pdfrwt>
<pdfrwt beam="2">  1       22 0.13740487E+00 0.51218302E+02</pdfrwt>
<totfact> 0.86769668E-01</totfact>
</mgrwt>
</event>
<event>
 4    1  0.2489496E+000  0.5168365E+02  0.7957747E-01  0.1436466E+00
         13   -1    0    0    0    0  0.00000000000E+00  0.00000000000E+00  0.99999944182E+02  0.10000000000E+03  0.10566000000E+00 0.  1.
         22   -1    0    0    0    0 -0.00000000000E+00 -0.00000000000E+00 -0.10921815567E+02  0.10921815567E+02  0.00000000000E+00 0.  1.
         13    1    1    2    0    0  0.58511047792E+01  0.11703183397E+02  0.28031284009E+02  0.30934834346E+02  0.10566000000E+00 0. -1.
        996    1    1    2    0    0 -0.58511047792E+01 -0.11703183397E+02  0.61046844607E+02  0.79986981223E+02  0.50000000000E+02 0.  0.
<mgrwt>
<rscale>  0 0.51683652E+02</rscale>
<asrwt>0</asrwt>
<pdfrwt beam="1">  1       13 0.10000000E+01 0.51683652E+02</pdfrwt>
<pdfrwt beam="2">  1       22 0.10921840E+00 0.51683652E+02</pdfrwt>
<totfact> 0.12378787E+00</totfact>
</mgrwt>
</event>
<event>
 4    1  0.2489496E+000  0.5149166E+02  0.7957747E-01  0.1437458E+00
         13   -1    0    0    0    0  0.00000000000E+00  0.00000000000E+00  0.99999944176E+02  0.99999999996E+02  0.10566000000E+00 0. -1.
         22   -1    0    0    0    0 -0.00000000000E+00 -0.00000000000E+00 -0.14647288294E+02  0.14647288294E+02  0.00000000000E+00 0. -1.
         13    1    1    2    0    0  0.11767992057E+02  0.35923692404E+01 -0.27433170404E+01  0.12606653253E+02  0.10566000000E+00 0.  1.
        996    1    1    2    0    0 -0.11767992057E+02 -0.35923692404E+01  0.88095972922E+02  0.10204063504E+03  0.50000000000E+02 0.  0.
<mgrwt>
<rscale>  0 0.51491657E+02</rscale>
<asrwt>0</asrwt>
<pdfrwt beam="1">  1       13 0.10000000E+01 0.51491657E+02</pdfrwt>
<pdfrwt beam="2">  1       22 0.14647312E+00 0.51491657E+02</pdfrwt>
<totfact> 0.78238275E-01</totfact>
</mgrwt>
</event>
<event>
 4    1  0.2489496E+000  0.5164220E+02  0.7957747E-01  0.1436680E+00
         13   -1    0    0    0    0  0.00000000000E+00  0.00000000000E+00  0.99999944170E+02  0.99999999990E+02  0.10566000000E+00 0. -1.
         22   -1    0    0    0    0 -0.00000000000E+00 -0.00000000000E+00 -0.18367849819E+02  0.18367849819E+02  0.00000000000E+00 0.  1.
         13    1    1    2    0    0  0.47146712973E+01  0.12028646547E+02 -0.78031190796E+01  0.15093584551E+02  0.10566000000E+00 0.  1.
        996    1    1    2    0    0 -0.47146712973E+01 -0.12028646547E+02  0.89435213431E+02  0.10327426526E+03  0.50000000000E+02 0.  0.
<mgrwt>
<rscale>  0 0.51642197E+02</rscale>
<asrwt>0</asrwt>
<pdfrwt beam="1">  1       13 0.10000000E+01 0.51642197E+02</pdfrwt>
<pdfrwt beam="2">  1       22 0.18367873E+00 0.51642197E+02</pdfrwt>
<totfact> 0.52940146E-01</totfact>
</mgrwt>
</event>
<event>
 4    1  0.2489496E+000  0.5591720E+02  0.7957747E-01  0.1415811E+00
         13   -1    0    0    0    0  0.00000000000E+00  0.00000000000E+00  0.99999944177E+02  0.99999999997E+02  0.10566000000E+00 0. -1.
         22   -1    0    0    0    0 -0.00000000000E+00 -0.00000000000E+00 -0.45394672104E+02  0.45394672104E+02  0.00000000000E+00 0.  1.
         13    1    1    2    0    0 -0.73299743042E+01  0.23937518969E+02 -0.33026381694E+02  0.41442567362E+02  0.10566000000E+00 0.  1.
        996    1    1    2    0    0  0.73299743042E+01 -0.23937518969E+02  0.87631653767E+02  0.10395210474E+03  0.50000000000E+02 0.  0.
<mgrwt>
<rscale>  0 0.55917201E+02</rscale>
<asrwt>0</asrwt>
<pdfrwt beam="1">  1       13 0.10000000E+01 0.55917201E+02</pdfrwt>
<pdfrwt beam="2">  1       22 0.45394687E+00 0.55917201E+02</pdfrwt>
<totfact> 0.94856235E-02</totfact>
</mgrwt>
</event>
<event>
 4    1  0.2489496E+000  0.5437465E+02  0.7957747E-01  0.1423080E+00
         13   -1    0    0    0    0  0.00000000000E+00  0.00000000000E+00  0.99999944187E+02  0.10000000001E+03  0.10566000000E+00 0. -1.
         22   -1    0    0    0    0 -0.00000000000E+00 -0.00000000000E+00 -0.14527644058E+02  0.14527644058E+02  0.00000000000E+00 0. -1.
         13    1    1    2    0    0  0.13892986920E+02  0.16235363845E+02  0.30177073503E+02  0.36976601439E+02  0.10566000000E+00 0.  1.
        996    1    1    2    0    0 -0.13892986920E+02 -0.16235363845E+02  0.55295226626E+02  0.77551042626E+02  0.50000000000E+02 0.  0.
<mgrwt>
<rscale>  0 0.54374646E+02</rscale>
<asrwt>0</asrwt>
<pdfrwt beam="1">  1       13 0.10000000E+01 0.54374646E+02</pdfrwt>
<pdfrwt beam="2">  1       22 0.14527668E+00 0.54374646E+02</pdfrwt>
<totfact> 0.79767732E-01</totfact>
</mgrwt>
</event>
<event>
 4    1  0.2489496E+000  0.5103788E+02  0.7957747E-01  0.1439823E+00
         13   -1    0    0    0    0  0.00000000000E+00  0.00000000000E+00  0.99999944175E+02  0.99999999996E+02  0.10566000000E+00 0. -1.
         22   -1    0    0    0    0 -0.00000000000E+00 -0.00000000000E+00 -0.15100497181E+02  0.15100497181E+02  0.00000000000E+00 0. -1.
         13    1    1    2    0    0  0.72139611218E-01  0.10240097130E+02 -0.52484655837E+01  0.11507490968E+02  0.10566000000E+00 0.  1.
        996    1    1    2    0    0 -0.72139611218E-01 -0.10240097130E+02  0.90147912578E+02  0.10359300621E+03  0.50000000000E+02 0.  0.
<mgrwt>
<rscale>  0 0.51037876E+02</rscale>
<asrwt>0</asrwt>
<pdfrwt beam="1">  1       13 0.10000000E+01 0.51037876E+02</pdfrwt>
<pdfrwt beam="2">  1       22 0.15100521E+00 0.51037876E+02</pdfrwt>
<totfact> 0.74311566E-01</totfact>
</mgrwt>
</event>
<event>
 4    1  0.2489496E+000  0.5127614E+02  0.7957747E-01  0.1438577E+00
         13   -1    0    0    0    0  0.00000000000E+00  0.00000000000E+00  0.99999944183E+02  0.10000000000E+03  0.10566000000E+00 0.  1.
         22   -1    0    0    0    0 -0.00000000000E+00 -0.00000000000E+00 -0.11667447922E+02  0.11667447922E+02  0.00000000000E+00 0. -1.
         13    1    1    2    0    0 -0.55741746544E+01 -0.99081593251E+01  0.24311508440E+01  0.11626035556E+02  0.10566000000E+00 0. -1.
        996    1    1    2    0    0  0.55741746544E+01  0.99081593251E+01  0.85901345417E+02  0.10004141237E+03  0.50000000000E+02 0.  0.
<mgrwt>
<rscale>  0 0.51276145E+02</rscale>
<asrwt>0</asrwt>
<pdfrwt beam="1">  1       13 0.10000000E+01 0.51276145E+02</pdfrwt>
<pdfrwt beam="2">  1       22 0.11667473E+00 0.51276145E+02</pdfrwt>
<totfact> 0.11201197E+00</totfact>
</mgrwt>
</event>
<event>
 4    1  0.2489496E+000  0.5265238E+02  0.7957747E-01  0.1431539E+00
         13   -1    0    0    0    0  0.00000000000E+00  0.00000000000E+00  0.99999944182E+02  0.10000000000E+03  0.10566000000E+00 0. -1.
         22   -1    0    0    0    0 -0.00000000000E+00 -0.00000000000E+00 -0.14394407576E+02  0.14394407576E+02  0.00000000000E+00 0.  1.
         13    1    1    2    0    0  0.13320808199E+02  0.97380265752E+01  0.35179578562E+01  0.16871878502E+02  0.10566000000E+00 0.  1.
        996    1    1    2    0    0 -0.13320808199E+02 -0.97380265752E+01  0.82087578750E+02  0.97522529077E+02  0.50000000000E+02 0.  0.
<mgrwt>
<rscale>  0 0.52652380E+02</rscale>
<asrwt>0</asrwt>
<pdfrwt beam="1">  1       13 0.10000000E+01 0.52652380E+02</pdfrwt>
<pdfrwt beam="2">  1       22 0.14394431E+00 0.52652380E+02</pdfrwt>
<totfact> 0.80704005E-01</totfact>
</mgrwt>
</event>
<event>
 4    1  0.2489496E+000  0.9133954E+02  0.7957747E-01  0.1299640E+00
         13   -1    0    0    0    0  0.00000000000E+00  0.00000000000E+00  0.99999944179E+02  0.99999999999E+02  0.10566000000E+00 0.  1.
         22   -1    0    0    0    0 -0.00000000000E+00 -0.00000000000E+00 -0.83358050414E+02  0.83358050414E+02  0.00000000000E+00 0. -1.
         13    1    1    2    0    0 -0.41445090820E+01  0.76326500775E+02 -0.28364851493E+02  0.81532126431E+02  0.10566000000E+00 0. -1.
        996    1    1    2    0    0  0.41445090820E+01 -0.76326500775E+02  0.45006745258E+02  0.10182592398E+03  0.50000000000E+02 0.  0.
<mgrwt>
<rscale>  0 0.91339541E+02</rscale>
<asrwt>0</asrwt>
<pdfrwt beam="1">  1       13 0.10000000E+01 0.91339541E+02</pdfrwt>
<pdfrwt beam="2">  1       22 0.83358055E+00 0.91339541E+02</pdfrwt>
<totfact> 0.22426306E-02</totfact>
</mgrwt>
</event>
<event>
 4    1  0.2489496E+000  0.5107547E+02  0.7957747E-01  0.1439626E+00
         13   -1    0    0    0    0  0.00000000000E+00  0.00000000000E+00  0.99999944173E+02  0.99999999994E+02  0.10566000000E+00 0.  1.
         22   -1    0    0    0    0 -0.00000000000E+00 -0.00000000000E+00 -0.18947442683E+02  0.18947442683E+02  0.00000000000E+00 0. -1.
         13    1    1    2    0    0 -0.89487141225E+01 -0.53501635282E+01 -0.10064477760E+02  0.14491673845E+02  0.10566000000E+00 0. -1.
        996    1    1    2    0    0  0.89487141225E+01  0.53501635282E+01  0.91116979251E+02  0.10445576883E+03  0.50000000000E+02 0.  0.
<mgrwt>
<rscale>  0 0.51075471E+02</rscale>
<asrwt>0</asrwt>
<pdfrwt beam="1">  1       13 0.10000000E+01 0.51075471E+02</pdfrwt>
<pdfrwt beam="2">  1       22 0.18947465E+00 0.51075471E+02</pdfrwt>
<totfact> 0.49980407E-01</totfact>
</mgrwt>
</event>
<event>
 4    1  0.2489496E+000  0.5118504E+02  0.7957747E-01  0.1439053E+00
         13   -1    0    0    0    0  0.00000000000E+00  0.00000000000E+00  0.99999944183E+02  0.10000000000E+03  0.10566000000E+00 0. -1.
         22   -1    0    0    0    0 -0.00000000000E+00 -0.00000000000E+00 -0.10674825122E+02  0.10674825122E+02  0.00000000000E+00 0. -1.
         13    1    1    2    0    0  0.10943883989E+02  0.37378477639E+00  0.50168637905E+01  0.12045264553E+02  0.10566000000E+00 0.  1.
        996    1    1    2    0    0 -0.10943883989E+02 -0.37378477639E+00  0.84308255271E+02  0.98629560572E+02  0.50000000000E+02 0.  0.
<mgrwt>
<rscale>  0 0.51185040E+02</rscale>
<asrwt>0</asrwt>
<pdfrwt beam="1">  1       13 0.10000000E+01 0.51185040E+02</pdfrwt>
<pdfrwt beam="2">  1       22 0.10674850E+00 0.51185040E+02</pdfrwt>
<totfact> 0.12789827E+00</totfact>
</mgrwt>
</event>
<event>
 4    1  0.2489496E+000  0.5286972E+02  0.7957747E-01  0.1430450E+00
         13   -1    0    0    0    0  0.00000000000E+00  0.00000000000E+00  0.99999944168E+02  0.99999999988E+02  0.10566000000E+00 0.  1.
         22   -1    0    0    0    0 -0.00000000000E+00 -0.00000000000E+00 -0.53355550012E+02  0.53355550012E+02  0.00000000000E+00 0. -1.
         13    1    1    2    0    0  0.14499944544E+02  0.92173304578E+01 -0.44658615525E+02  0.47849876459E+02  0.10566000000E+00 0. -1.
        996    1    1    2    0    0 -0.14499944544E+02 -0.92173304578E+01  0.91303009681E+02  0.10550567354E+03  0.50000000000E+02 0.  0.
<mgrwt>
<rscale>  0 0.52869723E+02</rscale>
<asrwt>0</asrwt>
<pdfrwt beam="1">  1       13 0.10000000E+01 0.52869723E+02</pdfrwt>
<pdfrwt beam="2">  1       22 0.53355563E+00 0.52869723E+02</pdfrwt>
<totfact> 0.62173518E-02</totfact>
</mgrwt>
</event>
<event>
 4    1  0.2489496E+000  0.5292874E+02  0.7957747E-01  0.1430156E+00
         13   -1    0    0    0    0  0.00000000000E+00  0.00000000000E+00  0.99999944176E+02  0.99999999996E+02  0.10566000000E+00 0.  1.
         22   -1    0    0    0    0 -0.00000000000E+00 -0.00000000000E+00 -0.14272227014E+02  0.14272227014E+02  0.00000000000E+00 0.  1.
         13    1    1    2    0    0  0.16636915342E+02 -0.49663844850E+01  0.56037024536E+01  0.18244576514E+02  0.10566000000E+00 0. -1.
        996    1    1    2    0    0 -0.16636915342E+02  0.49663844850E+01  0.80124014708E+02  0.96027650497E+02  0.50000000000E+02 0.  0.
<mgrwt>
<rscale>  0 0.52928744E+02</rscale>
<asrwt>0</asrwt>
<pdfrwt beam="1">  1       13 0.10000000E+01 0.52928744E+02</pdfrwt>
<pdfrwt beam="2">  1       22 0.14272251E+00 0.52928744E+02</pdfrwt>
<totfact> 0.81883810E-01</totfact>
</mgrwt>
</event>
<event>
 4    1  0.2489496E+000  0.5152445E+02  0.7957747E-01  0.1437288E+00
         13   -1    0    0    0    0  0.00000000000E+00  0.00000000000E+00  0.99999944184E+02  0.10000000000E+03  0.10566000000E+00 0.  1.
         22   -1    0    0    0    0 -0.00000000000E+00 -0.00000000000E+00 -0.20369604898E+02  0.20369604898E+02  0.00000000000E+00 0.  1.
         13    1    1    2    0    0 -0.11964373801E+02 -0.34092429817E+01 -0.10679037052E+02  0.16395797466E+02  0.10566000000E+00 0. -1.
        996    1    1    2    0    0  0.11964373801E+02  0.34092429817E+01  0.90309376338E+02  0.10397380744E+03  0.50000000000E+02 0.  0.
<mgrwt>
<rscale>  0 0.51524452E+02</rscale>
<asrwt>0</asrwt>
<pdfrwt beam="1">  1       13 0.10000000E+01 0.51524452E+02</pdfrwt>
<pdfrwt beam="2">  1       22 0.20369627E+00 0.51524452E+02</pdfrwt>
<totfact> 0.43744364E-01</totfact>
</mgrwt>
</event>
<event>
 4    1  0.2489496E+000  0.5118132E+02  0.7957747E-01  0.1439072E+00
         13   -1    0    0    0    0  0.00000000000E+00  0.00000000000E+00  0.99999944178E+02  0.99999999998E+02  0.10566000000E+00 0.  1.
         22   -1    0    0    0    0 -0.00000000000E+00 -0.00000000000E+00 -0.10031228006E+02  0.10031228006E+02  0.00000000000E+00 0. -1.
         13    1    1    2    0    0 -0.91786226427E+01 -0.59397049533E+01  0.86268704856E+01  0.13926997773E+02  0.10566000000E+00 0. -1.
        996    1    1    2    0    0  0.91786226427E+01  0.59397049533E+01  0.81341845686E+02  0.96104230231E+02  0.50000000000E+02 0.  0.
<mgrwt>
<rscale>  0 0.51181317E+02</rscale>
<asrwt>0</asrwt>
<pdfrwt beam="1">  1       13 0.10000000E+01 0.51181317E+02</pdfrwt>
<pdfrwt beam="2">  1       22 0.10031253E+00 0.51181317E+02</pdfrwt>
<totfact> 0.14006563E+00</totfact>
</mgrwt>
</event>
<event>
 4    1  0.2489496E+000  0.5333412E+02  0.7957747E-01  0.1428145E+00
         13   -1    0    0    0    0  0.00000000000E+00  0.00000000000E+00  0.99999944185E+02  0.10000000001E+03  0.10566000000E+00 0. -1.
         22   -1    0    0    0    0 -0.00000000000E+00 -0.00000000000E+00 -0.13530002966E+02  0.13530002966E+02  0.00000000000E+00 0.  1.
         13    1    1    2    0    0  0.18404946461E+02 -0.24053703231E+01  0.12663589747E+02  0.22470103024E+02  0.10566000000E+00 0.  1.
        996    1    1    2    0    0 -0.18404946461E+02  0.24053703231E+01  0.73806351472E+02  0.91059899947E+02  0.50000000000E+02 0.  0.
<mgrwt>
<rscale>  0 0.53334115E+02</rscale>
<asrwt>0</asrwt>
<pdfrwt beam="1">  1       13 0.10000000E+01 0.53334115E+02</pdfrwt>
<pdfrwt beam="2">  1       22 0.13530027E+00 0.53334115E+02</pdfrwt>
<totfact> 0.89343311E-01</totfact>
</mgrwt>
</event>
<event>
 4    1  0.2489496E+000  0.6822962E+02  0.7957747E-01  0.1366219E+00
         13   -1    0    0    0    0  0.00000000000E+00  0.00000000000E+00  0.99999944175E+02  0.99999999995E+02  0.10566000000E+00 0.  1.
         22   -1    0    0    0    0 -0.00000000000E+00 -0.00000000000E+00 -0.44768037372E+02  0.44768037372E+02  0.00000000000E+00 0. -1.
         13    1    1    2    0    0 -0.36299880511E+00  0.46423591848E+02 -0.13065717310E+02  0.48228682141E+02  0.10566000000E+00 0. -1.
        996    1    1    2    0    0  0.36299880511E+00 -0.46423591848E+02  0.68297624112E+02  0.96539355227E+02  0.50000000000E+02 0.  0.
<mgrwt>
<rscale>  0 0.68229624E+02</rscale>
<asrwt>0</asrwt>
<pdfrwt beam="1">  1       13 0.10000000E+01 0.68229624E+02</pdfrwt>
<pdfrwt beam="2">  1       22 0.44768053E+00 0.68229624E+02</pdfrwt>
<totfact> 0.98621298E-02</totfact>
</mgrwt>
</event>
<event>
 4    1  0.2489496E+000  0.5966144E+02  0.7957747E-01  0.1399258E+00
         13   -1    0    0    0    0  0.00000000000E+00  0.00000000000E+00  0.99999944178E+02  0.99999999998E+02  0.10566000000E+00 0.  1.
         22   -1    0    0    0    0 -0.00000000000E+00 -0.00000000000E+00 -0.42010288205E+02  0.42010288205E+02  0.00000000000E+00 0. -1.
         13    1    1    2    0    0 -0.23062741574E+02 -0.22969478479E+02 -0.24121029950E+02  0.40513235373E+02  0.10566000000E+00 0. -1.
        996    1    1    2    0    0  0.23062741574E+02  0.22969478479E+02  0.82110685923E+02  0.10149705283E+03  0.50000000000E+02 0.  0.
<mgrwt>
<rscale>  0 0.59661436E+02</rscale>
<asrwt>0</asrwt>
<pdfrwt beam="1">  1       13 0.10000000E+01 0.59661436E+02</pdfrwt>
<pdfrwt beam="2">  1       22 0.42010304E+00 0.59661436E+02</pdfrwt>
<totfact> 0.11286136E-01</totfact>
</mgrwt>
</event>
<event>
 4    1  0.2489496E+000  0.5362814E+02  0.7957747E-01  0.1426700E+00
         13   -1    0    0    0    0  0.00000000000E+00  0.00000000000E+00  0.99999944179E+02  0.10000000000E+03  0.10566000000E+00 0. -1.
         22   -1    0    0    0    0 -0.00000000000E+00 -0.00000000000E+00 -0.14411928525E+02  0.14411928525E+02  0.00000000000E+00 0. -1.
         13    1    1    2    0    0  0.23996034883E+01  0.19241090308E+02  0.10240979888E+02  0.21928668137E+02  0.10566000000E+00 0.  1.
        996    1    1    2    0    0 -0.23996034883E+01 -0.19241090308E+02  0.75347035766E+02  0.92483260388E+02  0.50000000000E+02 0.  0.
<mgrwt>
<rscale>  0 0.53628142E+02</rscale>
<asrwt>0</asrwt>
<pdfrwt beam="1">  1       13 0.10000000E+01 0.53628142E+02</pdfrwt>
<pdfrwt beam="2">  1       22 0.14411952E+00 0.53628142E+02</pdfrwt>
<totfact> 0.80702882E-01</totfact>
</mgrwt>
</event>
<event>
 4    1  0.2489496E+000  0.5295855E+02  0.7957747E-01  0.1430007E+00
         13   -1    0    0    0    0  0.00000000000E+00  0.00000000000E+00  0.99999944175E+02  0.99999999995E+02  0.10566000000E+00 0. -1.
         22   -1    0    0    0    0 -0.00000000000E+00 -0.00000000000E+00 -0.21933461202E+02  0.21933461202E+02  0.00000000000E+00 0.  1.
         13    1    1    2    0    0 -0.97408231287E+01  0.14481873869E+02 -0.92945955964E+01  0.19773946933E+02  0.10566000000E+00 0.  1.
        996    1    1    2    0    0  0.97408231287E+01 -0.14481873869E+02  0.87361078569E+02  0.10215951426E+03  0.50000000000E+02 0.  0.
<mgrwt>
<rscale>  0 0.52958553E+02</rscale>
<asrwt>0</asrwt>
<pdfrwt beam="1">  1       13 0.10000000E+01 0.52958553E+02</pdfrwt>
<pdfrwt beam="2">  1       22 0.21933483E+00 0.52958553E+02</pdfrwt>
<totfact> 0.38103609E-01</totfact>
</mgrwt>
</event>
<event>
 4    1  0.2489496E+000  0.5386135E+02  0.7957747E-01  0.1425562E+00
         13   -1    0    0    0    0  0.00000000000E+00  0.00000000000E+00  0.99999944179E+02  0.99999999999E+02  0.10566000000E+00 0.  1.
         22   -1    0    0    0    0 -0.00000000000E+00 -0.00000000000E+00 -0.21664443958E+02  0.21664443958E+02  0.00000000000E+00 0. -1.
         13    1    1    2    0    0 -0.20024951671E+02  0.21451856457E+00 -0.66041068131E+01  0.21087202244E+02  0.10566000000E+00 0. -1.
        996    1    1    2    0    0  0.20024951671E+02 -0.21451856457E+00  0.84939607034E+02  0.10057724171E+03  0.50000000000E+02 0.  0.
<mgrwt>
<rscale>  0 0.53861347E+02</rscale>
<asrwt>0</asrwt>
<pdfrwt beam="1">  1       13 0.10000000E+01 0.53861347E+02</pdfrwt>
<pdfrwt beam="2">  1       22 0.21664466E+00 0.53861347E+02</pdfrwt>
<totfact> 0.39075496E-01</totfact>
</mgrwt>
</event>
<event>
 4    1  0.2489496E+000  0.5411846E+02  0.7957747E-01  0.1424314E+00
         13   -1    0    0    0    0  0.00000000000E+00  0.00000000000E+00  0.99999944180E+02  0.10000000000E+03  0.10566000000E+00 0. -1.
         22   -1    0    0    0    0 -0.00000000000E+00 -0.00000000000E+00 -0.14001279442E+02  0.14001279442E+02  0.00000000000E+00 0.  1.
         13    1    1    2    0    0  0.15653453444E+02  0.13556422695E+02  0.22961097610E+02  0.30919740757E+02  0.10566000000E+00 0.  1.
        996    1    1    2    0    0 -0.15653453444E+02 -0.13556422695E+02  0.63037567128E+02  0.83081538686E+02  0.50000000000E+02 0.  0.
<mgrwt>
<rscale>  0 0.54118455E+02</rscale>
<asrwt>0</asrwt>
<pdfrwt beam="1">  1       13 0.10000000E+01 0.54118455E+02</pdfrwt>
<pdfrwt beam="2">  1       22 0.14001303E+00 0.54118455E+02</pdfrwt>
<totfact> 0.84683290E-01</totfact>
</mgrwt>
</event>
<event>
 4    1  0.2489496E+000  0.7253698E+02  0.7957747E-01  0.1351672E+00
         13   -1    0    0    0    0  0.00000000000E+00  0.00000000000E+00  0.99999944174E+02  0.99999999994E+02  0.10566000000E+00 0. -1.
         22   -1    0    0    0    0 -0.00000000000E+00 -0.00000000000E+00 -0.65488349056E+02  0.65488349056E+02  0.00000000000E+00 0.  1.
         13    1    1    2    0    0 -0.51488944818E+02 -0.10511964663E+02 -0.36496111852E+02  0.63981170542E+02  0.10566000000E+00 0.  1.
        996    1    1    2    0    0  0.51488944818E+02  0.10511964663E+02  0.71007706970E+02  0.10150717851E+03  0.50000000000E+02 0.  0.
<mgrwt>
<rscale>  0 0.72536976E+02</rscale>
<asrwt>0</asrwt>
<pdfrwt beam="1">  1       13 0.10000000E+01 0.72536976E+02</pdfrwt>
<pdfrwt beam="2">  1       22 0.65488359E+00 0.72536976E+02</pdfrwt>
<totfact> 0.87081125E-02</totfact>
</mgrwt>
</event>
<event>
 4    1  0.2489496E+000  0.5164310E+02  0.7957747E-01  0.1436675E+00
         13   -1    0    0    0    0  0.00000000000E+00  0.00000000000E+00  0.99999944184E+02  0.10000000000E+03  0.10566000000E+00 0. -1.
         22   -1    0    0    0    0 -0.00000000000E+00 -0.00000000000E+00 -0.10967761060E+02  0.10967761060E+02  0.00000000000E+00 0.  1.
         13    1    1    2    0    0  0.10985269294E+02  0.68068588545E+01  0.91081311518E+01  0.15810714280E+02  0.10566000000E+00 0.  1.
        996    1    1    2    0    0 -0.10985269294E+02 -0.68068588545E+01  0.79924051973E+02  0.95157046784E+02  0.50000000000E+02 0.  0.
<mgrwt>
<rscale>  0 0.51643097E+02</rscale>
<asrwt>0</asrwt>
<pdfrwt beam="1">  1       13 0.10000000E+01 0.51643097E+02</pdfrwt>
<pdfrwt beam="2">  1       22 0.10967786E+00 0.51643097E+02</pdfrwt>
<totfact> 0.12300673E+00</totfact>
</mgrwt>
</event>
<event>
 4    1  0.2489496E+000  0.5423330E+02  0.7957747E-01  0.1423760E+00
         13   -1    0    0    0    0  0.00000000000E+00  0.00000000000E+00  0.99999944182E+02  0.10000000000E+03  0.10566000000E+00 0. -1.
         22   -1    0    0    0    0 -0.00000000000E+00 -0.00000000000E+00 -0.14917689202E+02  0.14917689202E+02  0.00000000000E+00 0.  1.
         13    1    1    2    0    0 -0.18563069744E+02  0.98317697978E+01  0.12969605494E+02  0.24687508711E+02  0.10566000000E+00 0.  1.
        996    1    1    2    0    0  0.18563069744E+02 -0.98317697978E+01  0.72112649487E+02  0.90230180492E+02  0.50000000000E+02 0.  0.
<mgrwt>
<rscale>  0 0.54233304E+02</rscale>
<asrwt>0</asrwt>
<pdfrwt beam="1">  1       13 0.10000000E+01 0.54233304E+02</pdfrwt>
<pdfrwt beam="2">  1       22 0.14917713E+00 0.54233304E+02</pdfrwt>
<totfact> 0.76325169E-01</totfact>
</mgrwt>
</event>
<event>
 4    1  0.2489496E+000  0.5327925E+02  0.7957747E-01  0.1428416E+00
         13   -1    0    0    0    0  0.00000000000E+00  0.00000000000E+00  0.99999944178E+02  0.99999999998E+02  0.10566000000E+00 0. -1.
         22   -1    0    0    0    0 -0.00000000000E+00 -0.00000000000E+00 -0.13202813013E+02  0.13202813013E+02  0.00000000000E+00 0. -1.
         13    1    1    2    0    0 -0.12386058630E+02 -0.13611186737E+02  0.31017559187E+02  0.36066313850E+02  0.10566000000E+00 0.  1.
        996    1    1    2    0    0  0.12386058630E+02  0.13611186737E+02  0.55779571977E+02  0.77136499161E+02  0.50000000000E+02 0.  0.
<mgrwt>
<rscale>  0 0.53279253E+02</rscale>
<asrwt>0</asrwt>
<pdfrwt beam="1">  1       13 0.10000000E+01 0.53279253E+02</pdfrwt>
<pdfrwt beam="2">  1       22 0.13202837E+00 0.53279253E+02</pdfrwt>
<totfact> 0.92884953E-01</totfact>
</mgrwt>
</event>
<event>
 4    1  0.2489496E+000  0.5254808E+02  0.7957747E-01  0.1432063E+00
         13   -1    0    0    0    0  0.00000000000E+00  0.00000000000E+00  0.99999944179E+02  0.99999999999E+02  0.10566000000E+00 0. -1.
         22   -1    0    0    0    0 -0.00000000000E+00 -0.00000000000E+00 -0.14989321890E+02  0.14989321890E+02  0.00000000000E+00 0. -1.
         13    1    1    2    0    0  0.75874023502E+01  0.14273457330E+02  0.13851728049E+01  0.16224368286E+02  0.10566000000E+00 0.  1.
        996    1    1    2    0    0 -0.75874023502E+01 -0.14273457330E+02  0.83625449484E+02  0.98764953602E+02  0.50000000000E+02 0.  0.
<mgrwt>
<rscale>  0 0.52548076E+02</rscale>
<asrwt>0</asrwt>
<pdfrwt beam="1">  1       13 0.10000000E+01 0.52548076E+02</pdfrwt>
<pdfrwt beam="2">  1       22 0.14989346E+00 0.52548076E+02</pdfrwt>
<totfact> 0.75465812E-01</totfact>
</mgrwt>
</event>
<event>
 4    1  0.2489496E+000  0.5125686E+02  0.7957747E-01  0.1438678E+00
         13   -1    0    0    0    0  0.00000000000E+00  0.00000000000E+00  0.99999944176E+02  0.99999999996E+02  0.10566000000E+00 0. -1.
         22   -1    0    0    0    0 -0.00000000000E+00 -0.00000000000E+00 -0.10856290715E+02  0.10856290715E+02  0.00000000000E+00 0. -1.
         13    1    1    2    0    0 -0.55646932454E+01  0.98132369891E+01  0.50222942639E+01  0.12349090445E+02  0.10566000000E+00 0.  1.
        996    1    1    2    0    0  0.55646932454E+01 -0.98132369891E+01  0.84121359197E+02  0.98507200266E+02  0.50000000000E+02 0.  0.
<mgrwt>
<rscale>  0 0.51256857E+02</rscale>
<asrwt>0</asrwt>
<pdfrwt beam="1">  1       13 0.10000000E+01 0.51256857E+02</pdfrwt>
<pdfrwt beam="2">  1       22 0.10856316E+00 0.51256857E+02</pdfrwt>
<totfact> 0.12477263E+00</totfact>
</mgrwt>
</event>
<event>
 4    1  0.2489496E+000  0.5147745E+02  0.7957747E-01  0.1437532E+00
         13   -1    0    0    0    0  0.00000000000E+00  0.00000000000E+00  0.99999944176E+02  0.99999999997E+02  0.10566000000E+00 0. -1.
         22   -1    0    0    0    0 -0.00000000000E+00 -0.00000000000E+00 -0.12734575627E+02  0.12734575627E+02  0.00000000000E+00 0.  1.
         13    1    1    2    0    0  0.26916629795E+01 -0.11944982141E+02  0.10106868280E+01  0.12286590245E+02  0.10566000000E+00 0.  1.
        996    1    1    2    0    0 -0.26916629795E+01  0.11944982141E+02  0.86254681721E+02  0.10044798538E+03  0.50000000000E+02 0.  0.
<mgrwt>
<rscale>  0 0.51477448E+02</rscale>
<asrwt>0</asrwt>
<pdfrwt beam="1">  1       13 0.10000000E+01 0.51477448E+02</pdfrwt>
<pdfrwt beam="2">  1       22 0.12734600E+00 0.51477448E+02</pdfrwt>
<totfact> 0.97938044E-01</totfact>
</mgrwt>
</event>
<event>
 4    1  0.2489496E+000  0.5614460E+02  0.7957747E-01  0.1414762E+00
         13   -1    0    0    0    0  0.00000000000E+00  0.00000000000E+00  0.99999944181E+02  0.10000000000E+03  0.10566000000E+00 0.  1.
         22   -1    0    0    0    0 -0.00000000000E+00 -0.00000000000E+00 -0.22745426094E+02  0.22745426094E+02  0.00000000000E+00 0. -1.
         13    1    1    2    0    0  0.25494957281E+02  0.14912219544E+01 -0.20025739205E+01  0.25617143791E+02  0.10566000000E+00 0. -1.
        996    1    1    2    0    0 -0.25494957281E+02 -0.14912219544E+01  0.79257092008E+02  0.97128282304E+02  0.50000000000E+02 0.  0.
<mgrwt>
<rscale>  0 0.56144604E+02</rscale>
<asrwt>0</asrwt>
<pdfrwt beam="1">  1       13 0.10000000E+01 0.56144604E+02</pdfrwt>
<pdfrwt beam="2">  1       22 0.22745448E+00 0.56144604E+02</pdfrwt>
<totfact> 0.35700869E-01</totfact>
</mgrwt>
</event>
<event>
 4    1  0.2489496E+000  0.5116042E+02  0.7957747E-01  0.1439181E+00
         13   -1    0    0    0    0  0.00000000000E+00  0.00000000000E+00  0.99999944185E+02  0.10000000001E+03  0.10566000000E+00 0.  1.
         22   -1    0    0    0    0 -0.00000000000E+00 -0.00000000000E+00 -0.12907966988E+02  0.12907966988E+02  0.00000000000E+00 0. -1.
         13    1    1    2    0    0  0.10235708920E+02  0.35522895954E+01 -0.11621755533E+01  0.10897261790E+02  0.10566000000E+00 0. -1.
        996    1    1    2    0    0 -0.10235708920E+02 -0.35522895954E+01  0.88254152751E+02  0.10201070520E+03  0.50000000000E+02 0.  0.
<mgrwt>
<rscale>  0 0.51160419E+02</rscale>
<asrwt>0</asrwt>
<pdfrwt beam="1">  1       13 0.10000000E+01 0.51160419E+02</pdfrwt>
<pdfrwt beam="2">  1       22 0.12907991E+00 0.51160419E+02</pdfrwt>
<totfact> 0.95817242E-01</totfact>
</mgrwt>
</event>
<event>
 4    1  0.2489496E+000  0.5130302E+02  0.7957747E-01  0.1438437E+00
         13   -1    0    0    0    0  0.00000000000E+00  0.00000000000E+00  0.99999944176E+02  0.99999999996E+02  0.10566000000E+00 0. -1.
         22   -1    0    0    0    0 -0.00000000000E+00 -0.00000000000E+00 -0.99504830428E+01  0.99504830428E+01  0.00000000000E+00 0. -1.
         13    1    1    2    0    0 -0.11488022614E+02 -0.15984538529E+00  0.12616784666E+02  0.17064425963E+02  0.10566000000E+00 0.  1.
        996    1    1    2    0    0  0.11488022614E+02  0.15984538529E+00  0.77432676467E+02  0.92886057076E+02  0.50000000000E+02 0.  0.
<mgrwt>
<rscale>  0 0.51303023E+02</rscale>
<asrwt>0</asrwt>
<pdfrwt beam="1">  1       13 0.10000000E+01 0.51303023E+02</pdfrwt>
<pdfrwt beam="2">  1       22 0.99505082E-01 0.51303023E+02</pdfrwt>
<totfact> 0.14175604E+00</totfact>
</mgrwt>
</event>
<event>
 4    1  0.2489496E+000  0.5244597E+02  0.7957747E-01  0.1432578E+00
         13   -1    0    0    0    0  0.00000000000E+00  0.00000000000E+00  0.99999944182E+02  0.10000000000E+03  0.10566000000E+00 0. -1.
         22   -1    0    0    0    0 -0.00000000000E+00 -0.00000000000E+00 -0.22851859091E+02  0.22851859091E+02  0.00000000000E+00 0.  1.
         13    1    1    2    0    0  0.12180597520E+02 -0.10110044983E+02 -0.11696448689E+02  0.19682429765E+02  0.10566000000E+00 0.  1.
        996    1    1    2    0    0 -0.12180597520E+02  0.10110044983E+02  0.88844533780E+02  0.10316942933E+03  0.50000000000E+02 0.  0.
<mgrwt>
<rscale>  0 0.52445972E+02</rscale>
<asrwt>0</asrwt>
<pdfrwt beam="1">  1       13 0.10000000E+01 0.52445972E+02</pdfrwt>
<pdfrwt beam="2">  1       22 0.22851881E+00 0.52445972E+02</pdfrwt>
<totfact> 0.35170531E-01</totfact>
</mgrwt>
</event>
<event>
 4    1  0.2489496E+000  0.5208967E+02  0.7957747E-01  0.1434386E+00
         13   -1    0    0    0    0  0.00000000000E+00  0.00000000000E+00  0.99999944179E+02  0.99999999999E+02  0.10566000000E+00 0.  1.
         22   -1    0    0    0    0 -0.00000000000E+00 -0.00000000000E+00 -0.12098519937E+02  0.12098519937E+02  0.00000000000E+00 0. -1.
         13    1    1    2    0    0 -0.12448359554E+02  0.76401509943E+01  0.78239907391E+01  0.16569838802E+02  0.10566000000E+00 0. -1.
        996    1    1    2    0    0  0.12448359554E+02 -0.76401509943E+01  0.80077433503E+02  0.95528681134E+02  0.50000000000E+02 0.  0.
<mgrwt>
<rscale>  0 0.52089668E+02</rscale>
<asrwt>0</asrwt>
<pdfrwt beam="1">  1       13 0.10000000E+01 0.52089668E+02</pdfrwt>
<pdfrwt beam="2">  1       22 0.12098544E+00 0.52089668E+02</pdfrwt>
<totfact> 0.10617532E+00</totfact>
</mgrwt>
</event>
<event>
 4    1  0.2489496E+000  0.6488098E+02  0.7957747E-01  0.1378420E+00
         13   -1    0    0    0    0  0.00000000000E+00  0.00000000000E+00  0.99999944175E+02  0.99999999995E+02  0.10566000000E+00 0. -1.
         22   -1    0    0    0    0 -0.00000000000E+00 -0.00000000000E+00 -0.66817249540E+02  0.66817249540E+02  0.00000000000E+00 0.  1.
         13    1    1    2    0    0  0.37913018928E+02  0.16496796067E+02 -0.47701271203E+02  0.63126569074E+02  0.10566000000E+00 0.  1.
        996    1    1    2    0    0 -0.37913018928E+02 -0.16496796067E+02  0.80883965838E+02  0.10369068046E+03  0.50000000000E+02 0.  0.
<mgrwt>
<rscale>  0 0.64880978E+02</rscale>
<asrwt>0</asrwt>
<pdfrwt beam="1">  1       13 0.10000000E+01 0.64880978E+02</pdfrwt>
<pdfrwt beam="2">  1       22 0.66817259E+00 0.64880978E+02</pdfrwt>
<totfact> 0.86593793E-02</totfact>
</mgrwt>
</event>
<event>
 4    1  0.2489496E+000  0.5510737E+02  0.7957747E-01  0.1419592E+00
         13   -1    0    0    0    0  0.00000000000E+00  0.00000000000E+00  0.99999944174E+02  0.99999999994E+02  0.10566000000E+00 0. -1.
         22   -1    0    0    0    0 -0.00000000000E+00 -0.00000000000E+00 -0.30797321167E+02  0.30797321167E+02  0.00000000000E+00 0.  1.
         13    1    1    2    0    0  0.20945464561E+02  0.99050185756E+01 -0.16824119781E+02  0.28633617464E+02  0.10566000000E+00 0.  1.
        996    1    1    2    0    0 -0.20945464561E+02 -0.99050185756E+01  0.86026742787E+02  0.10216370370E+03  0.50000000000E+02 0.  0.
<mgrwt>
<rscale>  0 0.55107367E+02</rscale>
<asrwt>0</asrwt>
<pdfrwt beam="1">  1       13 0.10000000E+01 0.55107367E+02</pdfrwt>
<pdfrwt beam="2">  1       22 0.30797340E+00 0.55107367E+02</pdfrwt>
<totfact> 0.19797544E-01</totfact>
</mgrwt>
</event>
<event>
 4    1  0.2489496E+000  0.5140525E+02  0.7957747E-01  0.1437906E+00
         13   -1    0    0    0    0  0.00000000000E+00  0.00000000000E+00  0.99999944176E+02  0.99999999997E+02  0.10566000000E+00 0.  1.
         22   -1    0    0    0    0 -0.00000000000E+00 -0.00000000000E+00 -0.10847404664E+02  0.10847404664E+02  0.00000000000E+00 0.  1.
         13    1    1    2    0    0  0.42242427946E+01  0.11164942230E+02  0.67180124919E+01  0.13698285224E+02  0.10566000000E+00 0. -1.
        996    1    1    2    0    0 -0.42242427946E+01 -0.11164942230E+02  0.82434527021E+02  0.97149119437E+02  0.50000000000E+02 0.  0.
<mgrwt>
<rscale>  0 0.51405254E+02</rscale>
<asrwt>0</asrwt>
<pdfrwt beam="1">  1       13 0.10000000E+01 0.51405254E+02</pdfrwt>
<pdfrwt beam="2">  1       22 0.10847430E+00 0.51405254E+02</pdfrwt>
<totfact> 0.12496774E+00</totfact>
</mgrwt>
</event>
<event>
 4    1  0.2489496E+000  0.5128780E+02  0.7957747E-01  0.1438517E+00
         13   -1    0    0    0    0  0.00000000000E+00  0.00000000000E+00  0.99999944178E+02  0.99999999998E+02  0.10566000000E+00 0.  1.
         22   -1    0    0    0    0 -0.00000000000E+00 -0.00000000000E+00 -0.19522181825E+02  0.19522181825E+02  0.00000000000E+00 0. -1.
         13    1    1    2    0    0  0.10307281976E+02 -0.49191562526E+01 -0.10220762334E+02  0.15326881832E+02  0.10566000000E+00 0. -1.
        996    1    1    2    0    0 -0.10307281976E+02  0.49191562526E+01  0.90698524686E+02  0.10419529999E+03  0.50000000000E+02 0.  0.
<mgrwt>
<rscale>  0 0.51287797E+02</rscale>
<asrwt>0</asrwt>
<pdfrwt beam="1">  1       13 0.10000000E+01 0.51287797E+02</pdfrwt>
<pdfrwt beam="2">  1       22 0.19522204E+00 0.51287797E+02</pdfrwt>
<totfact> 0.47327455E-01</totfact>
</mgrwt>
</event>
<event>
 4    1  0.2489496E+000  0.5102696E+02  0.7957747E-01  0.1439880E+00
         13   -1    0    0    0    0  0.00000000000E+00  0.00000000000E+00  0.99999944186E+02  0.10000000001E+03  0.10566000000E+00 0. -1.
         22   -1    0    0    0    0 -0.00000000000E+00 -0.00000000000E+00 -0.98890075481E+01  0.98890075481E+01  0.00000000000E+00 0. -1.
         13    1    1    2    0    0 -0.58183671408E+01  0.83604721530E+01  0.69858837394E+01  0.12351705407E+02  0.10566000000E+00 0.  1.
        996    1    1    2    0    0  0.58183671408E+01 -0.83604721530E+01  0.83125052899E+02  0.97537302147E+02  0.50000000000E+02 0.  0.
<mgrwt>
<rscale>  0 0.51026962E+02</rscale>
<asrwt>0</asrwt>
<pdfrwt beam="1">  1       13 0.10000000E+01 0.51026962E+02</pdfrwt>
<pdfrwt beam="2">  1       22 0.98890327E-01 0.51026962E+02</pdfrwt>
<totfact> 0.14293464E+00</totfact>
</mgrwt>
</event>
<event>
 4    1  0.2489496E+000  0.5292865E+02  0.7957747E-01  0.1430156E+00
         13   -1    0    0    0    0  0.00000000000E+00  0.00000000000E+00  0.99999944181E+02  0.10000000000E+03  0.10566000000E+00 0. -1.
         22   -1    0    0    0    0 -0.00000000000E+00 -0.00000000000E+00 -0.14370131364E+02  0.14370131364E+02  0.00000000000E+00 0.  1.
         13    1    1    2    0    0 -0.48304742665E+01 -0.16676593718E+02  0.52679768721E+01  0.18144007386E+02  0.10566000000E+00 0.  1.
        996    1    1    2    0    0  0.48304742665E+01  0.16676593718E+02  0.80361835944E+02  0.96226123979E+02  0.50000000000E+02 0.  0.
<mgrwt>
<rscale>  0 0.52928653E+02</rscale>
<asrwt>0</asrwt>
<pdfrwt beam="1">  1       13 0.10000000E+01 0.52928653E+02</pdfrwt>
<pdfrwt beam="2">  1       22 0.14370155E+00 0.52928653E+02</pdfrwt>
<totfact> 0.80973243E-01</totfact>
</mgrwt>
</event>
<event>
 4    1  0.2489496E+000  0.5166812E+02  0.7957747E-01  0.1436546E+00
         13   -1    0    0    0    0  0.00000000000E+00  0.00000000000E+00  0.99999944173E+02  0.99999999993E+02  0.10566000000E+00 0. -1.
         22   -1    0    0    0    0 -0.00000000000E+00 -0.00000000000E+00 -0.55647009439E+02  0.55647009439E+02  0.00000000000E+00 0.  1.
         13    1    1    2    0    0 -0.12483803773E+02 -0.37080612773E+01 -0.48047841429E+02  0.49781535785E+02  0.10566000000E+00 0.  1.
        996    1    1    2    0    0  0.12483803773E+02  0.37080612773E+01  0.92400776163E+02  0.10586547365E+03  0.50000000000E+02 0.  0.
<mgrwt>
<rscale>  0 0.51668124E+02</rscale>
<asrwt>0</asrwt>
<pdfrwt beam="1">  1       13 0.10000000E+01 0.51668124E+02</pdfrwt>
<pdfrwt beam="2">  1       22 0.55647022E+00 0.51668124E+02</pdfrwt>
<totfact> 0.58695699E-02</totfact>
</mgrwt>
</event>
<event>
 4    1  0.2489496E+000  0.5272497E+02  0.7957747E-01  0.1431174E+00
         13   -1    0    0    0    0  0.00000000000E+00  0.00000000000E+00  0.99999944175E+02  0.99999999995E+02  0.10566000000E+00 0.  1.
         22   -1    0    0    0    0 -0.00000000000E+00 -0.00000000000E+00 -0.12717781237E+02  0.12717781237E+02  0.00000000000E+00 0.  1.
         13    1    1    2    0    0 -0.78802717285E+01  0.14758863119E+02  0.33256595836E+02  0.37228148674E+02  0.10566000000E+00 0. -1.
        996    1    1    2    0    0  0.78802717285E+01 -0.14758863119E+02  0.54025567101E+02  0.75489632558E+02  0.50000000000E+02 0.  0.
<mgrwt>
<rscale>  0 0.52724972E+02</rscale>
<asrwt>0</asrwt>
<pdfrwt beam="1">  1       13 0.10000000E+01 0.52724972E+02</pdfrwt>
<pdfrwt beam="2">  1       22 0.12717806E+00 0.52724972E+02</pdfrwt>
<totfact> 0.98407540E-01</totfact>
</mgrwt>
</event>
<event>
 4    1  0.2489496E+000  0.5645981E+02  0.7957747E-01  0.1413319E+00
         13   -1    0    0    0    0  0.00000000000E+00  0.00000000000E+00  0.99999944181E+02  0.10000000000E+03  0.10566000000E+00 0.  1.
         22   -1    0    0    0    0 -0.00000000000E+00 -0.00000000000E+00 -0.21498055216E+02  0.21498055216E+02  0.00000000000E+00 0. -1.
         13    1    1    2    0    0 -0.71933368383E+01 -0.25218371632E+02  0.18398247976E+01  0.26288904160E+02  0.10566000000E+00 0. -1.
        996    1    1    2    0    0  0.71933368383E+01  0.25218371632E+02  0.76662064167E+02  0.95209151057E+02  0.50000000000E+02 0.  0.
<mgrwt>
<rscale>  0 0.56459812E+02</rscale>
<asrwt>0</asrwt>
<pdfrwt beam="1">  1       13 0.10000000E+01 0.56459812E+02</pdfrwt>
<pdfrwt beam="2">  1       22 0.21498077E+00 0.56459812E+02</pdfrwt>
<totfact> 0.39823836E-01</totfact>
</mgrwt>
</event>
<event>
 4    1  0.2489496E+000  0.5198798E+02  0.7957747E-01  0.1434905E+00
         13   -1    0    0    0    0  0.00000000000E+00  0.00000000000E+00  0.99999944182E+02  0.10000000000E+03  0.10566000000E+00 0.  1.
         22   -1    0    0    0    0 -0.00000000000E+00 -0.00000000000E+00 -0.11509725069E+02  0.11509725069E+02  0.00000000000E+00 0.  1.
         13    1    1    2    0    0  0.13883289179E+02 -0.31629007400E+01  0.10141655136E+02  0.17481818912E+02  0.10566000000E+00 0. -1.
        996    1    1    2    0    0 -0.13883289179E+02  0.31629007400E+01  0.78348563977E+02  0.94027906159E+02  0.50000000000E+02 0.  0.
<mgrwt>
<rscale>  0 0.51987976E+02</rscale>
<asrwt>0</asrwt>
<pdfrwt beam="1">  1       13 0.10000000E+01 0.51987976E+02</pdfrwt>
<pdfrwt beam="2">  1       22 0.11509750E+00 0.51987976E+02</pdfrwt>
<totfact> 0.11452660E+00</totfact>
</mgrwt>
</event>
<event>
 4    1  0.2489496E+000  0.5237857E+02  0.7957747E-01  0.1432919E+00
         13   -1    0    0    0    0  0.00000000000E+00  0.00000000000E+00  0.99999944185E+02  0.10000000001E+03  0.10566000000E+00 0. -1.
         22   -1    0    0    0    0 -0.00000000000E+00 -0.00000000000E+00 -0.21417106663E+02  0.21417106663E+02  0.00000000000E+00 0.  1.
         13    1    1    2    0    0 -0.19251594671E+00 -0.15603776813E+02 -0.99805816005E+01  0.18523986783E+02  0.10566000000E+00 0.  1.
        996    1    1    2    0    0  0.19251594671E+00  0.15603776813E+02  0.88563419122E+02  0.10289311989E+03  0.50000000000E+02 0.  0.
<mgrwt>
<rscale>  0 0.52378573E+02</rscale>
<asrwt>0</asrwt>
<pdfrwt beam="1">  1       13 0.10000000E+01 0.52378573E+02</pdfrwt>
<pdfrwt beam="2">  1       22 0.21417129E+00 0.52378573E+02</pdfrwt>
<totfact> 0.39843064E-01</totfact>
</mgrwt>
</event>
<event>
 4    1  0.2489496E+000  0.5321601E+02  0.7957747E-01  0.1428729E+00
         13   -1    0    0    0    0  0.00000000000E+00  0.00000000000E+00  0.99999944182E+02  0.10000000000E+03  0.10566000000E+00 0.  1.
         22   -1    0    0    0    0 -0.00000000000E+00 -0.00000000000E+00 -0.16797453002E+02  0.16797453002E+02  0.00000000000E+00 0. -1.
         13    1    1    2    0    0  0.15210604334E+02 -0.10029017530E+02  0.22435185891E+00  0.18221009155E+02  0.10566000000E+00 0. -1.
        996    1    1    2    0    0 -0.15210604334E+02  0.10029017530E+02  0.82978139321E+02  0.98576443849E+02  0.50000000000E+02 0.  0.
<mgrwt>
<rscale>  0 0.53216010E+02</rscale>
<asrwt>0</asrwt>
<pdfrwt beam="1">  1       13 0.10000000E+01 0.53216010E+02</pdfrwt>
<pdfrwt beam="2">  1       22 0.16797476E+00 0.53216010E+02</pdfrwt>
<totfact> 0.62231111E-01</totfact>
</mgrwt>
</event>
<event>
 4    1  0.2489496E+000  0.5258001E+02  0.7957747E-01  0.1431902E+00
         13   -1    0    0    0    0  0.00000000000E+00  0.00000000000E+00  0.99999944179E+02  0.99999999999E+02  0.10566000000E+00 0. -1.
         22   -1    0    0    0    0 -0.00000000000E+00 -0.00000000000E+00 -0.13016993191E+02  0.13016993191E+02  0.00000000000E+00 0. -1.
         13    1    1    2    0    0  0.97192766305E-01 -0.16268005632E+02  0.37228849945E+02  0.40628264619E+02  0.10566000000E+00 0.  1.
        996    1    1    2    0    0 -0.97192766305E-01  0.16268005632E+02  0.49754101043E+02  0.72388728572E+02  0.50000000000E+02 0.  0.
<mgrwt>
<rscale>  0 0.52580010E+02</rscale>
<asrwt>0</asrwt>
<pdfrwt beam="1">  1       13 0.10000000E+01 0.52580010E+02</pdfrwt>
<pdfrwt beam="2">  1       22 0.13017017E+00 0.52580010E+02</pdfrwt>
<totfact> 0.94849568E-01</totfact>
</mgrwt>
</event>
<event>
 4    1  0.2489496E+000  0.5147895E+02  0.7957747E-01  0.1437524E+00
         13   -1    0    0    0    0  0.00000000000E+00  0.00000000000E+00  0.99999944185E+02  0.10000000000E+03  0.10566000000E+00 0.  1.
         22   -1    0    0    0    0 -0.00000000000E+00 -0.00000000000E+00 -0.11019561862E+02  0.11019561862E+02  0.00000000000E+00 0.  1.
         13    1    1    2    0    0 -0.63323957251E+01 -0.10487296212E+02  0.31809292781E+02  0.34087019358E+02  0.10566000000E+00 0. -1.
        996    1    1    2    0    0  0.63323957251E+01  0.10487296212E+02  0.57171089542E+02  0.76932542509E+02  0.50000000000E+02 0.  0.
<mgrwt>
<rscale>  0 0.51478953E+02</rscale>
<asrwt>0</asrwt>
<pdfrwt beam="1">  1       13 0.10000000E+01 0.51478953E+02</pdfrwt>
<pdfrwt beam="2">  1       22 0.11019587E+00 0.51478953E+02</pdfrwt>
<totfact> 0.12210096E+00</totfact>
</mgrwt>
</event>
<event>
 4    1  0.2489496E+000  0.5747347E+02  0.7957747E-01  0.1408751E+00
         13   -1    0    0    0    0  0.00000000000E+00  0.00000000000E+00  0.99999944182E+02  0.10000000000E+03  0.10566000000E+00 0.  1.
         22   -1    0    0    0    0 -0.00000000000E+00 -0.00000000000E+00 -0.18530410108E+02  0.18530410108E+02  0.00000000000E+00 0. -1.
         13    1    1    2    0    0 -0.27947578269E+02 -0.47045579806E+01  0.22505327128E+02  0.36189790136E+02  0.10566000000E+00 0. -1.
        996    1    1    2    0    0  0.27947578269E+02  0.47045579806E+01  0.58964206946E+02  0.82340619974E+02  0.50000000000E+02 0.  0.
<mgrwt>
<rscale>  0 0.57473472E+02</rscale>
<asrwt>0</asrwt>
<pdfrwt beam="1">  1       13 0.10000000E+01 0.57473472E+02</pdfrwt>
<pdfrwt beam="2">  1       22 0.18530433E+00 0.57473472E+02</pdfrwt>
<totfact> 0.52643280E-01</totfact>
</mgrwt>
</event>
<event>
 4    1  0.2489496E+000  0.5184735E+02  0.7957747E-01  0.1435625E+00
         13   -1    0    0    0    0  0.00000000000E+00  0.00000000000E+00  0.99999944179E+02  0.99999999999E+02  0.10566000000E+00 0.  1.
         22   -1    0    0    0    0 -0.00000000000E+00 -0.00000000000E+00 -0.11411541615E+02  0.11411541615E+02  0.00000000000E+00 0. -1.
         13    1    1    2    0    0  0.39095437628E+00 -0.13711130111E+02  0.89352374226E+01  0.16370631206E+02  0.10566000000E+00 0. -1.
        996    1    1    2    0    0 -0.39095437628E+00  0.13711130111E+02  0.79653165141E+02  0.95040910408E+02  0.50000000000E+02 0.  0.
<mgrwt>
<rscale>  0 0.51847352E+02</rscale>
<asrwt>0</asrwt>
<pdfrwt beam="1">  1       13 0.10000000E+01 0.51847352E+02</pdfrwt>
<pdfrwt beam="2">  1       22 0.11411566E+00 0.51847352E+02</pdfrwt>
<totfact> 0.11597736E+00</totfact>
</mgrwt>
</event>
<event>
 4    1  0.2489496E+000  0.5212457E+02  0.7957747E-01  0.1434208E+00
         13   -1    0    0    0    0  0.00000000000E+00  0.00000000000E+00  0.99999944176E+02  0.99999999996E+02  0.10566000000E+00 0.  1.
         22   -1    0    0    0    0 -0.00000000000E+00 -0.00000000000E+00 -0.28214706559E+02  0.28214706559E+02  0.00000000000E+00 0. -1.
         13    1    1    2    0    0  0.12231182814E+02 -0.82078572355E+01 -0.18690911730E+02  0.23797733059E+02  0.10566000000E+00 0. -1.
        996    1    1    2    0    0 -0.12231182814E+02  0.82078572355E+01  0.90476149347E+02  0.10441697350E+03  0.50000000000E+02 0.  0.
<mgrwt>
<rscale>  0 0.52124570E+02</rscale>
<asrwt>0</asrwt>
<pdfrwt beam="1">  1       13 0.10000000E+01 0.52124570E+02</pdfrwt>
<pdfrwt beam="2">  1       22 0.28214727E+00 0.52124570E+02</pdfrwt>
<totfact> 0.23268857E-01</totfact>
</mgrwt>
</event>
<event>
 4    1  0.2489496E+000  0.5161143E+02  0.7957747E-01  0.1436839E+00
         13   -1    0    0    0    0  0.00000000000E+00  0.00000000000E+00  0.99999944176E+02  0.99999999996E+02  0.10566000000E+00 0. -1.
         22   -1    0    0    0    0 -0.00000000000E+00 -0.00000000000E+00 -0.12350131666E+02  0.12350131666E+02  0.00000000000E+00 0. -1.
         13    1    1    2    0    0 -0.50071435179E+00  0.12786271628E+02  0.28988018424E+01  0.13120734475E+02  0.10566000000E+00 0.  1.
        996    1    1    2    0    0  0.50071435179E+00 -0.12786271628E+02  0.84751010667E+02  0.99229397187E+02  0.50000000000E+02 0.  0.
<mgrwt>
<rscale>  0 0.51611428E+02</rscale>
<asrwt>0</asrwt>
<pdfrwt beam="1">  1       13 0.10000000E+01 0.51611428E+02</pdfrwt>
<pdfrwt beam="2">  1       22 0.12350156E+00 0.51611428E+02</pdfrwt>
<totfact> 0.10275003E+00</totfact>
</mgrwt>
</event>
<event>
 4    1  0.2489496E+000  0.5174092E+02  0.7957747E-01  0.1436171E+00
         13   -1    0    0    0    0  0.00000000000E+00  0.00000000000E+00  0.99999944176E+02  0.99999999996E+02  0.10566000000E+00 0.  1.
         22   -1    0    0    0    0 -0.00000000000E+00 -0.00000000000E+00 -0.12703762156E+02  0.12703762156E+02  0.00000000000E+00 0.  1.
         13    1    1    2    0    0  0.13306311491E+02 -0.25463901557E+00  0.41585248391E+02  0.43663105871E+02  0.10566000000E+00 0. -1.
        996    1    1    2    0    0 -0.13306311491E+02  0.25463901557E+00  0.45710933629E+02  0.69040656281E+02  0.50000000000E+02 0.  0.
<mgrwt>
<rscale>  0 0.51740920E+02</rscale>
<asrwt>0</asrwt>
<pdfrwt beam="1">  1       13 0.10000000E+01 0.51740920E+02</pdfrwt>
<pdfrwt beam="2">  1       22 0.12703787E+00 0.51740920E+02</pdfrwt>
<totfact> 0.98366568E-01</totfact>
</mgrwt>
</event>
<event>
 4    1  0.2489496E+000  0.5715579E+02  0.7957747E-01  0.1410171E+00
         13   -1    0    0    0    0  0.00000000000E+00  0.00000000000E+00  0.99999944164E+02  0.99999999984E+02  0.10566000000E+00 0. -1.
         22   -1    0    0    0    0 -0.00000000000E+00 -0.00000000000E+00 -0.80648133586E+02  0.80648133586E+02  0.00000000000E+00 0.  1.
         13    1    1    2    0    0 -0.27650056684E+02 -0.15030672202E+01 -0.69605669669E+02  0.74911582948E+02  0.10566000000E+00 0.  1.
        996    1    1    2    0    0  0.27650056684E+02  0.15030672202E+01  0.88957480247E+02  0.10573655062E+03  0.50000000000E+02 0.  0.
<mgrwt>
<rscale>  0 0.57155795E+02</rscale>
<asrwt>0</asrwt>
<pdfrwt beam="1">  1       13 0.10000000E+01 0.57155795E+02</pdfrwt>
<pdfrwt beam="2">  1       22 0.80648139E+00 0.57155795E+02</pdfrwt>
<totfact> 0.29079863E-02</totfact>
</mgrwt>
</event>
<event>
 4    1  0.2489496E+000  0.5242092E+02  0.7957747E-01  0.1432705E+00
         13   -1    0    0    0    0  0.00000000000E+00  0.00000000000E+00  0.99999944176E+02  0.99999999996E+02  0.10566000000E+00 0.  1.
         22   -1    0    0    0    0 -0.00000000000E+00 -0.00000000000E+00 -0.13670655525E+02  0.13670655525E+02  0.00000000000E+00 0.  1.
         13    1    1    2    0    0  0.15055571582E+02 -0.46132582426E+01  0.43023892629E+01  0.16324034571E+02  0.10566000000E+00 0. -1.
        996    1    1    2    0    0 -0.15055571582E+02  0.46132582426E+01  0.82026899388E+02  0.97346620951E+02  0.50000000000E+02 0.  0.
<mgrwt>
<rscale>  0 0.52420916E+02</rscale>
<asrwt>0</asrwt>
<pdfrwt beam="1">  1       13 0.10000000E+01 0.52420916E+02</pdfrwt>
<pdfrwt beam="2">  1       22 0.13670680E+00 0.52420916E+02</pdfrwt>
<totfact> 0.87707116E-01</totfact>
</mgrwt>
</event>
<event>
 4    1  0.2489496E+000  0.5215719E+02  0.7957747E-01  0.1434042E+00
         13   -1    0    0    0    0  0.00000000000E+00  0.00000000000E+00  0.99999944184E+02  0.10000000000E+03  0.10566000000E+00 0. -1.
         22   -1    0    0    0    0 -0.00000000000E+00 -0.00000000000E+00 -0.14557720072E+02  0.14557720072E+02  0.00000000000E+00 0.  1.
         13    1    1    2    0    0 -0.14489398049E+02 -0.32296026996E+01  0.46741313404E+00  0.14852697684E+02  0.10566000000E+00 0.  1.
        996    1    1    2    0    0  0.14489398049E+02  0.32296026996E+01  0.84974810978E+02  0.99705022392E+02  0.50000000000E+02 0.  0.
<mgrwt>
<rscale>  0 0.52157195E+02</rscale>
<asrwt>0</asrwt>
<pdfrwt beam="1">  1       13 0.10000000E+01 0.52157195E+02</pdfrwt>
<pdfrwt beam="2">  1       22 0.14557744E+00 0.52157195E+02</pdfrwt>
<totfact> 0.79141966E-01</totfact>
</mgrwt>
</event>
<event>
 4    1  0.2489496E+000  0.5107952E+02  0.7957747E-01  0.1439604E+00
         13   -1    0    0    0    0  0.00000000000E+00  0.00000000000E+00  0.99999944170E+02  0.99999999990E+02  0.10566000000E+00 0. -1.
         22   -1    0    0    0    0 -0.00000000000E+00 -0.00000000000E+00 -0.25996522543E+02  0.25996522543E+02  0.00000000000E+00 0.  1.
         13    1    1    2    0    0  0.38161605455E+01 -0.97239259043E+01 -0.17972913667E+02  0.20788328601E+02  0.10566000000E+00 0.  1.
        996    1    1    2    0    0 -0.38161605455E+01  0.97239259043E+01  0.91976335294E+02  0.10520819393E+03  0.50000000000E+02 0.  0.
<mgrwt>
<rscale>  0 0.51079524E+02</rscale>
<asrwt>0</asrwt>
<pdfrwt beam="1">  1       13 0.10000000E+01 0.51079524E+02</pdfrwt>
<pdfrwt beam="2">  1       22 0.25996543E+00 0.51079524E+02</pdfrwt>
<totfact> 0.27258471E-01</totfact>
</mgrwt>
</event>
<event>
 4    1  0.2489496E+000  0.5194921E+02  0.7957747E-01  0.1435103E+00
         13   -1    0    0    0    0  0.00000000000E+00  0.00000000000E+00  0.99999944177E+02  0.99999999998E+02  0.10566000000E+00 0. -1.
         22   -1    0    0    0    0 -0.00000000000E+00 -0.00000000000E+00 -0.50772795745E+02  0.50772795745E+02  0.00000000000E+00 0.  1.
         13    1    1    2    0    0  0.12510051591E+02 -0.64976182158E+01 -0.42818407736E+02  0.45079348247E+02  0.10566000000E+00 0.  1.
        996    1    1    2    0    0 -0.12510051591E+02  0.64976182158E+01  0.92045556168E+02  0.10569344750E+03  0.50000000000E+02 0.  0.
<mgrwt>
<rscale>  0 0.51949210E+02</rscale>
<asrwt>0</asrwt>
<pdfrwt beam="1">  1       13 0.10000000E+01 0.51949210E+02</pdfrwt>
<pdfrwt beam="2">  1       22 0.50772810E+00 0.51949210E+02</pdfrwt>
<totfact> 0.70596848E-02</totfact>
</mgrwt>
</event>
<event>
 4    1  0.2489496E+000  0.5343066E+02  0.7957747E-01  0.1427670E+00
         13   -1    0    0    0    0  0.00000000000E+00  0.00000000000E+00  0.99999944181E+02  0.10000000000E+03  0.10566000000E+00 0.  1.
         22   -1    0    0    0    0 -0.00000000000E+00 -0.00000000000E+00 -0.13529096437E+02  0.13529096437E+02  0.00000000000E+00 0.  1.
         13    1    1    2    0    0  0.74334196499E+01 -0.17308366085E+02  0.13900543329E+02  0.23410927643E+02  0.10566000000E+00 0. -1.
        996    1    1    2    0    0 -0.74334196499E+01  0.17308366085E+02  0.72570304415E+02  0.90118168795E+02  0.50000000000E+02 0.  0.
<mgrwt>
<rscale>  0 0.53430658E+02</rscale>
<asrwt>0</asrwt>
<pdfrwt beam="1">  1       13 0.10000000E+01 0.53430658E+02</pdfrwt>
<pdfrwt beam="2">  1       22 0.13529121E+00 0.53430658E+02</pdfrwt>
<totfact> 0.89370759E-01</totfact>
</mgrwt>
</event>
<event>
 4    1  0.2489496E+000  0.5159118E+02  0.7957747E-01  0.1436943E+00
         13   -1    0    0    0    0  0.00000000000E+00  0.00000000000E+00  0.99999944187E+02  0.10000000001E+03  0.10566000000E+00 0. -1.
         22   -1    0    0    0    0 -0.00000000000E+00 -0.00000000000E+00 -0.10987177110E+02  0.10987177110E+02  0.00000000000E+00 0. -1.
         13    1    1    2    0    0  0.11917089766E+02  0.44309347096E+01  0.82637192439E+01  0.15164116547E+02  0.10566000000E+00 0.  1.
        996    1    1    2    0    0 -0.11917089766E+02 -0.44309347096E+01  0.80749047833E+02  0.95823060569E+02  0.50000000000E+02 0.  0.
<mgrwt>
<rscale>  0 0.51591183E+02</rscale>
<asrwt>0</asrwt>
<pdfrwt beam="1">  1       13 0.10000000E+01 0.51591183E+02</pdfrwt>
<pdfrwt beam="2">  1       22 0.10987202E+00 0.51591183E+02</pdfrwt>
<totfact> 0.12266886E+00</totfact>
</mgrwt>
</event>
<event>
 4    1  0.2489496E+000  0.5142730E+02  0.7957747E-01  0.1437792E+00
         13   -1    0    0    0    0  0.00000000000E+00  0.00000000000E+00  0.99999944173E+02  0.99999999994E+02  0.10566000000E+00 0. -1.
         22   -1    0    0    0    0 -0.00000000000E+00 -0.00000000000E+00 -0.10068020487E+02  0.10068020487E+02  0.00000000000E+00 0. -1.
         13    1    1    2    0    0  0.28600907414E+01  0.11687052738E+02  0.16853600811E+02  0.20708026103E+02  0.10566000000E+00 0.  1.
        996    1    1    2    0    0 -0.28600907414E+01 -0.11687052738E+02  0.73078322875E+02  0.89359994377E+02  0.50000000000E+02 0.  0.
<mgrwt>
<rscale>  0 0.51427301E+02</rscale>
<asrwt>0</asrwt>
<pdfrwt beam="1">  1       13 0.10000000E+01 0.51427301E+02</pdfrwt>
<pdfrwt beam="2">  1       22 0.10068046E+00 0.51427301E+02</pdfrwt>
<totfact> 0.13940720E+00</totfact>
</mgrwt>
</event>
<event>
 4    1  0.2489496E+000  0.5119522E+02  0.7957747E-01  0.1438999E+00
         13   -1    0    0    0    0  0.00000000000E+00  0.00000000000E+00  0.99999944183E+02  0.10000000000E+03  0.10566000000E+00 0.  1.
         22   -1    0    0    0    0 -0.00000000000E+00 -0.00000000000E+00 -0.33935158513E+02  0.33935158513E+02  0.00000000000E+00 0. -1.
         13    1    1    2    0    0  0.27706251219E+01 -0.10643058036E+02 -0.26202108331E+02  0.28416767813E+02  0.10566000000E+00 0. -1.
        996    1    1    2    0    0 -0.27706251219E+01  0.10643058036E+02  0.92266894001E+02  0.10551839070E+03  0.50000000000E+02 0.  0.
<mgrwt>
<rscale>  0 0.51195225E+02</rscale>
<asrwt>0</asrwt>
<pdfrwt beam="1">  1       13 0.10000000E+01 0.51195225E+02</pdfrwt>
<pdfrwt beam="2">  1       22 0.33935177E+00 0.51195225E+02</pdfrwt>
<totfact> 0.16570176E-01</totfact>
</mgrwt>
</event>
<event>
 4    1  0.2489496E+000  0.5176247E+02  0.7957747E-01  0.1436061E+00
         13   -1    0    0    0    0  0.00000000000E+00  0.00000000000E+00  0.99999944180E+02  0.10000000000E+03  0.10566000000E+00 0. -1.
         22   -1    0    0    0    0 -0.00000000000E+00 -0.00000000000E+00 -0.36828977538E+02  0.36828977538E+02  0.00000000000E+00 0.  1.
         13    1    1    2    0    0  0.10951370715E+02 -0.77084662764E+01 -0.28535827368E+02  0.31522334630E+02  0.10566000000E+00 0.  1.
        996    1    1    2    0    0 -0.10951370715E+02  0.77084662764E+01  0.91706794010E+02  0.10530664291E+03  0.50000000000E+02 0.  0.
<mgrwt>
<rscale>  0 0.51762467E+02</rscale>
<asrwt>0</asrwt>
<pdfrwt beam="1">  1       13 0.10000000E+01 0.51762467E+02</pdfrwt>
<pdfrwt beam="2">  1       22 0.36828995E+00 0.51762467E+02</pdfrwt>
<totfact> 0.14370515E-01</totfact>
</mgrwt>
</event>
<event>
 4    1  0.2489496E+000  0.5115639E+02  0.7957747E-01  0.1439202E+00
         13   -1    0    0    0    0  0.00000000000E+00  0.00000000000E+00  0.99999944182E+02  0.10000000000E+03  0.10566000000E+00 0.  1.
         22   -1    0    0    0    0 -0.00000000000E+00 -0.00000000000E+00 -0.96683088961E+01  0.96683088961E+01  0.00000000000E+00 0.  1.
         13    1    1    2    0    0  0.96695185416E+01  0.48452401919E+01  0.19439689007E+02  0.22246092108E+02  0.10566000000E+00 0. -1.
        996    1    1    2    0    0 -0.96695185416E+01 -0.48452401919E+01  0.70891946279E+02  0.87422216791E+02  0.50000000000E+02 0.  0.
<mgrwt>
<rscale>  0 0.51156387E+02</rscale>
<asrwt>0</asrwt>
<pdfrwt beam="1">  1       13 0.10000000E+01 0.51156387E+02</pdfrwt>
<pdfrwt beam="2">  1       22 0.96683341E-01 0.51156387E+02</pdfrwt>
<totfact> 0.14770156E+00</totfact>
</mgrwt>
</event>
<event>
 4    1  0.2489496E+000  0.5993401E+02  0.7957747E-01  0.1398109E+00
         13   -1    0    0    0    0  0.00000000000E+00  0.00000000000E+00  0.99999944172E+02  0.99999999992E+02  0.10566000000E+00 0. -1.
         22   -1    0    0    0    0 -0.00000000000E+00 -0.00000000000E+00 -0.23330839856E+02  0.23330839856E+02  0.00000000000E+00 0.  1.
         13    1    1    2    0    0 -0.50415099562E+01 -0.32659897835E+02  0.11996516512E+02  0.35156981123E+02  0.10566000000E+00 0.  1.
        996    1    1    2    0    0  0.50415099562E+01  0.32659897835E+02  0.64672587804E+02  0.88173858725E+02  0.50000000000E+02 0.  0.
<mgrwt>
<rscale>  0 0.59934012E+02</rscale>
<asrwt>0</asrwt>
<pdfrwt beam="1">  1       13 0.10000000E+01 0.59934012E+02</pdfrwt>
<pdfrwt beam="2">  1       22 0.23330861E+00 0.59934012E+02</pdfrwt>
<totfact> 0.34165002E-01</totfact>
</mgrwt>
</event>
<event>
 4    1  0.2489496E+000  0.6904781E+02  0.7957747E-01  0.1363361E+00
         13   -1    0    0    0    0  0.00000000000E+00  0.00000000000E+00  0.99999944185E+02  0.10000000001E+03  0.10566000000E+00 0.  1.
         22   -1    0    0    0    0 -0.00000000000E+00 -0.00000000000E+00 -0.61067200330E+02  0.61067200330E+02  0.00000000000E+00 0. -1.
         13    1    1    2    0    0  0.38301197658E+02 -0.28295207623E+02 -0.35608055929E+02  0.59460451794E+02  0.10566000000E+00 0. -1.
        996    1    1    2    0    0 -0.38301197658E+02  0.28295207623E+02  0.74540799785E+02  0.10160674854E+03  0.50000000000E+02 0.  0.
<mgrwt>
<rscale>  0 0.69047813E+02</rscale>
<asrwt>0</asrwt>
<pdfrwt beam="1">  1       13 0.10000000E+01 0.69047813E+02</pdfrwt>
<pdfrwt beam="2">  1       22 0.61067211E+00 0.69047813E+02</pdfrwt>
<totfact> 0.68005551E-02</totfact>
</mgrwt>
</event>
<event>
 4    1  0.2489496E+000  0.5553675E+02  0.7957747E-01  0.1417577E+00
         13   -1    0    0    0    0  0.00000000000E+00  0.00000000000E+00  0.99999944176E+02  0.99999999996E+02  0.10566000000E+00 0.  1.
         22   -1    0    0    0    0 -0.00000000000E+00 -0.00000000000E+00 -0.19833878231E+02  0.19833878231E+02  0.00000000000E+00 0. -1.
         13    1    1    2    0    0 -0.16619892444E+02 -0.17553070655E+02  0.24267033395E+01  0.24294673643E+02  0.10566000000E+00 0. -1.
        996    1    1    2    0    0  0.16619892444E+02  0.17553070655E+02  0.77739362605E+02  0.95539204584E+02  0.50000000000E+02 0.  0.
<mgrwt>
<rscale>  0 0.55536755E+02</rscale>
<asrwt>0</asrwt>
<pdfrwt beam="1">  1       13 0.10000000E+01 0.55536755E+02</pdfrwt>
<pdfrwt beam="2">  1       22 0.19833901E+00 0.55536755E+02</pdfrwt>
<totfact> 0.46301347E-01</totfact>
</mgrwt>
</event>
<event>
 4    1  0.2489496E+000  0.5299194E+02  0.7957747E-01  0.1429841E+00
         13   -1    0    0    0    0  0.00000000000E+00  0.00000000000E+00  0.99999944182E+02  0.10000000000E+03  0.10566000000E+00 0.  1.
         22   -1    0    0    0    0 -0.00000000000E+00 -0.00000000000E+00 -0.12554850748E+02  0.12554850748E+02  0.00000000000E+00 0. -1.
         13    1    1    2    0    0 -0.91277011015E+01 -0.14994373864E+02  0.26578553586E+02  0.31852422981E+02  0.10566000000E+00 0. -1.
        996    1    1    2    0    0  0.91277011015E+01  0.14994373864E+02  0.60866539848E+02  0.80702427770E+02  0.50000000000E+02 0.  0.
<mgrwt>
<rscale>  0 0.52991944E+02</rscale>
<asrwt>0</asrwt>
<pdfrwt beam="1">  1       13 0.10000000E+01 0.52991944E+02</pdfrwt>
<pdfrwt beam="2">  1       22 0.12554875E+00 0.52991944E+02</pdfrwt>
<totfact> 0.10046505E+00</totfact>
</mgrwt>
</event>
<event>
 4    1  0.2489496E+000  0.5242453E+02  0.7957747E-01  0.1432686E+00
         13   -1    0    0    0    0  0.00000000000E+00  0.00000000000E+00  0.99999944180E+02  0.10000000000E+03  0.10566000000E+00 0. -1.
         22   -1    0    0    0    0 -0.00000000000E+00 -0.00000000000E+00 -0.11700643169E+02  0.11700643169E+02  0.00000000000E+00 0. -1.
         13    1    1    2    0    0  0.60826721338E-01 -0.15758425586E+02  0.24422052590E+02  0.29065090634E+02  0.10566000000E+00 0.  1.
        996    1    1    2    0    0 -0.60826721338E-01  0.15758425586E+02  0.63877248421E+02  0.82635552535E+02  0.50000000000E+02 0.  0.
<mgrwt>
<rscale>  0 0.52424533E+02</rscale>
<asrwt>0</asrwt>
<pdfrwt beam="1">  1       13 0.10000000E+01 0.52424533E+02</pdfrwt>
<pdfrwt beam="2">  1       22 0.11700668E+00 0.52424533E+02</pdfrwt>
<totfact> 0.11182102E+00</totfact>
</mgrwt>
</event>
<event>
 4    1  0.2489496E+000  0.5177827E+02  0.7957747E-01  0.1435979E+00
         13   -1    0    0    0    0  0.00000000000E+00  0.00000000000E+00  0.99999944178E+02  0.99999999998E+02  0.10566000000E+00 0.  1.
         22   -1    0    0    0    0 -0.00000000000E+00 -0.00000000000E+00 -0.14357708356E+02  0.14357708356E+02  0.00000000000E+00 0.  1.
         13    1    1    2    0    0  0.97296785467E+01  0.92909964992E+01 -0.92685434950E+00  0.13485528673E+02  0.10566000000E+00 0. -1.
        996    1    1    2    0    0 -0.97296785467E+01 -0.92909964992E+01  0.86569090171E+02  0.10087217968E+03  0.50000000000E+02 0.  0.
<mgrwt>
<rscale>  0 0.51778270E+02</rscale>
<asrwt>0</asrwt>
<pdfrwt beam="1">  1       13 0.10000000E+01 0.51778270E+02</pdfrwt>
<pdfrwt beam="2">  1       22 0.14357732E+00 0.51778270E+02</pdfrwt>
<totfact> 0.80895499E-01</totfact>
</mgrwt>
</event>
<event>
 4    1  0.2489496E+000  0.5132358E+02  0.7957747E-01  0.1438331E+00
         13   -1    0    0    0    0  0.00000000000E+00  0.00000000000E+00  0.99999944183E+02  0.10000000000E+03  0.10566000000E+00 0.  1.
         22   -1    0    0    0    0 -0.00000000000E+00 -0.00000000000E+00 -0.11939615393E+02  0.11939615393E+02  0.00000000000E+00 0. -1.
         13    1    1    2    0    0 -0.99087651979E+01 -0.59938507961E+01  0.20219863661E+01  0.11756252295E+02  0.10566000000E+00 0. -1.
        996    1    1    2    0    0  0.99087651979E+01  0.59938507961E+01  0.86038342424E+02  0.10018336310E+03  0.50000000000E+02 0.  0.
<mgrwt>
<rscale>  0 0.51323580E+02</rscale>
<asrwt>0</asrwt>
<pdfrwt beam="1">  1       13 0.10000000E+01 0.51323580E+02</pdfrwt>
<pdfrwt beam="2">  1       22 0.11939640E+00 0.51323580E+02</pdfrwt>
<totfact> 0.10816206E+00</totfact>
</mgrwt>
</event>
<event>
 4    1  0.2489496E+000  0.6323744E+02  0.7957747E-01  0.1384727E+00
         13   -1    0    0    0    0  0.00000000000E+00  0.00000000000E+00  0.99999944176E+02  0.99999999996E+02  0.10566000000E+00 0.  1.
         22   -1    0    0    0    0 -0.00000000000E+00 -0.00000000000E+00 -0.30679522867E+02  0.30679522867E+02  0.00000000000E+00 0.  1.
         13    1    1    2    0    0  0.25955811164E+02  0.28727510705E+02  0.26783054689E+01  0.38809257771E+02  0.10566000000E+00 0. -1.
        996    1    1    2    0    0 -0.25955811164E+02 -0.28727510705E+02  0.66642115840E+02  0.91870265092E+02  0.50000000000E+02 0.  0.
<mgrwt>
<rscale>  0 0.63237441E+02</rscale>
<asrwt>0</asrwt>
<pdfrwt beam="1">  1       13 0.10000000E+01 0.63237441E+02</pdfrwt>
<pdfrwt beam="2">  1       22 0.30679542E+00 0.63237441E+02</pdfrwt>
<totfact> 0.20119976E-01</totfact>
</mgrwt>
</event>
<event>
 4    1  0.2489496E+000  0.5216865E+02  0.7957747E-01  0.1433984E+00
         13   -1    0    0    0    0  0.00000000000E+00  0.00000000000E+00  0.99999944180E+02  0.10000000000E+03  0.10566000000E+00 0.  1.
         22   -1    0    0    0    0 -0.00000000000E+00 -0.00000000000E+00 -0.39505325693E+02  0.39505325693E+02  0.00000000000E+00 0. -1.
         13    1    1    2    0    0 -0.14456892631E+02  0.35448252787E+01 -0.30883690947E+02  0.34283830903E+02  0.10566000000E+00 0. -1.
        996    1    1    2    0    0  0.14456892631E+02 -0.35448252787E+01  0.91378309434E+02  0.10522149479E+03  0.50000000000E+02 0.  0.
<mgrwt>
<rscale>  0 0.52168645E+02</rscale>
<asrwt>0</asrwt>
<pdfrwt beam="1">  1       13 0.10000000E+01 0.52168645E+02</pdfrwt>
<pdfrwt beam="2">  1       22 0.39505343E+00 0.52168645E+02</pdfrwt>
<totfact> 0.12662740E-01</totfact>
</mgrwt>
</event>
<event>
 4    1  0.2489496E+000  0.6655319E+02  0.7957747E-01  0.1372222E+00
         13   -1    0    0    0    0  0.00000000000E+00  0.00000000000E+00  0.99999944185E+02  0.10000000001E+03  0.10566000000E+00 0. -1.
         22   -1    0    0    0    0 -0.00000000000E+00 -0.00000000000E+00 -0.45494110121E+02  0.45494110121E+02  0.00000000000E+00 0.  1.
         13    1    1    2    0    0  0.22283570544E+02  0.37851950774E+02 -0.17644857207E+02  0.47335819877E+02  0.10566000000E+00 0.  1.
        996    1    1    2    0    0 -0.22283570544E+02 -0.37851950774E+02  0.72150691271E+02  0.98158290248E+02  0.50000000000E+02 0.  0.
<mgrwt>
<rscale>  0 0.66553194E+02</rscale>
<asrwt>0</asrwt>
<pdfrwt beam="1">  1       13 0.10000000E+01 0.66553194E+02</pdfrwt>
<pdfrwt beam="2">  1       22 0.45494125E+00 0.66553194E+02</pdfrwt>
<totfact> 0.94854220E-02</totfact>
</mgrwt>
</event>
<event>
 4    1  0.2489496E+000  0.5149626E+02  0.7957747E-01  0.1437434E+00
         13   -1    0    0    0    0  0.00000000000E+00  0.00000000000E+00  0.99999944175E+02  0.99999999995E+02  0.10566000000E+00 0.  1.
         22   -1    0    0    0    0 -0.00000000000E+00 -0.00000000000E+00 -0.24060685769E+02  0.24060685769E+02  0.00000000000E+00 0. -1.
         13    1    1    2    0    0 -0.11728383682E+02  0.37828721007E+01 -0.15085108277E+02  0.19479136554E+02  0.10566000000E+00 0. -1.
        996    1    1    2    0    0  0.11728383682E+02 -0.37828721007E+01  0.91024366683E+02  0.10458154921E+03  0.50000000000E+02 0.  0.
<mgrwt>
<rscale>  0 0.51496263E+02</rscale>
<asrwt>0</asrwt>
<pdfrwt beam="1">  1       13 0.10000000E+01 0.51496263E+02</pdfrwt>
<pdfrwt beam="2">  1       22 0.24060707E+00 0.51496263E+02</pdfrwt>
<totfact> 0.31755988E-01</totfact>
</mgrwt>
</event>
<event>
 4    1  0.2489496E+000  0.6362552E+02  0.7957747E-01  0.1383218E+00
         13   -1    0    0    0    0  0.00000000000E+00  0.00000000000E+00  0.99999944182E+02  0.10000000000E+03  0.10566000000E+00 0. -1.
         22   -1    0    0    0    0 -0.00000000000E+00 -0.00000000000E+00 -0.29588816844E+02  0.29588816844E+02  0.00000000000E+00 0.  1.
         13    1    1    2    0    0  0.25944754114E+02  0.29581700754E+02  0.73905297949E+01  0.40035464032E+02  0.10566000000E+00 0.  1.
        996    1    1    2    0    0 -0.25944754114E+02 -0.29581700754E+02  0.63020597544E+02  0.89553352814E+02  0.50000000000E+02 0.  0.
<mgrwt>
<rscale>  0 0.63625524E+02</rscale>
<asrwt>0</asrwt>
<pdfrwt beam="1">  1       13 0.10000000E+01 0.63625524E+02</pdfrwt>
<pdfrwt beam="2">  1       22 0.29588837E+00 0.63625524E+02</pdfrwt>
<totfact> 0.21545701E-01</totfact>
</mgrwt>
</event>
<event>
 4    1  0.2489496E+000  0.5586215E+02  0.7957747E-01  0.1416065E+00
         13   -1    0    0    0    0  0.00000000000E+00  0.00000000000E+00  0.99999944181E+02  0.10000000000E+03  0.10566000000E+00 0. -1.
         22   -1    0    0    0    0 -0.00000000000E+00 -0.00000000000E+00 -0.21719695017E+02  0.21719695017E+02  0.00000000000E+00 0.  1.
         13    1    1    2    0    0 -0.99330479329E+01 -0.22845436381E+02 -0.76982880902E+00  0.24923547201E+02  0.10566000000E+00 0.  1.
        996    1    1    2    0    0  0.99330479329E+01  0.22845436381E+02  0.79050077973E+02  0.96796147817E+02  0.50000000000E+02 0.  0.
<mgrwt>
<rscale>  0 0.55862146E+02</rscale>
<asrwt>0</asrwt>
<pdfrwt beam="1">  1       13 0.10000000E+01 0.55862146E+02</pdfrwt>
<pdfrwt beam="2">  1       22 0.21719717E+00 0.55862146E+02</pdfrwt>
<totfact> 0.39011598E-01</totfact>
</mgrwt>
</event>
<event>
 4    1  0.2489496E+000  0.5204701E+02  0.7957747E-01  0.1434603E+00
         13   -1    0    0    0    0  0.00000000000E+00  0.00000000000E+00  0.99999944177E+02  0.99999999997E+02  0.10566000000E+00 0. -1.
         22   -1    0    0    0    0 -0.00000000000E+00 -0.00000000000E+00 -0.24793244578E+02  0.24793244578E+02  0.00000000000E+00 0.  1.
         13    1    1    2    0    0 -0.84819454030E+01 -0.11702450907E+02 -0.14885242321E+02  0.20747827791E+02  0.10566000000E+00 0.  1.
        996    1    1    2    0    0  0.84819454030E+01  0.11702450907E+02  0.90091941919E+02  0.10404541678E+03  0.50000000000E+02 0.  0.
<mgrwt>
<rscale>  0 0.52047005E+02</rscale>
<asrwt>0</asrwt>
<pdfrwt beam="1">  1       13 0.10000000E+01 0.52047005E+02</pdfrwt>
<pdfrwt beam="2">  1       22 0.24793266E+00 0.52047005E+02</pdfrwt>
<totfact> 0.29966972E-01</totfact>
</mgrwt>
</event>
<event>
 4    1  0.2489496E+000  0.5107158E+02  0.7957747E-01  0.1439646E+00
         13   -1    0    0    0    0  0.00000000000E+00  0.00000000000E+00  0.99999944190E+02  0.10000000001E+03  0.10566000000E+00 0. -1.
         22   -1    0    0    0    0 -0.00000000000E+00 -0.00000000000E+00 -0.22319614879E+02  0.22319614879E+02  0.00000000000E+00 0.  1.
         13    1    1    2    0    0  0.97981423508E+01  0.35074968473E+01 -0.13957792705E+02  0.17410837685E+02  0.10566000000E+00 0.  1.
        996    1    1    2    0    0 -0.97981423508E+01 -0.35074968473E+01  0.91638122017E+02  0.10490877720E+03  0.50000000000E+02 0.  0.
<mgrwt>
<rscale>  0 0.51071578E+02</rscale>
<asrwt>0</asrwt>
<pdfrwt beam="1">  1       13 0.10000000E+01 0.51071578E+02</pdfrwt>
<pdfrwt beam="2">  1       22 0.22319637E+00 0.51071578E+02</pdfrwt>
<totfact> 0.36726432E-01</totfact>
</mgrwt>
</event>
<event>
 4    1  0.2489496E+000  0.5245297E+02  0.7957747E-01  0.1432543E+00
         13   -1    0    0    0    0  0.00000000000E+00  0.00000000000E+00  0.99999944184E+02  0.10000000000E+03  0.10566000000E+00 0.  1.
         22   -1    0    0    0    0 -0.00000000000E+00 -0.00000000000E+00 -0.21556987642E+02  0.21556987642E+02  0.00000000000E+00 0. -1.
         13    1    1    2    0    0  0.84294782677E+01  0.13426033843E+02 -0.99898952881E+01  0.18738293960E+02  0.10566000000E+00 0. -1.
        996    1    1    2    0    0 -0.84294782677E+01 -0.13426033843E+02  0.88432851830E+02  0.10281869369E+03  0.50000000000E+02 0.  0.
<mgrwt>
<rscale>  0 0.52452974E+02</rscale>
<asrwt>0</asrwt>
<pdfrwt beam="1">  1       13 0.10000000E+01 0.52452974E+02</pdfrwt>
<pdfrwt beam="2">  1       22 0.21557010E+00 0.52452974E+02</pdfrwt>
<totfact> 0.39355730E-01</totfact>
</mgrwt>
</event>
<event>
 4    1  0.2489496E+000  0.5104016E+02  0.7957747E-01  0.1439811E+00
         13   -1    0    0    0    0  0.00000000000E+00  0.00000000000E+00  0.99999944178E+02  0.99999999999E+02  0.10566000000E+00 0. -1.
         22   -1    0    0    0    0 -0.00000000000E+00 -0.00000000000E+00 -0.32957396153E+02  0.32957396153E+02  0.00000000000E+00 0.  1.
         13    1    1    2    0    0  0.22580695011E+01  0.99999482407E+01 -0.25383011771E+02  0.27375286178E+02  0.10566000000E+00 0.  1.
        996    1    1    2    0    0 -0.22580695011E+01 -0.99999482407E+01  0.92425559797E+02  0.10558210997E+03  0.50000000000E+02 0.  0.
<mgrwt>
<rscale>  0 0.51040159E+02</rscale>
<asrwt>0</asrwt>
<pdfrwt beam="1">  1       13 0.10000000E+01 0.51040159E+02</pdfrwt>
<pdfrwt beam="2">  1       22 0.32957415E+00 0.51040159E+02</pdfrwt>
<totfact> 0.17439071E-01</totfact>
</mgrwt>
</event>
<event>
 4    1  0.2489496E+000  0.5169090E+02  0.7957747E-01  0.1436429E+00
         13   -1    0    0    0    0  0.00000000000E+00  0.00000000000E+00  0.99999944182E+02  0.10000000000E+03  0.10566000000E+00 0. -1.
         22   -1    0    0    0    0 -0.00000000000E+00 -0.00000000000E+00 -0.20345389032E+02  0.20345389032E+02  0.00000000000E+00 0.  1.
         13    1    1    2    0    0 -0.73536000315E+01 -0.10856987684E+02 -0.10247385738E+02  0.16642406481E+02  0.10566000000E+00 0.  1.
        996    1    1    2    0    0  0.73536000315E+01  0.10856987684E+02  0.89901940887E+02  0.10370298255E+03  0.50000000000E+02 0.  0.
<mgrwt>
<rscale>  0 0.51690905E+02</rscale>
<asrwt>0</asrwt>
<pdfrwt beam="1">  1       13 0.10000000E+01 0.51690905E+02</pdfrwt>
<pdfrwt beam="2">  1       22 0.20345411E+00 0.51690905E+02</pdfrwt>
<totfact> 0.43855205E-01</totfact>
</mgrwt>
</event>
<event>
 4    1  0.2489496E+000  0.5173248E+02  0.7957747E-01  0.1436215E+00
         13   -1    0    0    0    0  0.00000000000E+00  0.00000000000E+00  0.99999944179E+02  0.10000000000E+03  0.10566000000E+00 0. -1.
         22   -1    0    0    0    0 -0.00000000000E+00 -0.00000000000E+00 -0.14503229775E+02  0.14503229775E+02  0.00000000000E+00 0.  1.
         13    1    1    2    0    0 -0.11207931282E+02  0.71155975829E+01 -0.14240851055E+01  0.13352476737E+02  0.10566000000E+00 0.  1.
        996    1    1    2    0    0  0.11207931282E+02 -0.71155975829E+01  0.86920799510E+02  0.10115075304E+03  0.50000000000E+02 0.  0.
<mgrwt>
<rscale>  0 0.51732480E+02</rscale>
<asrwt>0</asrwt>
<pdfrwt beam="1">  1       13 0.10000000E+01 0.51732480E+02</pdfrwt>
<pdfrwt beam="2">  1       22 0.14503254E+00 0.51732480E+02</pdfrwt>
<totfact> 0.79561354E-01</totfact>
</mgrwt>
</event>
<event>
 4    1  0.2489496E+000  0.5205524E+02  0.7957747E-01  0.1434561E+00
         13   -1    0    0    0    0  0.00000000000E+00  0.00000000000E+00  0.99999944183E+02  0.10000000000E+03  0.10566000000E+00 0.  1.
         22   -1    0    0    0    0 -0.00000000000E+00 -0.00000000000E+00 -0.11648274493E+02  0.11648274493E+02  0.00000000000E+00 0.  1.
         13    1    1    2    0    0 -0.13530079620E+02  0.51657714806E+01  0.10073743022E+02  0.17641987190E+02  0.10566000000E+00 0. -1.
        996    1    1    2    0    0  0.13530079620E+02 -0.51657714806E+01  0.78277926668E+02  0.94006287305E+02  0.50000000000E+02 0.  0.
<mgrwt>
<rscale>  0 0.52055242E+02</rscale>
<asrwt>0</asrwt>
<pdfrwt beam="1">  1       13 0.10000000E+01 0.52055242E+02</pdfrwt>
<pdfrwt beam="2">  1       22 0.11648299E+00 0.52055242E+02</pdfrwt>
<totfact> 0.11249062E+00</totfact>
</mgrwt>
</event>
<event>
 4    1  0.2489496E+000  0.5110916E+02  0.7957747E-01  0.1439449E+00
         13   -1    0    0    0    0  0.00000000000E+00  0.00000000000E+00  0.99999944175E+02  0.99999999996E+02  0.10566000000E+00 0.  1.
         22   -1    0    0    0    0 -0.00000000000E+00 -0.00000000000E+00 -0.20061887114E+02  0.20061887114E+02  0.00000000000E+00 0. -1.
         13    1    1    2    0    0 -0.59717866840E+01 -0.87455192191E+01 -0.11298135741E+02  0.15485650709E+02  0.10566000000E+00 0. -1.
        996    1    1    2    0    0  0.59717866840E+01  0.87455192191E+01  0.91236192803E+02  0.10457623640E+03  0.50000000000E+02 0.  0.
<mgrwt>
<rscale>  0 0.51109161E+02</rscale>
<asrwt>0</asrwt>
<pdfrwt beam="1">  1       13 0.10000000E+01 0.51109161E+02</pdfrwt>
<pdfrwt beam="2">  1       22 0.20061909E+00 0.51109161E+02</pdfrwt>
<totfact> 0.44974826E-01</totfact>
</mgrwt>
</event>
<event>
 4    1  0.2489496E+000  0.5335205E+02  0.7957747E-01  0.1428057E+00
         13   -1    0    0    0    0  0.00000000000E+00  0.00000000000E+00  0.99999944185E+02  0.10000000001E+03  0.10566000000E+00 0.  1.
         22   -1    0    0    0    0 -0.00000000000E+00 -0.00000000000E+00 -0.23160424374E+02  0.23160424374E+02  0.00000000000E+00 0.  1.
         13    1    1    2    0    0 -0.16995446129E+02  0.75892381621E+01 -0.10084170257E+02  0.21169397224E+02  0.10566000000E+00 0. -1.
        996    1    1    2    0    0  0.16995446129E+02 -0.75892381621E+01  0.86923690069E+02  0.10199102716E+03  0.50000000000E+02 0.  0.
<mgrwt>
<rscale>  0 0.53352055E+02</rscale>
<asrwt>0</asrwt>
<pdfrwt beam="1">  1       13 0.10000000E+01 0.53352055E+02</pdfrwt>
<pdfrwt beam="2">  1       22 0.23160446E+00 0.53352055E+02</pdfrwt>
<totfact> 0.34315645E-01</totfact>
</mgrwt>
</event>
<event>
 4    1  0.2489496E+000  0.5143353E+02  0.7957747E-01  0.1437759E+00
         13   -1    0    0    0    0  0.00000000000E+00  0.00000000000E+00  0.99999944180E+02  0.10000000000E+03  0.10566000000E+00 0.  1.
         22   -1    0    0    0    0 -0.00000000000E+00 -0.00000000000E+00 -0.10403415062E+02  0.10403415062E+02  0.00000000000E+00 0. -1.
         13    1    1    2    0    0  0.23110541830E+01 -0.11834974001E+02  0.10154454012E+02  0.15764887611E+02  0.10566000000E+00 0. -1.
        996    1    1    2    0    0 -0.23110541830E+01  0.11834974001E+02  0.79442075106E+02  0.94638527452E+02  0.50000000000E+02 0.  0.
<mgrwt>
<rscale>  0 0.51433526E+02</rscale>
<asrwt>0</asrwt>
<pdfrwt beam="1">  1       13 0.10000000E+01 0.51433526E+02</pdfrwt>
<pdfrwt beam="2">  1       22 0.10403440E+00 0.51433526E+02</pdfrwt>
<totfact> 0.13290837E+00</totfact>
</mgrwt>
</event>
<event>
 4    1  0.2489496E+000  0.5159062E+02  0.7957747E-01  0.1436946E+00
         13   -1    0    0    0    0  0.00000000000E+00  0.00000000000E+00  0.99999944179E+02  0.99999999999E+02  0.10566000000E+00 0.  1.
         22   -1    0    0    0    0 -0.00000000000E+00 -0.00000000000E+00 -0.10825179784E+02  0.10825179784E+02  0.00000000000E+00 0.  1.
         13    1    1    2    0    0  0.80234924219E+01  0.98598217305E+01  0.93522635143E+01  0.15781904577E+02  0.10566000000E+00 0. -1.
        996    1    1    2    0    0 -0.80234924219E+01 -0.98598217305E+01  0.79822500880E+02  0.95043275206E+02  0.50000000000E+02 0.  0.
<mgrwt>
<rscale>  0 0.51590624E+02</rscale>
<asrwt>0</asrwt>
<pdfrwt beam="1">  1       13 0.10000000E+01 0.51590624E+02</pdfrwt>
<pdfrwt beam="2">  1       22 0.10825205E+00 0.51590624E+02</pdfrwt>
<totfact> 0.12540244E+00</totfact>
</mgrwt>
</event>
<event>
 4    1  0.2489496E+000  0.5114588E+02  0.7957747E-01  0.1439257E+00
         13   -1    0    0    0    0  0.00000000000E+00  0.00000000000E+00  0.99999944179E+02  0.10000000000E+03  0.10566000000E+00 0. -1.
         22   -1    0    0    0    0 -0.00000000000E+00 -0.00000000000E+00 -0.14418368859E+02  0.14418368859E+02  0.00000000000E+00 0.  1.
         13    1    1    2    0    0 -0.10595490401E+02 -0.19071190695E+01 -0.38172587156E+01  0.11422965820E+02  0.10566000000E+00 0.  1.
        996    1    1    2    0    0  0.10595490401E+02  0.19071190695E+01  0.89398834036E+02  0.10299540304E+03  0.50000000000E+02 0.  0.
<mgrwt>
<rscale>  0 0.51145885E+02</rscale>
<asrwt>0</asrwt>
<pdfrwt beam="1">  1       13 0.10000000E+01 0.51145885E+02</pdfrwt>
<pdfrwt beam="2">  1       22 0.14418393E+00 0.51145885E+02</pdfrwt>
<totfact> 0.80232283E-01</totfact>
</mgrwt>
</event>
<event>
 4    1  0.2489496E+000  0.5216747E+02  0.7957747E-01  0.1433990E+00
         13   -1    0    0    0    0  0.00000000000E+00  0.00000000000E+00  0.99999944175E+02  0.99999999995E+02  0.10566000000E+00 0.  1.
         22   -1    0    0    0    0 -0.00000000000E+00 -0.00000000000E+00 -0.14228243311E+02  0.14228243311E+02  0.00000000000E+00 0.  1.
         13    1    1    2    0    0 -0.10964674999E+02  0.10060852086E+02  0.12892914199E+01  0.14937144270E+02  0.10566000000E+00 0. -1.
        996    1    1    2    0    0  0.10964674999E+02 -0.10060852086E+02  0.84482409444E+02  0.99291099037E+02  0.50000000000E+02 0.  0.
<mgrwt>
<rscale>  0 0.52167469E+02</rscale>
<asrwt>0</asrwt>
<pdfrwt beam="1">  1       13 0.10000000E+01 0.52167469E+02</pdfrwt>
<pdfrwt beam="2">  1       22 0.14228267E+00 0.52167469E+02</pdfrwt>
<totfact> 0.82168167E-01</totfact>
</mgrwt>
</event>
<event>
 4    1  0.2489496E+000  0.5137637E+02  0.7957747E-01  0.1438056E+00
         13   -1    0    0    0    0  0.00000000000E+00  0.00000000000E+00  0.99999944174E+02  0.99999999994E+02  0.10566000000E+00 0.  1.
         22   -1    0    0    0    0 -0.00000000000E+00 -0.00000000000E+00 -0.22236719649E+02  0.22236719649E+02  0.00000000000E+00 0.  1.
         13    1    1    2    0    0 -0.11784638356E+02 -0.80855102395E+00 -0.13233090179E+02  0.17738582121E+02  0.10566000000E+00 0. -1.
        996    1    1    2    0    0  0.11784638356E+02  0.80855102395E+00  0.90996314704E+02  0.10449813752E+03  0.50000000000E+02 0.  0.
<mgrwt>
<rscale>  0 0.51376371E+02</rscale>
<asrwt>0</asrwt>
<pdfrwt beam="1">  1       13 0.10000000E+01 0.51376371E+02</pdfrwt>
<pdfrwt beam="2">  1       22 0.22236741E+00 0.51376371E+02</pdfrwt>
<totfact> 0.37010278E-01</totfact>
</mgrwt>
</event>
<event>
 4    1  0.2489496E+000  0.5349172E+02  0.7957747E-01  0.1427369E+00
         13   -1    0    0    0    0  0.00000000000E+00  0.00000000000E+00  0.99999944187E+02  0.10000000001E+03  0.10566000000E+00 0.  1.
         22   -1    0    0    0    0 -0.00000000000E+00 -0.00000000000E+00 -0.14905741182E+02  0.14905741182E+02  0.00000000000E+00 0. -1.
         13    1    1    2    0    0 -0.13124221480E+02  0.13752038032E+02  0.70200589016E+01  0.20264652242E+02  0.10566000000E+00 0. -1.
        996    1    1    2    0    0  0.13124221480E+02 -0.13752038032E+02  0.78074144104E+02  0.94641088947E+02  0.50000000000E+02 0.  0.
<mgrwt>
<rscale>  0 0.53491717E+02</rscale>
<asrwt>0</asrwt>
<pdfrwt beam="1">  1       13 0.10000000E+01 0.53491717E+02</pdfrwt>
<pdfrwt beam="2">  1       22 0.14905765E+00 0.53491717E+02</pdfrwt>
<totfact> 0.76315272E-01</totfact>
</mgrwt>
</event>
<event>
 4    1  0.2489496E+000  0.5205306E+02  0.7957747E-01  0.1434572E+00
         13   -1    0    0    0    0  0.00000000000E+00  0.00000000000E+00  0.99999944186E+02  0.10000000001E+03  0.10566000000E+00 0. -1.
         22   -1    0    0    0    0 -0.00000000000E+00 -0.00000000000E+00 -0.11329228050E+02  0.11329228050E+02  0.00000000000E+00 0. -1.
         13    1    1    2    0    0 -0.11094665147E+02 -0.92967502058E+01  0.12823921895E+02  0.19338699437E+02  0.10566000000E+00 0.  1.
        996    1    1    2    0    0  0.11094665147E+02  0.92967502058E+01  0.75846794241E+02  0.91990528619E+02  0.50000000000E+02 0.  0.
<mgrwt>
<rscale>  0 0.52053061E+02</rscale>
<asrwt>0</asrwt>
<pdfrwt beam="1">  1       13 0.10000000E+01 0.52053061E+02</pdfrwt>
<pdfrwt beam="2">  1       22 0.11329253E+00 0.52053061E+02</pdfrwt>
<totfact> 0.11730134E+00</totfact>
</mgrwt>
</event>
<event>
 4    1  0.2489496E+000  0.5289768E+02  0.7957747E-01  0.1430311E+00
         13   -1    0    0    0    0  0.00000000000E+00  0.00000000000E+00  0.99999944176E+02  0.99999999997E+02  0.10566000000E+00 0. -1.
         22   -1    0    0    0    0 -0.00000000000E+00 -0.00000000000E+00 -0.13091011177E+02  0.13091011177E+02  0.00000000000E+00 0.  1.
         13    1    1    2    0    0  0.17018823171E+02  0.29196276157E+01  0.10671254682E+02  0.20299049437E+02  0.10566000000E+00 0.  1.
        996    1    1    2    0    0 -0.17018823171E+02 -0.29196276157E+01  0.76237678318E+02  0.92791961736E+02  0.50000000000E+02 0.  0.
<mgrwt>
<rscale>  0 0.52897680E+02</rscale>
<asrwt>0</asrwt>
<pdfrwt beam="1">  1       13 0.10000000E+01 0.52897680E+02</pdfrwt>
<pdfrwt beam="2">  1       22 0.13091035E+00 0.52897680E+02</pdfrwt>
<totfact> 0.94068034E-01</totfact>
</mgrwt>
</event>
<event>
 4    1  0.2489496E+000  0.5924322E+02  0.7957747E-01  0.1401035E+00
         13   -1    0    0    0    0  0.00000000000E+00  0.00000000000E+00  0.99999944185E+02  0.10000000001E+03  0.10566000000E+00 0.  1.
         22   -1    0    0    0    0 -0.00000000000E+00 -0.00000000000E+00 -0.28070339126E+02  0.28070339126E+02  0.00000000000E+00 0.  1.
         13    1    1    2    0    0 -0.31289849271E+02 -0.55412103181E+01 -0.37088299672E+01  0.31992597003E+02  0.10566000000E+00 0. -1.
        996    1    1    2    0    0  0.31289849271E+02  0.55412103181E+01  0.75638435026E+02  0.96077742128E+02  0.50000000000E+02 0.  0.
<mgrwt>
<rscale>  0 0.59243225E+02</rscale>
<asrwt>0</asrwt>
<pdfrwt beam="1">  1       13 0.10000000E+01 0.59243225E+02</pdfrwt>
<pdfrwt beam="2">  1       22 0.28070359E+00 0.59243225E+02</pdfrwt>
<totfact> 0.23722924E-01</totfact>
</mgrwt>
</event>
<event>
 4    1  0.2489496E+000  0.5218419E+02  0.7957747E-01  0.1433904E+00
         13   -1    0    0    0    0  0.00000000000E+00  0.00000000000E+00  0.99999944185E+02  0.10000000001E+03  0.10566000000E+00 0.  1.
         22   -1    0    0    0    0 -0.00000000000E+00 -0.00000000000E+00 -0.18051934196E+02  0.18051934196E+02  0.00000000000E+00 0. -1.
         13    1    1    2    0    0 -0.44529287593E+01  0.14260462088E+02 -0.57451336205E+01  0.16006469875E+02  0.10566000000E+00 0. -1.
        996    1    1    2    0    0  0.44529287593E+01 -0.14260462088E+02  0.87693143609E+02  0.10204546433E+03  0.50000000000E+02 0.  0.
<mgrwt>
<rscale>  0 0.52184187E+02</rscale>
<asrwt>0</asrwt>
<pdfrwt beam="1">  1       13 0.10000000E+01 0.52184187E+02</pdfrwt>
<pdfrwt beam="2">  1       22 0.18051957E+00 0.52184187E+02</pdfrwt>
<totfact> 0.54676130E-01</totfact>
</mgrwt>
</event>
<event>
 4    1  0.2489496E+000  0.5159175E+02  0.7957747E-01  0.1436940E+00
         13   -1    0    0    0    0  0.00000000000E+00  0.00000000000E+00  0.99999944182E+02  0.10000000000E+03  0.10566000000E+00 0. -1.
         22   -1    0    0    0    0 -0.00000000000E+00 -0.00000000000E+00 -0.12077460474E+02  0.12077460474E+02  0.00000000000E+00 0. -1.
         13    1    1    2    0    0  0.91925852521E+01  0.87866121060E+01  0.35871691234E+01  0.13213142029E+02  0.10566000000E+00 0.  1.
        996    1    1    2    0    0 -0.91925852521E+01 -0.87866121060E+01  0.84335314585E+02  0.98864318448E+02  0.50000000000E+02 0.  0.
<mgrwt>
<rscale>  0 0.51591745E+02</rscale>
<asrwt>0</asrwt>
<pdfrwt beam="1">  1       13 0.10000000E+01 0.51591745E+02</pdfrwt>
<pdfrwt beam="2">  1       22 0.12077485E+00 0.51591745E+02</pdfrwt>
<totfact> 0.10634128E+00</totfact>
</mgrwt>
</event>
<event>
 4    1  0.2489496E+000  0.5273843E+02  0.7957747E-01  0.1431107E+00
         13   -1    0    0    0    0  0.00000000000E+00  0.00000000000E+00  0.99999944186E+02  0.10000000001E+03  0.10566000000E+00 0. -1.
         22   -1    0    0    0    0 -0.00000000000E+00 -0.00000000000E+00 -0.70349303594E+02  0.70349303594E+02  0.00000000000E+00 0.  1.
         13    1    1    2    0    0  0.14459706541E+02 -0.85005419291E+01 -0.62206985500E+02  0.64428739980E+02  0.10566000000E+00 0.  1.
        996    1    1    2    0    0 -0.14459706541E+02  0.85005419291E+01  0.91857626092E+02  0.10592056362E+03  0.50000000000E+02 0.  0.
<mgrwt>
<rscale>  0 0.52738433E+02</rscale>
<asrwt>0</asrwt>
<pdfrwt beam="1">  1       13 0.10000000E+01 0.52738433E+02</pdfrwt>
<pdfrwt beam="2">  1       22 0.70349312E+00 0.52738433E+02</pdfrwt>
<totfact> 0.72845293E-02</totfact>
</mgrwt>
</event>
<event>
 4    1  0.2489496E+000  0.6122164E+02  0.7957747E-01  0.1392775E+00
         13   -1    0    0    0    0  0.00000000000E+00  0.00000000000E+00  0.99999944180E+02  0.10000000000E+03  0.10566000000E+00 0. -1.
         22   -1    0    0    0    0 -0.00000000000E+00 -0.00000000000E+00 -0.62456461176E+02  0.62456461176E+02  0.00000000000E+00 0.  1.
         13    1    1    2    0    0 -0.22496040169E+02  0.27240003354E+02 -0.46550091875E+02  0.58438102498E+02  0.10566000000E+00 0.  1.
        996    1    1    2    0    0  0.22496040169E+02 -0.27240003354E+02  0.84093574879E+02  0.10401835868E+03  0.50000000000E+02 0.  0.
<mgrwt>
<rscale>  0 0.61221643E+02</rscale>
<asrwt>0</asrwt>
<pdfrwt beam="1">  1       13 0.10000000E+01 0.61221643E+02</pdfrwt>
<pdfrwt beam="2">  1       22 0.62456472E+00 0.61221643E+02</pdfrwt>
<totfact> 0.75639733E-02</totfact>
</mgrwt>
</event>
<event>
 4    1  0.2489496E+000  0.5401659E+02  0.7957747E-01  0.1424808E+00
         13   -1    0    0    0    0  0.00000000000E+00  0.00000000000E+00  0.99999944172E+02  0.99999999992E+02  0.10566000000E+00 0. -1.
         22   -1    0    0    0    0 -0.00000000000E+00 -0.00000000000E+00 -0.31133335520E+02  0.31133335520E+02  0.00000000000E+00 0.  1.
         13    1    1    2    0    0 -0.11627626027E+02 -0.16810427974E+02 -0.19054777576E+02  0.27944371315E+02  0.10566000000E+00 0.  1.
        996    1    1    2    0    0  0.11627626027E+02  0.16810427974E+02  0.87921386228E+02  0.10318896420E+03  0.50000000000E+02 0.  0.
<mgrwt>
<rscale>  0 0.54016592E+02</rscale>
<asrwt>0</asrwt>
<pdfrwt beam="1">  1       13 0.10000000E+01 0.54016592E+02</pdfrwt>
<pdfrwt beam="2">  1       22 0.31133355E+00 0.54016592E+02</pdfrwt>
<totfact> 0.19382215E-01</totfact>
</mgrwt>
</event>
<event>
 4    1  0.2489496E+000  0.5334119E+02  0.7957747E-01  0.1428110E+00
         13   -1    0    0    0    0  0.00000000000E+00  0.00000000000E+00  0.99999944183E+02  0.10000000000E+03  0.10566000000E+00 0. -1.
         22   -1    0    0    0    0 -0.00000000000E+00 -0.00000000000E+00 -0.14277083034E+02  0.14277083034E+02  0.00000000000E+00 0.  1.
         13    1    1    2    0    0  0.14838969891E+02  0.11184250188E+02  0.85276331372E+01  0.20445394852E+02  0.10566000000E+00 0.  1.
        996    1    1    2    0    0 -0.14838969891E+02 -0.11184250188E+02  0.77195228012E+02  0.93831688185E+02  0.50000000000E+02 0.  0.
<mgrwt>
<rscale>  0 0.53341189E+02</rscale>
<asrwt>0</asrwt>
<pdfrwt beam="1">  1       13 0.10000000E+01 0.53341189E+02</pdfrwt>
<pdfrwt beam="2">  1       22 0.14277107E+00 0.53341189E+02</pdfrwt>
<totfact> 0.81907108E-01</totfact>
</mgrwt>
</event>
<event>
 4    1  0.2489496E+000  0.6060752E+02  0.7957747E-01  0.1395300E+00
         13   -1    0    0    0    0  0.00000000000E+00  0.00000000000E+00  0.99999944182E+02  0.10000000000E+03  0.10566000000E+00 0.  1.
         22   -1    0    0    0    0 -0.00000000000E+00 -0.00000000000E+00 -0.23968476770E+02  0.23968476770E+02  0.00000000000E+00 0. -1.
         13    1    1    2    0    0 -0.18316309025E+02 -0.28944497541E+02  0.13308334760E+02  0.36747708123E+02  0.10566000000E+00 0. -1.
        996    1    1    2    0    0  0.18316309025E+02  0.28944497541E+02  0.62723132652E+02  0.87220768650E+02  0.50000000000E+02 0.  0.
<mgrwt>
<rscale>  0 0.60607517E+02</rscale>
<asrwt>0</asrwt>
<pdfrwt beam="1">  1       13 0.10000000E+01 0.60607517E+02</pdfrwt>
<pdfrwt beam="2">  1       22 0.23968498E+00 0.60607517E+02</pdfrwt>
<totfact> 0.32434629E-01</totfact>
</mgrwt>
</event>
<event>
 4    1  0.2489496E+000  0.5137360E+02  0.7957747E-01  0.1438070E+00
         13   -1    0    0    0    0  0.00000000000E+00  0.00000000000E+00  0.99999944174E+02  0.99999999994E+02  0.10566000000E+00 0.  1.
         22   -1    0    0    0    0 -0.00000000000E+00 -0.00000000000E+00 -0.10018079779E+02  0.10018079779E+02  0.00000000000E+00 0.  1.
         13    1    1    2    0    0 -0.10486158682E+02  0.54117705591E+01  0.14189071834E+02  0.18455018506E+02  0.10566000000E+00 0. -1.
        996    1    1    2    0    0  0.10486158682E+02 -0.54117705591E+01  0.75792792561E+02  0.91563061267E+02  0.50000000000E+02 0.  0.
<mgrwt>
<rscale>  0 0.51373600E+02</rscale>
<asrwt>0</asrwt>
<pdfrwt beam="1">  1       13 0.10000000E+01 0.51373600E+02</pdfrwt>
<pdfrwt beam="2">  1       22 0.10018105E+00 0.51373600E+02</pdfrwt>
<totfact> 0.14039762E+00</totfact>
</mgrwt>
</event>
<event>
 4    1  0.2489496E+000  0.5244522E+02  0.7957747E-01  0.1432582E+00
         13   -1    0    0    0    0  0.00000000000E+00  0.00000000000E+00  0.99999944169E+02  0.99999999990E+02  0.10566000000E+00 0.  1.
         22   -1    0    0    0    0 -0.00000000000E+00 -0.00000000000E+00 -0.69260216249E+02  0.69260216249E+02  0.00000000000E+00 0. -1.
         13    1    1    2    0    0  0.47970135414E+01 -0.15082752029E+02 -0.61309144183E+02  0.63319215662E+02  0.10566000000E+00 0. -1.
        996    1    1    2    0    0 -0.47970135414E+01  0.15082752029E+02  0.92048872103E+02  0.10594100058E+03  0.50000000000E+02 0.  0.
<mgrwt>
<rscale>  0 0.52445217E+02</rscale>
<asrwt>0</asrwt>
<pdfrwt beam="1">  1       13 0.10000000E+01 0.52445217E+02</pdfrwt>
<pdfrwt beam="2">  1       22 0.69260225E+00 0.52445217E+02</pdfrwt>
<totfact> 0.78269116E-02</totfact>
</mgrwt>
</event>
<event>
 4    1  0.2489496E+000  0.5113687E+02  0.7957747E-01  0.1439304E+00
         13   -1    0    0    0    0  0.00000000000E+00  0.00000000000E+00  0.99999944179E+02  0.99999999999E+02  0.10566000000E+00 0.  1.
         22   -1    0    0    0    0 -0.00000000000E+00 -0.00000000000E+00 -0.15960073127E+02  0.15960073127E+02  0.00000000000E+00 0. -1.
         13    1    1    2    0    0  0.79134153751E+01  0.72358167812E+01 -0.60914251810E+01  0.12332713090E+02  0.10566000000E+00 0. -1.
        996    1    1    2    0    0 -0.79134153751E+01 -0.72358167812E+01  0.90131296233E+02  0.10362736004E+03  0.50000000000E+02 0.  0.
<mgrwt>
<rscale>  0 0.51136867E+02</rscale>
<asrwt>0</asrwt>
<pdfrwt beam="1">  1       13 0.10000000E+01 0.51136867E+02</pdfrwt>
<pdfrwt beam="2">  1       22 0.15960097E+00 0.51136867E+02</pdfrwt>
<totfact> 0.67696199E-01</totfact>
</mgrwt>
</event>
<event>
 4    1  0.2489496E+000  0.5448072E+02  0.7957747E-01  0.1422571E+00
         13   -1    0    0    0    0  0.00000000000E+00  0.00000000000E+00  0.99999944175E+02  0.99999999996E+02  0.10566000000E+00 0.  1.
         22   -1    0    0    0    0 -0.00000000000E+00 -0.00000000000E+00 -0.28667364234E+02  0.28667364234E+02  0.00000000000E+00 0. -1.
         13    1    1    2    0    0 -0.94452309137E+01 -0.19466283282E+02 -0.15179038993E+02  0.26430341667E+02  0.10566000000E+00 0. -1.
        996    1    1    2    0    0  0.94452309137E+01  0.19466283282E+02  0.86511618934E+02  0.10223702256E+03  0.50000000000E+02 0.  0.
<mgrwt>
<rscale>  0 0.54480717E+02</rscale>
<asrwt>0</asrwt>
<pdfrwt beam="1">  1       13 0.10000000E+01 0.54480717E+02</pdfrwt>
<pdfrwt beam="2">  1       22 0.28667384E+00 0.54480717E+02</pdfrwt>
<totfact> 0.22639649E-01</totfact>
</mgrwt>
</event>
<event>
 4    1  0.2489496E+000  0.5219036E+02  0.7957747E-01  0.1433873E+00
         13   -1    0    0    0    0  0.00000000000E+00  0.00000000000E+00  0.99999944181E+02  0.10000000000E+03  0.10566000000E+00 0. -1.
         22   -1    0    0    0    0 -0.00000000000E+00 -0.00000000000E+00 -0.28450543066E+02  0.28450543066E+02  0.00000000000E+00 0.  1.
         13    1    1    2    0    0 -0.28879390340E+01 -0.14679711517E+02 -0.18850774881E+02  0.24066511998E+02  0.10566000000E+00 0.  1.
        996    1    1    2    0    0  0.28879390340E+01  0.14679711517E+02  0.90400175997E+02  0.10438403107E+03  0.50000000000E+02 0.  0.
<mgrwt>
<rscale>  0 0.52190364E+02</rscale>
<asrwt>0</asrwt>
<pdfrwt beam="1">  1       13 0.10000000E+01 0.52190364E+02</pdfrwt>
<pdfrwt beam="2">  1       22 0.28450563E+00 0.52190364E+02</pdfrwt>
<totfact> 0.22900811E-01</totfact>
</mgrwt>
</event>
<event>
 4    1  0.2489496E+000  0.5117407E+02  0.7957747E-01  0.1439110E+00
         13   -1    0    0    0    0  0.00000000000E+00  0.00000000000E+00  0.99999944178E+02  0.99999999999E+02  0.10566000000E+00 0.  1.
         22   -1    0    0    0    0 -0.00000000000E+00 -0.00000000000E+00 -0.15503902191E+02  0.15503902191E+02  0.00000000000E+00 0. -1.
         13    1    1    2    0    0  0.83601635794E+01 -0.69923899016E+01 -0.53228699654E+01  0.12129713942E+02  0.10566000000E+00 0. -1.
        996    1    1    2    0    0 -0.83601635794E+01  0.69923899016E+01  0.89818911952E+02  0.10337418825E+03  0.50000000000E+02 0.  0.
<mgrwt>
<rscale>  0 0.51174074E+02</rscale>
<asrwt>0</asrwt>
<pdfrwt beam="1">  1       13 0.10000000E+01 0.51174074E+02</pdfrwt>
<pdfrwt beam="2">  1       22 0.15503926E+00 0.51174074E+02</pdfrwt>
<totfact> 0.71116443E-01</totfact>
</mgrwt>
</event>
<event>
 4    1  0.2489496E+000  0.5229783E+02  0.7957747E-01  0.1433328E+00
         13   -1    0    0    0    0  0.00000000000E+00  0.00000000000E+00  0.99999944181E+02  0.10000000000E+03  0.10566000000E+00 0. -1.
         22   -1    0    0    0    0 -0.00000000000E+00 -0.00000000000E+00 -0.11503631991E+02  0.11503631991E+02  0.00000000000E+00 0. -1.
         13    1    1    2    0    0 -0.10639122824E+02 -0.11039556415E+02  0.16584143847E+02  0.22585564670E+02  0.10566000000E+00 0.  1.
        996    1    1    2    0    0  0.10639122824E+02  0.11039556415E+02  0.71912168344E+02  0.88918067321E+02  0.50000000000E+02 0.  0.
<mgrwt>
<rscale>  0 0.52297827E+02</rscale>
<asrwt>0</asrwt>
<pdfrwt beam="1">  1       13 0.10000000E+01 0.52297827E+02</pdfrwt>
<pdfrwt beam="2">  1       22 0.11503657E+00 0.52297827E+02</pdfrwt>
<totfact> 0.11469863E+00</totfact>
</mgrwt>
</event>
<event>
 4    1  0.2489496E+000  0.5145614E+02  0.7957747E-01  0.1437642E+00
         13   -1    0    0    0    0  0.00000000000E+00  0.00000000000E+00  0.99999944180E+02  0.10000000000E+03  0.10566000000E+00 0.  1.
         22   -1    0    0    0    0 -0.00000000000E+00 -0.00000000000E+00 -0.13682208202E+02  0.13682208202E+02  0.00000000000E+00 0. -1.
         13    1    1    2    0    0 -0.82508004878E+01 -0.89251912878E+01 -0.11417506320E+01  0.12208583323E+02  0.10566000000E+00 0. -1.
        996    1    1    2    0    0  0.82508004878E+01  0.89251912878E+01  0.87459486609E+02  0.10147362488E+03  0.50000000000E+02 0.  0.
<mgrwt>
<rscale>  0 0.51456144E+02</rscale>
<asrwt>0</asrwt>
<pdfrwt beam="1">  1       13 0.10000000E+01 0.51456144E+02</pdfrwt>
<pdfrwt beam="2">  1       22 0.13682232E+00 0.51456144E+02</pdfrwt>
<totfact> 0.87408833E-01</totfact>
</mgrwt>
</event>
<event>
 4    1  0.2489496E+000  0.5114318E+02  0.7957747E-01  0.1439271E+00
         13   -1    0    0    0    0  0.00000000000E+00  0.00000000000E+00  0.99999944179E+02  0.99999999999E+02  0.10566000000E+00 0. -1.
         22   -1    0    0    0    0 -0.00000000000E+00 -0.00000000000E+00 -0.10169931479E+02  0.10169931479E+02  0.00000000000E+00 0. -1.
         13    1    1    2    0    0 -0.21187038502E+01  0.10542115551E+02  0.27598082313E+02  0.29619088739E+02  0.10566000000E+00 0.  1.
        996    1    1    2    0    0  0.21187038502E+01 -0.10542115551E+02  0.62231930387E+02  0.80550842739E+02  0.50000000000E+02 0.  0.
<mgrwt>
<rscale>  0 0.51143182E+02</rscale>
<asrwt>0</asrwt>
<pdfrwt beam="1">  1       13 0.10000000E+01 0.51143182E+02</pdfrwt>
<pdfrwt beam="2">  1       22 0.10169957E+00 0.51143182E+02</pdfrwt>
<totfact> 0.13728811E+00</totfact>
</mgrwt>
</event>
<event>
 4    1  0.2489496E+000  0.6965057E+02  0.7957747E-01  0.1361285E+00
         13   -1    0    0    0    0  0.00000000000E+00  0.00000000000E+00  0.99999944184E+02  0.10000000000E+03  0.10566000000E+00 0.  1.
         22   -1    0    0    0    0 -0.00000000000E+00 -0.00000000000E+00 -0.39696765698E+02  0.39696765698E+02  0.00000000000E+00 0.  1.
         13    1    1    2    0    0 -0.39418852650E+02  0.28237496391E+02  0.49358410870E+02  0.69191517069E+02  0.10566000000E+00 0. -1.
        996    1    1    2    0    0  0.39418852650E+02 -0.28237496391E+02  0.10944767616E+02  0.70505248633E+02  0.50000000000E+02 0.  0.
<mgrwt>
<rscale>  0 0.69650572E+02</rscale>
<asrwt>0</asrwt>
<pdfrwt beam="1">  1       13 0.10000000E+01 0.69650572E+02</pdfrwt>
<pdfrwt beam="2">  1       22 0.39696783E+00 0.69650572E+02</pdfrwt>
<totfact> 0.12699613E-01</totfact>
</mgrwt>
</event>
<event>
 4    1  0.2489496E+000  0.5244944E+02  0.7957747E-01  0.1432561E+00
         13   -1    0    0    0    0  0.00000000000E+00  0.00000000000E+00  0.99999944181E+02  0.10000000000E+03  0.10566000000E+00 0.  1.
         22   -1    0    0    0    0 -0.00000000000E+00 -0.00000000000E+00 -0.38036444584E+02  0.38036444584E+02  0.00000000000E+00 0.  1.
         13    1    1    2    0    0 -0.14919420136E+02  0.53248743605E+01 -0.28994422000E+02  0.33039840425E+02  0.10566000000E+00 0. -1.
        996    1    1    2    0    0  0.14919420136E+02 -0.53248743605E+01  0.90957921596E+02  0.10499660416E+03  0.50000000000E+02 0.  0.
<mgrwt>
<rscale>  0 0.52449436E+02</rscale>
<asrwt>0</asrwt>
<pdfrwt beam="1">  1       13 0.10000000E+01 0.52449436E+02</pdfrwt>
<pdfrwt beam="2">  1       22 0.38036462E+00 0.52449436E+02</pdfrwt>
<totfact> 0.13576466E-01</totfact>
</mgrwt>
</event>
<event>
 4    1  0.2489496E+000  0.5197294E+02  0.7957747E-01  0.1434982E+00
         13   -1    0    0    0    0  0.00000000000E+00  0.00000000000E+00  0.99999944178E+02  0.99999999998E+02  0.10566000000E+00 0.  1.
         22   -1    0    0    0    0 -0.00000000000E+00 -0.00000000000E+00 -0.14442850650E+02  0.14442850650E+02  0.00000000000E+00 0. -1.
         13    1    1    2    0    0  0.11007378119E+02 -0.89456145319E+01 -0.17706791342E+00  0.14185517597E+02  0.10566000000E+00 0. -1.
        996    1    1    2    0    0 -0.11007378119E+02  0.89456145319E+01  0.85734161442E+02  0.10025733305E+03  0.50000000000E+02 0.  0.
<mgrwt>
<rscale>  0 0.51972939E+02</rscale>
<asrwt>0</asrwt>
<pdfrwt beam="1">  1       13 0.10000000E+01 0.51972939E+02</pdfrwt>
<pdfrwt beam="2">  1       22 0.14442875E+00 0.51972939E+02</pdfrwt>
<totfact> 0.80148177E-01</totfact>
</mgrwt>
</event>
<event>
 4    1  0.2489496E+000  0.5159732E+02  0.7957747E-01  0.1436912E+00
         13   -1    0    0    0    0  0.00000000000E+00  0.00000000000E+00  0.99999944176E+02  0.99999999996E+02  0.10566000000E+00 0. -1.
         22   -1    0    0    0    0 -0.00000000000E+00 -0.00000000000E+00 -0.10799454506E+02  0.10799454506E+02  0.00000000000E+00 0. -1.
         13    1    1    2    0    0 -0.11452520501E+02 -0.55788369708E+01  0.96538756287E+01  0.15984121073E+02  0.10566000000E+00 0.  1.
        996    1    1    2    0    0  0.11452520501E+02  0.55788369708E+01  0.79546614041E+02  0.94815333429E+02  0.50000000000E+02 0.  0.
<mgrwt>
<rscale>  0 0.51597322E+02</rscale>
<asrwt>0</asrwt>
<pdfrwt beam="1">  1       13 0.10000000E+01 0.51597322E+02</pdfrwt>
<pdfrwt beam="2">  1       22 0.10799479E+00 0.51597322E+02</pdfrwt>
<totfact> 0.12584680E+00</totfact>
</mgrwt>
</event>
<event>
 4    1  0.2489496E+000  0.5547992E+02  0.7957747E-01  0.1417843E+00
         13   -1    0    0    0    0  0.00000000000E+00  0.00000000000E+00  0.99999944184E+02  0.10000000000E+03  0.10566000000E+00 0. -1.
         22   -1    0    0    0    0 -0.00000000000E+00 -0.00000000000E+00 -0.47994403736E+02  0.47994403736E+02  0.00000000000E+00 0.  1.
         13    1    1    2    0    0  0.18771369699E+02  0.15021908070E+02 -0.36399326216E+02  0.43622748142E+02  0.10566000000E+00 0.  1.
        996    1    1    2    0    0 -0.18771369699E+02 -0.15021908070E+02  0.88404866664E+02  0.10437165560E+03  0.50000000000E+02 0.  0.
<mgrwt>
<rscale>  0 0.55479925E+02</rscale>
<asrwt>0</asrwt>
<pdfrwt beam="1">  1       13 0.10000000E+01 0.55479925E+02</pdfrwt>
<pdfrwt beam="2">  1       22 0.47994418E+00 0.55479925E+02</pdfrwt>
<totfact> 0.82420355E-02</totfact>
</mgrwt>
</event>
<event>
 4    1  0.2489496E+000  0.5122608E+02  0.7957747E-01  0.1438838E+00
         13   -1    0    0    0    0  0.00000000000E+00  0.00000000000E+00  0.99999944184E+02  0.10000000000E+03  0.10566000000E+00 0. -1.
         22   -1    0    0    0    0 -0.00000000000E+00 -0.00000000000E+00 -0.10363557257E+02  0.10363557257E+02  0.00000000000E+00 0. -1.
         13    1    1    2    0    0 -0.10777938469E+02  0.28191400878E+01  0.28516065228E+02  0.30615170236E+02  0.10566000000E+00 0.  1.
        996    1    1    2    0    0  0.10777938469E+02 -0.28191400878E+01  0.61120321700E+02  0.79748387025E+02  0.50000000000E+02 0.  0.
<mgrwt>
<rscale>  0 0.51226082E+02</rscale>
<asrwt>0</asrwt>
<pdfrwt beam="1">  1       13 0.10000000E+01 0.51226082E+02</pdfrwt>
<pdfrwt beam="2">  1       22 0.10363582E+00 0.51226082E+02</pdfrwt>
<totfact> 0.13359046E+00</totfact>
</mgrwt>
</event>
<event>
 4    1  0.2489496E+000  0.7260060E+02  0.7957747E-01  0.1351466E+00
         13   -1    0    0    0    0  0.00000000000E+00  0.00000000000E+00  0.99999944168E+02  0.99999999988E+02  0.10566000000E+00 0.  1.
         22   -1    0    0    0    0 -0.00000000000E+00 -0.00000000000E+00 -0.66513488814E+02  0.66513488814E+02  0.00000000000E+00 0. -1.
         13    1    1    2    0    0 -0.43687296318E+02  0.29364393219E+02 -0.37769345469E+02  0.64787206066E+02  0.10566000000E+00 0. -1.
        996    1    1    2    0    0  0.43687296318E+02 -0.29364393219E+02  0.71255800822E+02  0.10172628274E+03  0.50000000000E+02 0.  0.
<mgrwt>
<rscale>  0 0.72600602E+02</rscale>
<asrwt>0</asrwt>
<pdfrwt beam="1">  1       13 0.10000000E+01 0.72600602E+02</pdfrwt>
<pdfrwt beam="2">  1       22 0.66513498E+00 0.72600602E+02</pdfrwt>
<totfact> 0.86983956E-02</totfact>
</mgrwt>
</event>
<event>
 4    1  0.2489496E+000  0.5111264E+02  0.7957747E-01  0.1439431E+00
         13   -1    0    0    0    0  0.00000000000E+00  0.00000000000E+00  0.99999944180E+02  0.10000000000E+03  0.10566000000E+00 0. -1.
         22   -1    0    0    0    0 -0.00000000000E+00 -0.00000000000E+00 -0.15091266671E+02  0.15091266671E+02  0.00000000000E+00 0.  1.
         13    1    1    2    0    0 -0.20059917680E+01 -0.10415288798E+02 -0.49558289116E+01  0.11707845573E+02  0.10566000000E+00 0.  1.
        996    1    1    2    0    0  0.20059917680E+01  0.10415288798E+02  0.89864506421E+02  0.10338342110E+03  0.50000000000E+02 0.  0.
<mgrwt>
<rscale>  0 0.51112643E+02</rscale>
<asrwt>0</asrwt>
<pdfrwt beam="1">  1       13 0.10000000E+01 0.51112643E+02</pdfrwt>
<pdfrwt beam="2">  1       22 0.15091290E+00 0.51112643E+02</pdfrwt>
<totfact> 0.74398973E-01</totfact>
</mgrwt>
</event>
<event>
 4    1  0.2489496E+000  0.5116969E+02  0.7957747E-01  0.1439133E+00
         13   -1    0    0    0    0  0.00000000000E+00  0.00000000000E+00  0.99999944174E+02  0.99999999994E+02  0.10566000000E+00 0.  1.
         22   -1    0    0    0    0 -0.00000000000E+00 -0.00000000000E+00 -0.37966138705E+02  0.37966138705E+02  0.00000000000E+00 0. -1.
         13    1    1    2    0    0  0.63603220799E+01 -0.88251851273E+01 -0.30414440399E+02  0.32301500558E+02  0.10566000000E+00 0. -1.
        996    1    1    2    0    0 -0.63603220799E+01  0.88251851273E+01  0.92448245868E+02  0.10566463814E+03  0.50000000000E+02 0.  0.
<mgrwt>
<rscale>  0 0.51169694E+02</rscale>
<asrwt>0</asrwt>
<pdfrwt beam="1">  1       13 0.10000000E+01 0.51169694E+02</pdfrwt>
<pdfrwt beam="2">  1       22 0.37966156E+00 0.51169694E+02</pdfrwt>
<totfact> 0.13606328E-01</totfact>
</mgrwt>
</event>
<event>
 4    1  0.2489496E+000  0.5165204E+02  0.7957747E-01  0.1436629E+00
         13   -1    0    0    0    0  0.00000000000E+00  0.00000000000E+00  0.99999944170E+02  0.99999999990E+02  0.10566000000E+00 0.  1.
         22   -1    0    0    0    0 -0.00000000000E+00 -0.00000000000E+00 -0.11931611601E+02  0.11931611601E+02  0.00000000000E+00 0.  1.
         13    1    1    2    0    0 -0.12804820110E+02 -0.19923708201E+01  0.45563234924E+01  0.13736964997E+02  0.10566000000E+00 0. -1.
        996    1    1    2    0    0  0.12804820110E+02  0.19923708201E+01  0.83512009077E+02  0.98194646594E+02  0.50000000000E+02 0.  0.
<mgrwt>
<rscale>  0 0.51652037E+02</rscale>
<asrwt>0</asrwt>
<pdfrwt beam="1">  1       13 0.10000000E+01 0.51652037E+02</pdfrwt>
<pdfrwt beam="2">  1       22 0.11931636E+00 0.51652037E+02</pdfrwt>
<totfact> 0.10835347E+00</totfact>
</mgrwt>
</event>
<event>
 4    1  0.2489496E+000  0.5316505E+02  0.7957747E-01  0.1428981E+00
         13   -1    0    0    0    0  0.00000000000E+00  0.00000000000E+00  0.99999944178E+02  0.99999999998E+02  0.10566000000E+00 0.  1.
         22   -1    0    0    0    0 -0.00000000000E+00 -0.00000000000E+00 -0.16028646849E+02  0.16028646849E+02  0.00000000000E+00 0.  1.
         13    1    1    2    0    0 -0.78724914161E+01  0.16264886669E+02  0.18021339055E+01  0.18159887392E+02  0.10566000000E+00 0. -1.
        996    1    1    2    0    0  0.78724914161E+01 -0.16264886669E+02  0.82169163424E+02  0.97868759455E+02  0.50000000000E+02 0.  0.
<mgrwt>
<rscale>  0 0.53165051E+02</rscale>
<asrwt>0</asrwt>
<pdfrwt beam="1">  1       13 0.10000000E+01 0.53165051E+02</pdfrwt>
<pdfrwt beam="2">  1       22 0.16028670E+00 0.53165051E+02</pdfrwt>
<totfact> 0.67472726E-01</totfact>
</mgrwt>
</event>
<event>
 4    1  0.2489496E+000  0.5126940E+02  0.7957747E-01  0.1438613E+00
         13   -1    0    0    0    0  0.00000000000E+00  0.00000000000E+00  0.99999944178E+02  0.99999999998E+02  0.10566000000E+00 0. -1.
         22   -1    0    0    0    0 -0.00000000000E+00 -0.00000000000E+00 -0.11874064819E+02  0.11874064819E+02  0.00000000000E+00 0.  1.
         13    1    1    2    0    0  0.94605375647E+01 -0.62489427253E+01  0.18130709929E+01  0.11482571431E+02  0.10566000000E+00 0.  1.
        996    1    1    2    0    0 -0.94605375647E+01  0.62489427253E+01  0.86312808366E+02  0.10039149339E+03  0.50000000000E+02 0.  0.
<mgrwt>
<rscale>  0 0.51269397E+02</rscale>
<asrwt>0</asrwt>
<pdfrwt beam="1">  1       13 0.10000000E+01 0.51269397E+02</pdfrwt>
<pdfrwt beam="2">  1       22 0.11874089E+00 0.51269397E+02</pdfrwt>
<totfact> 0.10906184E+00</totfact>
</mgrwt>
</event>
<event>
 4    1  0.2489496E+000  0.5302345E+02  0.7957747E-01  0.1429684E+00
         13   -1    0    0    0    0  0.00000000000E+00  0.00000000000E+00  0.99999944179E+02  0.99999999999E+02  0.10566000000E+00 0. -1.
         22   -1    0    0    0    0 -0.00000000000E+00 -0.00000000000E+00 -0.21353307894E+02  0.21353307894E+02  0.00000000000E+00 0.  1.
         13    1    1    2    0    0  0.74812099220E+01 -0.15984936943E+02 -0.83083338011E+01  0.19507082958E+02  0.10566000000E+00 0.  1.
        996    1    1    2    0    0 -0.74812099220E+01  0.15984936943E+02  0.86954970086E+02  0.10184622494E+03  0.50000000000E+02 0.  0.
<mgrwt>
<rscale>  0 0.53023454E+02</rscale>
<asrwt>0</asrwt>
<pdfrwt beam="1">  1       13 0.10000000E+01 0.53023454E+02</pdfrwt>
<pdfrwt beam="2">  1       22 0.21353330E+00 0.53023454E+02</pdfrwt>
<totfact> 0.40114644E-01</totfact>
</mgrwt>
</event>
<event>
 4    1  0.2489496E+000  0.5107206E+02  0.7957747E-01  0.1439643E+00
         13   -1    0    0    0    0  0.00000000000E+00  0.00000000000E+00  0.99999944181E+02  0.10000000000E+03  0.10566000000E+00 0.  1.
         22   -1    0    0    0    0 -0.00000000000E+00 -0.00000000000E+00 -0.10357229413E+02  0.10357229413E+02  0.00000000000E+00 0.  1.
         13    1    1    2    0    0 -0.18279018246E+01  0.10247646256E+02  0.51155263673E+01  0.11598933267E+02  0.10566000000E+00 0. -1.
        996    1    1    2    0    0  0.18279018246E+01 -0.10247646256E+02  0.84527188402E+02  0.98758296147E+02  0.50000000000E+02 0.  0.
<mgrwt>
<rscale>  0 0.51072062E+02</rscale>
<asrwt>0</asrwt>
<pdfrwt beam="1">  1       13 0.10000000E+01 0.51072062E+02</pdfrwt>
<pdfrwt beam="2">  1       22 0.10357254E+00 0.51072062E+02</pdfrwt>
<totfact> 0.13366026E+00</totfact>
</mgrwt>
</event>
<event>
 4    1  0.2489496E+000  0.5163832E+02  0.7957747E-01  0.1436700E+00
         13   -1    0    0    0    0  0.00000000000E+00  0.00000000000E+00  0.99999944178E+02  0.99999999998E+02  0.10566000000E+00 0. -1.
         22   -1    0    0    0    0 -0.00000000000E+00 -0.00000000000E+00 -0.10459775259E+02  0.10459775259E+02  0.00000000000E+00 0. -1.
         13    1    1    2    0    0  0.12776944921E+02  0.18071125880E+01  0.15106440136E+02  0.19867855320E+02  0.10566000000E+00 0.  1.
        996    1    1    2    0    0 -0.12776944921E+02 -0.18071125880E+01  0.74433728782E+02  0.90591919937E+02  0.50000000000E+02 0.  0.
<mgrwt>
<rscale>  0 0.51638319E+02</rscale>
<asrwt>0</asrwt>
<pdfrwt beam="1">  1       13 0.10000000E+01 0.51638319E+02</pdfrwt>
<pdfrwt beam="2">  1       22 0.10459800E+00 0.51638319E+02</pdfrwt>
<totfact> 0.13192479E+00</totfact>
</mgrwt>
</event>
<event>
 4    1  0.2489496E+000  0.5333612E+02  0.7957747E-01  0.1428135E+00
         13   -1    0    0    0    0  0.00000000000E+00  0.00000000000E+00  0.99999944174E+02  0.99999999994E+02  0.10566000000E+00 0. -1.
         22   -1    0    0    0    0 -0.00000000000E+00 -0.00000000000E+00 -0.25754072133E+02  0.25754072133E+02  0.00000000000E+00 0. -1.
         13    1    1    2    0    0  0.91342512619E+01  0.16164986162E+02  0.69806356513E+02  0.72233509518E+02  0.10566000000E+00 0.  1.
        996    1    1    2    0    0 -0.91342512619E+01 -0.16164986162E+02  0.44395155284E+01  0.53520562608E+02  0.50000000000E+02 0.  0.
<mgrwt>
<rscale>  0 0.53336117E+02</rscale>
<asrwt>0</asrwt>
<pdfrwt beam="1">  1       13 0.10000000E+01 0.53336117E+02</pdfrwt>
<pdfrwt beam="2">  1       22 0.25754093E+00 0.53336117E+02</pdfrwt>
<totfact> 0.27861182E-01</totfact>
</mgrwt>
</event>
<event>
 4    1  0.2489496E+000  0.5183685E+02  0.7957747E-01  0.1435679E+00
         13   -1    0    0    0    0  0.00000000000E+00  0.00000000000E+00  0.99999944178E+02  0.99999999998E+02  0.10566000000E+00 0.  1.
         22   -1    0    0    0    0 -0.00000000000E+00 -0.00000000000E+00 -0.14513760196E+02  0.14513760196E+02  0.00000000000E+00 0. -1.
         13    1    1    2    0    0  0.10250146503E+02 -0.90550384625E+01 -0.96636729400E+00  0.13711464352E+02  0.10566000000E+00 0. -1.
        996    1    1    2    0    0 -0.10250146503E+02  0.90550384625E+01  0.86452551276E+02  0.10080229584E+03  0.50000000000E+02 0.  0.
<mgrwt>
<rscale>  0 0.51836852E+02</rscale>
<asrwt>0</asrwt>
<pdfrwt beam="1">  1       13 0.10000000E+01 0.51836852E+02</pdfrwt>
<pdfrwt beam="2">  1       22 0.14513784E+00 0.51836852E+02</pdfrwt>
<totfact> 0.79483787E-01</totfact>
</mgrwt>
</event>
<event>
 4    1  0.2489496E+000  0.7255451E+02  0.7957747E-01  0.1351616E+00
         13   -1    0    0    0    0  0.00000000000E+00  0.00000000000E+00  0.99999944182E+02  0.10000000000E+03  0.10566000000E+00 0.  1.
         22   -1    0    0    0    0 -0.00000000000E+00 -0.00000000000E+00 -0.39724655986E+02  0.39724655986E+02  0.00000000000E+00 0. -1.
         13    1    1    2    0    0 -0.48580593196E+02 -0.20101796029E+02  0.17054108827E+02  0.55272145162E+02  0.10566000000E+00 0. -1.
        996    1    1    2    0    0  0.48580593196E+02  0.20101796029E+02  0.43221179369E+02  0.84452510826E+02  0.50000000000E+02 0.  0.
<mgrwt>
<rscale>  0 0.72554505E+02</rscale>
<asrwt>0</asrwt>
<pdfrwt beam="1">  1       13 0.10000000E+01 0.72554505E+02</pdfrwt>
<pdfrwt beam="2">  1       22 0.39724673E+00 0.72554505E+02</pdfrwt>
<totfact> 0.12703920E-01</totfact>
</mgrwt>
</event>
<event>
 4    1  0.2489496E+000  0.6807942E+02  0.7957747E-01  0.1366749E+00
         13   -1    0    0    0    0  0.00000000000E+00  0.00000000000E+00  0.99999944173E+02  0.99999999993E+02  0.10566000000E+00 0.  1.
         22   -1    0    0    0    0 -0.00000000000E+00 -0.00000000000E+00 -0.40636701733E+02  0.40636701733E+02  0.00000000000E+00 0. -1.
         13    1    1    2    0    0 -0.19069098482E+02  0.42085346546E+02 -0.55917535872E+01  0.46541226703E+02  0.10566000000E+00 0. -1.
        996    1    1    2    0    0  0.19069098482E+02 -0.42085346546E+02  0.64954996027E+02  0.94095475022E+02  0.50000000000E+02 0.  0.
<mgrwt>
<rscale>  0 0.68079416E+02</rscale>
<asrwt>0</asrwt>
<pdfrwt beam="1">  1       13 0.10000000E+01 0.68079416E+02</pdfrwt>
<pdfrwt beam="2">  1       22 0.40636718E+00 0.68079416E+02</pdfrwt>
<totfact> 0.12126331E-01</totfact>
</mgrwt>
</event>
<event>
 4    1  0.2489496E+000  0.5365965E+02  0.7957747E-01  0.1426546E+00
         13   -1    0    0    0    0  0.00000000000E+00  0.00000000000E+00  0.99999944181E+02  0.10000000000E+03  0.10566000000E+00 0.  1.
         22   -1    0    0    0    0 -0.00000000000E+00 -0.00000000000E+00 -0.24119081014E+02  0.24119081014E+02  0.00000000000E+00 0. -1.
         13    1    1    2    0    0 -0.26853813148E+01  0.19291095805E+02 -0.10726607259E+02  0.22235757632E+02  0.10566000000E+00 0. -1.
        996    1    1    2    0    0  0.26853813148E+01 -0.19291095805E+02  0.86607470425E+02  0.10188332338E+03  0.50000000000E+02 0.  0.
<mgrwt>
<rscale>  0 0.53659646E+02</rscale>
<asrwt>0</asrwt>
<pdfrwt beam="1">  1       13 0.10000000E+01 0.53659646E+02</pdfrwt>
<pdfrwt beam="2">  1       22 0.24119102E+00 0.53659646E+02</pdfrwt>
<totfact> 0.31714563E-01</totfact>
</mgrwt>
</event>
<event>
 4    1  0.2489496E+000  0.5211501E+02  0.7957747E-01  0.1434256E+00
         13   -1    0    0    0    0  0.00000000000E+00  0.00000000000E+00  0.99999944184E+02  0.10000000000E+03  0.10566000000E+00 0.  1.
         22   -1    0    0    0    0 -0.00000000000E+00 -0.00000000000E+00 -0.11305241807E+02  0.11305241807E+02  0.00000000000E+00 0. -1.
         13    1    1    2    0    0  0.13676298219E+02  0.53789984691E+01  0.14578571751E+02  0.20700740950E+02  0.10566000000E+00 0. -1.
        996    1    1    2    0    0 -0.13676298219E+02 -0.53789984691E+01  0.74116130626E+02  0.90604500862E+02  0.50000000000E+02 0.  0.
<mgrwt>
<rscale>  0 0.52115015E+02</rscale>
<asrwt>0</asrwt>
<pdfrwt beam="1">  1       13 0.10000000E+01 0.52115015E+02</pdfrwt>
<pdfrwt beam="2">  1       22 0.11305267E+00 0.52115015E+02</pdfrwt>
<totfact> 0.11769173E+00</totfact>
</mgrwt>
</event>
<event>
 4    1  0.2489496E+000  0.5145383E+02  0.7957747E-01  0.1437654E+00
         13   -1    0    0    0    0  0.00000000000E+00  0.00000000000E+00  0.99999944189E+02  0.10000000001E+03  0.10566000000E+00 0.  1.
         22   -1    0    0    0    0 -0.00000000000E+00 -0.00000000000E+00 -0.10493584624E+02  0.10493584624E+02  0.00000000000E+00 0.  1.
         13    1    1    2    0    0  0.11009681579E+02  0.51267029210E+01  0.26471824976E+02  0.29124986745E+02  0.10566000000E+00 0. -1.
        996    1    1    2    0    0 -0.11009681579E+02 -0.51267029210E+01  0.63034534589E+02  0.81368597887E+02  0.50000000000E+02 0.  0.
<mgrwt>
<rscale>  0 0.51453826E+02</rscale>
<asrwt>0</asrwt>
<pdfrwt beam="1">  1       13 0.10000000E+01 0.51453826E+02</pdfrwt>
<pdfrwt beam="2">  1       22 0.10493610E+00 0.51453826E+02</pdfrwt>
<totfact> 0.13124428E+00</totfact>
</mgrwt>
</event>
<event>
 4    1  0.2489496E+000  0.5275180E+02  0.7957747E-01  0.1431040E+00
         13   -1    0    0    0    0  0.00000000000E+00  0.00000000000E+00  0.99999944178E+02  0.99999999998E+02  0.10566000000E+00 0. -1.
         22   -1    0    0    0    0 -0.00000000000E+00 -0.00000000000E+00 -0.12301051490E+02  0.12301051490E+02  0.00000000000E+00 0. -1.
         13    1    1    2    0    0  0.10177647448E+02 -0.13385376603E+02  0.15390481492E+02  0.22795413990E+02  0.10566000000E+00 0.  1.
        996    1    1    2    0    0 -0.10177647448E+02  0.13385376603E+02  0.72308411196E+02  0.89505637499E+02  0.50000000000E+02 0.  0.
<mgrwt>
<rscale>  0 0.52751804E+02</rscale>
<asrwt>0</asrwt>
<pdfrwt beam="1">  1       13 0.10000000E+01 0.52751804E+02</pdfrwt>
<pdfrwt beam="2">  1       22 0.12301076E+00 0.52751804E+02</pdfrwt>
<totfact> 0.10364470E+00</totfact>
</mgrwt>
</event>
<event>
 4    1  0.2489496E+000  0.5163035E+02  0.7957747E-01  0.1436741E+00
         13   -1    0    0    0    0  0.00000000000E+00  0.00000000000E+00  0.99999944185E+02  0.10000000000E+03  0.10566000000E+00 0. -1.
         22   -1    0    0    0    0 -0.00000000000E+00 -0.00000000000E+00 -0.10554220710E+02  0.10554220710E+02  0.00000000000E+00 0. -1.
         13    1    1    2    0    0  0.10513868399E+02  0.74263929863E+01  0.12903106855E+02  0.18226191924E+02  0.10566000000E+00 0.  1.
        996    1    1    2    0    0 -0.10513868399E+02 -0.74263929863E+01  0.76542616620E+02  0.92328028791E+02  0.50000000000E+02 0.  0.
<mgrwt>
<rscale>  0 0.51630347E+02</rscale>
<asrwt>0</asrwt>
<pdfrwt beam="1">  1       13 0.10000000E+01 0.51630347E+02</pdfrwt>
<pdfrwt beam="2">  1       22 0.10554246E+00 0.51630347E+02</pdfrwt>
<totfact> 0.13019287E+00</totfact>
</mgrwt>
</event>
<event>
 4    1  0.2489496E+000  0.5114960E+02  0.7957747E-01  0.1439238E+00
         13   -1    0    0    0    0  0.00000000000E+00  0.00000000000E+00  0.99999944173E+02  0.99999999993E+02  0.10566000000E+00 0. -1.
         22   -1    0    0    0    0 -0.00000000000E+00 -0.00000000000E+00 -0.13053068490E+02  0.13053068490E+02  0.00000000000E+00 0. -1.
         13    1    1    2    0    0 -0.22846894436E+01  0.10538571148E+02  0.46809006956E+02  0.48035149464E+02  0.10566000000E+00 0.  1.
        996    1    1    2    0    0  0.22846894436E+01 -0.10538571148E+02  0.40137868726E+02  0.65017919019E+02  0.50000000000E+02 0.  0.
<mgrwt>
<rscale>  0 0.51149597E+02</rscale>
<asrwt>0</asrwt>
<pdfrwt beam="1">  1       13 0.10000000E+01 0.51149597E+02</pdfrwt>
<pdfrwt beam="2">  1       22 0.13053093E+00 0.51149597E+02</pdfrwt>
<totfact> 0.94143948E-01</totfact>
</mgrwt>
</event>
<event>
 4    1  0.2489496E+000  0.5137129E+02  0.7957747E-01  0.1438082E+00
         13   -1    0    0    0    0  0.00000000000E+00  0.00000000000E+00  0.99999944174E+02  0.99999999995E+02  0.10566000000E+00 0. -1.
         22   -1    0    0    0    0 -0.00000000000E+00 -0.00000000000E+00 -0.73278779942E+02  0.73278779942E+02  0.00000000000E+00 0.  1.
         13    1    1    2    0    0 -0.11643964746E+02 -0.18514317945E+01 -0.66125211770E+02  0.67168180788E+02  0.10566000000E+00 0.  1.
        996    1    1    2    0    0  0.11643964746E+02  0.18514317945E+01  0.92846376003E+02  0.10611059915E+03  0.50000000000E+02 0.  0.
<mgrwt>
<rscale>  0 0.51371293E+02</rscale>
<asrwt>0</asrwt>
<pdfrwt beam="1">  1       13 0.10000000E+01 0.51371293E+02</pdfrwt>
<pdfrwt beam="2">  1       22 0.73278787E+00 0.51371293E+02</pdfrwt>
<totfact> 0.57344608E-02</totfact>
</mgrwt>
</event>
<event>
 4    1  0.2489496E+000  0.5681297E+02  0.7957747E-01  0.1411715E+00
         13   -1    0    0    0    0  0.00000000000E+00  0.00000000000E+00  0.99999944177E+02  0.99999999997E+02  0.10566000000E+00 0. -1.
         22   -1    0    0    0    0 -0.00000000000E+00 -0.00000000000E+00 -0.23263975790E+02  0.23263975790E+02  0.00000000000E+00 0. -1.
         13    1    1    2    0    0 -0.26898095215E+02 -0.20508684892E+01 -0.98240344212E+00  0.26994256210E+02  0.10566000000E+00 0.  1.
        996    1    1    2    0    0  0.26898095215E+02  0.20508684892E+01  0.77718371829E+02  0.96269719578E+02  0.50000000000E+02 0.  0.
<mgrwt>
<rscale>  0 0.56812970E+02</rscale>
<asrwt>0</asrwt>
<pdfrwt beam="1">  1       13 0.10000000E+01 0.56812970E+02</pdfrwt>
<pdfrwt beam="2">  1       22 0.23263997E+00 0.56812970E+02</pdfrwt>
<totfact> 0.34201640E-01</totfact>
</mgrwt>
</event>
<event>
 4    1  0.2489496E+000  0.5430004E+02  0.7957747E-01  0.1423438E+00
         13   -1    0    0    0    0  0.00000000000E+00  0.00000000000E+00  0.99999944179E+02  0.10000000000E+03  0.10566000000E+00 0.  1.
         22   -1    0    0    0    0 -0.00000000000E+00 -0.00000000000E+00 -0.24903022161E+02  0.24903022161E+02  0.00000000000E+00 0.  1.
         13    1    1    2    0    0  0.25931094391E+01  0.21018319765E+02 -0.10420547691E+02  0.23602816792E+02  0.10566000000E+00 0. -1.
        996    1    1    2    0    0 -0.25931094391E+01 -0.21018319765E+02  0.85517469709E+02  0.10130020537E+03  0.50000000000E+02 0.  0.
<mgrwt>
<rscale>  0 0.54300037E+02</rscale>
<asrwt>0</asrwt>
<pdfrwt beam="1">  1       13 0.10000000E+01 0.54300037E+02</pdfrwt>
<pdfrwt beam="2">  1       22 0.24903043E+00 0.54300037E+02</pdfrwt>
<totfact> 0.29810857E-01</totfact>
</mgrwt>
</event>
<event>
 4    1  0.2489496E+000  0.5104716E+02  0.7957747E-01  0.1439774E+00
         13   -1    0    0    0    0  0.00000000000E+00  0.00000000000E+00  0.99999944192E+02  0.10000000001E+03  0.10566000000E+00 0.  1.
         22   -1    0    0    0    0 -0.00000000000E+00 -0.00000000000E+00 -0.25510850946E+02  0.25510850946E+02  0.00000000000E+00 0. -1.
         13    1    1    2    0    0 -0.41955681388E-01 -0.10286440884E+02 -0.17504382387E+02  0.20303378859E+02  0.10566000000E+00 0. -1.
        996    1    1    2    0    0  0.41955681388E-01  0.10286440884E+02  0.91993475633E+02  0.10520747210E+03  0.50000000000E+02 0.  0.
<mgrwt>
<rscale>  0 0.51047161E+02</rscale>
<asrwt>0</asrwt>
<pdfrwt beam="1">  1       13 0.10000000E+01 0.51047161E+02</pdfrwt>
<pdfrwt beam="2">  1       22 0.25510872E+00 0.51047161E+02</pdfrwt>
<totfact> 0.28286838E-01</totfact>
</mgrwt>
</event>
<event>
 4    1  0.2489496E+000  0.5406575E+02  0.7957747E-01  0.1424569E+00
         13   -1    0    0    0    0  0.00000000000E+00  0.00000000000E+00  0.99999944181E+02  0.10000000000E+03  0.10566000000E+00 0. -1.
         22   -1    0    0    0    0 -0.00000000000E+00 -0.00000000000E+00 -0.35902945991E+02  0.35902945991E+02  0.00000000000E+00 0.  1.
         13    1    1    2    0    0  0.20549908101E+02 -0.89833340068E+00 -0.24575319740E+02  0.32047827230E+02  0.10566000000E+00 0.  1.
        996    1    1    2    0    0 -0.20549908101E+02  0.89833340068E+00  0.88672317930E+02  0.10385511876E+03  0.50000000000E+02 0.  0.
<mgrwt>
<rscale>  0 0.54065754E+02</rscale>
<asrwt>0</asrwt>
<pdfrwt beam="1">  1       13 0.10000000E+01 0.54065754E+02</pdfrwt>
<pdfrwt beam="2">  1       22 0.35902964E+00 0.54065754E+02</pdfrwt>
<totfact> 0.15061388E-01</totfact>
</mgrwt>
</event>
<event>
 4    1  0.2489496E+000  0.6330270E+02  0.7957747E-01  0.1384472E+00
         13   -1    0    0    0    0  0.00000000000E+00  0.00000000000E+00  0.99999944180E+02  0.10000000000E+03  0.10566000000E+00 0. -1.
         22   -1    0    0    0    0 -0.00000000000E+00 -0.00000000000E+00 -0.43213196388E+02  0.43213196388E+02  0.00000000000E+00 0.  1.
         13    1    1    2    0    0 -0.16383666112E+01  0.38788496438E+02 -0.20020486582E+02  0.43681377589E+02  0.10566000000E+00 0.  1.
        996    1    1    2    0    0  0.16383666112E+01 -0.38788496438E+02  0.76807234374E+02  0.99531818798E+02  0.50000000000E+02 0.  0.
<mgrwt>
<rscale>  0 0.63302699E+02</rscale>
<asrwt>0</asrwt>
<pdfrwt beam="1">  1       13 0.10000000E+01 0.63302699E+02</pdfrwt>
<pdfrwt beam="2">  1       22 0.43213212E+00 0.63302699E+02</pdfrwt>
<totfact> 0.10654047E-01</totfact>
</mgrwt>
</event>
<event>
 4    1  0.2489496E+000  0.5343183E+02  0.7957747E-01  0.1427664E+00
         13   -1    0    0    0    0  0.00000000000E+00  0.00000000000E+00  0.99999944174E+02  0.99999999994E+02  0.10566000000E+00 0. -1.
         22   -1    0    0    0    0 -0.00000000000E+00 -0.00000000000E+00 -0.31431116343E+02  0.31431116343E+02  0.00000000000E+00 0.  1.
         13    1    1    2    0    0 -0.12554175930E+02  0.14048251397E+02 -0.20325373223E+02  0.27714484684E+02  0.10566000000E+00 0.  1.
        996    1    1    2    0    0  0.12554175930E+02 -0.14048251397E+02  0.88894201054E+02  0.10371663165E+03  0.50000000000E+02 0.  0.
<mgrwt>
<rscale>  0 0.53431832E+02</rscale>
<asrwt>0</asrwt>
<pdfrwt beam="1">  1       13 0.10000000E+01 0.53431832E+02</pdfrwt>
<pdfrwt beam="2">  1       22 0.31431135E+00 0.53431832E+02</pdfrwt>
<totfact> 0.19035876E-01</totfact>
</mgrwt>
</event>
<event>
 4    1  0.2489496E+000  0.5160689E+02  0.7957747E-01  0.1436862E+00
         13   -1    0    0    0    0  0.00000000000E+00  0.00000000000E+00  0.99999944179E+02  0.99999999999E+02  0.10566000000E+00 0. -1.
         22   -1    0    0    0    0 -0.00000000000E+00 -0.00000000000E+00 -0.15349421310E+02  0.15349421310E+02  0.00000000000E+00 0.  1.
         13    1    1    2    0    0 -0.81936154561E+00 -0.12751475952E+02 -0.34597059406E+01  0.13238286201E+02  0.10566000000E+00 0.  1.
        996    1    1    2    0    0  0.81936154561E+00  0.12751475952E+02  0.88110228809E+02  0.10211113511E+03  0.50000000000E+02 0.  0.
<mgrwt>
<rscale>  0 0.51606894E+02</rscale>
<asrwt>0</asrwt>
<pdfrwt beam="1">  1       13 0.10000000E+01 0.51606894E+02</pdfrwt>
<pdfrwt beam="2">  1       22 0.15349445E+00 0.51606894E+02</pdfrwt>
<totfact> 0.72389483E-01</totfact>
</mgrwt>
</event>
<event>
 4    1  0.2489496E+000  0.5246156E+02  0.7957747E-01  0.1432499E+00
         13   -1    0    0    0    0  0.00000000000E+00  0.00000000000E+00  0.99999944182E+02  0.10000000000E+03  0.10566000000E+00 0. -1.
         22   -1    0    0    0    0 -0.00000000000E+00 -0.00000000000E+00 -0.12419433025E+02  0.12419433025E+02  0.00000000000E+00 0.  1.
         13    1    1    2    0    0 -0.99293766250E+01 -0.12394444362E+02  0.10005425869E+02  0.18770574900E+02  0.10566000000E+00 0.  1.
        996    1    1    2    0    0  0.99293766250E+01  0.12394444362E+02  0.77575085288E+02  0.93648858128E+02  0.50000000000E+02 0.  0.
<mgrwt>
<rscale>  0 0.52461555E+02</rscale>
<asrwt>0</asrwt>
<pdfrwt beam="1">  1       13 0.10000000E+01 0.52461555E+02</pdfrwt>
<pdfrwt beam="2">  1       22 0.12419457E+00 0.52461555E+02</pdfrwt>
<totfact> 0.10205471E+00</totfact>
</mgrwt>
</event>
<event>
 4    1  0.2489496E+000  0.5178783E+02  0.7957747E-01  0.1435930E+00
         13   -1    0    0    0    0  0.00000000000E+00  0.00000000000E+00  0.99999944175E+02  0.99999999995E+02  0.10566000000E+00 0. -1.
         22   -1    0    0    0    0 -0.00000000000E+00 -0.00000000000E+00 -0.41923711633E+02  0.41923711633E+02  0.00000000000E+00 0.  1.
         13    1    1    2    0    0 -0.36741204574E+01 -0.12979980253E+02 -0.33835725997E+02  0.36425905154E+02  0.10566000000E+00 0.  1.
        996    1    1    2    0    0  0.36741204574E+01  0.12979980253E+02  0.91911958539E+02  0.10549780647E+03  0.50000000000E+02 0.  0.
<mgrwt>
<rscale>  0 0.51787827E+02</rscale>
<asrwt>0</asrwt>
<pdfrwt beam="1">  1       13 0.10000000E+01 0.51787827E+02</pdfrwt>
<pdfrwt beam="2">  1       22 0.41923728E+00 0.51787827E+02</pdfrwt>
<totfact> 0.11275500E-01</totfact>
</mgrwt>
</event>
<event>
 4    1  0.2489496E+000  0.5103607E+02  0.7957747E-01  0.1439832E+00
         13   -1    0    0    0    0  0.00000000000E+00  0.00000000000E+00  0.99999944180E+02  0.10000000000E+03  0.10566000000E+00 0.  1.
         22   -1    0    0    0    0 -0.00000000000E+00 -0.00000000000E+00 -0.65053226956E+02  0.65053226956E+02  0.00000000000E+00 0. -1.
         13    1    1    2    0    0  0.45747100577E+01  0.91516197584E+01 -0.58064990107E+02  0.58959599358E+02  0.10566000000E+00 0. -1.
        996    1    1    2    0    0 -0.45747100577E+01 -0.91516197584E+01  0.93011707330E+02  0.10609362760E+03  0.50000000000E+02 0.  0.
<mgrwt>
<rscale>  0 0.51036067E+02</rscale>
<asrwt>0</asrwt>
<pdfrwt beam="1">  1       13 0.10000000E+01 0.51036067E+02</pdfrwt>
<pdfrwt beam="2">  1       22 0.65053237E+00 0.51036067E+02</pdfrwt>
<totfact> 0.86488830E-02</totfact>
</mgrwt>
</event>
<event>
 4    1  0.2489496E+000  0.5150212E+02  0.7957747E-01  0.1437404E+00
         13   -1    0    0    0    0  0.00000000000E+00  0.00000000000E+00  0.99999944181E+02  0.10000000000E+03  0.10566000000E+00 0.  1.
         22   -1    0    0    0    0 -0.00000000000E+00 -0.00000000000E+00 -0.12602873962E+02  0.12602873962E+02  0.00000000000E+00 0.  1.
         13    1    1    2    0    0  0.22213311288E+01 -0.12146340948E+02  0.14863005571E+01  0.12437369649E+02  0.10566000000E+00 0. -1.
        996    1    1    2    0    0 -0.22213311288E+01  0.12146340948E+02  0.85910769662E+02  0.10016550431E+03  0.50000000000E+02 0.  0.
<mgrwt>
<rscale>  0 0.51502116E+02</rscale>
<asrwt>0</asrwt>
<pdfrwt beam="1">  1       13 0.10000000E+01 0.51502116E+02</pdfrwt>
<pdfrwt beam="2">  1       22 0.12602898E+00 0.51502116E+02</pdfrwt>
<totfact> 0.99545271E-01</totfact>
</mgrwt>
</event>
<event>
 4    1  0.2489496E+000  0.5114888E+02  0.7957747E-01  0.1439242E+00
         13   -1    0    0    0    0  0.00000000000E+00  0.00000000000E+00  0.99999944184E+02  0.10000000000E+03  0.10566000000E+00 0. -1.
         22   -1    0    0    0    0 -0.00000000000E+00 -0.00000000000E+00 -0.99194978624E+01  0.99194978624E+01  0.00000000000E+00 0. -1.
         13    1    1    2    0    0 -0.11375723563E+01  0.10719779190E+02  0.89502012198E+01  0.14011602430E+02  0.10566000000E+00 0.  1.
        996    1    1    2    0    0  0.11375723563E+01 -0.10719779190E+02  0.81130245102E+02  0.95907895437E+02  0.50000000000E+02 0.  0.
<mgrwt>
<rscale>  0 0.51148878E+02</rscale>
<asrwt>0</asrwt>
<pdfrwt beam="1">  1       13 0.10000000E+01 0.51148878E+02</pdfrwt>
<pdfrwt beam="2">  1       22 0.99195230E-01 0.51148878E+02</pdfrwt>
<totfact> 0.14234305E+00</totfact>
</mgrwt>
</event>
<event>
 4    1  0.2489496E+000  0.5569868E+02  0.7957747E-01  0.1416823E+00
         13   -1    0    0    0    0  0.00000000000E+00  0.00000000000E+00  0.99999944172E+02  0.99999999993E+02  0.10566000000E+00 0.  1.
         22   -1    0    0    0    0 -0.00000000000E+00 -0.00000000000E+00 -0.79072694965E+02  0.79072694965E+02  0.00000000000E+00 0. -1.
         13    1    1    2    0    0 -0.18006335421E+02 -0.16676774713E+02 -0.69032640991E+02  0.73265678297E+02  0.10566000000E+00 0. -1.
        996    1    1    2    0    0  0.18006335421E+02  0.16676774713E+02  0.89959890198E+02  0.10580701666E+03  0.50000000000E+02 0.  0.
<mgrwt>
<rscale>  0 0.55698680E+02</rscale>
<asrwt>0</asrwt>
<pdfrwt beam="1">  1       13 0.10000000E+01 0.55698680E+02</pdfrwt>
<pdfrwt beam="2">  1       22 0.79072701E+00 0.55698680E+02</pdfrwt>
<totfact> 0.33629203E-02</totfact>
</mgrwt>
</event>
<event>
 4    1  0.2489496E+000  0.5403948E+02  0.7957747E-01  0.1424697E+00
         13   -1    0    0    0    0  0.00000000000E+00  0.00000000000E+00  0.99999944178E+02  0.99999999998E+02  0.10566000000E+00 0. -1.
         22   -1    0    0    0    0 -0.00000000000E+00 -0.00000000000E+00 -0.14153214694E+02  0.14153214694E+02  0.00000000000E+00 0.  1.
         13    1    1    2    0    0  0.16626183251E+02  0.11993129652E+02  0.30929059996E+02  0.37106374716E+02  0.10566000000E+00 0.  1.
        996    1    1    2    0    0 -0.16626183251E+02 -0.11993129652E+02  0.54917669488E+02  0.77046839976E+02  0.50000000000E+02 0.  0.
<mgrwt>
<rscale>  0 0.54039477E+02</rscale>
<asrwt>0</asrwt>
<pdfrwt beam="1">  1       13 0.10000000E+01 0.54039477E+02</pdfrwt>
<pdfrwt beam="2">  1       22 0.14153239E+00 0.54039477E+02</pdfrwt>
<totfact> 0.83197083E-01</totfact>
</mgrwt>
</event>
<event>
 4    1  0.2489496E+000  0.5290883E+02  0.7957747E-01  0.1430255E+00
         13   -1    0    0    0    0  0.00000000000E+00  0.00000000000E+00  0.99999944174E+02  0.99999999995E+02  0.10566000000E+00 0.  1.
         22   -1    0    0    0    0 -0.00000000000E+00 -0.00000000000E+00 -0.20786877137E+02  0.20786877137E+02  0.00000000000E+00 0. -1.
         13    1    1    2    0    0  0.17138366094E+02 -0.23708901730E+01 -0.77777186192E+01  0.18969680638E+02  0.10566000000E+00 0. -1.
        996    1    1    2    0    0 -0.17138366094E+02  0.23708901730E+01  0.86990785657E+02  0.10181719649E+03  0.50000000000E+02 0.  0.
<mgrwt>
<rscale>  0 0.52908834E+02</rscale>
<asrwt>0</asrwt>
<pdfrwt beam="1">  1       13 0.10000000E+01 0.52908834E+02</pdfrwt>
<pdfrwt beam="2">  1       22 0.20786899E+00 0.52908834E+02</pdfrwt>
<totfact> 0.42207594E-01</totfact>
</mgrwt>
</event>
<event>
 4    1  0.2489496E+000  0.5874573E+02  0.7957747E-01  0.1403172E+00
         13   -1    0    0    0    0  0.00000000000E+00  0.00000000000E+00  0.99999944180E+02  0.10000000000E+03  0.10566000000E+00 0. -1.
         22   -1    0    0    0    0 -0.00000000000E+00 -0.00000000000E+00 -0.20714618806E+02  0.20714618806E+02  0.00000000000E+00 0. -1.
         13    1    1    2    0    0 -0.15448701068E+02 -0.26690799071E+02  0.37865504747E+02  0.48835117831E+02  0.10566000000E+00 0.  1.
        996    1    1    2    0    0  0.15448701068E+02  0.26690799071E+02  0.41419820627E+02  0.71879500976E+02  0.50000000000E+02 0.  0.
<mgrwt>
<rscale>  0 0.58745733E+02</rscale>
<asrwt>0</asrwt>
<pdfrwt beam="1">  1       13 0.10000000E+01 0.58745733E+02</pdfrwt>
<pdfrwt beam="2">  1       22 0.20714641E+00 0.58745733E+02</pdfrwt>
<totfact> 0.42893530E-01</totfact>
</mgrwt>
</event>
<event>
 4    1  0.2489496E+000  0.5126976E+02  0.7957747E-01  0.1438611E+00
         13   -1    0    0    0    0  0.00000000000E+00  0.00000000000E+00  0.99999944169E+02  0.99999999990E+02  0.10566000000E+00 0. -1.
         22   -1    0    0    0    0 -0.00000000000E+00 -0.00000000000E+00 -0.26488101800E+02  0.26488101800E+02  0.00000000000E+00 0.  1.
         13    1    1    2    0    0  0.78441727395E+01  0.81888200012E+01 -0.18185191370E+02  0.21431289466E+02  0.10566000000E+00 0.  1.
        996    1    1    2    0    0 -0.78441727395E+01 -0.81888200012E+01  0.91697033739E+02  0.10505681232E+03  0.50000000000E+02 0.  0.
<mgrwt>
<rscale>  0 0.51269755E+02</rscale>
<asrwt>0</asrwt>
<pdfrwt beam="1">  1       13 0.10000000E+01 0.51269755E+02</pdfrwt>
<pdfrwt beam="2">  1       22 0.26488122E+00 0.51269755E+02</pdfrwt>
<totfact> 0.26281599E-01</totfact>
</mgrwt>
</event>
<event>
 4    1  0.2489496E+000  0.5342176E+02  0.7957747E-01  0.1427713E+00
         13   -1    0    0    0    0  0.00000000000E+00  0.00000000000E+00  0.99999944180E+02  0.10000000000E+03  0.10566000000E+00 0.  1.
         22   -1    0    0    0    0 -0.00000000000E+00 -0.00000000000E+00 -0.57514280583E+02  0.57514280583E+02  0.00000000000E+00 0. -1.
         13    1    1    2    0    0 -0.16703423687E+01  0.18737499188E+02 -0.48491119485E+02  0.52012342309E+02  0.10566000000E+00 0. -1.
        996    1    1    2    0    0  0.16703423687E+01 -0.18737499188E+02  0.90976783083E+02  0.10550193827E+03  0.50000000000E+02 0.  0.
<mgrwt>
<rscale>  0 0.53421755E+02</rscale>
<asrwt>0</asrwt>
<pdfrwt beam="1">  1       13 0.10000000E+01 0.53421755E+02</pdfrwt>
<pdfrwt beam="2">  1       22 0.57514292E+00 0.53421755E+02</pdfrwt>
<totfact> 0.57869811E-02</totfact>
</mgrwt>
</event>
<event>
 4    1  0.2489496E+000  0.5266658E+02  0.7957747E-01  0.1431467E+00
         13   -1    0    0    0    0  0.00000000000E+00  0.00000000000E+00  0.99999944167E+02  0.99999999987E+02  0.10566000000E+00 0.  1.
         22   -1    0    0    0    0 -0.00000000000E+00 -0.00000000000E+00 -0.18138756722E+02  0.18138756722E+02  0.00000000000E+00 0. -1.
         13    1    1    2    0    0  0.31838032237E+01  0.16236766034E+02 -0.43543004692E+01  0.17109654316E+02  0.10566000000E+00 0. -1.
        996    1    1    2    0    0 -0.31838032237E+01 -0.16236766034E+02  0.86215487914E+02  0.10102910239E+03  0.50000000000E+02 0.  0.
<mgrwt>
<rscale>  0 0.52666585E+02</rscale>
<asrwt>0</asrwt>
<pdfrwt beam="1">  1       13 0.10000000E+01 0.52666585E+02</pdfrwt>
<pdfrwt beam="2">  1       22 0.18138780E+00 0.52666585E+02</pdfrwt>
<totfact> 0.54255612E-01</totfact>
</mgrwt>
</event>
<event>
 4    1  0.2489496E+000  0.5260030E+02  0.7957747E-01  0.1431800E+00
         13   -1    0    0    0    0  0.00000000000E+00  0.00000000000E+00  0.99999944181E+02  0.10000000000E+03  0.10566000000E+00 0.  1.
         22   -1    0    0    0    0 -0.00000000000E+00 -0.00000000000E+00 -0.19299194819E+02  0.19299194819E+02  0.00000000000E+00 0.  1.
         13    1    1    2    0    0 -0.65466124127E+01  0.14964406159E+02 -0.64038509225E+01  0.17544573419E+02  0.10566000000E+00 0. -1.
        996    1    1    2    0    0  0.65466124127E+01 -0.14964406159E+02  0.87104600284E+02  0.10175462140E+03  0.50000000000E+02 0.  0.
<mgrwt>
<rscale>  0 0.52600300E+02</rscale>
<asrwt>0</asrwt>
<pdfrwt beam="1">  1       13 0.10000000E+01 0.52600300E+02</pdfrwt>
<pdfrwt beam="2">  1       22 0.19299217E+00 0.52600300E+02</pdfrwt>
<totfact> 0.48457384E-01</totfact>
</mgrwt>
</event>
<event>
 4    1  0.2489496E+000  0.5100264E+02  0.7957747E-01  0.1440007E+00
         13   -1    0    0    0    0  0.00000000000E+00  0.00000000000E+00  0.99999944179E+02  0.99999999999E+02  0.10566000000E+00 0.  1.
         22   -1    0    0    0    0 -0.00000000000E+00 -0.00000000000E+00 -0.99508879554E+01  0.99508879554E+01  0.00000000000E+00 0.  1.
         13    1    1    2    0    0 -0.97555892695E+01  0.24694443476E+01  0.27254860545E+02  0.29053541346E+02  0.10566000000E+00 0. -1.
        996    1    1    2    0    0  0.97555892695E+01 -0.24694443476E+01  0.62794195678E+02  0.80897346608E+02  0.50000000000E+02 0.  0.
<mgrwt>
<rscale>  0 0.51002644E+02</rscale>
<asrwt>0</asrwt>
<pdfrwt beam="1">  1       13 0.10000000E+01 0.51002644E+02</pdfrwt>
<pdfrwt beam="2">  1       22 0.99509131E-01 0.51002644E+02</pdfrwt>
<totfact> 0.14164376E+00</totfact>
</mgrwt>
</event>
<event>
 4    1  0.2489496E+000  0.5270618E+02  0.7957747E-01  0.1431269E+00
         13   -1    0    0    0    0  0.00000000000E+00  0.00000000000E+00  0.99999944181E+02  0.10000000000E+03  0.10566000000E+00 0.  1.
         22   -1    0    0    0    0 -0.00000000000E+00 -0.00000000000E+00 -0.13995150926E+02  0.13995150926E+02  0.00000000000E+00 0.  1.
         13    1    1    2    0    0 -0.16643682151E+02  0.96412659498E+00  0.42500775576E+02  0.45653792660E+02  0.10566000000E+00 0. -1.
        996    1    1    2    0    0  0.16643682151E+02 -0.96412659498E+00  0.43504017679E+02  0.68341358268E+02  0.50000000000E+02 0.  0.
<mgrwt>
<rscale>  0 0.52706183E+02</rscale>
<asrwt>0</asrwt>
<pdfrwt beam="1">  1       13 0.10000000E+01 0.52706183E+02</pdfrwt>
<pdfrwt beam="2">  1       22 0.13995175E+00 0.52706183E+02</pdfrwt>
<totfact> 0.84499417E-01</totfact>
</mgrwt>
</event>
<event>
 4    1  0.2489496E+000  0.5426436E+02  0.7957747E-01  0.1423610E+00
         13   -1    0    0    0    0  0.00000000000E+00  0.00000000000E+00  0.99999944176E+02  0.99999999997E+02  0.10566000000E+00 0. -1.
         22   -1    0    0    0    0 -0.00000000000E+00 -0.00000000000E+00 -0.15368894443E+02  0.15368894443E+02  0.00000000000E+00 0.  1.
         13    1    1    2    0    0 -0.11345987599E+02 -0.17773261779E+02  0.10658237636E+02  0.23626880082E+02  0.10566000000E+00 0.  1.
        996    1    1    2    0    0  0.11345987599E+02  0.17773261779E+02  0.73972812097E+02  0.91742014358E+02  0.50000000000E+02 0.  0.
<mgrwt>
<rscale>  0 0.54264355E+02</rscale>
<asrwt>0</asrwt>
<pdfrwt beam="1">  1       13 0.10000000E+01 0.54264355E+02</pdfrwt>
<pdfrwt beam="2">  1       22 0.15368918E+00 0.54264355E+02</pdfrwt>
<totfact> 0.72617422E-01</totfact>
</mgrwt>
</event>
<event>
 4    1  0.2489496E+000  0.5298251E+02  0.7957747E-01  0.1429888E+00
         13   -1    0    0    0    0  0.00000000000E+00  0.00000000000E+00  0.99999944175E+02  0.99999999995E+02  0.10566000000E+00 0.  1.
         22   -1    0    0    0    0 -0.00000000000E+00 -0.00000000000E+00 -0.12710467848E+02  0.12710467848E+02  0.00000000000E+00 0.  1.
         13    1    1    2    0    0  0.17517582792E+02 -0.52928810327E+00  0.29465416591E+02  0.34283637375E+02  0.10566000000E+00 0. -1.
        996    1    1    2    0    0 -0.17517582792E+02  0.52928810327E+00  0.57824059736E+02  0.78426830467E+02  0.50000000000E+02 0.  0.
<mgrwt>
<rscale>  0 0.52982505E+02</rscale>
<asrwt>0</asrwt>
<pdfrwt beam="1">  1       13 0.10000000E+01 0.52982505E+02</pdfrwt>
<pdfrwt beam="2">  1       22 0.12710492E+00 0.52982505E+02</pdfrwt>
<totfact> 0.98550555E-01</totfact>
</mgrwt>
</event>
<event>
 4    1  0.2489496E+000  0.5464938E+02  0.7957747E-01  0.1421764E+00
         13   -1    0    0    0    0  0.00000000000E+00  0.00000000000E+00  0.99999944185E+02  0.10000000000E+03  0.10566000000E+00 0. -1.
         22   -1    0    0    0    0 -0.00000000000E+00 -0.00000000000E+00 -0.23821221489E+02  0.23821221489E+02  0.00000000000E+00 0. -1.
         13    1    1    2    0    0  0.16426236910E+01  0.21996740314E+02  0.64187220889E+02  0.67871682509E+02  0.10566000000E+00 0.  1.
        996    1    1    2    0    0 -0.16426236910E+01 -0.21996740314E+02  0.11991501807E+02  0.55949538985E+02  0.50000000000E+02 0.  0.
<mgrwt>
<rscale>  0 0.54649381E+02</rscale>
<asrwt>0</asrwt>
<pdfrwt beam="1">  1       13 0.10000000E+01 0.54649381E+02</pdfrwt>
<pdfrwt beam="2">  1       22 0.23821243E+00 0.54649381E+02</pdfrwt>
<totfact> 0.32546644E-01</totfact>
</mgrwt>
</event>
<event>
 4    1  0.2489496E+000  0.5671806E+02  0.7957747E-01  0.1412144E+00
         13   -1    0    0    0    0  0.00000000000E+00  0.00000000000E+00  0.99999944172E+02  0.99999999993E+02  0.10566000000E+00 0.  1.
         22   -1    0    0    0    0 -0.00000000000E+00 -0.00000000000E+00 -0.23038018405E+02  0.23038018405E+02  0.00000000000E+00 0. -1.
         13    1    1    2    0    0 -0.17584149573E+02  0.20192485339E+02 -0.80145903270E+00  0.26787912964E+02  0.10566000000E+00 0. -1.
        996    1    1    2    0    0  0.17584149573E+02 -0.20192485339E+02  0.77763384800E+02  0.96250105433E+02  0.50000000000E+02 0.  0.
<mgrwt>
<rscale>  0 0.56718064E+02</rscale>
<asrwt>0</asrwt>
<pdfrwt beam="1">  1       13 0.10000000E+01 0.56718064E+02</pdfrwt>
<pdfrwt beam="2">  1       22 0.23038040E+00 0.56718064E+02</pdfrwt>
<totfact> 0.34854256E-01</totfact>
</mgrwt>
</event>
<event>
 4    1  0.2489496E+000  0.5164853E+02  0.7957747E-01  0.1436647E+00
         13   -1    0    0    0    0  0.00000000000E+00  0.00000000000E+00  0.99999944182E+02  0.10000000000E+03  0.10566000000E+00 0. -1.
         22   -1    0    0    0    0 -0.00000000000E+00 -0.00000000000E+00 -0.37890814697E+02  0.37890814697E+02  0.00000000000E+00 0.  1.
         13    1    1    2    0    0 -0.12803272532E+02 -0.19096974735E+01 -0.29785157832E+02  0.32476722789E+02  0.10566000000E+00 0.  1.
        996    1    1    2    0    0  0.12803272532E+02  0.19096974735E+01  0.91894287317E+02  0.10541409191E+03  0.50000000000E+02 0.  0.
<mgrwt>
<rscale>  0 0.51648531E+02</rscale>
<asrwt>0</asrwt>
<pdfrwt beam="1">  1       13 0.10000000E+01 0.51648531E+02</pdfrwt>
<pdfrwt beam="2">  1       22 0.37890832E+00 0.51648531E+02</pdfrwt>
<totfact> 0.13660800E-01</totfact>
</mgrwt>
</event>
<event>
 4    1  0.2489496E+000  0.5117442E+02  0.7957747E-01  0.1439108E+00
         13   -1    0    0    0    0  0.00000000000E+00  0.00000000000E+00  0.99999944180E+02  0.10000000000E+03  0.10566000000E+00 0.  1.
         22   -1    0    0    0    0 -0.00000000000E+00 -0.00000000000E+00 -0.97685948924E+01  0.97685948924E+01  0.00000000000E+00 0.  1.
         13    1    1    2    0    0 -0.50535804921E+01  0.96583172549E+01  0.11312329224E+02  0.15709924395E+02  0.10566000000E+00 0. -1.
        996    1    1    2    0    0  0.50535804921E+01 -0.96583172549E+01  0.78919020063E+02  0.94058670497E+02  0.50000000000E+02 0.  0.
<mgrwt>
<rscale>  0 0.51174425E+02</rscale>
<asrwt>0</asrwt>
<pdfrwt beam="1">  1       13 0.10000000E+01 0.51174425E+02</pdfrwt>
<pdfrwt beam="2">  1       22 0.97686201E-01 0.51174425E+02</pdfrwt>
<totfact> 0.14553373E+00</totfact>
</mgrwt>
</event>
<event>
 4    1  0.2489496E+000  0.5324283E+02  0.7957747E-01  0.1428596E+00
         13   -1    0    0    0    0  0.00000000000E+00  0.00000000000E+00  0.99999944187E+02  0.10000000001E+03  0.10566000000E+00 0. -1.
         22   -1    0    0    0    0 -0.00000000000E+00 -0.00000000000E+00 -0.16778013748E+02  0.16778013748E+02  0.00000000000E+00 0. -1.
         13    1    1    2    0    0 -0.84781827436E+01 -0.16214793857E+02  0.38008321272E+00  0.18301769033E+02  0.10566000000E+00 0.  1.
        996    1    1    2    0    0  0.84781827436E+01  0.16214793857E+02  0.82841847227E+02  0.98476244721E+02  0.50000000000E+02 0.  0.
<mgrwt>
<rscale>  0 0.53242832E+02</rscale>
<asrwt>0</asrwt>
<pdfrwt beam="1">  1       13 0.10000000E+01 0.53242832E+02</pdfrwt>
<pdfrwt beam="2">  1       22 0.16778037E+00 0.53242832E+02</pdfrwt>
<totfact> 0.62360112E-01</totfact>
</mgrwt>
</event>
<event>
 4    1  0.2489496E+000  0.6758841E+02  0.7957747E-01  0.1368491E+00
         13   -1    0    0    0    0  0.00000000000E+00  0.00000000000E+00  0.99999944182E+02  0.10000000000E+03  0.10566000000E+00 0. -1.
         22   -1    0    0    0    0 -0.00000000000E+00 -0.00000000000E+00 -0.65203131113E+02  0.65203131113E+02  0.00000000000E+00 0.  1.
         13    1    1    2    0    0  0.43010704778E+02 -0.14774029226E+02 -0.42694148449E+02  0.62377833731E+02  0.10566000000E+00 0.  1.
        996    1    1    2    0    0 -0.43010704778E+02  0.14774029226E+02  0.77490961519E+02  0.10282529738E+03  0.50000000000E+02 0.  0.
<mgrwt>
<rscale>  0 0.67588406E+02</rscale>
<asrwt>0</asrwt>
<pdfrwt beam="1">  1       13 0.10000000E+01 0.67588406E+02</pdfrwt>
<pdfrwt beam="2">  1       22 0.65203141E+00 0.67588406E+02</pdfrwt>
<totfact> 0.86754769E-02</totfact>
</mgrwt>
</event>
<event>
 4    1  0.2489496E+000  0.5115138E+02  0.7957747E-01  0.1439228E+00
         13   -1    0    0    0    0  0.00000000000E+00  0.00000000000E+00  0.99999944178E+02  0.99999999998E+02  0.10566000000E+00 0.  1.
         22   -1    0    0    0    0 -0.00000000000E+00 -0.00000000000E+00 -0.11528013882E+02  0.11528013882E+02  0.00000000000E+00 0.  1.
         13    1    1    2    0    0  0.44291052917E+01 -0.98410492372E+01  0.18775828940E+01  0.10954437700E+02  0.10566000000E+00 0. -1.
        996    1    1    2    0    0 -0.44291052917E+01  0.98410492372E+01  0.86594347401E+02  0.10057357618E+03  0.50000000000E+02 0.  0.
<mgrwt>
<rscale>  0 0.51151376E+02</rscale>
<asrwt>0</asrwt>
<pdfrwt beam="1">  1       13 0.10000000E+01 0.51151376E+02</pdfrwt>
<pdfrwt beam="2">  1       22 0.11528039E+00 0.51151376E+02</pdfrwt>
<totfact> 0.11403386E+00</totfact>
</mgrwt>
</event>
<event>
 4    1  0.2489496E+000  0.5229623E+02  0.7957747E-01  0.1433336E+00
         13   -1    0    0    0    0  0.00000000000E+00  0.00000000000E+00  0.99999944179E+02  0.99999999999E+02  0.10566000000E+00 0.  1.
         22   -1    0    0    0    0 -0.00000000000E+00 -0.00000000000E+00 -0.44915008313E+02  0.44915008313E+02  0.00000000000E+00 0. -1.
         13    1    1    2    0    0 -0.86338335651E+01  0.12663041933E+02 -0.36423740583E+02  0.39517031203E+02  0.10566000000E+00 0. -1.
        996    1    1    2    0    0  0.86338335651E+01 -0.12663041933E+02  0.91508676450E+02  0.10539797711E+03  0.50000000000E+02 0.  0.
<mgrwt>
<rscale>  0 0.52296230E+02</rscale>
<asrwt>0</asrwt>
<pdfrwt beam="1">  1       13 0.10000000E+01 0.52296230E+02</pdfrwt>
<pdfrwt beam="2">  1       22 0.44915024E+00 0.52296230E+02</pdfrwt>
<totfact> 0.97065132E-02</totfact>
</mgrwt>
</event>
<event>
 4    1  0.2489496E+000  0.5104200E+02  0.7957747E-01  0.1439801E+00
         13   -1    0    0    0    0  0.00000000000E+00  0.00000000000E+00  0.99999944165E+02  0.99999999985E+02  0.10566000000E+00 0.  1.
         22   -1    0    0    0    0 -0.00000000000E+00 -0.00000000000E+00 -0.29524803820E+02  0.29524803820E+02  0.00000000000E+00 0. -1.
         13    1    1    2    0    0  0.37096425384E+01  0.95668541330E+01 -0.21788262401E+02  0.24083722475E+02  0.10566000000E+00 0. -1.
        996    1    1    2    0    0 -0.37096425384E+01 -0.95668541330E+01  0.92263402746E+02  0.10544108133E+03  0.50000000000E+02 0.  0.
<mgrwt>
<rscale>  0 0.51042004E+02</rscale>
<asrwt>0</asrwt>
<pdfrwt beam="1">  1       13 0.10000000E+01 0.51042004E+02</pdfrwt>
<pdfrwt beam="2">  1       22 0.29524823E+00 0.51042004E+02</pdfrwt>
<totfact> 0.21305930E-01</totfact>
</mgrwt>
</event>
<event>
 4    1  0.2489496E+000  0.5151833E+02  0.7957747E-01  0.1437320E+00
         13   -1    0    0    0    0  0.00000000000E+00  0.00000000000E+00  0.99999944178E+02  0.99999999998E+02  0.10566000000E+00 0. -1.
         22   -1    0    0    0    0 -0.00000000000E+00 -0.00000000000E+00 -0.11336578474E+02  0.11336578474E+02  0.00000000000E+00 0. -1.
         13    1    1    2    0    0  0.10213500442E+02 -0.70585476746E+01  0.34121874442E+02  0.36310496637E+02  0.10566000000E+00 0.  1.
        996    1    1    2    0    0 -0.10213500442E+02  0.70585476746E+01  0.54541491262E+02  0.75026081836E+02  0.50000000000E+02 0.  0.
<mgrwt>
<rscale>  0 0.51518333E+02</rscale>
<asrwt>0</asrwt>
<pdfrwt beam="1">  1       13 0.10000000E+01 0.51518333E+02</pdfrwt>
<pdfrwt beam="2">  1       22 0.11336603E+00 0.51518333E+02</pdfrwt>
<totfact> 0.11704346E+00</totfact>
</mgrwt>
</event>
<event>
 4    1  0.2489496E+000  0.6662310E+02  0.7957747E-01  0.1371968E+00
         13   -1    0    0    0    0  0.00000000000E+00  0.00000000000E+00  0.99999944180E+02  0.10000000000E+03  0.10566000000E+00 0. -1.
         22   -1    0    0    0    0 -0.00000000000E+00 -0.00000000000E+00 -0.57523148423E+02  0.57523148423E+02  0.00000000000E+00 0.  1.
         13    1    1    2    0    0  0.39596799864E+02  0.19254361670E+02 -0.34341469366E+02  0.55838917298E+02  0.10566000000E+00 0.  1.
        996    1    1    2    0    0 -0.39596799864E+02 -0.19254361670E+02  0.76818265123E+02  0.10168423112E+03  0.50000000000E+02 0.  0.
<mgrwt>
<rscale>  0 0.66623097E+02</rscale>
<asrwt>0</asrwt>
<pdfrwt beam="1">  1       13 0.10000000E+01 0.66623097E+02</pdfrwt>
<pdfrwt beam="2">  1       22 0.57523160E+00 0.66623097E+02</pdfrwt>
<totfact> 0.58019668E-02</totfact>
</mgrwt>
</event>
<event>
 4    1  0.2489496E+000  0.5228525E+02  0.7957747E-01  0.1433391E+00
         13   -1    0    0    0    0  0.00000000000E+00  0.00000000000E+00  0.99999944178E+02  0.99999999998E+02  0.10566000000E+00 0. -1.
         22   -1    0    0    0    0 -0.00000000000E+00 -0.00000000000E+00 -0.30850300157E+02  0.30850300157E+02  0.00000000000E+00 0.  1.
         13    1    1    2    0    0  0.64669406615E+01 -0.13853742347E+02 -0.21393354118E+02  0.26295137630E+02  0.10566000000E+00 0.  1.
        996    1    1    2    0    0 -0.64669406615E+01  0.13853742347E+02  0.90542998139E+02  0.10455516252E+03  0.50000000000E+02 0.  0.
<mgrwt>
<rscale>  0 0.52285251E+02</rscale>
<asrwt>0</asrwt>
<pdfrwt beam="1">  1       13 0.10000000E+01 0.52285251E+02</pdfrwt>
<pdfrwt beam="2">  1       22 0.30850319E+00 0.52285251E+02</pdfrwt>
<totfact> 0.19666701E-01</totfact>
</mgrwt>
</event>
<event>
 4    1  0.2489496E+000  0.5250295E+02  0.7957747E-01  0.1432291E+00
         13   -1    0    0    0    0  0.00000000000E+00  0.00000000000E+00  0.99999944179E+02  0.10000000000E+03  0.10566000000E+00 0.  1.
         22   -1    0    0    0    0 -0.00000000000E+00 -0.00000000000E+00 -0.23085125144E+02  0.23085125144E+02  0.00000000000E+00 0. -1.
         13    1    1    2    0    0 -0.15898117612E+02 -0.19518359479E+01 -0.11871048961E+02  0.19937220835E+02  0.10566000000E+00 0. -1.
        996    1    1    2    0    0  0.15898117612E+02  0.19518359479E+01  0.88785867997E+02  0.10314790431E+03  0.50000000000E+02 0.  0.
<mgrwt>
<rscale>  0 0.52502950E+02</rscale>
<asrwt>0</asrwt>
<pdfrwt beam="1">  1       13 0.10000000E+01 0.52502950E+02</pdfrwt>
<pdfrwt beam="2">  1       22 0.23085147E+00 0.52502950E+02</pdfrwt>
<totfact> 0.34486293E-01</totfact>
</mgrwt>
</event>
<event>
 4    1  0.2489496E+000  0.5194871E+02  0.7957747E-01  0.1435105E+00
         13   -1    0    0    0    0  0.00000000000E+00  0.00000000000E+00  0.99999944179E+02  0.99999999999E+02  0.10566000000E+00 0. -1.
         22   -1    0    0    0    0 -0.00000000000E+00 -0.00000000000E+00 -0.32241158267E+02  0.32241158267E+02  0.00000000000E+00 0.  1.
         13    1    1    2    0    0  0.41610625609E+01 -0.13466774348E+02 -0.23401118928E+02  0.27318345193E+02  0.10566000000E+00 0.  1.
        996    1    1    2    0    0 -0.41610625609E+01  0.13466774348E+02  0.91159904840E+02  0.10492281307E+03  0.50000000000E+02 0.  0.
<mgrwt>
<rscale>  0 0.51948710E+02</rscale>
<asrwt>0</asrwt>
<pdfrwt beam="1">  1       13 0.10000000E+01 0.51948710E+02</pdfrwt>
<pdfrwt beam="2">  1       22 0.32241177E+00 0.51948710E+02</pdfrwt>
<totfact> 0.18151650E-01</totfact>
</mgrwt>
</event>
<event>
 4    1  0.2489496E+000  0.5235320E+02  0.7957747E-01  0.1433047E+00
         13   -1    0    0    0    0  0.00000000000E+00  0.00000000000E+00  0.99999944179E+02  0.99999999999E+02  0.10566000000E+00 0.  1.
         22   -1    0    0    0    0 -0.00000000000E+00 -0.00000000000E+00 -0.14463738620E+02  0.14463738620E+02  0.00000000000E+00 0.  1.
         13    1    1    2    0    0 -0.15497016059E+02  0.83689848509E+00  0.16853425952E+01  0.15611196287E+02  0.10566000000E+00 0. -1.
        996    1    1    2    0    0  0.15497016059E+02 -0.83689848509E+00  0.83850862964E+02  0.98852542332E+02  0.50000000000E+02 0.  0.
<mgrwt>
<rscale>  0 0.52353203E+02</rscale>
<asrwt>0</asrwt>
<pdfrwt beam="1">  1       13 0.10000000E+01 0.52353203E+02</pdfrwt>
<pdfrwt beam="2">  1       22 0.14463762E+00 0.52353203E+02</pdfrwt>
<totfact> 0.80021260E-01</totfact>
</mgrwt>
</event>
<event>
 4    1  0.2489496E+000  0.5120763E+02  0.7957747E-01  0.1438935E+00
         13   -1    0    0    0    0  0.00000000000E+00  0.00000000000E+00  0.99999944174E+02  0.99999999995E+02  0.10566000000E+00 0. -1.
         22   -1    0    0    0    0 -0.00000000000E+00 -0.00000000000E+00 -0.25730782891E+02  0.25730782891E+02  0.00000000000E+00 0. -1.
         13    1    1    2    0    0 -0.86074508721E+01 -0.69377868805E+01 -0.17465947158E+02  0.20671032182E+02  0.10566000000E+00 0.  1.
        996    1    1    2    0    0  0.86074508721E+01  0.69377868805E+01  0.91735108441E+02  0.10505975070E+03  0.50000000000E+02 0.  0.
<mgrwt>
<rscale>  0 0.51207627E+02</rscale>
<asrwt>0</asrwt>
<pdfrwt beam="1">  1       13 0.10000000E+01 0.51207627E+02</pdfrwt>
<pdfrwt beam="2">  1       22 0.25730804E+00 0.51207627E+02</pdfrwt>
<totfact> 0.27820267E-01</totfact>
</mgrwt>
</event>
<event>
 4    1  0.2489496E+000  0.5128363E+02  0.7957747E-01  0.1438538E+00
         13   -1    0    0    0    0  0.00000000000E+00  0.00000000000E+00  0.99999944179E+02  0.99999999999E+02  0.10566000000E+00 0.  1.
         22   -1    0    0    0    0 -0.00000000000E+00 -0.00000000000E+00 -0.10107364727E+02  0.10107364727E+02  0.00000000000E+00 0.  1.
         13    1    1    2    0    0 -0.83750627480E+01 -0.77375196173E+01  0.99729992207E+01  0.15148688503E+02  0.10566000000E+00 0. -1.
        996    1    1    2    0    0  0.83750627480E+01  0.77375196173E+01  0.79919580231E+02  0.94958676224E+02  0.50000000000E+02 0.  0.
<mgrwt>
<rscale>  0 0.51283632E+02</rscale>
<asrwt>0</asrwt>
<pdfrwt beam="1">  1       13 0.10000000E+01 0.51283632E+02</pdfrwt>
<pdfrwt beam="2">  1       22 0.10107390E+00 0.51283632E+02</pdfrwt>
<totfact> 0.13857207E+00</totfact>
</mgrwt>
</event>
<event>
 4    1  0.2489496E+000  0.5133884E+02  0.7957747E-01  0.1438251E+00
         13   -1    0    0    0    0  0.00000000000E+00  0.00000000000E+00  0.99999944184E+02  0.10000000000E+03  0.10566000000E+00 0.  1.
         22   -1    0    0    0    0 -0.00000000000E+00 -0.00000000000E+00 -0.12278928288E+02  0.12278928288E+02  0.00000000000E+00 0.  1.
         13    1    1    2    0    0 -0.95642739887E+01 -0.66483775616E+01  0.12492333488E+01  0.11715289545E+02  0.10566000000E+00 0. -1.
        996    1    1    2    0    0  0.95642739887E+01  0.66483775616E+01  0.86471782548E+02  0.10056363875E+03  0.50000000000E+02 0.  0.
<mgrwt>
<rscale>  0 0.51338838E+02</rscale>
<asrwt>0</asrwt>
<pdfrwt beam="1">  1       13 0.10000000E+01 0.51338838E+02</pdfrwt>
<pdfrwt beam="2">  1       22 0.12278953E+00 0.51338838E+02</pdfrwt>
<totfact> 0.10360891E+00</totfact>
</mgrwt>
</event>
<event>
 4    1  0.2489496E+000  0.5494484E+02  0.7957747E-01  0.1420360E+00
         13   -1    0    0    0    0  0.00000000000E+00  0.00000000000E+00  0.99999944184E+02  0.10000000000E+03  0.10566000000E+00 0.  1.
         22   -1    0    0    0    0 -0.00000000000E+00 -0.00000000000E+00 -0.15121902996E+02  0.15121902996E+02  0.00000000000E+00 0. -1.
         13    1    1    2    0    0  0.22290734372E+02  0.46966009017E+01  0.26751579633E+02  0.35136776685E+02  0.10566000000E+00 0. -1.
        996    1    1    2    0    0 -0.22290734372E+02 -0.46966009017E+01  0.58126461554E+02  0.79985126316E+02  0.50000000000E+02 0.  0.
<mgrwt>
<rscale>  0 0.54944835E+02</rscale>
<asrwt>0</asrwt>
<pdfrwt beam="1">  1       13 0.10000000E+01 0.54944835E+02</pdfrwt>
<pdfrwt beam="2">  1       22 0.15121927E+00 0.54944835E+02</pdfrwt>
<totfact> 0.74716493E-01</totfact>
</mgrwt>
</event>
<event>
 4    1  0.2489496E+000  0.5577079E+02  0.7957747E-01  0.1416489E+00
         13   -1    0    0    0    0  0.00000000000E+00  0.00000000000E+00  0.99999944172E+02  0.99999999992E+02  0.10566000000E+00 0.  1.
         22   -1    0    0    0    0 -0.00000000000E+00 -0.00000000000E+00 -0.55031908949E+02  0.55031908949E+02  0.00000000000E+00 0. -1.
         13    1    1    2    0    0 -0.24219541079E+02  0.48779522282E+01 -0.43747906549E+02  0.50242124551E+02  0.10566000000E+00 0. -1.
        996    1    1    2    0    0  0.24219541079E+02 -0.48779522282E+01  0.88715941772E+02  0.10478978439E+03  0.50000000000E+02 0.  0.
<mgrwt>
<rscale>  0 0.55770786E+02</rscale>
<asrwt>0</asrwt>
<pdfrwt beam="1">  1       13 0.10000000E+01 0.55770786E+02</pdfrwt>
<pdfrwt beam="2">  1       22 0.55031922E+00 0.55770786E+02</pdfrwt>
<totfact> 0.59250843E-02</totfact>
</mgrwt>
</event>
<event>
 4    1  0.2489496E+000  0.5987229E+02  0.7957747E-01  0.1398368E+00
         13   -1    0    0    0    0  0.00000000000E+00  0.00000000000E+00  0.99999944180E+02  0.10000000000E+03  0.10566000000E+00 0. -1.
         22   -1    0    0    0    0 -0.00000000000E+00 -0.00000000000E+00 -0.22062322860E+02  0.22062322860E+02  0.00000000000E+00 0.  1.
         13    1    1    2    0    0 -0.32055207221E+02 -0.75600611147E+01  0.18872005570E+02  0.37958590494E+02  0.10566000000E+00 0.  1.
        996    1    1    2    0    0  0.32055207221E+02  0.75600611147E+01  0.59065615750E+02  0.84103732366E+02  0.50000000000E+02 0.  0.
<mgrwt>
<rscale>  0 0.59872288E+02</rscale>
<asrwt>0</asrwt>
<pdfrwt beam="1">  1       13 0.10000000E+01 0.59872288E+02</pdfrwt>
<pdfrwt beam="2">  1       22 0.22062345E+00 0.59872288E+02</pdfrwt>
<totfact> 0.38085673E-01</totfact>
</mgrwt>
</event>
<event>
 4    1  0.2489496E+000  0.5150275E+02  0.7957747E-01  0.1437401E+00
         13   -1    0    0    0    0  0.00000000000E+00  0.00000000000E+00  0.99999944181E+02  0.10000000000E+03  0.10566000000E+00 0. -1.
         22   -1    0    0    0    0 -0.00000000000E+00 -0.00000000000E+00 -0.15286280570E+02  0.15286280570E+02  0.00000000000E+00 0. -1.
         13    1    1    2    0    0 -0.56951727969E+00  0.12337317200E+02 -0.37628134269E+01  0.12911377716E+02  0.10566000000E+00 0.  1.
        996    1    1    2    0    0  0.56951727969E+00 -0.12337317200E+02  0.88476477038E+02  0.10237490286E+03  0.50000000000E+02 0.  0.
<mgrwt>
<rscale>  0 0.51502755E+02</rscale>
<asrwt>0</asrwt>
<pdfrwt beam="1">  1       13 0.10000000E+01 0.51502755E+02</pdfrwt>
<pdfrwt beam="2">  1       22 0.15286304E+00 0.51502755E+02</pdfrwt>
<totfact> 0.72876636E-01</totfact>
</mgrwt>
</event>
<event>
 4    1  0.2489496E+000  0.5874173E+02  0.7957747E-01  0.1403189E+00
         13   -1    0    0    0    0  0.00000000000E+00  0.00000000000E+00  0.99999944181E+02  0.10000000000E+03  0.10566000000E+00 0. -1.
         22   -1    0    0    0    0 -0.00000000000E+00 -0.00000000000E+00 -0.27961418680E+02  0.27961418680E+02  0.00000000000E+00 0. -1.
         13    1    1    2    0    0 -0.28892096629E+02 -0.10762774408E+02 -0.48402872039E+01  0.31209455375E+02  0.10566000000E+00 0.  1.
        996    1    1    2    0    0  0.28892096629E+02  0.10762774408E+02  0.76878812705E+02  0.96751963306E+02  0.50000000000E+02 0.  0.
<mgrwt>
<rscale>  0 0.58741728E+02</rscale>
<asrwt>0</asrwt>
<pdfrwt beam="1">  1       13 0.10000000E+01 0.58741728E+02</pdfrwt>
<pdfrwt beam="2">  1       22 0.27961439E+00 0.58741728E+02</pdfrwt>
<totfact> 0.23888035E-01</totfact>
</mgrwt>
</event>
<event>
 4    1  0.2489496E+000  0.5165908E+02  0.7957747E-01  0.1436593E+00
         13   -1    0    0    0    0  0.00000000000E+00  0.00000000000E+00  0.99999944179E+02  0.10000000000E+03  0.10566000000E+00 0.  1.
         22   -1    0    0    0    0 -0.00000000000E+00 -0.00000000000E+00 -0.11925642070E+02  0.11925642070E+02  0.00000000000E+00 0. -1.
         13    1    1    2    0    0  0.86507556168E+01  0.96863185073E+01  0.46360558495E+01  0.13790015114E+02  0.10566000000E+00 0. -1.
        996    1    1    2    0    0 -0.86507556168E+01 -0.96863185073E+01  0.83438246260E+02  0.98135626955E+02  0.50000000000E+02 0.  0.
<mgrwt>
<rscale>  0 0.51659078E+02</rscale>
<asrwt>0</asrwt>
<pdfrwt beam="1">  1       13 0.10000000E+01 0.51659078E+02</pdfrwt>
<pdfrwt beam="2">  1       22 0.11925667E+00 0.51659078E+02</pdfrwt>
<totfact> 0.10843810E+00</totfact>
</mgrwt>
</event>
<event>
 4    1  0.2489496E+000  0.5261472E+02  0.7957747E-01  0.1431728E+00
         13   -1    0    0    0    0  0.00000000000E+00  0.00000000000E+00  0.99999944166E+02  0.99999999987E+02  0.10566000000E+00 0. -1.
         22   -1    0    0    0    0 -0.00000000000E+00 -0.00000000000E+00 -0.23803933442E+02  0.23803933442E+02  0.00000000000E+00 0. -1.
         13    1    1    2    0    0 -0.16368175345E+02 -0.62604362643E+00 -0.12548572985E+02  0.20634605466E+02  0.10566000000E+00 0.  1.
        996    1    1    2    0    0  0.16368175345E+02  0.62604362643E+00  0.88744583709E+02  0.10316932796E+03  0.50000000000E+02 0.  0.
<mgrwt>
<rscale>  0 0.52614723E+02</rscale>
<asrwt>0</asrwt>
<pdfrwt beam="1">  1       13 0.10000000E+01 0.52614723E+02</pdfrwt>
<pdfrwt beam="2">  1       22 0.23803955E+00 0.52614723E+02</pdfrwt>
<totfact> 0.32488875E-01</totfact>
</mgrwt>
</event>
<event>
 4    1  0.2489496E+000  0.5160686E+02  0.7957747E-01  0.1436862E+00
         13   -1    0    0    0    0  0.00000000000E+00  0.00000000000E+00  0.99999944180E+02  0.10000000000E+03  0.10566000000E+00 0. -1.
         22   -1    0    0    0    0 -0.00000000000E+00 -0.00000000000E+00 -0.38762955796E+02  0.38762955796E+02  0.00000000000E+00 0.  1.
         13    1    1    2    0    0  0.11786828740E+02 -0.49334395508E+01 -0.30743962878E+02  0.33293701732E+02  0.10566000000E+00 0.  1.
        996    1    1    2    0    0 -0.11786828740E+02  0.49334395508E+01  0.91980951263E+02  0.10546925406E+03  0.50000000000E+02 0.  0.
<mgrwt>
<rscale>  0 0.51606862E+02</rscale>
<asrwt>0</asrwt>
<pdfrwt beam="1">  1       13 0.10000000E+01 0.51606862E+02</pdfrwt>
<pdfrwt beam="2">  1       22 0.38762973E+00 0.51606862E+02</pdfrwt>
<totfact> 0.13108575E-01</totfact>
</mgrwt>
</event>
<event>
 4    1  0.2489496E+000  0.6001938E+02  0.7957747E-01  0.1397750E+00
         13   -1    0    0    0    0  0.00000000000E+00  0.00000000000E+00  0.99999944176E+02  0.99999999996E+02  0.10566000000E+00 0. -1.
         22   -1    0    0    0    0 -0.00000000000E+00 -0.00000000000E+00 -0.31057605633E+02  0.31057605633E+02  0.00000000000E+00 0.  1.
         13    1    1    2    0    0  0.31601463729E+02  0.10182006694E+02 -0.73310056012E+01  0.34001184940E+02  0.10566000000E+00 0.  1.
        996    1    1    2    0    0 -0.31601463729E+02 -0.10182006694E+02  0.76273344144E+02  0.97056420689E+02  0.50000000000E+02 0.  0.
<mgrwt>
<rscale>  0 0.60019378E+02</rscale>
<asrwt>0</asrwt>
<pdfrwt beam="1">  1       13 0.10000000E+01 0.60019378E+02</pdfrwt>
<pdfrwt beam="2">  1       22 0.31057625E+00 0.60019378E+02</pdfrwt>
<totfact> 0.19602793E-01</totfact>
</mgrwt>
</event>
<event>
 4    1  0.2489496E+000  0.7076787E+02  0.7957747E-01  0.1357501E+00
         13   -1    0    0    0    0  0.00000000000E+00  0.00000000000E+00  0.99999944177E+02  0.99999999997E+02  0.10566000000E+00 0. -1.
         22   -1    0    0    0    0 -0.00000000000E+00 -0.00000000000E+00 -0.36537790108E+02  0.36537790108E+02  0.00000000000E+00 0.  1.
         13    1    1    2    0    0  0.34275234870E+02  0.36514374765E+02  0.28121902475E+02  0.57436433147E+02  0.10566000000E+00 0.  1.
        996    1    1    2    0    0 -0.34275234870E+02 -0.36514374765E+02  0.35340251594E+02  0.79101356958E+02  0.50000000000E+02 0.  0.
<mgrwt>
<rscale>  0 0.70767869E+02</rscale>
<asrwt>0</asrwt>
<pdfrwt beam="1">  1       13 0.10000000E+01 0.70767869E+02</pdfrwt>
<pdfrwt beam="2">  1       22 0.36537808E+00 0.70767869E+02</pdfrwt>
<totfact> 0.14799578E-01</totfact>
</mgrwt>
</event>
<event>
 4    1  0.2489496E+000  0.5185397E+02  0.7957747E-01  0.1435591E+00
         13   -1    0    0    0    0  0.00000000000E+00  0.00000000000E+00  0.99999944180E+02  0.10000000000E+03  0.10566000000E+00 0.  1.
         22   -1    0    0    0    0 -0.00000000000E+00 -0.00000000000E+00 -0.12252798677E+02  0.12252798677E+02  0.00000000000E+00 0.  1.
         13    1    1    2    0    0  0.65477240492E+01  0.12081461009E+02  0.37943634517E+02  0.40355482338E+02  0.10566000000E+00 0. -1.
        996    1    1    2    0    0 -0.65477240492E+01 -0.12081461009E+02  0.49803510985E+02  0.71897316339E+02  0.50000000000E+02 0.  0.
<mgrwt>
<rscale>  0 0.51853972E+02</rscale>
<asrwt>0</asrwt>
<pdfrwt beam="1">  1       13 0.10000000E+01 0.51853972E+02</pdfrwt>
<pdfrwt beam="2">  1       22 0.12252823E+00 0.51853972E+02</pdfrwt>
<totfact> 0.10406970E+00</totfact>
</mgrwt>
</event>
<event>
 4    1  0.2489496E+000  0.5260026E+02  0.7957747E-01  0.1431801E+00
         13   -1    0    0    0    0  0.00000000000E+00  0.00000000000E+00  0.99999944176E+02  0.99999999996E+02  0.10566000000E+00 0.  1.
         22   -1    0    0    0    0 -0.00000000000E+00 -0.00000000000E+00 -0.18141153190E+02  0.18141153190E+02  0.00000000000E+00 0.  1.
         13    1    1    2    0    0  0.16292175680E+02 -0.11627524159E+01 -0.45728831111E+01  0.16961998867E+02  0.10566000000E+00 0. -1.
        996    1    1    2    0    0 -0.16292175680E+02  0.11627524159E+01  0.86431674097E+02  0.10117915432E+03  0.50000000000E+02 0.  0.
<mgrwt>
<rscale>  0 0.52600256E+02</rscale>
<asrwt>0</asrwt>
<pdfrwt beam="1">  1       13 0.10000000E+01 0.52600256E+02</pdfrwt>
<pdfrwt beam="2">  1       22 0.18141176E+00 0.52600256E+02</pdfrwt>
<totfact> 0.54236035E-01</totfact>
</mgrwt>
</event>
<event>
 4    1  0.2489496E+000  0.5290194E+02  0.7957747E-01  0.1430290E+00
         13   -1    0    0    0    0  0.00000000000E+00  0.00000000000E+00  0.99999944176E+02  0.99999999996E+02  0.10566000000E+00 0.  1.
         22   -1    0    0    0    0 -0.00000000000E+00 -0.00000000000E+00 -0.28294739067E+02  0.28294739067E+02  0.00000000000E+00 0. -1.
         13    1    1    2    0    0  0.17274710862E+02  0.44627350446E+00 -0.17492677083E+02  0.24589016064E+02  0.10566000000E+00 0. -1.
        996    1    1    2    0    0 -0.17274710862E+02 -0.44627350446E+00  0.89197882192E+02  0.10370572300E+03  0.50000000000E+02 0.  0.
<mgrwt>
<rscale>  0 0.52901936E+02</rscale>
<asrwt>0</asrwt>
<pdfrwt beam="1">  1       13 0.10000000E+01 0.52901936E+02</pdfrwt>
<pdfrwt beam="2">  1       22 0.28294759E+00 0.52901936E+02</pdfrwt>
<totfact> 0.23167159E-01</totfact>
</mgrwt>
</event>
<event>
 4    1  0.2489496E+000  0.5166555E+02  0.7957747E-01  0.1436560E+00
         13   -1    0    0    0    0  0.00000000000E+00  0.00000000000E+00  0.99999944181E+02  0.10000000000E+03  0.10566000000E+00 0.  1.
         22   -1    0    0    0    0 -0.00000000000E+00 -0.00000000000E+00 -0.10956231987E+02  0.10956231987E+02  0.00000000000E+00 0. -1.
         13    1    1    2    0    0  0.92139628651E+01  0.91886634231E+01  0.95225461203E+01  0.16125095219E+02  0.10566000000E+00 0. -1.
        996    1    1    2    0    0 -0.92139628651E+01 -0.91886634231E+01  0.79521166074E+02  0.94831136769E+02  0.50000000000E+02 0.  0.
<mgrwt>
<rscale>  0 0.51665546E+02</rscale>
<asrwt>0</asrwt>
<pdfrwt beam="1">  1       13 0.10000000E+01 0.51665546E+02</pdfrwt>
<pdfrwt beam="2">  1       22 0.10956257E+00 0.51665546E+02</pdfrwt>
<totfact> 0.12320558E+00</totfact>
</mgrwt>
</event>
<event>
 4    1  0.2489496E+000  0.5524828E+02  0.7957747E-01  0.1418928E+00
         13   -1    0    0    0    0  0.00000000000E+00  0.00000000000E+00  0.99999944175E+02  0.99999999996E+02  0.10566000000E+00 0.  1.
         22   -1    0    0    0    0 -0.00000000000E+00 -0.00000000000E+00 -0.20290854757E+02  0.20290854757E+02  0.00000000000E+00 0. -1.
         13    1    1    2    0    0 -0.20386773320E+02 -0.11694080124E+02  0.24015559364E+00  0.23504060821E+02  0.10566000000E+00 0. -1.
        996    1    1    2    0    0  0.20386773320E+02  0.11694080124E+02  0.79468933825E+02  0.96786793932E+02  0.50000000000E+02 0.  0.
<mgrwt>
<rscale>  0 0.55248276E+02</rscale>
<asrwt>0</asrwt>
<pdfrwt beam="1">  1       13 0.10000000E+01 0.55248276E+02</pdfrwt>
<pdfrwt beam="2">  1       22 0.20290877E+00 0.55248276E+02</pdfrwt>
<totfact> 0.44348699E-01</totfact>
</mgrwt>
</event>
<event>
 4    1  0.2489496E+000  0.5247989E+02  0.7957747E-01  0.1432407E+00
         13   -1    0    0    0    0  0.00000000000E+00  0.00000000000E+00  0.99999944177E+02  0.99999999998E+02  0.10566000000E+00 0.  1.
         22   -1    0    0    0    0 -0.00000000000E+00 -0.00000000000E+00 -0.19857097143E+02  0.19857097143E+02  0.00000000000E+00 0. -1.
         13    1    1    2    0    0  0.10454386992E+02 -0.12035141102E+02 -0.75661984793E+01  0.17646454380E+02  0.10566000000E+00 0. -1.
        996    1    1    2    0    0 -0.10454386992E+02  0.12035141102E+02  0.87709045514E+02  0.10221064276E+03  0.50000000000E+02 0.  0.
<mgrwt>
<rscale>  0 0.52479890E+02</rscale>
<asrwt>0</asrwt>
<pdfrwt beam="1">  1       13 0.10000000E+01 0.52479890E+02</pdfrwt>
<pdfrwt beam="2">  1       22 0.19857120E+00 0.52479890E+02</pdfrwt>
<totfact> 0.45956776E-01</totfact>
</mgrwt>
</event>
<event>
 4    1  0.2489496E+000  0.5298008E+02  0.7957747E-01  0.1429900E+00
         13   -1    0    0    0    0  0.00000000000E+00  0.00000000000E+00  0.99999944180E+02  0.10000000000E+03  0.10566000000E+00 0. -1.
         22   -1    0    0    0    0 -0.00000000000E+00 -0.00000000000E+00 -0.17688177728E+02  0.17688177728E+02  0.00000000000E+00 0.  1.
         13    1    1    2    0    0 -0.17317567557E+02 -0.26440468545E+01 -0.24924183011E+01  0.17694983552E+02  0.10566000000E+00 0.  1.
        996    1    1    2    0    0  0.17317567557E+02  0.26440468545E+01  0.84804184753E+02  0.99993194176E+02  0.50000000000E+02 0.  0.
<mgrwt>
<rscale>  0 0.52980082E+02</rscale>
<asrwt>0</asrwt>
<pdfrwt beam="1">  1       13 0.10000000E+01 0.52980082E+02</pdfrwt>
<pdfrwt beam="2">  1       22 0.17688201E+00 0.52980082E+02</pdfrwt>
<totfact> 0.56787646E-01</totfact>
</mgrwt>
</event>
<event>
 4    1  0.2489496E+000  0.5869420E+02  0.7957747E-01  0.1403395E+00
         13   -1    0    0    0    0  0.00000000000E+00  0.00000000000E+00  0.99999944184E+02  0.10000000000E+03  0.10566000000E+00 0.  1.
         22   -1    0    0    0    0 -0.00000000000E+00 -0.00000000000E+00 -0.30634220291E+02  0.30634220291E+02  0.00000000000E+00 0.  1.
         13    1    1    2    0    0 -0.24944476227E+02  0.17966136193E+02 -0.96353489972E+01  0.32215835520E+02  0.10566000000E+00 0. -1.
        996    1    1    2    0    0  0.24944476227E+02 -0.17966136193E+02  0.79001072890E+02  0.98418384775E+02  0.50000000000E+02 0.  0.
<mgrwt>
<rscale>  0 0.58694199E+02</rscale>
<asrwt>0</asrwt>
<pdfrwt beam="1">  1       13 0.10000000E+01 0.58694199E+02</pdfrwt>
<pdfrwt beam="2">  1       22 0.30634240E+00 0.58694199E+02</pdfrwt>
<totfact> 0.20076113E-01</totfact>
</mgrwt>
</event>
<event>
 4    1  0.2489496E+000  0.6288392E+02  0.7957747E-01  0.1386113E+00
         13   -1    0    0    0    0  0.00000000000E+00  0.00000000000E+00  0.99999944176E+02  0.99999999996E+02  0.10566000000E+00 0.  1.
         22   -1    0    0    0    0 -0.00000000000E+00 -0.00000000000E+00 -0.37093814917E+02  0.37093814917E+02  0.00000000000E+00 0. -1.
         13    1    1    2    0    0  0.33436948540E+02 -0.18340061135E+02 -0.11348670229E+02  0.39789330858E+02  0.10566000000E+00 0. -1.
        996    1    1    2    0    0 -0.33436948540E+02  0.18340061135E+02  0.74254799488E+02  0.97304484055E+02  0.50000000000E+02 0.  0.
<mgrwt>
<rscale>  0 0.62883920E+02</rscale>
<asrwt>0</asrwt>
<pdfrwt beam="1">  1       13 0.10000000E+01 0.62883920E+02</pdfrwt>
<pdfrwt beam="2">  1       22 0.37093832E+00 0.62883920E+02</pdfrwt>
<totfact> 0.14322892E-01</totfact>
</mgrwt>
</event>
<event>
 4    1  0.2489496E+000  0.5151678E+02  0.7957747E-01  0.1437328E+00
         13   -1    0    0    0    0  0.00000000000E+00  0.00000000000E+00  0.99999944176E+02  0.99999999996E+02  0.10566000000E+00 0. -1.
         22   -1    0    0    0    0 -0.00000000000E+00 -0.00000000000E+00 -0.45438719791E+02  0.45438719791E+02  0.00000000000E+00 0.  1.
         13    1    1    2    0    0 -0.12161666062E+02  0.24642427780E+01 -0.37743387828E+02  0.39731009333E+02  0.10566000000E+00 0.  1.
        996    1    1    2    0    0  0.12161666062E+02 -0.24642427780E+01  0.92304612212E+02  0.10570771045E+03  0.50000000000E+02 0.  0.
<mgrwt>
<rscale>  0 0.51516780E+02</rscale>
<asrwt>0</asrwt>
<pdfrwt beam="1">  1       13 0.10000000E+01 0.51516780E+02</pdfrwt>
<pdfrwt beam="2">  1       22 0.45438735E+00 0.51516780E+02</pdfrwt>
<totfact> 0.94403185E-02</totfact>
</mgrwt>
</event>
<event>
 4    1  0.2489496E+000  0.5736096E+02  0.7957747E-01  0.1409253E+00
         13   -1    0    0    0    0  0.00000000000E+00  0.00000000000E+00  0.99999944186E+02  0.10000000001E+03  0.10566000000E+00 0.  1.
         22   -1    0    0    0    0 -0.00000000000E+00 -0.00000000000E+00 -0.22179252445E+02  0.22179252445E+02  0.00000000000E+00 0. -1.
         13    1    1    2    0    0 -0.15888731870E+02  0.23191126688E+02  0.35479495208E+01  0.28335124269E+02  0.10566000000E+00 0. -1.
        996    1    1    2    0    0  0.15888731870E+02 -0.23191126688E+02  0.74272742220E+02  0.93844128183E+02  0.50000000000E+02 0.  0.
<mgrwt>
<rscale>  0 0.57360964E+02</rscale>
<asrwt>0</asrwt>
<pdfrwt beam="1">  1       13 0.10000000E+01 0.57360964E+02</pdfrwt>
<pdfrwt beam="2">  1       22 0.22179274E+00 0.57360964E+02</pdfrwt>
<totfact> 0.37557652E-01</totfact>
</mgrwt>
</event>
<event>
 4    1  0.2489496E+000  0.5183301E+02  0.7957747E-01  0.1435698E+00
         13   -1    0    0    0    0  0.00000000000E+00  0.00000000000E+00  0.99999944179E+02  0.99999999999E+02  0.10566000000E+00 0.  1.
         22   -1    0    0    0    0 -0.00000000000E+00 -0.00000000000E+00 -0.12328352004E+02  0.12328352004E+02  0.00000000000E+00 0. -1.
         13    1    1    2    0    0  0.11279459344E+02 -0.77093777599E+01  0.46076725938E+01  0.14418825171E+02  0.10566000000E+00 0. -1.
        996    1    1    2    0    0 -0.11279459344E+02  0.77093777599E+01  0.83063919580E+02  0.97909526833E+02  0.50000000000E+02 0.  0.
<mgrwt>
<rscale>  0 0.51833008E+02</rscale>
<asrwt>0</asrwt>
<pdfrwt beam="1">  1       13 0.10000000E+01 0.51833008E+02</pdfrwt>
<pdfrwt beam="2">  1       22 0.12328376E+00 0.51833008E+02</pdfrwt>
<totfact> 0.10308160E+00</totfact>
</mgrwt>
</event>
<event>
 4    1  0.2489496E+000  0.7149960E+02  0.7957747E-01  0.1355067E+00
         13   -1    0    0    0    0  0.00000000000E+00  0.00000000000E+00  0.99999944171E+02  0.99999999991E+02  0.10566000000E+00 0.  1.
         22   -1    0    0    0    0 -0.00000000000E+00 -0.00000000000E+00 -0.45766664662E+02  0.45766664662E+02  0.00000000000E+00 0. -1.
         13    1    1    2    0    0 -0.19052098566E+02 -0.47425837372E+02 -0.70548624213E+01  0.51594328739E+02  0.10566000000E+00 0. -1.
        996    1    1    2    0    0  0.19052098566E+02  0.47425837372E+02  0.61288141931E+02  0.94172335914E+02  0.50000000000E+02 0.  0.
<mgrwt>
<rscale>  0 0.71499598E+02</rscale>
<asrwt>0</asrwt>
<pdfrwt beam="1">  1       13 0.10000000E+01 0.71499598E+02</pdfrwt>
<pdfrwt beam="2">  1       22 0.45766680E+00 0.71499598E+02</pdfrwt>
<totfact> 0.93687716E-02</totfact>
</mgrwt>
</event>
<event>
 4    1  0.2489496E+000  0.5253811E+02  0.7957747E-01  0.1432113E+00
         13   -1    0    0    0    0  0.00000000000E+00  0.00000000000E+00  0.99999944178E+02  0.99999999999E+02  0.10566000000E+00 0. -1.
         22   -1    0    0    0    0 -0.00000000000E+00 -0.00000000000E+00 -0.12173672000E+02  0.12173672000E+02  0.00000000000E+00 0.  1.
         13    1    1    2    0    0 -0.12250043521E+02 -0.10497102269E+02  0.12864400529E+02  0.20633872329E+02  0.10566000000E+00 0.  1.
        996    1    1    2    0    0  0.12250043521E+02  0.10497102269E+02  0.74961871649E+02  0.91539799669E+02  0.50000000000E+02 0.  0.
<mgrwt>
<rscale>  0 0.52538107E+02</rscale>
<asrwt>0</asrwt>
<pdfrwt beam="1">  1       13 0.10000000E+01 0.52538107E+02</pdfrwt>
<pdfrwt beam="2">  1       22 0.12173697E+00 0.52538107E+02</pdfrwt>
<totfact> 0.10527323E+00</totfact>
</mgrwt>
</event>
<event>
 4    1  0.2489496E+000  0.5201689E+02  0.7957747E-01  0.1434757E+00
         13   -1    0    0    0    0  0.00000000000E+00  0.00000000000E+00  0.99999944176E+02  0.99999999996E+02  0.10566000000E+00 0. -1.
         22   -1    0    0    0    0 -0.00000000000E+00 -0.00000000000E+00 -0.14633068845E+02  0.14633068845E+02  0.00000000000E+00 0. -1.
         13    1    1    2    0    0 -0.48745100047E+01 -0.13490605706E+02 -0.37138482978E+00  0.14349438346E+02  0.10566000000E+00 0.  1.
        996    1    1    2    0    0  0.48745100047E+01  0.13490605706E+02  0.85738260161E+02  0.10028363050E+03  0.50000000000E+02 0.  0.
<mgrwt>
<rscale>  0 0.52016894E+02</rscale>
<asrwt>0</asrwt>
<pdfrwt beam="1">  1       13 0.10000000E+01 0.52016894E+02</pdfrwt>
<pdfrwt beam="2">  1       22 0.14633093E+00 0.52016894E+02</pdfrwt>
<totfact> 0.78449100E-01</totfact>
</mgrwt>
</event>
<event>
 4    1  0.2489496E+000  0.5167001E+02  0.7957747E-01  0.1436537E+00
         13   -1    0    0    0    0  0.00000000000E+00  0.00000000000E+00  0.99999944176E+02  0.99999999996E+02  0.10566000000E+00 0. -1.
         22   -1    0    0    0    0 -0.00000000000E+00 -0.00000000000E+00 -0.15062231654E+02  0.15062231654E+02  0.00000000000E+00 0.  1.
         13    1    1    2    0    0  0.67759418223E+01  0.11129970896E+02 -0.27178003640E+01  0.13311169843E+02  0.10566000000E+00 0.  1.
        996    1    1    2    0    0 -0.67759418223E+01 -0.11129970896E+02  0.87655512886E+02  0.10175106181E+03  0.50000000000E+02 0.  0.
<mgrwt>
<rscale>  0 0.51670007E+02</rscale>
<asrwt>0</asrwt>
<pdfrwt beam="1">  1       13 0.10000000E+01 0.51670007E+02</pdfrwt>
<pdfrwt beam="2">  1       22 0.15062255E+00 0.51670007E+02</pdfrwt>
<totfact> 0.74724257E-01</totfact>
</mgrwt>
</event>
<event>
 4    1  0.2489496E+000  0.5282665E+02  0.7957747E-01  0.1430666E+00
         13   -1    0    0    0    0  0.00000000000E+00  0.00000000000E+00  0.99999944182E+02  0.10000000000E+03  0.10566000000E+00 0. -1.
         22   -1    0    0    0    0 -0.00000000000E+00 -0.00000000000E+00 -0.30302417956E+02  0.30302417956E+02  0.00000000000E+00 0. -1.
         13    1    1    2    0    0 -0.16263890812E+02 -0.51128135805E+01 -0.19953357139E+02  0.26245049670E+02  0.10566000000E+00 0.  1.
        996    1    1    2    0    0  0.16263890812E+02  0.51128135805E+01  0.89650883365E+02  0.10405736829E+03  0.50000000000E+02 0.  0.
<mgrwt>
<rscale>  0 0.52826651E+02</rscale>
<asrwt>0</asrwt>
<pdfrwt beam="1">  1       13 0.10000000E+01 0.52826651E+02</pdfrwt>
<pdfrwt beam="2">  1       22 0.30302437E+00 0.52826651E+02</pdfrwt>
<totfact> 0.20341545E-01</totfact>
</mgrwt>
</event>
<event>
 4    1  0.2489496E+000  0.5112996E+02  0.7957747E-01  0.1439340E+00
         13   -1    0    0    0    0  0.00000000000E+00  0.00000000000E+00  0.99999944181E+02  0.10000000000E+03  0.10566000000E+00 0. -1.
         22   -1    0    0    0    0 -0.00000000000E+00 -0.00000000000E+00 -0.95739419784E+01  0.95739419784E+01  0.00000000000E+00 0. -1.
         13    1    1    2    0    0 -0.85226761566E+01  0.64526585058E+01  0.17573209739E+02  0.20569435462E+02  0.10566000000E+00 0.  1.
        996    1    1    2    0    0  0.85226761566E+01 -0.64526585058E+01  0.72852792463E+02  0.89004506517E+02  0.50000000000E+02 0.  0.
<mgrwt>
<rscale>  0 0.51129960E+02</rscale>
<asrwt>0</asrwt>
<pdfrwt beam="1">  1       13 0.10000000E+01 0.51129960E+02</pdfrwt>
<pdfrwt beam="2">  1       22 0.95739672E-01 0.51129960E+02</pdfrwt>
<totfact> 0.14978301E+00</totfact>
</mgrwt>
</event>
<event>
 4    1  0.2489496E+000  0.5299813E+02  0.7957747E-01  0.1429810E+00
         13   -1    0    0    0    0  0.00000000000E+00  0.00000000000E+00  0.99999944179E+02  0.10000000000E+03  0.10566000000E+00 0. -1.
         22   -1    0    0    0    0 -0.00000000000E+00 -0.00000000000E+00 -0.26275173865E+02  0.26275173865E+02  0.00000000000E+00 0.  1.
         13    1    1    2    0    0  0.17335891006E+02  0.28755364195E+01 -0.14882082790E+02  0.23028012917E+02  0.10566000000E+00 0.  1.
        996    1    1    2    0    0 -0.17335891006E+02 -0.28755364195E+01  0.88606853105E+02  0.10324716095E+03  0.50000000000E+02 0.  0.
<mgrwt>
<rscale>  0 0.52998130E+02</rscale>
<asrwt>0</asrwt>
<pdfrwt beam="1">  1       13 0.10000000E+01 0.52998130E+02</pdfrwt>
<pdfrwt beam="2">  1       22 0.26275194E+00 0.52998130E+02</pdfrwt>
<totfact> 0.26770847E-01</totfact>
</mgrwt>
</event>
<event>
 4    1  0.2489496E+000  0.6674921E+02  0.7957747E-01  0.1371510E+00
         13   -1    0    0    0    0  0.00000000000E+00  0.00000000000E+00  0.99999944185E+02  0.10000000001E+03  0.10566000000E+00 0. -1.
         22   -1    0    0    0    0 -0.00000000000E+00 -0.00000000000E+00 -0.37284575180E+02  0.37284575180E+02  0.00000000000E+00 0.  1.
         13    1    1    2    0    0 -0.40798365276E+02  0.17057275455E+02 -0.20647712790E+01  0.44268856995E+02  0.10566000000E+00 0.  1.
        996    1    1    2    0    0  0.40798365276E+02 -0.17057275455E+02  0.64780140285E+02  0.93015718190E+02  0.50000000000E+02 0.  0.
<mgrwt>
<rscale>  0 0.66749212E+02</rscale>
<asrwt>0</asrwt>
<pdfrwt beam="1">  1       13 0.10000000E+01 0.66749212E+02</pdfrwt>
<pdfrwt beam="2">  1       22 0.37284593E+00 0.66749212E+02</pdfrwt>
<totfact> 0.14231930E-01</totfact>
</mgrwt>
</event>
<event>
 4    1  0.2489496E+000  0.5263437E+02  0.7957747E-01  0.1431629E+00
         13   -1    0    0    0    0  0.00000000000E+00  0.00000000000E+00  0.99999944177E+02  0.99999999998E+02  0.10566000000E+00 0.  1.
         22   -1    0    0    0    0 -0.00000000000E+00 -0.00000000000E+00 -0.13458991475E+02  0.13458991475E+02  0.00000000000E+00 0. -1.
         13    1    1    2    0    0 -0.75868200562E+01  0.14588238945E+02  0.65404197434E+01  0.17696463165E+02  0.10566000000E+00 0. -1.
        996    1    1    2    0    0  0.75868200562E+01 -0.14588238945E+02  0.80000532959E+02  0.95762528308E+02  0.50000000000E+02 0.  0.
<mgrwt>
<rscale>  0 0.52634367E+02</rscale>
<asrwt>0</asrwt>
<pdfrwt beam="1">  1       13 0.10000000E+01 0.52634367E+02</pdfrwt>
<pdfrwt beam="2">  1       22 0.13459016E+00 0.52634367E+02</pdfrwt>
<totfact> 0.89966143E-01</totfact>
</mgrwt>
</event>
<event>
 4    1  0.2489496E+000  0.5148012E+02  0.7957747E-01  0.1437518E+00
         13   -1    0    0    0    0  0.00000000000E+00  0.00000000000E+00  0.99999944174E+02  0.99999999994E+02  0.10566000000E+00 0. -1.
         22   -1    0    0    0    0 -0.00000000000E+00 -0.00000000000E+00 -0.10160862139E+02  0.10160862139E+02  0.00000000000E+00 0.  1.
         13    1    1    2    0    0 -0.10428251962E+02 -0.64385049049E+01  0.16316945568E+02  0.20407269810E+02  0.10566000000E+00 0.  1.
        996    1    1    2    0    0  0.10428251962E+02  0.64385049049E+01  0.73522136466E+02  0.89753592323E+02  0.50000000000E+02 0.  0.
<mgrwt>
<rscale>  0 0.51480120E+02</rscale>
<asrwt>0</asrwt>
<pdfrwt beam="1">  1       13 0.10000000E+01 0.51480120E+02</pdfrwt>
<pdfrwt beam="2">  1       22 0.10160887E+00 0.51480120E+02</pdfrwt>
<totfact> 0.13757825E+00</totfact>
</mgrwt>
</event>
<event>
 4    1  0.2489496E+000  0.6926172E+02  0.7957747E-01  0.1362622E+00
         13   -1    0    0    0    0  0.00000000000E+00  0.00000000000E+00  0.99999944187E+02  0.10000000001E+03  0.10566000000E+00 0.  1.
         22   -1    0    0    0    0 -0.00000000000E+00 -0.00000000000E+00 -0.86121955715E+02  0.86121955715E+02  0.00000000000E+00 0. -1.
         13    1    1    2    0    0  0.27585736803E+02  0.39194554870E+02 -0.65250924852E+02  0.80962215659E+02  0.10566000000E+00 0. -1.
        996    1    1    2    0    0 -0.27585736803E+02 -0.39194554870E+02  0.79128913323E+02  0.10515974006E+03  0.50000000000E+02 0.  0.
<mgrwt>
<rscale>  0 0.69261721E+02</rscale>
<asrwt>0</asrwt>
<pdfrwt beam="1">  1       13 0.10000000E+01 0.69261721E+02</pdfrwt>
<pdfrwt beam="2">  1       22 0.86121960E+00 0.69261721E+02</pdfrwt>
<totfact> 0.16813824E-02</totfact>
</mgrwt>
</event>
<event>
 4    1  0.2489496E+000  0.5465115E+02  0.7957747E-01  0.1421756E+00
         13   -1    0    0    0    0  0.00000000000E+00  0.00000000000E+00  0.99999944172E+02  0.99999999992E+02  0.10566000000E+00 0.  1.
         22   -1    0    0    0    0 -0.00000000000E+00 -0.00000000000E+00 -0.15134148596E+02  0.15134148596E+02  0.00000000000E+00 0. -1.
         13    1    1    2    0    0 -0.20659596020E+02 -0.77414235974E+01  0.16183869271E+02  0.27361968782E+02  0.10566000000E+00 0. -1.
        996    1    1    2    0    0  0.20659596020E+02  0.77414235974E+01  0.68681926305E+02  0.87772179806E+02  0.50000000000E+02 0.  0.
<mgrwt>
<rscale>  0 0.54651153E+02</rscale>
<asrwt>0</asrwt>
<pdfrwt beam="1">  1       13 0.10000000E+01 0.54651153E+02</pdfrwt>
<pdfrwt beam="2">  1       22 0.15134172E+00 0.54651153E+02</pdfrwt>
<totfact> 0.74573256E-01</totfact>
</mgrwt>
</event>
<event>
 4    1  0.2489496E+000  0.5786748E+02  0.7957747E-01  0.1407005E+00
         13   -1    0    0    0    0  0.00000000000E+00  0.00000000000E+00  0.99999944174E+02  0.99999999994E+02  0.10566000000E+00 0.  1.
         22   -1    0    0    0    0 -0.00000000000E+00 -0.00000000000E+00 -0.37973108441E+02  0.37973108441E+02  0.00000000000E+00 0. -1.
         13    1    1    2    0    0 -0.22480099276E+02  0.18528087271E+02 -0.21607843206E+02  0.36270579447E+02  0.10566000000E+00 0. -1.
        996    1    1    2    0    0  0.22480099276E+02 -0.18528087271E+02  0.83634678939E+02  0.10170252899E+03  0.50000000000E+02 0.  0.
<mgrwt>
<rscale>  0 0.57867477E+02</rscale>
<asrwt>0</asrwt>
<pdfrwt beam="1">  1       13 0.10000000E+01 0.57867477E+02</pdfrwt>
<pdfrwt beam="2">  1       22 0.37973126E+00 0.57867477E+02</pdfrwt>
<totfact> 0.13678713E-01</totfact>
</mgrwt>
</event>
<event>
 4    1  0.2489496E+000  0.5140662E+02  0.7957747E-01  0.1437899E+00
         13   -1    0    0    0    0  0.00000000000E+00  0.00000000000E+00  0.99999944179E+02  0.99999999999E+02  0.10566000000E+00 0. -1.
         22   -1    0    0    0    0 -0.00000000000E+00 -0.00000000000E+00 -0.14905020223E+02  0.14905020223E+02  0.00000000000E+00 0. -1.
         13    1    1    2    0    0  0.46295207025E+01 -0.11009446027E+02 -0.35262141245E+01  0.12453341473E+02  0.10566000000E+00 0.  1.
        996    1    1    2    0    0 -0.46295207025E+01  0.11009446027E+02  0.88621138081E+02  0.10245167875E+03  0.50000000000E+02 0.  0.
<mgrwt>
<rscale>  0 0.51406618E+02</rscale>
<asrwt>0</asrwt>
<pdfrwt beam="1">  1       13 0.10000000E+01 0.51406618E+02</pdfrwt>
<pdfrwt beam="2">  1       22 0.14905044E+00 0.51406618E+02</pdfrwt>
<totfact> 0.75998992E-01</totfact>
</mgrwt>
</event>
<event>
 4    1  0.2489496E+000  0.5114147E+02  0.7957747E-01  0.1439280E+00
         13   -1    0    0    0    0  0.00000000000E+00  0.00000000000E+00  0.99999944170E+02  0.99999999990E+02  0.10566000000E+00 0.  1.
         22   -1    0    0    0    0 -0.00000000000E+00 -0.00000000000E+00 -0.11244559241E+02  0.11244559241E+02  0.00000000000E+00 0.  1.
         13    1    1    2    0    0 -0.22926916196E+01 -0.10497327197E+02  0.26026324975E+01  0.11056001678E+02  0.10566000000E+00 0. -1.
        996    1    1    2    0    0  0.22926916196E+01  0.10497327197E+02  0.86152752431E+02  0.10018855755E+03  0.50000000000E+02 0.  0.
<mgrwt>
<rscale>  0 0.51141474E+02</rscale>
<asrwt>0</asrwt>
<pdfrwt beam="1">  1       13 0.10000000E+01 0.51141474E+02</pdfrwt>
<pdfrwt beam="2">  1       22 0.11244584E+00 0.51141474E+02</pdfrwt>
<totfact> 0.11837885E+00</totfact>
</mgrwt>
</event>
<event>
 4    1  0.2489496E+000  0.7221123E+02  0.7957747E-01  0.1352731E+00
         13   -1    0    0    0    0  0.00000000000E+00  0.00000000000E+00  0.99999944173E+02  0.99999999993E+02  0.10566000000E+00 0.  1.
         22   -1    0    0    0    0 -0.00000000000E+00 -0.00000000000E+00 -0.54344892201E+02  0.54344892201E+02  0.00000000000E+00 0. -1.
         13    1    1    2    0    0  0.29097209400E+01  0.52019185741E+02 -0.20904324735E+02  0.56137902684E+02  0.10566000000E+00 0. -1.
        996    1    1    2    0    0 -0.29097209400E+01 -0.52019185741E+02  0.66559376706E+02  0.98206989510E+02  0.50000000000E+02 0.  0.
<mgrwt>
<rscale>  0 0.72211233E+02</rscale>
<asrwt>0</asrwt>
<pdfrwt beam="1">  1       13 0.10000000E+01 0.72211233E+02</pdfrwt>
<pdfrwt beam="2">  1       22 0.54344905E+00 0.72211233E+02</pdfrwt>
<totfact> 0.60353756E-02</totfact>
</mgrwt>
</event>
<event>
 4    1  0.2489496E+000  0.5861543E+02  0.7957747E-01  0.1403736E+00
         13   -1    0    0    0    0  0.00000000000E+00  0.00000000000E+00  0.99999944181E+02  0.10000000000E+03  0.10566000000E+00 0. -1.
         22   -1    0    0    0    0 -0.00000000000E+00 -0.00000000000E+00 -0.22760066721E+02  0.22760066721E+02  0.00000000000E+00 0.  1.
         13    1    1    2    0    0  0.28052497723E+02  0.12199449385E+02  0.71951144966E+01  0.31425308757E+02  0.10566000000E+00 0.  1.
        996    1    1    2    0    0 -0.28052497723E+02 -0.12199449385E+02  0.70044762963E+02  0.91334757964E+02  0.50000000000E+02 0.  0.
<mgrwt>
<rscale>  0 0.58615435E+02</rscale>
<asrwt>0</asrwt>
<pdfrwt beam="1">  1       13 0.10000000E+01 0.58615435E+02</pdfrwt>
<pdfrwt beam="2">  1       22 0.22760088E+00 0.58615435E+02</pdfrwt>
<totfact> 0.35788950E-01</totfact>
</mgrwt>
</event>
<event>
 4    1  0.2489496E+000  0.5439693E+02  0.7957747E-01  0.1422973E+00
         13   -1    0    0    0    0  0.00000000000E+00  0.00000000000E+00  0.99999944180E+02  0.10000000000E+03  0.10566000000E+00 0. -1.
         22   -1    0    0    0    0 -0.00000000000E+00 -0.00000000000E+00 -0.18541202858E+02  0.18541202858E+02  0.00000000000E+00 0. -1.
         13    1    1    2    0    0 -0.20028922353E+02  0.76071505313E+01  0.10371902509E+01  0.21450254019E+02  0.10566000000E+00 0.  1.
        996    1    1    2    0    0  0.20028922353E+02 -0.76071505313E+01  0.80421551071E+02  0.97090948839E+02  0.50000000000E+02 0.  0.
<mgrwt>
<rscale>  0 0.54396934E+02</rscale>
<asrwt>0</asrwt>
<pdfrwt beam="1">  1       13 0.10000000E+01 0.54396934E+02</pdfrwt>
<pdfrwt beam="2">  1       22 0.18541226E+00 0.54396934E+02</pdfrwt>
<totfact> 0.52309872E-01</totfact>
</mgrwt>
</event>
<event>
 4    1  0.2489496E+000  0.5879104E+02  0.7957747E-01  0.1402976E+00
         13   -1    0    0    0    0  0.00000000000E+00  0.00000000000E+00  0.99999944177E+02  0.99999999998E+02  0.10566000000E+00 0. -1.
         22   -1    0    0    0    0 -0.00000000000E+00 -0.00000000000E+00 -0.35269164920E+02  0.35269164920E+02  0.00000000000E+00 0.  1.
         13    1    1    2    0    0  0.29822286989E+01  0.30781361826E+02 -0.16455750843E+02  0.35031254955E+02  0.10566000000E+00 0.  1.
        996    1    1    2    0    0 -0.29822286989E+01 -0.30781361826E+02  0.81186530101E+02  0.10023790996E+03  0.50000000000E+02 0.  0.
<mgrwt>
<rscale>  0 0.58791036E+02</rscale>
<asrwt>0</asrwt>
<pdfrwt beam="1">  1       13 0.10000000E+01 0.58791036E+02</pdfrwt>
<pdfrwt beam="2">  1       22 0.35269183E+00 0.58791036E+02</pdfrwt>
<totfact> 0.15607244E-01</totfact>
</mgrwt>
</event>
<event>
 4    1  0.2489496E+000  0.5140329E+02  0.7957747E-01  0.1437916E+00
         13   -1    0    0    0    0  0.00000000000E+00  0.00000000000E+00  0.99999944177E+02  0.99999999997E+02  0.10566000000E+00 0.  1.
         22   -1    0    0    0    0 -0.00000000000E+00 -0.00000000000E+00 -0.10822600178E+02  0.10822600178E+02  0.00000000000E+00 0.  1.
         13    1    1    2    0    0 -0.11903127706E+02  0.78326204509E+00  0.68234891829E+01  0.13742966102E+02  0.10566000000E+00 0. -1.
        996    1    1    2    0    0  0.11903127706E+02 -0.78326204509E+00  0.82353854816E+02  0.97079634073E+02  0.50000000000E+02 0.  0.
<mgrwt>
<rscale>  0 0.51403287E+02</rscale>
<asrwt>0</asrwt>
<pdfrwt beam="1">  1       13 0.10000000E+01 0.51403287E+02</pdfrwt>
<pdfrwt beam="2">  1       22 0.10822625E+00 0.51403287E+02</pdfrwt>
<totfact> 0.12539152E+00</totfact>
</mgrwt>
</event>
<event>
 4    1  0.2489496E+000  0.5221817E+02  0.7957747E-01  0.1433732E+00
         13   -1    0    0    0    0  0.00000000000E+00  0.00000000000E+00  0.99999944185E+02  0.10000000001E+03  0.10566000000E+00 0. -1.
         22   -1    0    0    0    0 -0.00000000000E+00 -0.00000000000E+00 -0.11466722249E+02  0.11466722249E+02  0.00000000000E+00 0. -1.
         13    1    1    2    0    0 -0.95415106544E+01 -0.11648887549E+02  0.25494540677E+02  0.29609454150E+02  0.10566000000E+00 0.  1.
        996    1    1    2    0    0  0.95415106544E+01  0.11648887549E+02  0.63038681259E+02  0.81857268105E+02  0.50000000000E+02 0.  0.
<mgrwt>
<rscale>  0 0.52218167E+02</rscale>
<asrwt>0</asrwt>
<pdfrwt beam="1">  1       13 0.10000000E+01 0.52218167E+02</pdfrwt>
<pdfrwt beam="2">  1       22 0.11466747E+00 0.52218167E+02</pdfrwt>
<totfact> 0.11523511E+00</totfact>
</mgrwt>
</event>
<event>
 4    1  0.2489496E+000  0.5100466E+02  0.7957747E-01  0.1439997E+00
         13   -1    0    0    0    0  0.00000000000E+00  0.00000000000E+00  0.99999944182E+02  0.10000000000E+03  0.10566000000E+00 0.  1.
         22   -1    0    0    0    0 -0.00000000000E+00 -0.00000000000E+00 -0.96073984798E+01  0.96073984798E+01  0.00000000000E+00 0.  1.
         13    1    1    2    0    0  0.15135138117E+01 -0.99591351755E+01  0.87565005895E+01  0.13347755021E+02  0.10566000000E+00 0. -1.
        996    1    1    2    0    0 -0.15135138117E+01  0.99591351755E+01  0.81636045113E+02  0.96259643461E+02  0.50000000000E+02 0.  0.
<mgrwt>
<rscale>  0 0.51004658E+02</rscale>
<asrwt>0</asrwt>
<pdfrwt beam="1">  1       13 0.10000000E+01 0.51004658E+02</pdfrwt>
<pdfrwt beam="2">  1       22 0.96074237E-01 0.51004658E+02</pdfrwt>
<totfact> 0.14899025E+00</totfact>
</mgrwt>
</event>
<event>
 4    1  0.2489496E+000  0.5099294E+02  0.7957747E-01  0.1440058E+00
         13   -1    0    0    0    0  0.00000000000E+00  0.00000000000E+00  0.99999944178E+02  0.99999999999E+02  0.10566000000E+00 0. -1.
         22   -1    0    0    0    0 -0.00000000000E+00 -0.00000000000E+00 -0.30302535951E+02  0.30302535951E+02  0.00000000000E+00 0.  1.
         13    1    1    2    0    0  0.19078067509E+01 -0.98305498594E+01 -0.22675980979E+02  0.24788923222E+02  0.10566000000E+00 0.  1.
        996    1    1    2    0    0 -0.19078067509E+01  0.98305498594E+01  0.92373389207E+02  0.10551361273E+03  0.50000000000E+02 0.  0.
<mgrwt>
<rscale>  0 0.50992935E+02</rscale>
<asrwt>0</asrwt>
<pdfrwt beam="1">  1       13 0.10000000E+01 0.50992935E+02</pdfrwt>
<pdfrwt beam="2">  1       22 0.30302555E+00 0.50992935E+02</pdfrwt>
<totfact> 0.20292805E-01</totfact>
</mgrwt>
</event>
<event>
 4    1  0.2489496E+000  0.5367829E+02  0.7957747E-01  0.1426455E+00
         13   -1    0    0    0    0  0.00000000000E+00  0.00000000000E+00  0.99999944180E+02  0.10000000000E+03  0.10566000000E+00 0.  1.
         22   -1    0    0    0    0 -0.00000000000E+00 -0.00000000000E+00 -0.36773777566E+02  0.36773777566E+02  0.00000000000E+00 0. -1.
         13    1    1    2    0    0  0.76801084132E+00 -0.19513290136E+02 -0.26077508269E+02  0.32579225500E+02  0.10566000000E+00 0. -1.
        996    1    1    2    0    0 -0.76801084132E+00  0.19513290136E+02  0.89303674883E+02  0.10419455207E+03  0.50000000000E+02 0.  0.
<mgrwt>
<rscale>  0 0.53678285E+02</rscale>
<asrwt>0</asrwt>
<pdfrwt beam="1">  1       13 0.10000000E+01 0.53678285E+02</pdfrwt>
<pdfrwt beam="2">  1       22 0.36773795E+00 0.53678285E+02</pdfrwt>
<totfact> 0.14434285E-01</totfact>
</mgrwt>
</event>
<event>
 4    1  0.2489496E+000  0.5113342E+02  0.7957747E-01  0.1439322E+00
         13   -1    0    0    0    0  0.00000000000E+00  0.00000000000E+00  0.99999944181E+02  0.10000000000E+03  0.10566000000E+00 0. -1.
         22   -1    0    0    0    0 -0.00000000000E+00 -0.00000000000E+00 -0.42190546028E+02  0.42190546028E+02  0.00000000000E+00 0.  1.
         13    1    1    2    0    0 -0.59356426396E+01 -0.89103838577E+01 -0.34795937179E+02  0.36405977562E+02  0.10566000000E+00 0.  1.
        996    1    1    2    0    0  0.59356426396E+01  0.89103838577E+01  0.92605335332E+02  0.10578456847E+03  0.50000000000E+02 0.  0.
<mgrwt>
<rscale>  0 0.51133421E+02</rscale>
<asrwt>0</asrwt>
<pdfrwt beam="1">  1       13 0.10000000E+01 0.51133421E+02</pdfrwt>
<pdfrwt beam="2">  1       22 0.42190562E+00 0.51133421E+02</pdfrwt>
<totfact> 0.11124549E-01</totfact>
</mgrwt>
</event>
<event>
 4    1  0.2489496E+000  0.5157199E+02  0.7957747E-01  0.1437043E+00
         13   -1    0    0    0    0  0.00000000000E+00  0.00000000000E+00  0.99999944179E+02  0.10000000000E+03  0.10566000000E+00 0. -1.
         22   -1    0    0    0    0 -0.00000000000E+00 -0.00000000000E+00 -0.10446712922E+02  0.10446712922E+02  0.00000000000E+00 0. -1.
         13    1    1    2    0    0  0.12134769469E+02  0.35238302651E+01  0.23089662108E+02  0.26321353880E+02  0.10566000000E+00 0.  1.
        996    1    1    2    0    0 -0.12134769469E+02 -0.35238302651E+01  0.66463569149E+02  0.84125359041E+02  0.50000000000E+02 0.  0.
<mgrwt>
<rscale>  0 0.51571989E+02</rscale>
<asrwt>0</asrwt>
<pdfrwt beam="1">  1       13 0.10000000E+01 0.51571989E+02</pdfrwt>
<pdfrwt beam="2">  1       22 0.10446738E+00 0.51571989E+02</pdfrwt>
<totfact> 0.13214586E+00</totfact>
</mgrwt>
</event>
<event>
 4    1  0.2489496E+000  0.6291797E+02  0.7957747E-01  0.1385979E+00
         13   -1    0    0    0    0  0.00000000000E+00  0.00000000000E+00  0.99999944181E+02  0.10000000000E+03  0.10566000000E+00 0. -1.
         22   -1    0    0    0    0 -0.00000000000E+00 -0.00000000000E+00 -0.25656557534E+02  0.25656557534E+02  0.00000000000E+00 0.  1.
         13    1    1    2    0    0  0.31902676251E+02  0.20997373277E+02  0.31885400828E+02  0.49752993744E+02  0.10566000000E+00 0.  1.
        996    1    1    2    0    0 -0.31902676251E+02 -0.20997373277E+02  0.42457985818E+02  0.75903563792E+02  0.50000000000E+02 0.  0.
<mgrwt>
<rscale>  0 0.62917966E+02</rscale>
<asrwt>0</asrwt>
<pdfrwt beam="1">  1       13 0.10000000E+01 0.62917966E+02</pdfrwt>
<pdfrwt beam="2">  1       22 0.25656578E+00 0.62917966E+02</pdfrwt>
<totfact> 0.28440736E-01</totfact>
</mgrwt>
</event>
<event>
 4    1  0.2489496E+000  0.5808957E+02  0.7957747E-01  0.1406028E+00
         13   -1    0    0    0    0  0.00000000000E+00  0.00000000000E+00  0.99999944179E+02  0.99999999999E+02  0.10566000000E+00 0.  1.
         22   -1    0    0    0    0 -0.00000000000E+00 -0.00000000000E+00 -0.46158632575E+02  0.46158632575E+02  0.00000000000E+00 0.  1.
         13    1    1    2    0    0 -0.26479501820E+02 -0.13161833386E+02 -0.31318868854E+02  0.43072968147E+02  0.10566000000E+00 0. -1.
        996    1    1    2    0    0  0.26479501820E+02  0.13161833386E+02  0.85160180458E+02  0.10308566443E+03  0.50000000000E+02 0.  0.
<mgrwt>
<rscale>  0 0.58089568E+02</rscale>
<asrwt>0</asrwt>
<pdfrwt beam="1">  1       13 0.10000000E+01 0.58089568E+02</pdfrwt>
<pdfrwt beam="2">  1       22 0.46158648E+00 0.58089568E+02</pdfrwt>
<totfact> 0.91192090E-02</totfact>
</mgrwt>
</event>
<event>
 4    1  0.2489496E+000  0.5178262E+02  0.7957747E-01  0.1435957E+00
         13   -1    0    0    0    0  0.00000000000E+00  0.00000000000E+00  0.99999944181E+02  0.10000000000E+03  0.10566000000E+00 0.  1.
         22   -1    0    0    0    0 -0.00000000000E+00 -0.00000000000E+00 -0.14437942256E+02  0.14437942256E+02  0.00000000000E+00 0.  1.
         13    1    1    2    0    0 -0.13331777662E+02  0.19243412037E+01 -0.10665307277E+01  0.13512514072E+02  0.10566000000E+00 0. -1.
        996    1    1    2    0    0  0.13331777662E+02 -0.19243412037E+01  0.86628532653E+02  0.10092542818E+03  0.50000000000E+02 0.  0.
<mgrwt>
<rscale>  0 0.51782617E+02</rscale>
<asrwt>0</asrwt>
<pdfrwt beam="1">  1       13 0.10000000E+01 0.51782617E+02</pdfrwt>
<pdfrwt beam="2">  1       22 0.14437966E+00 0.51782617E+02</pdfrwt>
<totfact> 0.80161101E-01</totfact>
</mgrwt>
</event>
<event>
 4    1  0.2489496E+000  0.5280028E+02  0.7957747E-01  0.1430797E+00
         13   -1    0    0    0    0  0.00000000000E+00  0.00000000000E+00  0.99999944174E+02  0.99999999994E+02  0.10566000000E+00 0. -1.
         22   -1    0    0    0    0 -0.00000000000E+00 -0.00000000000E+00 -0.12276343946E+02  0.12276343946E+02  0.00000000000E+00 0. -1.
         13    1    1    2    0    0  0.29880348502E+01  0.16701548703E+02  0.26049363684E+02  0.31087788499E+02  0.10566000000E+00 0.  1.
        996    1    1    2    0    0 -0.29880348502E+01 -0.16701548703E+02  0.61674236544E+02  0.81188555441E+02  0.50000000000E+02 0.  0.
<mgrwt>
<rscale>  0 0.52800285E+02</rscale>
<asrwt>0</asrwt>
<pdfrwt beam="1">  1       13 0.10000000E+01 0.52800285E+02</pdfrwt>
<pdfrwt beam="2">  1       22 0.12276368E+00 0.52800285E+02</pdfrwt>
<totfact> 0.10397815E+00</totfact>
</mgrwt>
</event>
<event>
 4    1  0.2489496E+000  0.5391653E+02  0.7957747E-01  0.1425293E+00
         13   -1    0    0    0    0  0.00000000000E+00  0.00000000000E+00  0.99999944176E+02  0.99999999996E+02  0.10566000000E+00 0. -1.
         22   -1    0    0    0    0 -0.00000000000E+00 -0.00000000000E+00 -0.46565667875E+02  0.46565667875E+02  0.00000000000E+00 0.  1.
         13    1    1    2    0    0 -0.44480187606E+01  0.19677591730E+02 -0.36502001333E+02  0.41706111693E+02  0.10566000000E+00 0.  1.
        996    1    1    2    0    0  0.44480187606E+01 -0.19677591730E+02  0.89936277634E+02  0.10485955618E+03  0.50000000000E+02 0.  0.
<mgrwt>
<rscale>  0 0.53916533E+02</rscale>
<asrwt>0</asrwt>
<pdfrwt beam="1">  1       13 0.10000000E+01 0.53916533E+02</pdfrwt>
<pdfrwt beam="2">  1       22 0.46565683E+00 0.53916533E+02</pdfrwt>
<totfact> 0.89032875E-02</totfact>
</mgrwt>
</event>
<event>
 4    1  0.2489496E+000  0.5255311E+02  0.7957747E-01  0.1432038E+00
         13   -1    0    0    0    0  0.00000000000E+00  0.00000000000E+00  0.99999944178E+02  0.99999999998E+02  0.10566000000E+00 0. -1.
         22   -1    0    0    0    0 -0.00000000000E+00 -0.00000000000E+00 -0.16224554913E+02  0.16224554913E+02  0.00000000000E+00 0. -1.
         13    1    1    2    0    0  0.23662994000E+00  0.16179404170E+02 -0.12921388383E+01  0.16232988013E+02  0.10566000000E+00 0.  1.
        996    1    1    2    0    0 -0.23662994000E+00 -0.16179404170E+02  0.85067528104E+02  0.99991566898E+02  0.50000000000E+02 0.  0.
<mgrwt>
<rscale>  0 0.52553108E+02</rscale>
<asrwt>0</asrwt>
<pdfrwt beam="1">  1       13 0.10000000E+01 0.52553108E+02</pdfrwt>
<pdfrwt beam="2">  1       22 0.16224578E+00 0.52553108E+02</pdfrwt>
<totfact> 0.66002186E-01</totfact>
</mgrwt>
</event>
<event>
 4    1  0.2489496E+000  0.5116632E+02  0.7957747E-01  0.1439150E+00
         13   -1    0    0    0    0  0.00000000000E+00  0.00000000000E+00  0.99999944179E+02  0.99999999999E+02  0.10566000000E+00 0. -1.
         22   -1    0    0    0    0 -0.00000000000E+00 -0.00000000000E+00 -0.34860052135E+02  0.34860052135E+02  0.00000000000E+00 0.  1.
         13    1    1    2    0    0  0.10806832554E+02  0.10977043506E+01 -0.27201589409E+02  0.29290445799E+02  0.10566000000E+00 0.  1.
        996    1    1    2    0    0 -0.10806832554E+02 -0.10977043506E+01  0.92341481453E+02  0.10556960633E+03  0.50000000000E+02 0.  0.
<mgrwt>
<rscale>  0 0.51166323E+02</rscale>
<asrwt>0</asrwt>
<pdfrwt beam="1">  1       13 0.10000000E+01 0.51166323E+02</pdfrwt>
<pdfrwt beam="2">  1       22 0.34860070E+00 0.51166323E+02</pdfrwt>
<totfact> 0.15810542E-01</totfact>
</mgrwt>
</event>
<event>
 4    1  0.2489496E+000  0.5816992E+02  0.7957747E-01  0.1405676E+00
         13   -1    0    0    0    0  0.00000000000E+00  0.00000000000E+00  0.99999944183E+02  0.10000000000E+03  0.10566000000E+00 0.  1.
         22   -1    0    0    0    0 -0.00000000000E+00 -0.00000000000E+00 -0.37910259004E+02  0.37910259004E+02  0.00000000000E+00 0. -1.
         13    1    1    2    0    0  0.28366150691E+02 -0.88938539345E+01 -0.21060967220E+02  0.36432329696E+02  0.10566000000E+00 0. -1.
        996    1    1    2    0    0 -0.28366150691E+02  0.88938539345E+01  0.83150652399E+02  0.10147792931E+03  0.50000000000E+02 0.  0.
<mgrwt>
<rscale>  0 0.58169916E+02</rscale>
<asrwt>0</asrwt>
<pdfrwt beam="1">  1       13 0.10000000E+01 0.58169916E+02</pdfrwt>
<pdfrwt beam="2">  1       22 0.37910276E+00 0.58169916E+02</pdfrwt>
<totfact> 0.13723021E-01</totfact>
</mgrwt>
</event>
<event>
 4    1  0.2489496E+000  0.5151957E+02  0.7957747E-01  0.1437314E+00
         13   -1    0    0    0    0  0.00000000000E+00  0.00000000000E+00  0.99999944182E+02  0.10000000000E+03  0.10566000000E+00 0.  1.
         22   -1    0    0    0    0 -0.00000000000E+00 -0.00000000000E+00 -0.12474940902E+02  0.12474940902E+02  0.00000000000E+00 0. -1.
         13    1    1    2    0    0  0.66323735579E+01  0.10501332324E+02  0.19282497705E+01  0.12569632883E+02  0.10566000000E+00 0. -1.
        996    1    1    2    0    0 -0.66323735579E+01 -0.10501332324E+02  0.85596753509E+02  0.99905308022E+02  0.50000000000E+02 0.  0.
<mgrwt>
<rscale>  0 0.51519573E+02</rscale>
<asrwt>0</asrwt>
<pdfrwt beam="1">  1       13 0.10000000E+01 0.51519573E+02</pdfrwt>
<pdfrwt beam="2">  1       22 0.12474965E+00 0.51519573E+02</pdfrwt>
<totfact> 0.10114098E+00</totfact>
</mgrwt>
</event>
<event>
 4    1  0.2489496E+000  0.5294363E+02  0.7957747E-01  0.1430082E+00
         13   -1    0    0    0    0  0.00000000000E+00  0.00000000000E+00  0.99999944181E+02  0.10000000000E+03  0.10566000000E+00 0. -1.
         22   -1    0    0    0    0 -0.00000000000E+00 -0.00000000000E+00 -0.73190761217E+02  0.73190761217E+02  0.00000000000E+00 0.  1.
         13    1    1    2    0    0  0.14972212570E+02 -0.88803759020E+01 -0.64955865518E+02  0.67248076958E+02  0.10566000000E+00 0.  1.
        996    1    1    2    0    0 -0.14972212570E+02  0.88803759020E+01  0.91765048482E+02  0.10594268426E+03  0.50000000000E+02 0.  0.
<mgrwt>
<rscale>  0 0.52943633E+02</rscale>
<asrwt>0</asrwt>
<pdfrwt beam="1">  1       13 0.10000000E+01 0.52943633E+02</pdfrwt>
<pdfrwt beam="2">  1       22 0.73190769E+00 0.52943633E+02</pdfrwt>
<totfact> 0.57792174E-02</totfact>
</mgrwt>
</event>
<event>
 4    1  0.2489496E+000  0.5220622E+02  0.7957747E-01  0.1433792E+00
         13   -1    0    0    0    0  0.00000000000E+00  0.00000000000E+00  0.99999944180E+02  0.10000000000E+03  0.10566000000E+00 0. -1.
         22   -1    0    0    0    0 -0.00000000000E+00 -0.00000000000E+00 -0.18323002154E+02  0.18323002154E+02  0.00000000000E+00 0. -1.
         13    1    1    2    0    0 -0.18408718839E+01 -0.14903051477E+02 -0.60885828256E+01  0.16204066079E+02  0.10566000000E+00 0.  1.
        996    1    1    2    0    0  0.18408718839E+01  0.14903051477E+02  0.87765524852E+02  0.10211893608E+03  0.50000000000E+02 0.  0.
<mgrwt>
<rscale>  0 0.52206223E+02</rscale>
<asrwt>0</asrwt>
<pdfrwt beam="1">  1       13 0.10000000E+01 0.52206223E+02</pdfrwt>
<pdfrwt beam="2">  1       22 0.18323025E+00 0.52206223E+02</pdfrwt>
<totfact> 0.53230702E-01</totfact>
</mgrwt>
</event>
<event>
 4    1  0.2489496E+000  0.5101508E+02  0.7957747E-01  0.1439942E+00
         13   -1    0    0    0    0  0.00000000000E+00  0.00000000000E+00  0.99999944175E+02  0.99999999995E+02  0.10566000000E+00 0. -1.
         22   -1    0    0    0    0 -0.00000000000E+00 -0.00000000000E+00 -0.10504181463E+02  0.10504181463E+02  0.00000000000E+00 0. -1.
         13    1    1    2    0    0  0.61900926237E+01 -0.80138051776E+01  0.38855222746E+01  0.10846509461E+02  0.10566000000E+00 0.  1.
        996    1    1    2    0    0 -0.61900926237E+01  0.80138051776E+01  0.85610240438E+02  0.99657671997E+02  0.50000000000E+02 0.  0.
<mgrwt>
<rscale>  0 0.51015079E+02</rscale>
<asrwt>0</asrwt>
<pdfrwt beam="1">  1       13 0.10000000E+01 0.51015079E+02</pdfrwt>
<pdfrwt beam="2">  1       22 0.10504206E+00 0.51015079E+02</pdfrwt>
<totfact> 0.13091274E+00</totfact>
</mgrwt>
</event>
<event>
 4    1  0.2489496E+000  0.5169849E+02  0.7957747E-01  0.1436390E+00
         13   -1    0    0    0    0  0.00000000000E+00  0.00000000000E+00  0.99999944174E+02  0.99999999994E+02  0.10566000000E+00 0.  1.
         22   -1    0    0    0    0 -0.00000000000E+00 -0.00000000000E+00 -0.28052872908E+02  0.28052872908E+02  0.00000000000E+00 0. -1.
         13    1    1    2    0    0 -0.12258528466E+02  0.47394985499E+01 -0.19198341867E+02  0.23266324616E+02  0.10566000000E+00 0. -1.
        996    1    1    2    0    0  0.12258528466E+02 -0.47394985499E+01  0.91145413133E+02  0.10478654829E+03  0.50000000000E+02 0.  0.
<mgrwt>
<rscale>  0 0.51698495E+02</rscale>
<asrwt>0</asrwt>
<pdfrwt beam="1">  1       13 0.10000000E+01 0.51698495E+02</pdfrwt>
<pdfrwt beam="2">  1       22 0.28052893E+00 0.51698495E+02</pdfrwt>
<totfact> 0.23514669E-01</totfact>
</mgrwt>
</event>
<event>
 4    1  0.2489496E+000  0.5183981E+02  0.7957747E-01  0.1435663E+00
         13   -1    0    0    0    0  0.00000000000E+00  0.00000000000E+00  0.99999944181E+02  0.10000000000E+03  0.10566000000E+00 0.  1.
         22   -1    0    0    0    0 -0.00000000000E+00 -0.00000000000E+00 -0.24492212515E+02  0.24492212515E+02  0.00000000000E+00 0. -1.
         13    1    1    2    0    0  0.13070044569E+02 -0.40669388091E+01 -0.14926888565E+02  0.20253128711E+02  0.10566000000E+00 0. -1.
        996    1    1    2    0    0 -0.13070044569E+02  0.40669388091E+01  0.90434620231E+02  0.10423908381E+03  0.50000000000E+02 0.  0.
<mgrwt>
<rscale>  0 0.51839811E+02</rscale>
<asrwt>0</asrwt>
<pdfrwt beam="1">  1       13 0.10000000E+01 0.51839811E+02</pdfrwt>
<pdfrwt beam="2">  1       22 0.24492234E+00 0.51839811E+02</pdfrwt>
<totfact> 0.30684873E-01</totfact>
</mgrwt>
</event>
<event>
 4    1  0.2489496E+000  0.5452396E+02  0.7957747E-01  0.1422364E+00
         13   -1    0    0    0    0  0.00000000000E+00  0.00000000000E+00  0.99999944184E+02  0.10000000000E+03  0.10566000000E+00 0. -1.
         22   -1    0    0    0    0 -0.00000000000E+00 -0.00000000000E+00 -0.14845199059E+02  0.14845199059E+02  0.00000000000E+00 0. -1.
         13    1    1    2    0    0 -0.15462208040E+02  0.15289939558E+02  0.17232405911E+02  0.27745794396E+02  0.10566000000E+00 0.  1.
        996    1    1    2    0    0  0.15462208040E+02 -0.15289939558E+02  0.67922339213E+02  0.87099404667E+02  0.50000000000E+02 0.  0.
<mgrwt>
<rscale>  0 0.54523959E+02</rscale>
<asrwt>0</asrwt>
<pdfrwt beam="1">  1       13 0.10000000E+01 0.54523959E+02</pdfrwt>
<pdfrwt beam="2">  1       22 0.14845223E+00 0.54523959E+02</pdfrwt>
<totfact> 0.76989191E-01</totfact>
</mgrwt>
</event>
<event>
 4    1  0.2489496E+000  0.8629894E+02  0.7957747E-01  0.1312070E+00
         13   -1    0    0    0    0  0.00000000000E+00  0.00000000000E+00  0.99999944183E+02  0.10000000000E+03  0.10566000000E+00 0. -1.
         22   -1    0    0    0    0 -0.00000000000E+00 -0.00000000000E+00 -0.71462122356E+02  0.71462122356E+02  0.00000000000E+00 0.  1.
         13    1    1    2    0    0 -0.56823015484E+02  0.41456627850E+02 -0.19102979741E+02  0.72886501360E+02  0.10566000000E+00 0.  1.
        996    1    1    2    0    0  0.56823015484E+02 -0.41456627850E+02  0.47640801568E+02  0.98575621000E+02  0.50000000000E+02 0.  0.
<mgrwt>
<rscale>  0 0.86298940E+02</rscale>
<asrwt>0</asrwt>
<pdfrwt beam="1">  1       13 0.10000000E+01 0.86298940E+02</pdfrwt>
<pdfrwt beam="2">  1       22 0.71462130E+00 0.86298940E+02</pdfrwt>
<totfact> 0.66902318E-02</totfact>
</mgrwt>
</event>
<event>
 4    1  0.2489496E+000  0.5286602E+02  0.7957747E-01  0.1430469E+00
         13   -1    0    0    0    0  0.00000000000E+00  0.00000000000E+00  0.99999944175E+02  0.99999999995E+02  0.10566000000E+00 0. -1.
         22   -1    0    0    0    0 -0.00000000000E+00 -0.00000000000E+00 -0.12671474428E+02  0.12671474428E+02  0.00000000000E+00 0.  1.
         13    1    1    2    0    0 -0.51637742588E+01  0.16375331011E+02  0.30881619297E+02  0.35334142197E+02  0.10566000000E+00 0.  1.
        996    1    1    2    0    0  0.51637742588E+01 -0.16375331011E+02  0.56446850449E+02  0.77337332227E+02  0.50000000000E+02 0.  0.
<mgrwt>
<rscale>  0 0.52866020E+02</rscale>
<asrwt>0</asrwt>
<pdfrwt beam="1">  1       13 0.10000000E+01 0.52866020E+02</pdfrwt>
<pdfrwt beam="2">  1       22 0.12671499E+00 0.52866020E+02</pdfrwt>
<totfact> 0.99000148E-01</totfact>
</mgrwt>
</event>
<event>
 4    1  0.2489496E+000  0.5366683E+02  0.7957747E-01  0.1426511E+00
         13   -1    0    0    0    0  0.00000000000E+00  0.00000000000E+00  0.99999944176E+02  0.99999999996E+02  0.10566000000E+00 0. -1.
         22   -1    0    0    0    0 -0.00000000000E+00 -0.00000000000E+00 -0.15294861891E+02  0.15294861891E+02  0.00000000000E+00 0.  1.
         13    1    1    2    0    0 -0.46241051473E+01 -0.18940588305E+02  0.67093181339E+01  0.20619271267E+02  0.10566000000E+00 0.  1.
        996    1    1    2    0    0  0.46241051473E+01  0.18940588305E+02  0.77995764151E+02  0.94675590620E+02  0.50000000000E+02 0.  0.
<mgrwt>
<rscale>  0 0.53666826E+02</rscale>
<asrwt>0</asrwt>
<pdfrwt beam="1">  1       13 0.10000000E+01 0.53666826E+02</pdfrwt>
<pdfrwt beam="2">  1       22 0.15294886E+00 0.53666826E+02</pdfrwt>
<totfact> 0.73124364E-01</totfact>
</mgrwt>
</event>
<event>
 4    1  0.2489496E+000  0.5571364E+02  0.7957747E-01  0.1416754E+00
         13   -1    0    0    0    0  0.00000000000E+00  0.00000000000E+00  0.99999944174E+02  0.99999999994E+02  0.10566000000E+00 0. -1.
         22   -1    0    0    0    0 -0.00000000000E+00 -0.00000000000E+00 -0.45955058816E+02  0.45955058816E+02  0.00000000000E+00 0.  1.
         13    1    1    2    0    0  0.11274264731E+02  0.21838047474E+02 -0.33885642239E+02  0.41859972249E+02  0.10566000000E+00 0.  1.
        996    1    1    2    0    0 -0.11274264731E+02 -0.21838047474E+02  0.87930527596E+02  0.10409508656E+03  0.50000000000E+02 0.  0.
<mgrwt>
<rscale>  0 0.55713637E+02</rscale>
<asrwt>0</asrwt>
<pdfrwt beam="1">  1       13 0.10000000E+01 0.55713637E+02</pdfrwt>
<pdfrwt beam="2">  1       22 0.45955074E+00 0.55713637E+02</pdfrwt>
<totfact> 0.92075805E-02</totfact>
</mgrwt>
</event>
<event>
 4    1  0.2489496E+000  0.6390069E+02  0.7957747E-01  0.1382155E+00
         13   -1    0    0    0    0  0.00000000000E+00  0.00000000000E+00  0.99999944174E+02  0.99999999994E+02  0.10566000000E+00 0. -1.
         22   -1    0    0    0    0 -0.00000000000E+00 -0.00000000000E+00 -0.27404726361E+02  0.27404726361E+02  0.00000000000E+00 0.  1.
         13    1    1    2    0    0  0.27792440014E+02  0.28475920826E+02  0.19440034999E+02  0.44285707781E+02  0.10566000000E+00 0.  1.
        996    1    1    2    0    0 -0.27792440014E+02 -0.28475920826E+02  0.53155182814E+02  0.83119018575E+02  0.50000000000E+02 0.  0.
<mgrwt>
<rscale>  0 0.63900687E+02</rscale>
<asrwt>0</asrwt>
<pdfrwt beam="1">  1       13 0.10000000E+01 0.63900687E+02</pdfrwt>
<pdfrwt beam="2">  1       22 0.27404747E+00 0.63900687E+02</pdfrwt>
<totfact> 0.25000938E-01</totfact>
</mgrwt>
</event>
<event>
 4    1  0.2489496E+000  0.5120728E+02  0.7957747E-01  0.1438937E+00
         13   -1    0    0    0    0  0.00000000000E+00  0.00000000000E+00  0.99999944172E+02  0.99999999992E+02  0.10566000000E+00 0. -1.
         22   -1    0    0    0    0 -0.00000000000E+00 -0.00000000000E+00 -0.23136853310E+02  0.23136853310E+02  0.00000000000E+00 0.  1.
         13    1    1    2    0    0 -0.44176161102E+01 -0.10132617467E+02 -0.14601178462E+02  0.18313679186E+02  0.10566000000E+00 0.  1.
        996    1    1    2    0    0  0.44176161102E+01  0.10132617467E+02  0.91464269324E+02  0.10482317412E+03  0.50000000000E+02 0.  0.
<mgrwt>
<rscale>  0 0.51207277E+02</rscale>
<asrwt>0</asrwt>
<pdfrwt beam="1">  1       13 0.10000000E+01 0.51207277E+02</pdfrwt>
<pdfrwt beam="2">  1       22 0.23136875E+00 0.51207277E+02</pdfrwt>
<totfact> 0.34262614E-01</totfact>
</mgrwt>
</event>
<event>
 4    1  0.2489496E+000  0.5190581E+02  0.7957747E-01  0.1435325E+00
         13   -1    0    0    0    0  0.00000000000E+00  0.00000000000E+00  0.99999944176E+02  0.99999999996E+02  0.10566000000E+00 0.  1.
         22   -1    0    0    0    0 -0.00000000000E+00 -0.00000000000E+00 -0.10838442999E+02  0.10838442999E+02  0.00000000000E+00 0.  1.
         13    1    1    2    0    0 -0.56196038603E+01 -0.12752779216E+02  0.18578112528E+02  0.23224356922E+02  0.10566000000E+00 0. -1.
        996    1    1    2    0    0  0.56196038603E+01  0.12752779216E+02  0.70583388649E+02  0.87614086074E+02  0.50000000000E+02 0.  0.
<mgrwt>
<rscale>  0 0.51905812E+02</rscale>
<asrwt>0</asrwt>
<pdfrwt beam="1">  1       13 0.10000000E+01 0.51905812E+02</pdfrwt>
<pdfrwt beam="2">  1       22 0.10838468E+00 0.51905812E+02</pdfrwt>
<totfact> 0.12526744E+00</totfact>
</mgrwt>
</event>
<event>
 4    1  0.2489496E+000  0.5152485E+02  0.7957747E-01  0.1437286E+00
         13   -1    0    0    0    0  0.00000000000E+00  0.00000000000E+00  0.99999944179E+02  0.99999999999E+02  0.10566000000E+00 0. -1.
         22   -1    0    0    0    0 -0.00000000000E+00 -0.00000000000E+00 -0.19188227183E+02  0.19188227183E+02  0.00000000000E+00 0.  1.
         13    1    1    2    0    0  0.86239452096E+01  0.89687188335E+01 -0.91987094604E+01  0.15473776794E+02  0.10566000000E+00 0.  1.
        996    1    1    2    0    0 -0.86239452096E+01 -0.89687188335E+01  0.90010426457E+02  0.10371445039E+03  0.50000000000E+02 0.  0.
<mgrwt>
<rscale>  0 0.51524852E+02</rscale>
<asrwt>0</asrwt>
<pdfrwt beam="1">  1       13 0.10000000E+01 0.51524852E+02</pdfrwt>
<pdfrwt beam="2">  1       22 0.19188250E+00 0.51524852E+02</pdfrwt>
<totfact> 0.48877945E-01</totfact>
</mgrwt>
</event>
<event>
 4    1  0.2489496E+000  0.6954367E+02  0.7957747E-01  0.1361652E+00
         13   -1    0    0    0    0  0.00000000000E+00  0.00000000000E+00  0.99999944179E+02  0.99999999999E+02  0.10566000000E+00 0. -1.
         22   -1    0    0    0    0 -0.00000000000E+00 -0.00000000000E+00 -0.35640459593E+02  0.35640459593E+02  0.00000000000E+00 0.  1.
         13    1    1    2    0    0  0.10459782270E+02  0.47190195903E+02  0.15920990045E+02  0.50890182968E+02  0.10566000000E+00 0.  1.
        996    1    1    2    0    0 -0.10459782270E+02 -0.47190195903E+02  0.48438494541E+02  0.84750276624E+02  0.50000000000E+02 0.  0.
<mgrwt>
<rscale>  0 0.69543667E+02</rscale>
<asrwt>0</asrwt>
<pdfrwt beam="1">  1       13 0.10000000E+01 0.69543667E+02</pdfrwt>
<pdfrwt beam="2">  1       22 0.35640478E+00 0.69543667E+02</pdfrwt>
<totfact> 0.15456415E-01</totfact>
</mgrwt>
</event>
<event>
 4    1  0.2489496E+000  0.5118845E+02  0.7957747E-01  0.1439035E+00
         13   -1    0    0    0    0  0.00000000000E+00  0.00000000000E+00  0.99999944168E+02  0.99999999989E+02  0.10566000000E+00 0. -1.
         22   -1    0    0    0    0 -0.00000000000E+00 -0.00000000000E+00 -0.19353253167E+02  0.19353253167E+02  0.00000000000E+00 0.  1.
         13    1    1    2    0    0  0.38021232087E+00 -0.10959622162E+02 -0.10264889944E+02  0.15021218624E+02  0.10566000000E+00 0.  1.
        996    1    1    2    0    0 -0.38021232087E+00  0.10959622162E+02  0.90911580946E+02  0.10433203453E+03  0.50000000000E+02 0.  0.
<mgrwt>
<rscale>  0 0.51188455E+02</rscale>
<asrwt>0</asrwt>
<pdfrwt beam="1">  1       13 0.10000000E+01 0.51188455E+02</pdfrwt>
<pdfrwt beam="2">  1       22 0.19353276E+00 0.51188455E+02</pdfrwt>
<totfact> 0.48083884E-01</totfact>
</mgrwt>
</event>
<event>
 4    1  0.2489496E+000  0.5238566E+02  0.7957747E-01  0.1432883E+00
         13   -1    0    0    0    0  0.00000000000E+00  0.00000000000E+00  0.99999944181E+02  0.10000000000E+03  0.10566000000E+00 0.  1.
         22   -1    0    0    0    0 -0.00000000000E+00 -0.00000000000E+00 -0.13569835178E+02  0.13569835178E+02  0.00000000000E+00 0. -1.
         13    1    1    2    0    0 -0.74560693623E+01 -0.13735524191E+02  0.43950347949E+01  0.16235303816E+02  0.10566000000E+00 0. -1.
        996    1    1    2    0    0  0.74560693623E+01  0.13735524191E+02  0.82035074209E+02  0.97334531363E+02  0.50000000000E+02 0.  0.
<mgrwt>
<rscale>  0 0.52385662E+02</rscale>
<asrwt>0</asrwt>
<pdfrwt beam="1">  1       13 0.10000000E+01 0.52385662E+02</pdfrwt>
<pdfrwt beam="2">  1       22 0.13569859E+00 0.52385662E+02</pdfrwt>
<totfact> 0.88747612E-01</totfact>
</mgrwt>
</event>
<event>
 4    1  0.2489496E+000  0.5236579E+02  0.7957747E-01  0.1432983E+00
         13   -1    0    0    0    0  0.00000000000E+00  0.00000000000E+00  0.99999944175E+02  0.99999999995E+02  0.10566000000E+00 0.  1.
         22   -1    0    0    0    0 -0.00000000000E+00 -0.00000000000E+00 -0.21446122402E+02  0.21446122402E+02  0.00000000000E+00 0. -1.
         13    1    1    2    0    0  0.38911752910E+01 -0.15067668871E+02 -0.10049539331E+02  0.18525126049E+02  0.10566000000E+00 0. -1.
        996    1    1    2    0    0 -0.38911752910E+01  0.15067668871E+02  0.88603361104E+02  0.10292099635E+03  0.50000000000E+02 0.  0.
<mgrwt>
<rscale>  0 0.52365789E+02</rscale>
<asrwt>0</asrwt>
<pdfrwt beam="1">  1       13 0.10000000E+01 0.52365789E+02</pdfrwt>
<pdfrwt beam="2">  1       22 0.21446144E+00 0.52365789E+02</pdfrwt>
<totfact> 0.39739373E-01</totfact>
</mgrwt>
</event>
<event>
 4    1  0.2489496E+000  0.7887409E+02  0.7957747E-01  0.1332277E+00
         13   -1    0    0    0    0  0.00000000000E+00  0.00000000000E+00  0.99999944179E+02  0.99999999999E+02  0.10566000000E+00 0.  1.
         22   -1    0    0    0    0 -0.00000000000E+00 -0.00000000000E+00 -0.48917987273E+02  0.48917987273E+02  0.00000000000E+00 0. -1.
         13    1    1    2    0    0 -0.60896131309E+02  0.35753313442E+01  0.21506331983E+02  0.64681181823E+02  0.10566000000E+00 0. -1.
        996    1    1    2    0    0  0.60896131309E+02 -0.35753313442E+01  0.29575624924E+02  0.84236805449E+02  0.50000000000E+02 0.  0.
<mgrwt>
<rscale>  0 0.78874088E+02</rscale>
<asrwt>0</asrwt>
<pdfrwt beam="1">  1       13 0.10000000E+01 0.78874088E+02</pdfrwt>
<pdfrwt beam="2">  1       22 0.48918002E+00 0.78874088E+02</pdfrwt>
<totfact> 0.78985193E-02</totfact>
</mgrwt>
</event>
<event>
 4    1  0.2489496E+000  0.5187056E+02  0.7957747E-01  0.1435506E+00
         13   -1    0    0    0    0  0.00000000000E+00  0.00000000000E+00  0.99999944176E+02  0.99999999996E+02  0.10566000000E+00 0.  1.
         22   -1    0    0    0    0 -0.00000000000E+00 -0.00000000000E+00 -0.11012565133E+02  0.11012565133E+02  0.00000000000E+00 0.  1.
         13    1    1    2    0    0 -0.47217013842E+01 -0.12971513431E+02  0.12677662615E+02  0.18742703062E+02  0.10566000000E+00 0. -1.
        996    1    1    2    0    0  0.47217013842E+01  0.12971513431E+02  0.76309716427E+02  0.92269862067E+02  0.50000000000E+02 0.  0.
<mgrwt>
<rscale>  0 0.51870556E+02</rscale>
<asrwt>0</asrwt>
<pdfrwt beam="1">  1       13 0.10000000E+01 0.51870556E+02</pdfrwt>
<pdfrwt beam="2">  1       22 0.11012590E+00 0.51870556E+02</pdfrwt>
<totfact> 0.12232773E+00</totfact>
</mgrwt>
</event>
<event>
 4    1  0.2489496E+000  0.5243773E+02  0.7957747E-01  0.1432620E+00
         13   -1    0    0    0    0  0.00000000000E+00  0.00000000000E+00  0.99999944178E+02  0.99999999998E+02  0.10566000000E+00 0. -1.
         22   -1    0    0    0    0 -0.00000000000E+00 -0.00000000000E+00 -0.21331649378E+02  0.21331649378E+02  0.00000000000E+00 0.  1.
         13    1    1    2    0    0  0.12177777042E+02 -0.10070637248E+02 -0.97245339124E+01  0.18555153250E+02  0.10566000000E+00 0.  1.
        996    1    1    2    0    0 -0.12177777042E+02  0.10070637248E+02  0.88392828712E+02  0.10277649613E+03  0.50000000000E+02 0.  0.
<mgrwt>
<rscale>  0 0.52437734E+02</rscale>
<asrwt>0</asrwt>
<pdfrwt beam="1">  1       13 0.10000000E+01 0.52437734E+02</pdfrwt>
<pdfrwt beam="2">  1       22 0.21331671E+00 0.52437734E+02</pdfrwt>
<totfact> 0.40152092E-01</totfact>
</mgrwt>
</event>
<event>
 4    1  0.2489496E+000  0.5141413E+02  0.7957747E-01  0.1437860E+00
         13   -1    0    0    0    0  0.00000000000E+00  0.00000000000E+00  0.99999944171E+02  0.99999999991E+02  0.10566000000E+00 0.  1.
         22   -1    0    0    0    0 -0.00000000000E+00 -0.00000000000E+00 -0.10431886641E+02  0.10431886641E+02  0.00000000000E+00 0.  1.
         13    1    1    2    0    0 -0.11728939583E+02  0.24175080748E+01  0.95393148197E+01  0.15310847799E+02  0.10566000000E+00 0. -1.
        996    1    1    2    0    0  0.11728939583E+02 -0.24175080748E+01  0.80028742710E+02  0.95121038834E+02  0.50000000000E+02 0.  0.
<mgrwt>
<rscale>  0 0.51414126E+02</rscale>
<asrwt>0</asrwt>
<pdfrwt beam="1">  1       13 0.10000000E+01 0.51414126E+02</pdfrwt>
<pdfrwt beam="2">  1       22 0.10431912E+00 0.51414126E+02</pdfrwt>
<totfact> 0.13237139E+00</totfact>
</mgrwt>
</event>
<event>
 4    1  0.2489496E+000  0.5157182E+02  0.7957747E-01  0.1437043E+00
         13   -1    0    0    0    0  0.00000000000E+00  0.00000000000E+00  0.99999944185E+02  0.10000000001E+03  0.10566000000E+00 0.  1.
         22   -1    0    0    0    0 -0.00000000000E+00 -0.00000000000E+00 -0.10561786465E+02  0.10561786465E+02  0.00000000000E+00 0.  1.
         13    1    1    2    0    0  0.93293744242E+01 -0.85214414361E+01  0.11374934334E+02  0.17001543649E+02  0.10566000000E+00 0. -1.
        996    1    1    2    0    0 -0.93293744242E+01  0.85214414361E+01  0.78063223387E+02  0.93560242821E+02  0.50000000000E+02 0.  0.
<mgrwt>
<rscale>  0 0.51571816E+02</rscale>
<asrwt>0</asrwt>
<pdfrwt beam="1">  1       13 0.10000000E+01 0.51571816E+02</pdfrwt>
<pdfrwt beam="2">  1       22 0.10561811E+00 0.51571816E+02</pdfrwt>
<totfact> 0.13003779E+00</totfact>
</mgrwt>
</event>
<event>
 4    1  0.2489496E+000  0.5218639E+02  0.7957747E-01  0.1433893E+00
         13   -1    0    0    0    0  0.00000000000E+00  0.00000000000E+00  0.99999944183E+02  0.10000000000E+03  0.10566000000E+00 0.  1.
         22   -1    0    0    0    0 -0.00000000000E+00 -0.00000000000E+00 -0.11298987134E+02  0.11298987134E+02  0.00000000000E+00 0.  1.
         13    1    1    2    0    0  0.14946605887E+02  0.13415078868E+00  0.22268051416E+02  0.26819699884E+02  0.10566000000E+00 0. -1.
        996    1    1    2    0    0 -0.14946605887E+02 -0.13415078868E+00  0.66432905634E+02  0.84479287254E+02  0.50000000000E+02 0.  0.
<mgrwt>
<rscale>  0 0.52186387E+02</rscale>
<asrwt>0</asrwt>
<pdfrwt beam="1">  1       13 0.10000000E+01 0.52186387E+02</pdfrwt>
<pdfrwt beam="2">  1       22 0.11299012E+00 0.52186387E+02</pdfrwt>
<totfact> 0.11780868E+00</totfact>
</mgrwt>
</event>
<event>
 4    1  0.2489496E+000  0.5225668E+02  0.7957747E-01  0.1433536E+00
         13   -1    0    0    0    0  0.00000000000E+00  0.00000000000E+00  0.99999944175E+02  0.99999999995E+02  0.10566000000E+00 0. -1.
         22   -1    0    0    0    0 -0.00000000000E+00 -0.00000000000E+00 -0.11385140663E+02  0.11385140663E+02  0.00000000000E+00 0. -1.
         13    1    1    2    0    0  0.29507062419E+01  0.14901476848E+02  0.21503732985E+02  0.26328356879E+02  0.10566000000E+00 0.  1.
        996    1    1    2    0    0 -0.29507062419E+01 -0.14901476848E+02  0.67111070527E+02  0.85056783779E+02  0.50000000000E+02 0.  0.
<mgrwt>
<rscale>  0 0.52256681E+02</rscale>
<asrwt>0</asrwt>
<pdfrwt beam="1">  1       13 0.10000000E+01 0.52256681E+02</pdfrwt>
<pdfrwt beam="2">  1       22 0.11385165E+00 0.52256681E+02</pdfrwt>
<totfact> 0.11649074E+00</totfact>
</mgrwt>
</event>
<event>
 4    1  0.2489496E+000  0.6118383E+02  0.7957747E-01  0.1392930E+00
         13   -1    0    0    0    0  0.00000000000E+00  0.00000000000E+00  0.99999944178E+02  0.99999999998E+02  0.10566000000E+00 0. -1.
         22   -1    0    0    0    0 -0.00000000000E+00 -0.00000000000E+00 -0.36893916339E+02  0.36893916339E+02  0.00000000000E+00 0.  1.
         13    1    1    2    0    0  0.31587175480E+02  0.15675167425E+02 -0.14450512691E+02  0.38108909846E+02  0.10566000000E+00 0.  1.
        996    1    1    2    0    0 -0.31587175480E+02 -0.15675167425E+02  0.77556540529E+02  0.98785006491E+02  0.50000000000E+02 0.  0.
<mgrwt>
<rscale>  0 0.61183826E+02</rscale>
<asrwt>0</asrwt>
<pdfrwt beam="1">  1       13 0.10000000E+01 0.61183826E+02</pdfrwt>
<pdfrwt beam="2">  1       22 0.36893934E+00 0.61183826E+02</pdfrwt>
<totfact> 0.14442717E-01</totfact>
</mgrwt>
</event>
<event>
 4    1  0.2489496E+000  0.5163325E+02  0.7957747E-01  0.1436726E+00
         13   -1    0    0    0    0  0.00000000000E+00  0.00000000000E+00  0.99999944175E+02  0.99999999996E+02  0.10566000000E+00 0.  1.
         22   -1    0    0    0    0 -0.00000000000E+00 -0.00000000000E+00 -0.10544360730E+02  0.10544360730E+02  0.00000000000E+00 0.  1.
         13    1    1    2    0    0  0.12213343950E+02  0.41020238073E+01  0.23292880926E+02  0.26618824836E+02  0.10566000000E+00 0. -1.
        996    1    1    2    0    0 -0.12213343950E+02 -0.41020238073E+01  0.66162702519E+02  0.83925535890E+02  0.50000000000E+02 0.  0.
<mgrwt>
<rscale>  0 0.51633249E+02</rscale>
<asrwt>0</asrwt>
<pdfrwt beam="1">  1       13 0.10000000E+01 0.51633249E+02</pdfrwt>
<pdfrwt beam="2">  1       22 0.10544386E+00 0.51633249E+02</pdfrwt>
<totfact> 0.13037273E+00</totfact>
</mgrwt>
</event>
<event>
 4    1  0.2489496E+000  0.5139881E+02  0.7957747E-01  0.1437940E+00
         13   -1    0    0    0    0  0.00000000000E+00  0.00000000000E+00  0.99999944177E+02  0.99999999998E+02  0.10566000000E+00 0.  1.
         22   -1    0    0    0    0 -0.00000000000E+00 -0.00000000000E+00 -0.10401701867E+02  0.10401701867E+02  0.00000000000E+00 0.  1.
         13    1    1    2    0    0 -0.99538596271E+01  0.65389515397E+01  0.95198370706E+01  0.15247152869E+02  0.10566000000E+00 0. -1.
        996    1    1    2    0    0  0.99538596271E+01 -0.65389515397E+01  0.80078405240E+02  0.95154548996E+02  0.50000000000E+02 0.  0.
<mgrwt>
<rscale>  0 0.51398806E+02</rscale>
<asrwt>0</asrwt>
<pdfrwt beam="1">  1       13 0.10000000E+01 0.51398806E+02</pdfrwt>
<pdfrwt beam="2">  1       22 0.10401727E+00 0.51398806E+02</pdfrwt>
<totfact> 0.13292939E+00</totfact>
</mgrwt>
</event>
<event>
 4    1  0.2489496E+000  0.5210931E+02  0.7957747E-01  0.1434286E+00
         13   -1    0    0    0    0  0.00000000000E+00  0.00000000000E+00  0.99999944173E+02  0.99999999993E+02  0.10566000000E+00 0. -1.
         22   -1    0    0    0    0 -0.00000000000E+00 -0.00000000000E+00 -0.59624092182E+02  0.59624092182E+02  0.00000000000E+00 0.  1.
         13    1    1    2    0    0 -0.14521604453E+02 -0.21221533752E+01 -0.51745165254E+02  0.53786186163E+02  0.10566000000E+00 0.  1.
        996    1    1    2    0    0  0.14521604453E+02  0.21221533752E+01  0.92121017244E+02  0.10583790601E+03  0.50000000000E+02 0.  0.
<mgrwt>
<rscale>  0 0.52109313E+02</rscale>
<asrwt>0</asrwt>
<pdfrwt beam="1">  1       13 0.10000000E+01 0.52109313E+02</pdfrwt>
<pdfrwt beam="2">  1       22 0.59624103E+00 0.52109313E+02</pdfrwt>
<totfact> 0.62299553E-02</totfact>
</mgrwt>
</event>
<event>
 4    1  0.2489496E+000  0.5401994E+02  0.7957747E-01  0.1424791E+00
         13   -1    0    0    0    0  0.00000000000E+00  0.00000000000E+00  0.99999944182E+02  0.10000000000E+03  0.10566000000E+00 0.  1.
         22   -1    0    0    0    0 -0.00000000000E+00 -0.00000000000E+00 -0.14135362208E+02  0.14135362208E+02  0.00000000000E+00 0.  1.
         13    1    1    2    0    0  0.51825402263E+01  0.19781177889E+02  0.16875346838E+02  0.26513057477E+02  0.10566000000E+00 0. -1.
        996    1    1    2    0    0 -0.51825402263E+01 -0.19781177889E+02  0.68989235137E+02  0.87622304732E+02  0.50000000000E+02 0.  0.
<mgrwt>
<rscale>  0 0.54019938E+02</rscale>
<asrwt>0</asrwt>
<pdfrwt beam="1">  1       13 0.10000000E+01 0.54019938E+02</pdfrwt>
<pdfrwt beam="2">  1       22 0.14135386E+00 0.54019938E+02</pdfrwt>
<totfact> 0.83365022E-01</totfact>
</mgrwt>
</event>
<event>
 4    1  0.2489496E+000  0.5109364E+02  0.7957747E-01  0.1439530E+00
         13   -1    0    0    0    0  0.00000000000E+00  0.00000000000E+00  0.99999944174E+02  0.99999999994E+02  0.10566000000E+00 0. -1.
         22   -1    0    0    0    0 -0.00000000000E+00 -0.00000000000E+00 -0.12428114970E+02  0.12428114970E+02  0.00000000000E+00 0. -1.
         13    1    1    2    0    0  0.61876050005E+01 -0.85013833497E+01 -0.58886413383E+00  0.10531756715E+02  0.10566000000E+00 0.  1.
        996    1    1    2    0    0 -0.61876050005E+01  0.85013833497E+01  0.88160693338E+02  0.10189635825E+03  0.50000000000E+02 0.  0.
<mgrwt>
<rscale>  0 0.51093639E+02</rscale>
<asrwt>0</asrwt>
<pdfrwt beam="1">  1       13 0.10000000E+01 0.51093639E+02</pdfrwt>
<pdfrwt beam="2">  1       22 0.12428139E+00 0.51093639E+02</pdfrwt>
<totfact> 0.10163584E+00</totfact>
</mgrwt>
</event>
<event>
 4    1  0.2489496E+000  0.5376998E+02  0.7957747E-01  0.1426007E+00
         13   -1    0    0    0    0  0.00000000000E+00  0.00000000000E+00  0.99999944178E+02  0.99999999999E+02  0.10566000000E+00 0.  1.
         22   -1    0    0    0    0 -0.00000000000E+00 -0.00000000000E+00 -0.19149190560E+02  0.19149190560E+02  0.00000000000E+00 0. -1.
         13    1    1    2    0    0  0.16851136379E+02 -0.10356163551E+02 -0.25237782642E+01  0.19939697629E+02  0.10566000000E+00 0. -1.
        996    1    1    2    0    0 -0.16851136379E+02  0.10356163551E+02  0.83374531883E+02  0.99209492930E+02  0.50000000000E+02 0.  0.
<mgrwt>
<rscale>  0 0.53769982E+02</rscale>
<asrwt>0</asrwt>
<pdfrwt beam="1">  1       13 0.10000000E+01 0.53769982E+02</pdfrwt>
<pdfrwt beam="2">  1       22 0.19149213E+00 0.53769982E+02</pdfrwt>
<totfact> 0.49260958E-01</totfact>
</mgrwt>
</event>
<event>
 4    1  0.2489496E+000  0.5249982E+02  0.7957747E-01  0.1432306E+00
         13   -1    0    0    0    0  0.00000000000E+00  0.00000000000E+00  0.99999944190E+02  0.10000000001E+03  0.10566000000E+00 0. -1.
         22   -1    0    0    0    0 -0.00000000000E+00 -0.00000000000E+00 -0.59447575618E+02  0.59447575618E+02  0.00000000000E+00 0.  1.
         13    1    1    2    0    0 -0.15735941361E+02 -0.29344832138E+01 -0.51251004886E+02  0.53692715596E+02  0.10566000000E+00 0.  1.
        996    1    1    2    0    0  0.15735941361E+02  0.29344832138E+01  0.91803373458E+02  0.10575486003E+03  0.50000000000E+02 0.  0.
<mgrwt>
<rscale>  0 0.52499819E+02</rscale>
<asrwt>0</asrwt>
<pdfrwt beam="1">  1       13 0.10000000E+01 0.52499819E+02</pdfrwt>
<pdfrwt beam="2">  1       22 0.59447587E+00 0.52499819E+02</pdfrwt>
<totfact> 0.61733750E-02</totfact>
</mgrwt>
</event>
<event>
 4    1  0.2489496E+000  0.5406013E+02  0.7957747E-01  0.1424597E+00
         13   -1    0    0    0    0  0.00000000000E+00  0.00000000000E+00  0.99999944169E+02  0.99999999989E+02  0.10566000000E+00 0. -1.
         22   -1    0    0    0    0 -0.00000000000E+00 -0.00000000000E+00 -0.14030249200E+02  0.14030249200E+02  0.00000000000E+00 0. -1.
         13    1    1    2    0    0  0.52217990909E+01  0.19880416002E+02  0.19286254224E+02  0.28186324560E+02  0.10566000000E+00 0.  1.
        996    1    1    2    0    0 -0.52217990909E+01 -0.19880416002E+02  0.66683440745E+02  0.85843924630E+02  0.50000000000E+02 0.  0.
<mgrwt>
<rscale>  0 0.54060134E+02</rscale>
<asrwt>0</asrwt>
<pdfrwt beam="1">  1       13 0.10000000E+01 0.54060134E+02</pdfrwt>
<pdfrwt beam="2">  1       22 0.14030273E+00 0.54060134E+02</pdfrwt>
<totfact> 0.84389766E-01</totfact>
</mgrwt>
</event>
<event>
 4    1  0.2489496E+000  0.5200769E+02  0.7957747E-01  0.1434804E+00
         13   -1    0    0    0    0  0.00000000000E+00  0.00000000000E+00  0.99999944180E+02  0.10000000000E+03  0.10566000000E+00 0. -1.
         22   -1    0    0    0    0 -0.00000000000E+00 -0.00000000000E+00 -0.11490042978E+02  0.11490042978E+02  0.00000000000E+00 0. -1.
         13    1    1    2    0    0 -0.13548550335E+02 -0.46082659330E+01  0.10569991811E+02  0.17791436761E+02  0.10566000000E+00 0.  1.
        996    1    1    2    0    0  0.13548550335E+02  0.46082659330E+01  0.77939909392E+02  0.93698606218E+02  0.50000000000E+02 0.  0.
<mgrwt>
<rscale>  0 0.52007685E+02</rscale>
<asrwt>0</asrwt>
<pdfrwt beam="1">  1       13 0.10000000E+01 0.52007685E+02</pdfrwt>
<pdfrwt beam="2">  1       22 0.11490068E+00 0.52007685E+02</pdfrwt>
<totfact> 0.11482781E+00</totfact>
</mgrwt>
</event>
<event>
 4    1  0.2489496E+000  0.5593365E+02  0.7957747E-01  0.1415735E+00
         13   -1    0    0    0    0  0.00000000000E+00  0.00000000000E+00  0.99999944178E+02  0.99999999999E+02  0.10566000000E+00 0. -1.
         22   -1    0    0    0    0 -0.00000000000E+00 -0.00000000000E+00 -0.22763945516E+02  0.22763945516E+02  0.00000000000E+00 0. -1.
         13    1    1    2    0    0  0.24984116699E+02  0.20896790941E+01  0.58714708625E+02  0.63843566778E+02  0.10566000000E+00 0.  1.
        996    1    1    2    0    0 -0.24984116699E+02 -0.20896790941E+01  0.18521290037E+02  0.58920378737E+02  0.50000000000E+02 0.  0.
<mgrwt>
<rscale>  0 0.55933647E+02</rscale>
<asrwt>0</asrwt>
<pdfrwt beam="1">  1       13 0.10000000E+01 0.55933647E+02</pdfrwt>
<pdfrwt beam="2">  1       22 0.22763967E+00 0.55933647E+02</pdfrwt>
<totfact> 0.35632863E-01</totfact>
</mgrwt>
</event>
<event>
 4    1  0.2489496E+000  0.5212838E+02  0.7957747E-01  0.1434188E+00
         13   -1    0    0    0    0  0.00000000000E+00  0.00000000000E+00  0.99999944177E+02  0.99999999997E+02  0.10566000000E+00 0.  1.
         22   -1    0    0    0    0 -0.00000000000E+00 -0.00000000000E+00 -0.17431620567E+02  0.17431620567E+02  0.00000000000E+00 0. -1.
         13    1    1    2    0    0  0.72287716025E+01 -0.12849628590E+02 -0.49605030753E+01  0.15555894335E+02  0.10566000000E+00 0. -1.
        996    1    1    2    0    0 -0.72287716025E+01  0.12849628590E+02  0.87528826685E+02  0.10187572623E+03  0.50000000000E+02 0.  0.
<mgrwt>
<rscale>  0 0.52128381E+02</rscale>
<asrwt>0</asrwt>
<pdfrwt beam="1">  1       13 0.10000000E+01 0.52128381E+02</pdfrwt>
<pdfrwt beam="2">  1       22 0.17431644E+00 0.52128381E+02</pdfrwt>
<totfact> 0.58186586E-01</totfact>
</mgrwt>
</event>
<event>
 4    1  0.2489496E+000  0.5540863E+02  0.7957747E-01  0.1418176E+00
         13   -1    0    0    0    0  0.00000000000E+00  0.00000000000E+00  0.99999944189E+02  0.10000000001E+03  0.10566000000E+00 0. -1.
         22   -1    0    0    0    0 -0.00000000000E+00 -0.00000000000E+00 -0.21912506661E+02  0.21912506661E+02  0.00000000000E+00 0.  1.
         13    1    1    2    0    0  0.68478403113E+01 -0.22874072460E+02 -0.26145761731E+01  0.24020059959E+02  0.10566000000E+00 0.  1.
        996    1    1    2    0    0 -0.68478403113E+01  0.22874072460E+02  0.80702013701E+02  0.97892446712E+02  0.50000000000E+02 0.  0.
<mgrwt>
<rscale>  0 0.55408628E+02</rscale>
<asrwt>0</asrwt>
<pdfrwt beam="1">  1       13 0.10000000E+01 0.55408628E+02</pdfrwt>
<pdfrwt beam="2">  1       22 0.21912528E+00 0.55408628E+02</pdfrwt>
<totfact> 0.38326987E-01</totfact>
</mgrwt>
</event>
<event>
 4    1  0.2489496E+000  0.5863322E+02  0.7957747E-01  0.1403659E+00
         13   -1    0    0    0    0  0.00000000000E+00  0.00000000000E+00  0.99999944170E+02  0.99999999990E+02  0.10566000000E+00 0. -1.
         22   -1    0    0    0    0 -0.00000000000E+00 -0.00000000000E+00 -0.46162359118E+02  0.46162359118E+02  0.00000000000E+00 0.  1.
         13    1    1    2    0    0 -0.25455843319E+02  0.17025103321E+02 -0.30646709618E+02  0.43325351430E+02  0.10566000000E+00 0.  1.
        996    1    1    2    0    0  0.25455843319E+02 -0.17025103321E+02  0.84484294670E+02  0.10283700768E+03  0.50000000000E+02 0.  0.
<mgrwt>
<rscale>  0 0.58633217E+02</rscale>
<asrwt>0</asrwt>
<pdfrwt beam="1">  1       13 0.10000000E+01 0.58633217E+02</pdfrwt>
<pdfrwt beam="2">  1       22 0.46162374E+00 0.58633217E+02</pdfrwt>
<totfact> 0.91198452E-02</totfact>
</mgrwt>
</event>
<event>
 4    1  0.2489496E+000  0.5250916E+02  0.7957747E-01  0.1432259E+00
         13   -1    0    0    0    0  0.00000000000E+00  0.00000000000E+00  0.99999944171E+02  0.99999999991E+02  0.10566000000E+00 0.  1.
         22   -1    0    0    0    0 -0.00000000000E+00 -0.00000000000E+00 -0.14003370139E+02  0.14003370139E+02  0.00000000000E+00 0.  1.
         13    1    1    2    0    0  0.10636941711E+02  0.12002785430E+02  0.38260565790E+01  0.16488215793E+02  0.10566000000E+00 0. -1.
        996    1    1    2    0    0 -0.10636941711E+02 -0.12002785430E+02  0.82170517453E+02  0.97515154338E+02  0.50000000000E+02 0.  0.
<mgrwt>
<rscale>  0 0.52509155E+02</rscale>
<asrwt>0</asrwt>
<pdfrwt beam="1">  1       13 0.10000000E+01 0.52509155E+02</pdfrwt>
<pdfrwt beam="2">  1       22 0.14003394E+00 0.52509155E+02</pdfrwt>
<totfact> 0.84384502E-01</totfact>
</mgrwt>
</event>
<event>
 4    1  0.2489496E+000  0.5899534E+02  0.7957747E-01  0.1402097E+00
         13   -1    0    0    0    0  0.00000000000E+00  0.00000000000E+00  0.99999944182E+02  0.10000000000E+03  0.10566000000E+00 0. -1.
         22   -1    0    0    0    0 -0.00000000000E+00 -0.00000000000E+00 -0.47778932784E+02  0.47778932784E+02  0.00000000000E+00 0.  1.
         13    1    1    2    0    0  0.31310214895E+02  0.34685497857E+00 -0.32117015723E+02  0.44854918661E+02  0.10566000000E+00 0.  1.
        996    1    1    2    0    0 -0.31310214895E+02 -0.34685497857E+00  0.84338027120E+02  0.10292401413E+03  0.50000000000E+02 0.  0.
<mgrwt>
<rscale>  0 0.58995338E+02</rscale>
<asrwt>0</asrwt>
<pdfrwt beam="1">  1       13 0.10000000E+01 0.58995338E+02</pdfrwt>
<pdfrwt beam="2">  1       22 0.47778947E+00 0.58995338E+02</pdfrwt>
<totfact> 0.83539714E-02</totfact>
</mgrwt>
</event>
<event>
 4    1  0.2489496E+000  0.5383052E+02  0.7957747E-01  0.1425712E+00
         13   -1    0    0    0    0  0.00000000000E+00  0.00000000000E+00  0.99999944178E+02  0.99999999999E+02  0.10566000000E+00 0.  1.
         22   -1    0    0    0    0 -0.00000000000E+00 -0.00000000000E+00 -0.16067101556E+02  0.16067101556E+02  0.00000000000E+00 0.  1.
         13    1    1    2    0    0 -0.19549184208E+02 -0.39438789334E+01  0.50595490366E+01  0.20575105947E+02  0.10566000000E+00 0. -1.
        996    1    1    2    0    0  0.19549184208E+02  0.39438789334E+01  0.78873293586E+02  0.95491995608E+02  0.50000000000E+02 0.  0.
<mgrwt>
<rscale>  0 0.53830519E+02</rscale>
<asrwt>0</asrwt>
<pdfrwt beam="1">  1       13 0.10000000E+01 0.53830519E+02</pdfrwt>
<pdfrwt beam="2">  1       22 0.16067125E+00 0.53830519E+02</pdfrwt>
<totfact> 0.67282537E-01</totfact>
</mgrwt>
</event>
<event>
 4    1  0.2489496E+000  0.9141605E+02  0.7957747E-01  0.1299458E+00
         13   -1    0    0    0    0  0.00000000000E+00  0.00000000000E+00  0.99999944167E+02  0.99999999987E+02  0.10566000000E+00 0.  1.
         22   -1    0    0    0    0 -0.00000000000E+00 -0.00000000000E+00 -0.79165870666E+02  0.79165870666E+02  0.00000000000E+00 0. -1.
         13    1    1    2    0    0  0.38258710705E+02  0.66280953711E+02  0.39104046611E+02  0.85942023452E+02  0.10566000000E+00 0. -1.
        996    1    1    2    0    0 -0.38258710705E+02 -0.66280953711E+02 -0.18269973110E+02  0.93223847201E+02  0.50000000000E+02 0.  0.
<mgrwt>
<rscale>  0 0.91416048E+02</rscale>
<asrwt>0</asrwt>
<pdfrwt beam="1">  1       13 0.10000000E+01 0.91416048E+02</pdfrwt>
<pdfrwt beam="2">  1       22 0.79165877E+00 0.91416048E+02</pdfrwt>
<totfact> 0.33309188E-02</totfact>
</mgrwt>
</event>
<event>
 4    1  0.2489496E+000  0.5172779E+02  0.7957747E-01  0.1436239E+00
         13   -1    0    0    0    0  0.00000000000E+00  0.00000000000E+00  0.99999944180E+02  0.10000000000E+03  0.10566000000E+00 0. -1.
         22   -1    0    0    0    0 -0.00000000000E+00 -0.00000000000E+00 -0.13495386033E+02  0.13495386033E+02  0.00000000000E+00 0.  1.
         13    1    1    2    0    0 -0.12113395989E+02  0.53879281275E+01  0.66504278281E+00  0.13274696902E+02  0.10566000000E+00 0.  1.
        996    1    1    2    0    0  0.12113395989E+02 -0.53879281275E+01  0.85839515365E+02  0.10022068913E+03  0.50000000000E+02 0.  0.
<mgrwt>
<rscale>  0 0.51727789E+02</rscale>
<asrwt>0</asrwt>
<pdfrwt beam="1">  1       13 0.10000000E+01 0.51727789E+02</pdfrwt>
<pdfrwt beam="2">  1       22 0.13495410E+00 0.51727789E+02</pdfrwt>
<totfact> 0.89406461E-01</totfact>
</mgrwt>
</event>
<event>
 4    1  0.2489496E+000  0.5296745E+02  0.7957747E-01  0.1429963E+00
         13   -1    0    0    0    0  0.00000000000E+00  0.00000000000E+00  0.99999944173E+02  0.99999999993E+02  0.10566000000E+00 0. -1.
         22   -1    0    0    0    0 -0.00000000000E+00 -0.00000000000E+00 -0.13828411102E+02  0.13828411102E+02  0.00000000000E+00 0.  1.
         13    1    1    2    0    0 -0.17473822800E+02  0.46457244407E+00  0.75776295667E+01  0.19052085049E+02  0.10566000000E+00 0.  1.
        996    1    1    2    0    0  0.17473822800E+02 -0.46457244407E+00  0.78593903504E+02  0.94776326046E+02  0.50000000000E+02 0.  0.
<mgrwt>
<rscale>  0 0.52967446E+02</rscale>
<asrwt>0</asrwt>
<pdfrwt beam="1">  1       13 0.10000000E+01 0.52967446E+02</pdfrwt>
<pdfrwt beam="2">  1       22 0.13828435E+00 0.52967446E+02</pdfrwt>
<totfact> 0.86200100E-01</totfact>
</mgrwt>
</event>
<event>
 4    1  0.2489496E+000  0.5134914E+02  0.7957747E-01  0.1438198E+00
         13   -1    0    0    0    0  0.00000000000E+00  0.00000000000E+00  0.99999944179E+02  0.99999999999E+02  0.10566000000E+00 0. -1.
         22   -1    0    0    0    0 -0.00000000000E+00 -0.00000000000E+00 -0.11302053741E+02  0.11302053741E+02  0.00000000000E+00 0. -1.
         13    1    1    2    0    0  0.39957775166E-01  0.11693275746E+02  0.41999460543E+01  0.12425176264E+02  0.10566000000E+00 0.  1.
        996    1    1    2    0    0 -0.39957775166E-01 -0.11693275746E+02  0.84497944384E+02  0.98876877476E+02  0.50000000000E+02 0.  0.
<mgrwt>
<rscale>  0 0.51349141E+02</rscale>
<asrwt>0</asrwt>
<pdfrwt beam="1">  1       13 0.10000000E+01 0.51349141E+02</pdfrwt>
<pdfrwt beam="2">  1       22 0.11302079E+00 0.51349141E+02</pdfrwt>
<totfact> 0.11753437E+00</totfact>
</mgrwt>
</event>
<event>
 4    1  0.2489496E+000  0.5120284E+02  0.7957747E-01  0.1438960E+00
         13   -1    0    0    0    0  0.00000000000E+00  0.00000000000E+00  0.99999944179E+02  0.10000000000E+03  0.10566000000E+00 0. -1.
         22   -1    0    0    0    0 -0.00000000000E+00 -0.00000000000E+00 -0.13564962659E+02  0.13564962659E+02  0.00000000000E+00 0.  1.
         13    1    1    2    0    0  0.79875879718E+01  0.76111506196E+01 -0.21551760351E+01  0.11242202771E+02  0.10566000000E+00 0.  1.
        996    1    1    2    0    0 -0.79875879718E+01 -0.76111506196E+01  0.88590157555E+02  0.10232275989E+03  0.50000000000E+02 0.  0.
<mgrwt>
<rscale>  0 0.51202843E+02</rscale>
<asrwt>0</asrwt>
<pdfrwt beam="1">  1       13 0.10000000E+01 0.51202843E+02</pdfrwt>
<pdfrwt beam="2">  1       22 0.13564987E+00 0.51202843E+02</pdfrwt>
<totfact> 0.88574360E-01</totfact>
</mgrwt>
</event>
<event>
 4    1  0.2489496E+000  0.5330513E+02  0.7957747E-01  0.1428288E+00
         13   -1    0    0    0    0  0.00000000000E+00  0.00000000000E+00  0.99999944181E+02  0.10000000000E+03  0.10566000000E+00 0.  1.
         22   -1    0    0    0    0 -0.00000000000E+00 -0.00000000000E+00 -0.16371142704E+02  0.16371142704E+02  0.00000000000E+00 0.  1.
         13    1    1    2    0    0 -0.17405286072E+02  0.62042421208E+01  0.16046572183E+01  0.18547848726E+02  0.10566000000E+00 0. -1.
        996    1    1    2    0    0  0.17405286072E+02 -0.62042421208E+01  0.82024144258E+02  0.97823293979E+02  0.50000000000E+02 0.  0.
<mgrwt>
<rscale>  0 0.53305127E+02</rscale>
<asrwt>0</asrwt>
<pdfrwt beam="1">  1       13 0.10000000E+01 0.53305127E+02</pdfrwt>
<pdfrwt beam="2">  1       22 0.16371166E+00 0.53305127E+02</pdfrwt>
<totfact> 0.65081783E-01</totfact>
</mgrwt>
</event>
<event>
 4    1  0.2489496E+000  0.5949480E+02  0.7957747E-01  0.1399964E+00
         13   -1    0    0    0    0  0.00000000000E+00  0.00000000000E+00  0.99999944182E+02  0.10000000000E+03  0.10566000000E+00 0.  1.
         22   -1    0    0    0    0 -0.00000000000E+00 -0.00000000000E+00 -0.47982147628E+02  0.47982147628E+02  0.00000000000E+00 0. -1.
         13    1    1    2    0    0  0.15658271195E+02 -0.28185980953E+02 -0.31740043344E+02  0.45244585251E+02  0.10566000000E+00 0. -1.
        996    1    1    2    0    0 -0.15658271195E+02  0.28185980953E+02  0.83757839898E+02  0.10273756238E+03  0.50000000000E+02 0.  0.
<mgrwt>
<rscale>  0 0.59494798E+02</rscale>
<asrwt>0</asrwt>
<pdfrwt beam="1">  1       13 0.10000000E+01 0.59494798E+02</pdfrwt>
<pdfrwt beam="2">  1       22 0.47982162E+00 0.59494798E+02</pdfrwt>
<totfact> 0.82626807E-02</totfact>
</mgrwt>
</event>
<event>
 4    1  0.2489496E+000  0.6673445E+02  0.7957747E-01  0.1371563E+00
         13   -1    0    0    0    0  0.00000000000E+00  0.00000000000E+00  0.99999944189E+02  0.10000000001E+03  0.10566000000E+00 0.  1.
         22   -1    0    0    0    0 -0.00000000000E+00 -0.00000000000E+00 -0.61834340254E+02  0.61834340254E+02  0.00000000000E+00 0. -1.
         13    1    1    2    0    0 -0.51686890021E+01  0.43895002203E+02 -0.39611579203E+02  0.59351284193E+02  0.10566000000E+00 0. -1.
        996    1    1    2    0    0  0.51686890021E+01 -0.43895002203E+02  0.77777183139E+02  0.10248305607E+03  0.50000000000E+02 0.  0.
<mgrwt>
<rscale>  0 0.66734448E+02</rscale>
<asrwt>0</asrwt>
<pdfrwt beam="1">  1       13 0.10000000E+01 0.66734448E+02</pdfrwt>
<pdfrwt beam="2">  1       22 0.61834351E+00 0.66734448E+02</pdfrwt>
<totfact> 0.72008768E-02</totfact>
</mgrwt>
</event>
<event>
 4    1  0.2489496E+000  0.5377654E+02  0.7957747E-01  0.1425975E+00
         13   -1    0    0    0    0  0.00000000000E+00  0.00000000000E+00  0.99999944174E+02  0.99999999994E+02  0.10566000000E+00 0.  1.
         22   -1    0    0    0    0 -0.00000000000E+00 -0.00000000000E+00 -0.17823398195E+02  0.17823398195E+02  0.00000000000E+00 0. -1.
         13    1    1    2    0    0 -0.23099486507E+01  0.19661649743E+02  0.21930630626E+00  0.19798373486E+02  0.10566000000E+00 0. -1.
        996    1    1    2    0    0  0.23099486507E+01 -0.19661649743E+02  0.81957239672E+02  0.98025024703E+02  0.50000000000E+02 0.  0.
<mgrwt>
<rscale>  0 0.53776541E+02</rscale>
<asrwt>0</asrwt>
<pdfrwt beam="1">  1       13 0.10000000E+01 0.53776541E+02</pdfrwt>
<pdfrwt beam="2">  1       22 0.17823421E+00 0.53776541E+02</pdfrwt>
<totfact> 0.56103683E-01</totfact>
</mgrwt>
</event>
<event>
 4    1  0.2489496E+000  0.6290269E+02  0.7957747E-01  0.1386039E+00
         13   -1    0    0    0    0  0.00000000000E+00  0.00000000000E+00  0.99999944184E+02  0.10000000000E+03  0.10566000000E+00 0. -1.
         22   -1    0    0    0    0 -0.00000000000E+00 -0.00000000000E+00 -0.43543406905E+02  0.43543406905E+02  0.00000000000E+00 0.  1.
         13    1    1    2    0    0  0.47150383945E+01 -0.37875008512E+02 -0.21157977214E+02  0.43639649639E+02  0.10566000000E+00 0.  1.
        996    1    1    2    0    0 -0.47150383945E+01  0.37875008512E+02  0.77614514492E+02  0.99903757270E+02  0.50000000000E+02 0.  0.
<mgrwt>
<rscale>  0 0.62902686E+02</rscale>
<asrwt>0</asrwt>
<pdfrwt beam="1">  1       13 0.10000000E+01 0.62902686E+02</pdfrwt>
<pdfrwt beam="2">  1       22 0.43543423E+00 0.62902686E+02</pdfrwt>
<totfact> 0.10475560E-01</totfact>
</mgrwt>
</event>
<event>
 4    1  0.2489496E+000  0.5156020E+02  0.7957747E-01  0.1437103E+00
         13   -1    0    0    0    0  0.00000000000E+00  0.00000000000E+00  0.99999944177E+02  0.99999999997E+02  0.10566000000E+00 0.  1.
         22   -1    0    0    0    0 -0.00000000000E+00 -0.00000000000E+00 -0.13154921043E+02  0.13154921043E+02  0.00000000000E+00 0. -1.
         13    1    1    2    0    0 -0.12343188659E+02  0.24698721242E+01  0.51380562703E+00  0.12598798944E+02  0.10566000000E+00 0. -1.
        996    1    1    2    0    0  0.12343188659E+02 -0.24698721242E+01  0.86331217507E+02  0.10055612210E+03  0.50000000000E+02 0.  0.
<mgrwt>
<rscale>  0 0.51560203E+02</rscale>
<asrwt>0</asrwt>
<pdfrwt beam="1">  1       13 0.10000000E+01 0.51560203E+02</pdfrwt>
<pdfrwt beam="2">  1       22 0.13154945E+00 0.51560203E+02</pdfrwt>
<totfact> 0.93078749E-01</totfact>
</mgrwt>
</event>
<event>
 4    1  0.2489496E+000  0.8214070E+02  0.7957747E-01  0.1323084E+00
         13   -1    0    0    0    0  0.00000000000E+00  0.00000000000E+00  0.99999944183E+02  0.10000000000E+03  0.10566000000E+00 0.  1.
         22   -1    0    0    0    0 -0.00000000000E+00 -0.00000000000E+00 -0.69808676491E+02  0.69808676491E+02  0.00000000000E+00 0. -1.
         13    1    1    2    0    0  0.52809041703E+02  0.38187684375E+02 -0.26130511860E+02  0.70213310260E+02  0.10566000000E+00 0. -1.
        996    1    1    2    0    0 -0.52809041703E+02 -0.38187684375E+02  0.56321779552E+02  0.99595366234E+02  0.50000000000E+02 0.  0.
<mgrwt>
<rscale>  0 0.82140697E+02</rscale>
<asrwt>0</asrwt>
<pdfrwt beam="1">  1       13 0.10000000E+01 0.82140697E+02</pdfrwt>
<pdfrwt beam="2">  1       22 0.69808685E+00 0.82140697E+02</pdfrwt>
<totfact> 0.75586068E-02</totfact>
</mgrwt>
</event>
<event>
 4    1  0.2489496E+000  0.5279838E+02  0.7957747E-01  0.1430807E+00
         13   -1    0    0    0    0  0.00000000000E+00  0.00000000000E+00  0.99999944176E+02  0.99999999996E+02  0.10566000000E+00 0.  1.
         22   -1    0    0    0    0 -0.00000000000E+00 -0.00000000000E+00 -0.34699421009E+02  0.34699421009E+02  0.00000000000E+00 0. -1.
         13    1    1    2    0    0  0.16938559176E+02 -0.86854284294E+00 -0.24932266235E+02  0.30154572079E+02  0.10566000000E+00 0. -1.
        996    1    1    2    0    0 -0.16938559176E+02  0.86854284294E+00  0.90232789402E+02  0.10454484893E+03  0.50000000000E+02 0.  0.
<mgrwt>
<rscale>  0 0.52798382E+02</rscale>
<asrwt>0</asrwt>
<pdfrwt beam="1">  1       13 0.10000000E+01 0.52798382E+02</pdfrwt>
<pdfrwt beam="2">  1       22 0.34699439E+00 0.52798382E+02</pdfrwt>
<totfact> 0.15965699E-01</totfact>
</mgrwt>
</event>
<event>
 4    1  0.2489496E+000  0.5202215E+02  0.7957747E-01  0.1434730E+00
         13   -1    0    0    0    0  0.00000000000E+00  0.00000000000E+00  0.99999944189E+02  0.10000000001E+03  0.10566000000E+00 0. -1.
         22   -1    0    0    0    0 -0.00000000000E+00 -0.00000000000E+00 -0.70749808540E+02  0.70749808540E+02  0.00000000000E+00 0.  1.
         13    1    1    2    0    0 -0.96007988633E+01 -0.10683087950E+02 -0.63122232350E+02  0.64735856276E+02  0.10566000000E+00 0.  1.
        996    1    1    2    0    0  0.96007988633E+01  0.10683087950E+02  0.92372367998E+02  0.10601395227E+03  0.50000000000E+02 0.  0.
<mgrwt>
<rscale>  0 0.52022146E+02</rscale>
<asrwt>0</asrwt>
<pdfrwt beam="1">  1       13 0.10000000E+01 0.52022146E+02</pdfrwt>
<pdfrwt beam="2">  1       22 0.70749817E+00 0.52022146E+02</pdfrwt>
<totfact> 0.70737739E-02</totfact>
</mgrwt>
</event>
<event>
 4    1  0.2489496E+000  0.6278424E+02  0.7957747E-01  0.1386506E+00
         13   -1    0    0    0    0  0.00000000000E+00  0.00000000000E+00  0.99999944185E+02  0.10000000001E+03  0.10566000000E+00 0.  1.
         22   -1    0    0    0    0 -0.00000000000E+00 -0.00000000000E+00 -0.51839993133E+02  0.51839993133E+02  0.00000000000E+00 0.  1.
         13    1    1    2    0    0  0.35877315464E+02 -0.12437013349E+02 -0.32252245458E+02  0.49820473372E+02  0.10566000000E+00 0. -1.
        996    1    1    2    0    0 -0.35877315464E+02  0.12437013349E+02  0.80412196509E+02  0.10201951977E+03  0.50000000000E+02 0.  0.
<mgrwt>
<rscale>  0 0.62784242E+02</rscale>
<asrwt>0</asrwt>
<pdfrwt beam="1">  1       13 0.10000000E+01 0.62784242E+02</pdfrwt>
<pdfrwt beam="2">  1       22 0.51840007E+00 0.62784242E+02</pdfrwt>
<totfact> 0.67084008E-02</totfact>
</mgrwt>
</event>
<event>
 4    1  0.2489496E+000  0.5127457E+02  0.7957747E-01  0.1438586E+00
         13   -1    0    0    0    0  0.00000000000E+00  0.00000000000E+00  0.99999944176E+02  0.99999999996E+02  0.10566000000E+00 0.  1.
         22   -1    0    0    0    0 -0.00000000000E+00 -0.00000000000E+00 -0.98151372849E+01  0.98151372849E+01  0.00000000000E+00 0.  1.
         13    1    1    2    0    0 -0.64748706969E+01 -0.93357953402E+01  0.15260575067E+02  0.19025702105E+02  0.10566000000E+00 0. -1.
        996    1    1    2    0    0  0.64748706969E+01  0.93357953402E+01  0.74924231824E+02  0.90789435176E+02  0.50000000000E+02 0.  0.
<mgrwt>
<rscale>  0 0.51274565E+02</rscale>
<asrwt>0</asrwt>
<pdfrwt beam="1">  1       13 0.10000000E+01 0.51274565E+02</pdfrwt>
<pdfrwt beam="2">  1       22 0.98151625E-01 0.51274565E+02</pdfrwt>
<totfact> 0.14457650E+00</totfact>
</mgrwt>
</event>
<event>
 4    1  0.2489496E+000  0.5234328E+02  0.7957747E-01  0.1433097E+00
         13   -1    0    0    0    0  0.00000000000E+00  0.00000000000E+00  0.99999944177E+02  0.99999999997E+02  0.10566000000E+00 0. -1.
         22   -1    0    0    0    0 -0.00000000000E+00 -0.00000000000E+00 -0.50186752762E+02  0.50186752762E+02  0.00000000000E+00 0.  1.
         13    1    1    2    0    0 -0.14961325687E+02 -0.39971965507E+01 -0.41854329186E+02  0.44627512615E+02  0.10566000000E+00 0.  1.
        996    1    1    2    0    0  0.14961325687E+02  0.39971965507E+01  0.91667520601E+02  0.10555924014E+03  0.50000000000E+02 0.  0.
<mgrwt>
<rscale>  0 0.52343279E+02</rscale>
<asrwt>0</asrwt>
<pdfrwt beam="1">  1       13 0.10000000E+01 0.52343279E+02</pdfrwt>
<pdfrwt beam="2">  1       22 0.50186767E+00 0.52343279E+02</pdfrwt>
<totfact> 0.72873840E-02</totfact>
</mgrwt>
</event>
<event>
 4    1  0.2489496E+000  0.5166141E+02  0.7957747E-01  0.1436581E+00
         13   -1    0    0    0    0  0.00000000000E+00  0.00000000000E+00  0.99999944178E+02  0.99999999998E+02  0.10566000000E+00 0. -1.
         22   -1    0    0    0    0 -0.00000000000E+00 -0.00000000000E+00 -0.20703195966E+02  0.20703195966E+02  0.00000000000E+00 0.  1.
         13    1    1    2    0    0  0.95574476727E+01  0.88065869563E+01 -0.10765258905E+02  0.16876099762E+02  0.10566000000E+00 0.  1.
        996    1    1    2    0    0 -0.95574476727E+01 -0.88065869563E+01  0.90062007117E+02  0.10382709620E+03  0.50000000000E+02 0.  0.
<mgrwt>
<rscale>  0 0.51661405E+02</rscale>
<asrwt>0</asrwt>
<pdfrwt beam="1">  1       13 0.10000000E+01 0.51661405E+02</pdfrwt>
<pdfrwt beam="2">  1       22 0.20703218E+00 0.51661405E+02</pdfrwt>
<totfact> 0.42437583E-01</totfact>
</mgrwt>
</event>
<event>
 4    1  0.2489496E+000  0.5123438E+02  0.7957747E-01  0.1438795E+00
         13   -1    0    0    0    0  0.00000000000E+00  0.00000000000E+00  0.99999944172E+02  0.99999999992E+02  0.10566000000E+00 0.  1.
         22   -1    0    0    0    0 -0.00000000000E+00 -0.00000000000E+00 -0.10253313212E+02  0.10253313212E+02  0.00000000000E+00 0.  1.
         13    1    1    2    0    0 -0.59840321019E+01 -0.94420995505E+01  0.78833022320E+01  0.13679163068E+02  0.10566000000E+00 0. -1.
        996    1    1    2    0    0  0.59840321019E+01  0.94420995505E+01  0.81863328728E+02  0.96574150136E+02  0.50000000000E+02 0.  0.
<mgrwt>
<rscale>  0 0.51234382E+02</rscale>
<asrwt>0</asrwt>
<pdfrwt beam="1">  1       13 0.10000000E+01 0.51234382E+02</pdfrwt>
<pdfrwt beam="2">  1       22 0.10253338E+00 0.51234382E+02</pdfrwt>
<totfact> 0.13569534E+00</totfact>
</mgrwt>
</event>
<event>
 4    1  0.2489496E+000  0.5585304E+02  0.7957747E-01  0.1416107E+00
         13   -1    0    0    0    0  0.00000000000E+00  0.00000000000E+00  0.99999944183E+02  0.10000000000E+03  0.10566000000E+00 0. -1.
         22   -1    0    0    0    0 -0.00000000000E+00 -0.00000000000E+00 -0.16684209958E+02  0.16684209958E+02  0.00000000000E+00 0. -1.
         13    1    1    2    0    0  0.24890693479E+02 -0.12496111954E+00  0.34255540735E+02  0.42344013416E+02  0.10566000000E+00 0.  1.
        996    1    1    2    0    0 -0.24890693479E+02  0.12496111954E+00  0.49060193490E+02  0.74340196545E+02  0.50000000000E+02 0.  0.
<mgrwt>
<rscale>  0 0.55853041E+02</rscale>
<asrwt>0</asrwt>
<pdfrwt beam="1">  1       13 0.10000000E+01 0.55853041E+02</pdfrwt>
<pdfrwt beam="2">  1       22 0.16684233E+00 0.55853041E+02</pdfrwt>
<totfact> 0.63277697E-01</totfact>
</mgrwt>
</event>
<event>
 4    1  0.2489496E+000  0.5320782E+02  0.7957747E-01  0.1428769E+00
         13   -1    0    0    0    0  0.00000000000E+00  0.00000000000E+00  0.99999944183E+02  0.10000000000E+03  0.10566000000E+00 0. -1.
         22   -1    0    0    0    0 -0.00000000000E+00 -0.00000000000E+00 -0.24798995709E+02  0.24798995709E+02  0.00000000000E+00 0.  1.
         13    1    1    2    0    0  0.27889474337E+01  0.17980368845E+02 -0.12601202635E+02  0.22133083009E+02  0.10566000000E+00 0.  1.
        996    1    1    2    0    0 -0.27889474337E+01 -0.17980368845E+02  0.87802151110E+02  0.10266591270E+03  0.50000000000E+02 0.  0.
<mgrwt>
<rscale>  0 0.53207818E+02</rscale>
<asrwt>0</asrwt>
<pdfrwt beam="1">  1       13 0.10000000E+01 0.53207818E+02</pdfrwt>
<pdfrwt beam="2">  1       22 0.24799017E+00 0.53207818E+02</pdfrwt>
<totfact> 0.30007590E-01</totfact>
</mgrwt>
</event>
<event>
 4    1  0.2489496E+000  0.5581504E+02  0.7957747E-01  0.1416283E+00
         13   -1    0    0    0    0  0.00000000000E+00  0.00000000000E+00  0.99999944179E+02  0.99999999999E+02  0.10566000000E+00 0.  1.
         22   -1    0    0    0    0 -0.00000000000E+00 -0.00000000000E+00 -0.22110429780E+02  0.22110429780E+02  0.00000000000E+00 0.  1.
         13    1    1    2    0    0 -0.20183758608E+02  0.14419955253E+02 -0.17408318208E+01  0.24866863101E+02  0.10566000000E+00 0. -1.
        996    1    1    2    0    0  0.20183758608E+02 -0.14419955253E+02  0.79630346220E+02  0.97243566677E+02  0.50000000000E+02 0.  0.
<mgrwt>
<rscale>  0 0.55815045E+02</rscale>
<asrwt>0</asrwt>
<pdfrwt beam="1">  1       13 0.10000000E+01 0.55815045E+02</pdfrwt>
<pdfrwt beam="2">  1       22 0.22110452E+00 0.55815045E+02</pdfrwt>
<totfact> 0.37693153E-01</totfact>
</mgrwt>
</event>
<event>
 4    1  0.2489496E+000  0.6632702E+02  0.7957747E-01  0.1373048E+00
         13   -1    0    0    0    0  0.00000000000E+00  0.00000000000E+00  0.99999944185E+02  0.10000000001E+03  0.10566000000E+00 0. -1.
         22   -1    0    0    0    0 -0.00000000000E+00 -0.00000000000E+00 -0.62180398188E+02  0.62180398188E+02  0.00000000000E+00 0.  1.
         13    1    1    2    0    0 -0.98894933955E+00  0.43569440019E+02 -0.40538017676E+02  0.59519880422E+02  0.10566000000E+00 0.  1.
        996    1    1    2    0    0  0.98894933955E+00 -0.43569440019E+02  0.78357563673E+02  0.10266051777E+03  0.50000000000E+02 0.  0.
<mgrwt>
<rscale>  0 0.66327024E+02</rscale>
<asrwt>0</asrwt>
<pdfrwt beam="1">  1       13 0.10000000E+01 0.66327024E+02</pdfrwt>
<pdfrwt beam="2">  1       22 0.62180409E+00 0.66327024E+02</pdfrwt>
<totfact> 0.74036717E-02</totfact>
</mgrwt>
</event>
<event>
 4    1  0.2489496E+000  0.5299272E+02  0.7957747E-01  0.1429837E+00
         13   -1    0    0    0    0  0.00000000000E+00  0.00000000000E+00  0.99999944174E+02  0.99999999994E+02  0.10566000000E+00 0. -1.
         22   -1    0    0    0    0 -0.00000000000E+00 -0.00000000000E+00 -0.37450827274E+02  0.37450827274E+02  0.00000000000E+00 0.  1.
         13    1    1    2    0    0  0.26592992862E+01 -0.17353861005E+02 -0.27699033997E+02  0.32794450946E+02  0.10566000000E+00 0.  1.
        996    1    1    2    0    0 -0.26592992862E+01  0.17353861005E+02  0.90248150896E+02  0.10465637632E+03  0.50000000000E+02 0.  0.
<mgrwt>
<rscale>  0 0.52992720E+02</rscale>
<asrwt>0</asrwt>
<pdfrwt beam="1">  1       13 0.10000000E+01 0.52992720E+02</pdfrwt>
<pdfrwt beam="2">  1       22 0.37450845E+00 0.52992720E+02</pdfrwt>
<totfact> 0.13965981E-01</totfact>
</mgrwt>
</event>
<event>
 4    1  0.2489496E+000  0.5144975E+02  0.7957747E-01  0.1437675E+00
         13   -1    0    0    0    0  0.00000000000E+00  0.00000000000E+00  0.99999944187E+02  0.10000000001E+03  0.10566000000E+00 0.  1.
         22   -1    0    0    0    0 -0.00000000000E+00 -0.00000000000E+00 -0.19679513935E+02  0.19679513935E+02  0.00000000000E+00 0. -1.
         13    1    1    2    0    0  0.90448785881E+01  0.80787867026E+01 -0.10009350337E+02  0.15724976358E+02  0.10566000000E+00 0. -1.
        996    1    1    2    0    0 -0.90448785881E+01 -0.80787867026E+01  0.90329780588E+02  0.10395453758E+03  0.50000000000E+02 0.  0.
<mgrwt>
<rscale>  0 0.51449749E+02</rscale>
<asrwt>0</asrwt>
<pdfrwt beam="1">  1       13 0.10000000E+01 0.51449749E+02</pdfrwt>
<pdfrwt beam="2">  1       22 0.19679536E+00 0.51449749E+02</pdfrwt>
<totfact> 0.46643192E-01</totfact>
</mgrwt>
</event>
<event>
 4    1  0.2489496E+000  0.5295545E+02  0.7957747E-01  0.1430023E+00
         13   -1    0    0    0    0  0.00000000000E+00  0.00000000000E+00  0.99999944181E+02  0.10000000000E+03  0.10566000000E+00 0.  1.
         22   -1    0    0    0    0 -0.00000000000E+00 -0.00000000000E+00 -0.27794638445E+02  0.27794638445E+02  0.00000000000E+00 0. -1.
         13    1    1    2    0    0 -0.56483226503E+01  0.16503829027E+02 -0.16805632143E+02  0.24222311142E+02  0.10566000000E+00 0. -1.
        996    1    1    2    0    0  0.56483226503E+01 -0.16503829027E+02  0.89010937878E+02  0.10357232730E+03  0.50000000000E+02 0.  0.
<mgrwt>
<rscale>  0 0.52955452E+02</rscale>
<asrwt>0</asrwt>
<pdfrwt beam="1">  1       13 0.10000000E+01 0.52955452E+02</pdfrwt>
<pdfrwt beam="2">  1       22 0.27794659E+00 0.52955452E+02</pdfrwt>
<totfact> 0.23982593E-01</totfact>
</mgrwt>
</event>
<event>
 4    1  0.2489496E+000  0.5861446E+02  0.7957747E-01  0.1403740E+00
         13   -1    0    0    0    0  0.00000000000E+00  0.00000000000E+00  0.99999944176E+02  0.99999999996E+02  0.10566000000E+00 0.  1.
         22   -1    0    0    0    0 -0.00000000000E+00 -0.00000000000E+00 -0.34852098594E+02  0.34852098594E+02  0.00000000000E+00 0. -1.
         13    1    1    2    0    0 -0.83977056853E+01 -0.29413158825E+02 -0.16178999008E+02  0.34603851603E+02  0.10566000000E+00 0. -1.
        996    1    1    2    0    0  0.83977056853E+01  0.29413158825E+02  0.81326844590E+02  0.10024824699E+03  0.50000000000E+02 0.  0.
<mgrwt>
<rscale>  0 0.58614464E+02</rscale>
<asrwt>0</asrwt>
<pdfrwt beam="1">  1       13 0.10000000E+01 0.58614464E+02</pdfrwt>
<pdfrwt beam="2">  1       22 0.34852117E+00 0.58614464E+02</pdfrwt>
<totfact> 0.15933921E-01</totfact>
</mgrwt>
</event>
<event>
 4    1  0.2489496E+000  0.5234782E+02  0.7957747E-01  0.1433074E+00
         13   -1    0    0    0    0  0.00000000000E+00  0.00000000000E+00  0.99999944181E+02  0.10000000000E+03  0.10566000000E+00 0.  1.
         22   -1    0    0    0    0 -0.00000000000E+00 -0.00000000000E+00 -0.39632466223E+02  0.39632466223E+02  0.00000000000E+00 0. -1.
         13    1    1    2    0    0 -0.13994698860E+02 -0.66665716163E+01 -0.30813525169E+02  0.34493177161E+02  0.10566000000E+00 0. -1.
        996    1    1    2    0    0  0.13994698860E+02  0.66665716163E+01  0.91181003128E+02  0.10513928906E+03  0.50000000000E+02 0.  0.
<mgrwt>
<rscale>  0 0.52347825E+02</rscale>
<asrwt>0</asrwt>
<pdfrwt beam="1">  1       13 0.10000000E+01 0.52347825E+02</pdfrwt>
<pdfrwt beam="2">  1       22 0.39632483E+00 0.52347825E+02</pdfrwt>
<totfact> 0.12588542E-01</totfact>
</mgrwt>
</event>
<event>
 4    1  0.2489496E+000  0.5411654E+02  0.7957747E-01  0.1424324E+00
         13   -1    0    0    0    0  0.00000000000E+00  0.00000000000E+00  0.99999944184E+02  0.10000000000E+03  0.10566000000E+00 0. -1.
         22   -1    0    0    0    0 -0.00000000000E+00 -0.00000000000E+00 -0.20534649435E+02  0.20534649435E+02  0.00000000000E+00 0.  1.
         13    1    1    2    0    0 -0.94612538364E+01  0.18414253030E+02 -0.39756367660E+01  0.21081197559E+02  0.10566000000E+00 0.  1.
        996    1    1    2    0    0  0.94612538364E+01 -0.18414253030E+02  0.83440931515E+02  0.99453451880E+02  0.50000000000E+02 0.  0.
<mgrwt>
<rscale>  0 0.54116541E+02</rscale>
<asrwt>0</asrwt>
<pdfrwt beam="1">  1       13 0.10000000E+01 0.54116541E+02</pdfrwt>
<pdfrwt beam="2">  1       22 0.20534672E+00 0.54116541E+02</pdfrwt>
<totfact> 0.43280961E-01</totfact>
</mgrwt>
</event>
<event>
 4    1  0.2489496E+000  0.5186430E+02  0.7957747E-01  0.1435538E+00
         13   -1    0    0    0    0  0.00000000000E+00  0.00000000000E+00  0.99999944185E+02  0.10000000001E+03  0.10566000000E+00 0. -1.
         22   -1    0    0    0    0 -0.00000000000E+00 -0.00000000000E+00 -0.17145405650E+02  0.17145405650E+02  0.00000000000E+00 0.  1.
         13    1    1    2    0    0  0.12067107371E+02  0.66550911770E+01 -0.53823188953E+01  0.14794790962E+02  0.10566000000E+00 0.  1.
        996    1    1    2    0    0 -0.12067107371E+02 -0.66550911770E+01  0.88236857430E+02  0.10235061469E+03  0.50000000000E+02 0.  0.
<mgrwt>
<rscale>  0 0.51864297E+02</rscale>
<asrwt>0</asrwt>
<pdfrwt beam="1">  1       13 0.10000000E+01 0.51864297E+02</pdfrwt>
<pdfrwt beam="2">  1       22 0.17145429E+00 0.51864297E+02</pdfrwt>
<totfact> 0.59880623E-01</totfact>
</mgrwt>
</event>
<event>
 4    1  0.2489496E+000  0.5197448E+02  0.7957747E-01  0.1434974E+00
         13   -1    0    0    0    0  0.00000000000E+00  0.00000000000E+00  0.99999944176E+02  0.99999999997E+02  0.10566000000E+00 0.  1.
         22   -1    0    0    0    0 -0.00000000000E+00 -0.00000000000E+00 -0.20222042850E+02  0.20222042850E+02  0.00000000000E+00 0.  1.
         13    1    1    2    0    0  0.11972254371E+02  0.76165455577E+01 -0.93876493245E+01  0.17014281202E+02  0.10566000000E+00 0. -1.
        996    1    1    2    0    0 -0.11972254371E+02 -0.76165455577E+01  0.89165550651E+02  0.10320776164E+03  0.50000000000E+02 0.  0.
<mgrwt>
<rscale>  0 0.51974481E+02</rscale>
<asrwt>0</asrwt>
<pdfrwt beam="1">  1       13 0.10000000E+01 0.51974481E+02</pdfrwt>
<pdfrwt beam="2">  1       22 0.20222065E+00 0.51974481E+02</pdfrwt>
<totfact> 0.44380461E-01</totfact>
</mgrwt>
</event>
<event>
 4    1  0.2489496E+000  0.5329512E+02  0.7957747E-01  0.1428338E+00
         13   -1    0    0    0    0  0.00000000000E+00  0.00000000000E+00  0.99999944179E+02  0.99999999999E+02  0.10566000000E+00 0.  1.
         22   -1    0    0    0    0 -0.00000000000E+00 -0.00000000000E+00 -0.14135922829E+02  0.14135922829E+02  0.00000000000E+00 0.  1.
         13    1    1    2    0    0  0.16864689414E+02 -0.74801411466E+01  0.88059274878E+01  0.20443233197E+02  0.10566000000E+00 0. -1.
        996    1    1    2    0    0 -0.16864689414E+02  0.74801411466E+01  0.77058093862E+02  0.93692689631E+02  0.50000000000E+02 0.  0.
<mgrwt>
<rscale>  0 0.53295124E+02</rscale>
<asrwt>0</asrwt>
<pdfrwt beam="1">  1       13 0.10000000E+01 0.53295124E+02</pdfrwt>
<pdfrwt beam="2">  1       22 0.14135947E+00 0.53295124E+02</pdfrwt>
<totfact> 0.83237475E-01</totfact>
</mgrwt>
</event>
<event>
 4    1  0.2489496E+000  0.5570690E+02  0.7957747E-01  0.1416785E+00
         13   -1    0    0    0    0  0.00000000000E+00  0.00000000000E+00  0.99999944175E+02  0.99999999995E+02  0.10566000000E+00 0.  1.
         22   -1    0    0    0    0 -0.00000000000E+00 -0.00000000000E+00 -0.16217442774E+02  0.16217442774E+02  0.00000000000E+00 0. -1.
         13    1    1    2    0    0 -0.24003266803E+02  0.52059604912E+01  0.30158451865E+02  0.38894758320E+02  0.10566000000E+00 0. -1.
        996    1    1    2    0    0  0.24003266803E+02 -0.52059604912E+01  0.53624049536E+02  0.77322684450E+02  0.50000000000E+02 0.  0.
<mgrwt>
<rscale>  0 0.55706901E+02</rscale>
<asrwt>0</asrwt>
<pdfrwt beam="1">  1       13 0.10000000E+01 0.55706901E+02</pdfrwt>
<pdfrwt beam="2">  1       22 0.16217466E+00 0.55706901E+02</pdfrwt>
<totfact> 0.66447584E-01</totfact>
</mgrwt>
</event>
<event>
 4    1  0.2489496E+000  0.5126553E+02  0.7957747E-01  0.1438633E+00
         13   -1    0    0    0    0  0.00000000000E+00  0.00000000000E+00  0.99999944181E+02  0.10000000000E+03  0.10566000000E+00 0. -1.
         22   -1    0    0    0    0 -0.00000000000E+00 -0.00000000000E+00 -0.14318598065E+02  0.14318598065E+02  0.00000000000E+00 0. -1.
         13    1    1    2    0    0 -0.84696343955E+01 -0.75113310743E+01 -0.31539873673E+01  0.11752174337E+02  0.10566000000E+00 0.  1.
        996    1    1    2    0    0  0.84696343955E+01  0.75113310743E+01  0.88835333483E+02  0.10256642373E+03  0.50000000000E+02 0.  0.
<mgrwt>
<rscale>  0 0.51265532E+02</rscale>
<asrwt>0</asrwt>
<pdfrwt beam="1">  1       13 0.10000000E+01 0.51265532E+02</pdfrwt>
<pdfrwt beam="2">  1       22 0.14318622E+00 0.51265532E+02</pdfrwt>
<totfact> 0.81169645E-01</totfact>
</mgrwt>
</event>
<event>
 4    1  0.2489496E+000  0.5246883E+02  0.7957747E-01  0.1432463E+00
         13   -1    0    0    0    0  0.00000000000E+00  0.00000000000E+00  0.99999944186E+02  0.10000000001E+03  0.10566000000E+00 0.  1.
         22   -1    0    0    0    0 -0.00000000000E+00 -0.00000000000E+00 -0.18192715232E+02  0.18192715232E+02  0.00000000000E+00 0. -1.
         13    1    1    2    0    0  0.13976789624E+02 -0.75913035628E+01 -0.50756385869E+01  0.16695862035E+02  0.10566000000E+00 0. -1.
        996    1    1    2    0    0 -0.13976789624E+02  0.75913035628E+01  0.86882867541E+02  0.10149685320E+03  0.50000000000E+02 0.  0.
<mgrwt>
<rscale>  0 0.52468834E+02</rscale>
<asrwt>0</asrwt>
<pdfrwt beam="1">  1       13 0.10000000E+01 0.52468834E+02</pdfrwt>
<pdfrwt beam="2">  1       22 0.18192738E+00 0.52468834E+02</pdfrwt>
<totfact> 0.53946487E-01</totfact>
</mgrwt>
</event>
<event>
 4    1  0.2489496E+000  0.5121663E+02  0.7957747E-01  0.1438888E+00
         13   -1    0    0    0    0  0.00000000000E+00  0.00000000000E+00  0.99999944181E+02  0.10000000000E+03  0.10566000000E+00 0.  1.
         22   -1    0    0    0    0 -0.00000000000E+00 -0.00000000000E+00 -0.98140856206E+01  0.98140856206E+01  0.00000000000E+00 0.  1.
         13    1    1    2    0    0  0.69510083229E+01 -0.86502422366E+01  0.11983059594E+02  0.16332424459E+02  0.10566000000E+00 0. -1.
        996    1    1    2    0    0 -0.69510083229E+01  0.86502422366E+01  0.78202798967E+02  0.93481661162E+02  0.50000000000E+02 0.  0.
<mgrwt>
<rscale>  0 0.51216630E+02</rscale>
<asrwt>0</asrwt>
<pdfrwt beam="1">  1       13 0.10000000E+01 0.51216630E+02</pdfrwt>
<pdfrwt beam="2">  1       22 0.98141108E-01 0.51216630E+02</pdfrwt>
<totfact> 0.14457830E+00</totfact>
</mgrwt>
</event>
<event>
 4    1  0.2489496E+000  0.5187688E+02  0.7957747E-01  0.1435473E+00
         13   -1    0    0    0    0  0.00000000000E+00  0.00000000000E+00  0.99999944180E+02  0.10000000000E+03  0.10566000000E+00 0. -1.
         22   -1    0    0    0    0 -0.00000000000E+00 -0.00000000000E+00 -0.55251013315E+02  0.55251013315E+02  0.00000000000E+00 0.  1.
         13    1    1    2    0    0  0.85745621653E+01 -0.10848405950E+02 -0.47469396195E+02  0.49442550168E+02  0.10566000000E+00 0.  1.
        996    1    1    2    0    0 -0.85745621653E+01  0.10848405950E+02  0.92218327059E+02  0.10580846315E+03  0.50000000000E+02 0.  0.
<mgrwt>
<rscale>  0 0.51876883E+02</rscale>
<asrwt>0</asrwt>
<pdfrwt beam="1">  1       13 0.10000000E+01 0.51876883E+02</pdfrwt>
<pdfrwt beam="2">  1       22 0.55251026E+00 0.51876883E+02</pdfrwt>
<totfact> 0.58986277E-02</totfact>
</mgrwt>
</event>
<event>
 4    1  0.2489496E+000  0.5699985E+02  0.7957747E-01  0.1410871E+00
         13   -1    0    0    0    0  0.00000000000E+00  0.00000000000E+00  0.99999944177E+02  0.99999999998E+02  0.10566000000E+00 0.  1.
         22   -1    0    0    0    0 -0.00000000000E+00 -0.00000000000E+00 -0.23553742279E+02  0.23553742279E+02  0.00000000000E+00 0. -1.
         13    1    1    2    0    0 -0.35724836860E+01  0.27133370368E+02 -0.10082490062E+01  0.27386313321E+02  0.10566000000E+00 0. -1.
        996    1    1    2    0    0  0.35724836860E+01 -0.27133370368E+02  0.77454450904E+02  0.96167428956E+02  0.50000000000E+02 0.  0.
<mgrwt>
<rscale>  0 0.56999846E+02</rscale>
<asrwt>0</asrwt>
<pdfrwt beam="1">  1       13 0.10000000E+01 0.56999846E+02</pdfrwt>
<pdfrwt beam="2">  1       22 0.23553764E+00 0.56999846E+02</pdfrwt>
<totfact> 0.33392903E-01</totfact>
</mgrwt>
</event>
<event>
 4    1  0.2489496E+000  0.5221928E+02  0.7957747E-01  0.1433726E+00
         13   -1    0    0    0    0  0.00000000000E+00  0.00000000000E+00  0.99999944181E+02  0.10000000000E+03  0.10566000000E+00 0.  1.
         22   -1    0    0    0    0 -0.00000000000E+00 -0.00000000000E+00 -0.11330347493E+02  0.11330347493E+02  0.00000000000E+00 0.  1.
         13    1    1    2    0    0  0.13683513213E+02 -0.62940190611E+01  0.21477862521E+02  0.26232860163E+02  0.10566000000E+00 0. -1.
        996    1    1    2    0    0 -0.13683513213E+02  0.62940190611E+01  0.67191734167E+02  0.85097487332E+02  0.50000000000E+02 0.  0.
<mgrwt>
<rscale>  0 0.52219280E+02</rscale>
<asrwt>0</asrwt>
<pdfrwt beam="1">  1       13 0.10000000E+01 0.52219280E+02</pdfrwt>
<pdfrwt beam="2">  1       22 0.11330372E+00 0.52219280E+02</pdfrwt>
<totfact> 0.11732838E+00</totfact>
</mgrwt>
</event>
<event>
 4    1  0.2489496E+000  0.5129547E+02  0.7957747E-01  0.1438477E+00
         13   -1    0    0    0    0  0.00000000000E+00  0.00000000000E+00  0.99999944177E+02  0.99999999997E+02  0.10566000000E+00 0.  1.
         22   -1    0    0    0    0 -0.00000000000E+00 -0.00000000000E+00 -0.10329058036E+02  0.10329058036E+02  0.00000000000E+00 0.  1.
         13    1    1    2    0    0 -0.44418953335E+01 -0.10559120002E+02  0.27084571064E+02  0.29407662320E+02  0.10566000000E+00 0. -1.
        996    1    1    2    0    0  0.44418953335E+01  0.10559120002E+02  0.62586315077E+02  0.80921395714E+02  0.50000000000E+02 0.  0.
<mgrwt>
<rscale>  0 0.51295472E+02</rscale>
<asrwt>0</asrwt>
<pdfrwt beam="1">  1       13 0.10000000E+01 0.51295472E+02</pdfrwt>
<pdfrwt beam="2">  1       22 0.10329083E+00 0.51295472E+02</pdfrwt>
<totfact> 0.13426542E+00</totfact>
</mgrwt>
</event>
<event>
 4    1  0.2489496E+000  0.5199516E+02  0.7957747E-01  0.1434868E+00
         13   -1    0    0    0    0  0.00000000000E+00  0.00000000000E+00  0.99999944180E+02  0.10000000000E+03  0.10566000000E+00 0.  1.
         22   -1    0    0    0    0 -0.00000000000E+00 -0.00000000000E+00 -0.10986431275E+02  0.10986431275E+02  0.00000000000E+00 0. -1.
         13    1    1    2    0    0 -0.21999521422E+01 -0.14094562924E+02  0.17795271540E+02  0.22807440599E+02  0.10566000000E+00 0. -1.
        996    1    1    2    0    0  0.21999521422E+01  0.14094562924E+02  0.71218241365E+02  0.88178990676E+02  0.50000000000E+02 0.  0.
<mgrwt>
<rscale>  0 0.51995158E+02</rscale>
<asrwt>0</asrwt>
<pdfrwt beam="1">  1       13 0.10000000E+01 0.51995158E+02</pdfrwt>
<pdfrwt beam="2">  1       22 0.10986456E+00 0.51995158E+02</pdfrwt>
<totfact> 0.12279636E+00</totfact>
</mgrwt>
</event>
<event>
 4    1  0.2489496E+000  0.6201205E+02  0.7957747E-01  0.1389577E+00
         13   -1    0    0    0    0  0.00000000000E+00  0.00000000000E+00  0.99999944183E+02  0.10000000000E+03  0.10566000000E+00 0.  1.
         22   -1    0    0    0    0 -0.00000000000E+00 -0.00000000000E+00 -0.47201598552E+02  0.47201598552E+02  0.00000000000E+00 0. -1.
         13    1    1    2    0    0 -0.21321096557E+02  0.29848039336E+02 -0.27428591318E+02  0.45802111265E+02  0.10566000000E+00 0. -1.
        996    1    1    2    0    0  0.21321096557E+02 -0.29848039336E+02  0.80226936949E+02  0.10139948729E+03  0.50000000000E+02 0.  0.
<mgrwt>
<rscale>  0 0.62012052E+02</rscale>
<asrwt>0</asrwt>
<pdfrwt beam="1">  1       13 0.10000000E+01 0.62012052E+02</pdfrwt>
<pdfrwt beam="2">  1       22 0.47201613E+00 0.62012052E+02</pdfrwt>
<totfact> 0.86346168E-02</totfact>
</mgrwt>
</event>
<event>
 4    1  0.2489496E+000  0.5310005E+02  0.7957747E-01  0.1429304E+00
         13   -1    0    0    0    0  0.00000000000E+00  0.00000000000E+00  0.99999944176E+02  0.99999999996E+02  0.10566000000E+00 0.  1.
         22   -1    0    0    0    0 -0.00000000000E+00 -0.00000000000E+00 -0.37710970454E+02  0.37710970454E+02  0.00000000000E+00 0. -1.
         13    1    1    2    0    0 -0.63586713976E+01  0.16708746288E+02 -0.27849854250E+02  0.33094417206E+02  0.10566000000E+00 0. -1.
        996    1    1    2    0    0  0.63586713976E+01 -0.16708746288E+02  0.90138827972E+02  0.10461655324E+03  0.50000000000E+02 0.  0.
<mgrwt>
<rscale>  0 0.53100046E+02</rscale>
<asrwt>0</asrwt>
<pdfrwt beam="1">  1       13 0.10000000E+01 0.53100046E+02</pdfrwt>
<pdfrwt beam="2">  1       22 0.37710988E+00 0.53100046E+02</pdfrwt>
<totfact> 0.13795577E-01</totfact>
</mgrwt>
</event>
<event>
 4    1  0.2489496E+000  0.5458188E+02  0.7957747E-01  0.1422087E+00
         13   -1    0    0    0    0  0.00000000000E+00  0.00000000000E+00  0.99999944173E+02  0.99999999993E+02  0.10566000000E+00 0.  1.
         22   -1    0    0    0    0 -0.00000000000E+00 -0.00000000000E+00 -0.14621684799E+02  0.14621684799E+02  0.00000000000E+00 0.  1.
         13    1    1    2    0    0  0.20879367982E+01 -0.21790418611E+02  0.24993005344E+02  0.33224137362E+02  0.10566000000E+00 0. -1.
        996    1    1    2    0    0 -0.20879367982E+01  0.21790418611E+02  0.60385254030E+02  0.81397547430E+02  0.50000000000E+02 0.  0.
<mgrwt>
<rscale>  0 0.54581882E+02</rscale>
<asrwt>0</asrwt>
<pdfrwt beam="1">  1       13 0.10000000E+01 0.54581882E+02</pdfrwt>
<pdfrwt beam="2">  1       22 0.14621709E+00 0.54581882E+02</pdfrwt>
<totfact> 0.78956034E-01</totfact>
</mgrwt>
</event>
<event>
 4    1  0.2489496E+000  0.5446653E+02  0.7957747E-01  0.1422639E+00
         13   -1    0    0    0    0  0.00000000000E+00  0.00000000000E+00  0.99999944181E+02  0.10000000000E+03  0.10566000000E+00 0.  1.
         22   -1    0    0    0    0 -0.00000000000E+00 -0.00000000000E+00 -0.21233763184E+02  0.21233763184E+02  0.00000000000E+00 0. -1.
         13    1    1    2    0    0  0.19034849093E+02  0.10211648289E+02 -0.41813558200E+01  0.22002230371E+02  0.10566000000E+00 0. -1.
        996    1    1    2    0    0 -0.19034849093E+02 -0.10211648289E+02  0.82947536817E+02  0.99231532815E+02  0.50000000000E+02 0.  0.
<mgrwt>
<rscale>  0 0.54466533E+02</rscale>
<asrwt>0</asrwt>
<pdfrwt beam="1">  1       13 0.10000000E+01 0.54466533E+02</pdfrwt>
<pdfrwt beam="2">  1       22 0.21233785E+00 0.54466533E+02</pdfrwt>
<totfact> 0.40644455E-01</totfact>
</mgrwt>
</event>
<event>
 4    1  0.2489496E+000  0.5145079E+02  0.7957747E-01  0.1437670E+00
         13   -1    0    0    0    0  0.00000000000E+00  0.00000000000E+00  0.99999944179E+02  0.99999999999E+02  0.10566000000E+00 0. -1.
         22   -1    0    0    0    0 -0.00000000000E+00 -0.00000000000E+00 -0.23466851146E+02  0.23466851146E+02  0.00000000000E+00 0.  1.
         13    1    1    2    0    0  0.97677984338E+01  0.71954091701E+01 -0.14496258668E+02  0.18903345703E+02  0.10566000000E+00 0.  1.
        996    1    1    2    0    0 -0.97677984338E+01 -0.71954091701E+01  0.91029351700E+02  0.10456350544E+03  0.50000000000E+02 0.  0.
<mgrwt>
<rscale>  0 0.51450790E+02</rscale>
<asrwt>0</asrwt>
<pdfrwt beam="1">  1       13 0.10000000E+01 0.51450790E+02</pdfrwt>
<pdfrwt beam="2">  1       22 0.23466873E+00 0.51450790E+02</pdfrwt>
<totfact> 0.33343703E-01</totfact>
</mgrwt>
</event>
<event>
 4    1  0.2489496E+000  0.5354230E+02  0.7957747E-01  0.1427121E+00
         13   -1    0    0    0    0  0.00000000000E+00  0.00000000000E+00  0.99999944177E+02  0.99999999997E+02  0.10566000000E+00 0.  1.
         22   -1    0    0    0    0 -0.00000000000E+00 -0.00000000000E+00 -0.15366712865E+02  0.15366712865E+02  0.00000000000E+00 0.  1.
         13    1    1    2    0    0  0.69021573743E+01  0.17864425351E+02  0.56901542106E+01  0.19979151346E+02  0.10566000000E+00 0. -1.
        996    1    1    2    0    0 -0.69021573743E+01 -0.17864425351E+02  0.78943077101E+02  0.95387561515E+02  0.50000000000E+02 0.  0.
<mgrwt>
<rscale>  0 0.53542296E+02</rscale>
<asrwt>0</asrwt>
<pdfrwt beam="1">  1       13 0.10000000E+01 0.53542296E+02</pdfrwt>
<pdfrwt beam="2">  1       22 0.15366736E+00 0.53542296E+02</pdfrwt>
<totfact> 0.72532819E-01</totfact>
</mgrwt>
</event>
<event>
 4    1  0.2489496E+000  0.5335928E+02  0.7957747E-01  0.1428021E+00
         13   -1    0    0    0    0  0.00000000000E+00  0.00000000000E+00  0.99999944183E+02  0.10000000000E+03  0.10566000000E+00 0. -1.
         22   -1    0    0    0    0 -0.00000000000E+00 -0.00000000000E+00 -0.33473559941E+02  0.33473559941E+02  0.00000000000E+00 0.  1.
         13    1    1    2    0    0 -0.34680533980E+01 -0.18308077397E+02 -0.22786243605E+02  0.29435304551E+02  0.10566000000E+00 0.  1.
        996    1    1    2    0    0  0.34680533980E+01  0.18308077397E+02  0.89312627847E+02  0.10403825539E+03  0.50000000000E+02 0.  0.
<mgrwt>
<rscale>  0 0.53359283E+02</rscale>
<asrwt>0</asrwt>
<pdfrwt beam="1">  1       13 0.10000000E+01 0.53359283E+02</pdfrwt>
<pdfrwt beam="2">  1       22 0.33473579E+00 0.53359283E+02</pdfrwt>
<totfact> 0.17013167E-01</totfact>
</mgrwt>
</event>
<event>
 4    1  0.2489496E+000  0.5461937E+02  0.7957747E-01  0.1421908E+00
         13   -1    0    0    0    0  0.00000000000E+00  0.00000000000E+00  0.99999944179E+02  0.99999999999E+02  0.10566000000E+00 0.  1.
         22   -1    0    0    0    0 -0.00000000000E+00 -0.00000000000E+00 -0.72788649576E+02  0.72788649576E+02  0.00000000000E+00 0. -1.
         13    1    1    2    0    0 -0.11789741935E+02  0.18554721940E+02 -0.63336258324E+02  0.67043034715E+02  0.10566000000E+00 0. -1.
        996    1    1    2    0    0  0.11789741935E+02 -0.18554721940E+02  0.90547552927E+02  0.10574561486E+03  0.50000000000E+02 0.  0.
<mgrwt>
<rscale>  0 0.54619371E+02</rscale>
<asrwt>0</asrwt>
<pdfrwt beam="1">  1       13 0.10000000E+01 0.54619371E+02</pdfrwt>
<pdfrwt beam="2">  1       22 0.72788657E+00 0.54619371E+02</pdfrwt>
<totfact> 0.59866880E-02</totfact>
</mgrwt>
</event>
<event>
 4    1  0.2489496E+000  0.5388714E+02  0.7957747E-01  0.1425436E+00
         13   -1    0    0    0    0  0.00000000000E+00  0.00000000000E+00  0.99999944169E+02  0.99999999989E+02  0.10566000000E+00 0. -1.
         22   -1    0    0    0    0 -0.00000000000E+00 -0.00000000000E+00 -0.25825448993E+02  0.25825448993E+02  0.00000000000E+00 0.  1.
         13    1    1    2    0    0 -0.28442296226E+01 -0.19893060593E+02 -0.12571887606E+02  0.23704156259E+02  0.10566000000E+00 0.  1.
        996    1    1    2    0    0  0.28442296226E+01  0.19893060593E+02  0.86746382781E+02  0.10212129272E+03  0.50000000000E+02 0.  0.
<mgrwt>
<rscale>  0 0.53887137E+02</rscale>
<asrwt>0</asrwt>
<pdfrwt beam="1">  1       13 0.10000000E+01 0.53887137E+02</pdfrwt>
<pdfrwt beam="2">  1       22 0.25825470E+00 0.53887137E+02</pdfrwt>
<totfact> 0.27732401E-01</totfact>
</mgrwt>
</event>
<event>
 4    1  0.2489496E+000  0.5653152E+02  0.7957747E-01  0.1412992E+00
         13   -1    0    0    0    0  0.00000000000E+00  0.00000000000E+00  0.99999944181E+02  0.10000000000E+03  0.10566000000E+00 0. -1.
         22   -1    0    0    0    0 -0.00000000000E+00 -0.00000000000E+00 -0.18592128571E+02  0.18592128571E+02  0.00000000000E+00 0.  1.
         13    1    1    2    0    0 -0.13602118874E+02  0.22600765417E+02  0.11738454952E+02  0.28872386878E+02  0.10566000000E+00 0.  1.
        996    1    1    2    0    0  0.13602118874E+02 -0.22600765417E+02  0.69669360658E+02  0.89719741695E+02  0.50000000000E+02 0.  0.
<mgrwt>
<rscale>  0 0.56531515E+02</rscale>
<asrwt>0</asrwt>
<pdfrwt beam="1">  1       13 0.10000000E+01 0.56531515E+02</pdfrwt>
<pdfrwt beam="2">  1       22 0.18592151E+00 0.56531515E+02</pdfrwt>
<totfact> 0.52242932E-01</totfact>
</mgrwt>
</event>
<event>
 4    1  0.2489496E+000  0.5179200E+02  0.7957747E-01  0.1435909E+00
         13   -1    0    0    0    0  0.00000000000E+00  0.00000000000E+00  0.99999944186E+02  0.10000000001E+03  0.10566000000E+00 0. -1.
         22   -1    0    0    0    0 -0.00000000000E+00 -0.00000000000E+00 -0.12653017959E+02  0.12653017959E+02  0.00000000000E+00 0.  1.
         13    1    1    2    0    0 -0.12505415995E+02 -0.51015985739E+01  0.32577915937E+01  0.13893743460E+02  0.10566000000E+00 0.  1.
        996    1    1    2    0    0  0.12505415995E+02  0.51015985739E+01  0.84089134633E+02  0.98759274504E+02  0.50000000000E+02 0.  0.
<mgrwt>
<rscale>  0 0.51792005E+02</rscale>
<asrwt>0</asrwt>
<pdfrwt beam="1">  1       13 0.10000000E+01 0.51792005E+02</pdfrwt>
<pdfrwt beam="2">  1       22 0.12653042E+00 0.51792005E+02</pdfrwt>
<totfact> 0.98994241E-01</totfact>
</mgrwt>
</event>
<event>
 4    1  0.2489496E+000  0.5107640E+02  0.7957747E-01  0.1439621E+00
         13   -1    0    0    0    0  0.00000000000E+00  0.00000000000E+00  0.99999944184E+02  0.10000000000E+03  0.10566000000E+00 0.  1.
         22   -1    0    0    0    0 -0.00000000000E+00 -0.00000000000E+00 -0.10033232429E+02  0.10033232429E+02  0.00000000000E+00 0.  1.
         13    1    1    2    0    0  0.13550389326E+01 -0.10342259313E+02  0.68569414151E+01  0.12483079260E+02  0.10566000000E+00 0. -1.
        996    1    1    2    0    0 -0.13550389326E+01  0.10342259313E+02  0.83109770339E+02  0.97550153173E+02  0.50000000000E+02 0.  0.
<mgrwt>
<rscale>  0 0.51076398E+02</rscale>
<asrwt>0</asrwt>
<pdfrwt beam="1">  1       13 0.10000000E+01 0.51076398E+02</pdfrwt>
<pdfrwt beam="2">  1       22 0.10033258E+00 0.51076398E+02</pdfrwt>
<totfact> 0.13998930E+00</totfact>
</mgrwt>
</event>
<event>
 4    1  0.2489496E+000  0.5486639E+02  0.7957747E-01  0.1420732E+00
         13   -1    0    0    0    0  0.00000000000E+00  0.00000000000E+00  0.99999944184E+02  0.10000000000E+03  0.10566000000E+00 0.  1.
         22   -1    0    0    0    0 -0.00000000000E+00 -0.00000000000E+00 -0.23014912327E+02  0.23014912327E+02  0.00000000000E+00 0. -1.
         13    1    1    2    0    0 -0.21745427617E+02  0.61202524425E+01 -0.61447155911E+01  0.23411317903E+02  0.10566000000E+00 0. -1.
        996    1    1    2    0    0  0.21745427617E+02 -0.61202524425E+01  0.83129747448E+02  0.99603594428E+02  0.50000000000E+02 0.  0.
<mgrwt>
<rscale>  0 0.54866393E+02</rscale>
<asrwt>0</asrwt>
<pdfrwt beam="1">  1       13 0.10000000E+01 0.54866393E+02</pdfrwt>
<pdfrwt beam="2">  1       22 0.23014934E+00 0.54866393E+02</pdfrwt>
<totfact> 0.34823097E-01</totfact>
</mgrwt>
</event>
<event>
 4    1  0.2489496E+000  0.5149196E+02  0.7957747E-01  0.1437457E+00
         13   -1    0    0    0    0  0.00000000000E+00  0.00000000000E+00  0.99999944180E+02  0.10000000000E+03  0.10566000000E+00 0.  1.
         22   -1    0    0    0    0 -0.00000000000E+00 -0.00000000000E+00 -0.15623390564E+02  0.15623390564E+02  0.00000000000E+00 0.  1.
         13    1    1    2    0    0  0.11208385355E+02  0.50787773717E+01 -0.43380370215E+01  0.13048050088E+02  0.10566000000E+00 0. -1.
        996    1    1    2    0    0 -0.11208385355E+02 -0.50787773717E+01  0.88714590637E+02  0.10257534048E+03  0.50000000000E+02 0.  0.
<mgrwt>
<rscale>  0 0.51491959E+02</rscale>
<asrwt>0</asrwt>
<pdfrwt beam="1">  1       13 0.10000000E+01 0.51491959E+02</pdfrwt>
<pdfrwt beam="2">  1       22 0.15623414E+00 0.51491959E+02</pdfrwt>
<totfact> 0.70245272E-01</totfact>
</mgrwt>
</event>
<event>
 4    1  0.2489496E+000  0.5475686E+02  0.7957747E-01  0.1421252E+00
         13   -1    0    0    0    0  0.00000000000E+00  0.00000000000E+00  0.99999944176E+02  0.99999999996E+02  0.10566000000E+00 0.  1.
         22   -1    0    0    0    0 -0.00000000000E+00 -0.00000000000E+00 -0.30118417388E+02  0.30118417388E+02  0.00000000000E+00 0. -1.
         13    1    1    2    0    0  0.22159969254E+02 -0.26925314864E+01 -0.16558786896E+02  0.27794217935E+02  0.10566000000E+00 0. -1.
        996    1    1    2    0    0 -0.22159969254E+02  0.26925314864E+01  0.86440313684E+02  0.10232419945E+03  0.50000000000E+02 0.  0.
<mgrwt>
<rscale>  0 0.54756862E+02</rscale>
<asrwt>0</asrwt>
<pdfrwt beam="1">  1       13 0.10000000E+01 0.54756862E+02</pdfrwt>
<pdfrwt beam="2">  1       22 0.30118437E+00 0.54756862E+02</pdfrwt>
<totfact> 0.20623771E-01</totfact>
</mgrwt>
</event>
<event>
 4    1  0.2489496E+000  0.5279336E+02  0.7957747E-01  0.1430832E+00
         13   -1    0    0    0    0  0.00000000000E+00  0.00000000000E+00  0.99999944176E+02  0.99999999996E+02  0.10566000000E+00 0.  1.
         22   -1    0    0    0    0 -0.00000000000E+00 -0.00000000000E+00 -0.12223618729E+02  0.12223618729E+02  0.00000000000E+00 0.  1.
         13    1    1    2    0    0 -0.13195736445E+02 -0.10630696572E+02  0.24957609981E+02  0.30166747089E+02  0.10566000000E+00 0. -1.
        996    1    1    2    0    0  0.13195736445E+02  0.10630696572E+02  0.62818715466E+02  0.82056871636E+02  0.50000000000E+02 0.  0.
<mgrwt>
<rscale>  0 0.52793363E+02</rscale>
<asrwt>0</asrwt>
<pdfrwt beam="1">  1       13 0.10000000E+01 0.52793363E+02</pdfrwt>
<pdfrwt beam="2">  1       22 0.12223643E+00 0.52793363E+02</pdfrwt>
<totfact> 0.10466959E+00</totfact>
</mgrwt>
</event>
<event>
 4    1  0.2489496E+000  0.5190869E+02  0.7957747E-01  0.1435310E+00
         13   -1    0    0    0    0  0.00000000000E+00  0.00000000000E+00  0.99999944176E+02  0.99999999996E+02  0.10566000000E+00 0. -1.
         22   -1    0    0    0    0 -0.00000000000E+00 -0.00000000000E+00 -0.29147750125E+02  0.29147750125E+02  0.00000000000E+00 0.  1.
         13    1    1    2    0    0  0.13000992894E+02  0.50484056116E+01 -0.20076479096E+02  0.24445621128E+02  0.10566000000E+00 0.  1.
        996    1    1    2    0    0 -0.13000992894E+02 -0.50484056116E+01  0.90928673147E+02  0.10470212899E+03  0.50000000000E+02 0.  0.
<mgrwt>
<rscale>  0 0.51908691E+02</rscale>
<asrwt>0</asrwt>
<pdfrwt beam="1">  1       13 0.10000000E+01 0.51908691E+02</pdfrwt>
<pdfrwt beam="2">  1       22 0.29147770E+00 0.51908691E+02</pdfrwt>
<totfact> 0.21856650E-01</totfact>
</mgrwt>
</event>
<event>
 4    1  0.2489496E+000  0.5275431E+02  0.7957747E-01  0.1431027E+00
         13   -1    0    0    0    0  0.00000000000E+00  0.00000000000E+00  0.99999944176E+02  0.99999999996E+02  0.10566000000E+00 0.  1.
         22   -1    0    0    0    0 -0.00000000000E+00 -0.00000000000E+00 -0.12544264371E+02  0.12544264371E+02  0.00000000000E+00 0.  1.
         13    1    1    2    0    0 -0.12338761954E+02 -0.11435560162E+02  0.12841907900E+02  0.21164660293E+02  0.10566000000E+00 0. -1.
        996    1    1    2    0    0  0.12338761954E+02  0.11435560162E+02  0.74613771905E+02  0.91379604074E+02  0.50000000000E+02 0.  0.
<mgrwt>
<rscale>  0 0.52754309E+02</rscale>
<asrwt>0</asrwt>
<pdfrwt beam="1">  1       13 0.10000000E+01 0.52754309E+02</pdfrwt>
<pdfrwt beam="2">  1       22 0.12544289E+00 0.52754309E+02</pdfrwt>
<totfact> 0.10054551E+00</totfact>
</mgrwt>
</event>
<event>
 4    1  0.2489496E+000  0.5848943E+02  0.7957747E-01  0.1404283E+00
         13   -1    0    0    0    0  0.00000000000E+00  0.00000000000E+00  0.99999944180E+02  0.10000000000E+03  0.10566000000E+00 0.  1.
         22   -1    0    0    0    0 -0.00000000000E+00 -0.00000000000E+00 -0.31068161290E+02  0.31068161290E+02  0.00000000000E+00 0. -1.
         13    1    1    2    0    0  0.28763066401E+02  0.96798181133E+01 -0.10774358370E+02  0.32204205158E+02  0.10566000000E+00 0. -1.
        996    1    1    2    0    0 -0.28763066401E+02 -0.96798181133E+01  0.79706141261E+02  0.98863956132E+02  0.50000000000E+02 0.  0.
<mgrwt>
<rscale>  0 0.58489425E+02</rscale>
<asrwt>0</asrwt>
<pdfrwt beam="1">  1       13 0.10000000E+01 0.58489425E+02</pdfrwt>
<pdfrwt beam="2">  1       22 0.31068181E+00 0.58489425E+02</pdfrwt>
<totfact> 0.19557722E-01</totfact>
</mgrwt>
</event>
<event>
 4    1  0.2489496E+000  0.6943988E+02  0.7957747E-01  0.1362008E+00
         13   -1    0    0    0    0  0.00000000000E+00  0.00000000000E+00  0.99999944176E+02  0.99999999997E+02  0.10566000000E+00 0. -1.
         22   -1    0    0    0    0 -0.00000000000E+00 -0.00000000000E+00 -0.42794383276E+02  0.42794383276E+02  0.00000000000E+00 0.  1.
         13    1    1    2    0    0  0.31705060544E+02 -0.36286172251E+02 -0.64214177371E+01  0.48612168543E+02  0.10566000000E+00 0.  1.
        996    1    1    2    0    0 -0.31705060544E+02  0.36286172251E+02  0.63626978638E+02  0.94182214729E+02  0.50000000000E+02 0.  0.
<mgrwt>
<rscale>  0 0.69439882E+02</rscale>
<asrwt>0</asrwt>
<pdfrwt beam="1">  1       13 0.10000000E+01 0.69439882E+02</pdfrwt>
<pdfrwt beam="2">  1       22 0.42794399E+00 0.69439882E+02</pdfrwt>
<totfact> 0.10914910E-01</totfact>
</mgrwt>
</event>
<event>
 4    1  0.2489496E+000  0.5205641E+02  0.7957747E-01  0.1434555E+00
         13   -1    0    0    0    0  0.00000000000E+00  0.00000000000E+00  0.99999944178E+02  0.99999999998E+02  0.10566000000E+00 0. -1.
         22   -1    0    0    0    0 -0.00000000000E+00 -0.00000000000E+00 -0.13516509287E+02  0.13516509287E+02  0.00000000000E+00 0. -1.
         13    1    1    2    0    0  0.65652789420E+01 -0.12913834895E+02  0.24900447612E+01  0.14699711093E+02  0.10566000000E+00 0.  1.
        996    1    1    2    0    0 -0.65652789420E+01  0.12913834895E+02  0.83993390130E+02  0.98816798192E+02  0.50000000000E+02 0.  0.
<mgrwt>
<rscale>  0 0.52056412E+02</rscale>
<asrwt>0</asrwt>
<pdfrwt beam="1">  1       13 0.10000000E+01 0.52056412E+02</pdfrwt>
<pdfrwt beam="2">  1       22 0.13516533E+00 0.52056412E+02</pdfrwt>
<totfact> 0.89246012E-01</totfact>
</mgrwt>
</event>
<event>
 4    1  0.2489496E+000  0.5120153E+02  0.7957747E-01  0.1438967E+00
         13   -1    0    0    0    0  0.00000000000E+00  0.00000000000E+00  0.99999944181E+02  0.10000000000E+03  0.10566000000E+00 0. -1.
         22   -1    0    0    0    0 -0.00000000000E+00 -0.00000000000E+00 -0.98265868734E+01  0.98265868734E+01  0.00000000000E+00 0.  1.
         13    1    1    2    0    0  0.10133207584E+02 -0.43491255244E+01  0.11281381275E+02  0.15775852316E+02  0.10566000000E+00 0.  1.
        996    1    1    2    0    0 -0.10133207584E+02  0.43491255244E+01  0.78891976033E+02  0.94050734559E+02  0.50000000000E+02 0.  0.
<mgrwt>
<rscale>  0 0.51201531E+02</rscale>
<asrwt>0</asrwt>
<pdfrwt beam="1">  1       13 0.10000000E+01 0.51201531E+02</pdfrwt>
<pdfrwt beam="2">  1       22 0.98266120E-01 0.51201531E+02</pdfrwt>
<totfact> 0.14430797E+00</totfact>
</mgrwt>
</event>
<event>
 4    1  0.2489496E+000  0.5105088E+02  0.7957747E-01  0.1439754E+00
         13   -1    0    0    0    0  0.00000000000E+00  0.00000000000E+00  0.99999944184E+02  0.10000000000E+03  0.10566000000E+00 0.  1.
         22   -1    0    0    0    0 -0.00000000000E+00 -0.00000000000E+00 -0.99708955397E+01  0.99708955397E+01  0.00000000000E+00 0.  1.
         13    1    1    2    0    0 -0.30009570334E+01  0.98583008362E+01  0.68477345461E+01  0.12373135049E+02  0.10566000000E+00 0. -1.
        996    1    1    2    0    0  0.30009570334E+01 -0.98583008362E+01  0.83181314098E+02  0.97597760495E+02  0.50000000000E+02 0.  0.
<mgrwt>
<rscale>  0 0.51050875E+02</rscale>
<asrwt>0</asrwt>
<pdfrwt beam="1">  1       13 0.10000000E+01 0.51050875E+02</pdfrwt>
<pdfrwt beam="2">  1       22 0.99709207E-01 0.51050875E+02</pdfrwt>
<totfact> 0.14124952E+00</totfact>
</mgrwt>
</event>
<event>
 4    1  0.2489496E+000  0.7888987E+02  0.7957747E-01  0.1332232E+00
         13   -1    0    0    0    0  0.00000000000E+00  0.00000000000E+00  0.99999944169E+02  0.99999999989E+02  0.10566000000E+00 0.  1.
         22   -1    0    0    0    0 -0.00000000000E+00 -0.00000000000E+00 -0.59480797066E+02  0.59480797066E+02  0.00000000000E+00 0. -1.
         13    1    1    2    0    0  0.55398794292E+02  0.25584857796E+02 -0.15214537255E+02  0.62889622875E+02  0.10566000000E+00 0. -1.
        996    1    1    2    0    0 -0.55398794292E+02 -0.25584857796E+02  0.55733684357E+02  0.96591174180E+02  0.50000000000E+02 0.  0.
<mgrwt>
<rscale>  0 0.78889869E+02</rscale>
<asrwt>0</asrwt>
<pdfrwt beam="1">  1       13 0.10000000E+01 0.78889869E+02</pdfrwt>
<pdfrwt beam="2">  1       22 0.59480808E+00 0.78889869E+02</pdfrwt>
<totfact> 0.62033550E-02</totfact>
</mgrwt>
</event>
<event>
 4    1  0.2489496E+000  0.5273390E+02  0.7957747E-01  0.1431130E+00
         13   -1    0    0    0    0  0.00000000000E+00  0.00000000000E+00  0.99999944183E+02  0.10000000000E+03  0.10566000000E+00 0. -1.
         22   -1    0    0    0    0 -0.00000000000E+00 -0.00000000000E+00 -0.18291564765E+02  0.18291564765E+02  0.00000000000E+00 0.  1.
         13    1    1    2    0    0 -0.15253124003E+02 -0.69430945892E+01 -0.43922319360E+01  0.17325334621E+02  0.10566000000E+00 0.  1.
        996    1    1    2    0    0  0.15253124003E+02  0.69430945892E+01  0.86100611354E+02  0.10096623015E+03  0.50000000000E+02 0.  0.
<mgrwt>
<rscale>  0 0.52733901E+02</rscale>
<asrwt>0</asrwt>
<pdfrwt beam="1">  1       13 0.10000000E+01 0.52733901E+02</pdfrwt>
<pdfrwt beam="2">  1       22 0.18291588E+00 0.52733901E+02</pdfrwt>
<totfact> 0.53448306E-01</totfact>
</mgrwt>
</event>
<event>
 4    1  0.2489496E+000  0.5415853E+02  0.7957747E-01  0.1424121E+00
         13   -1    0    0    0    0  0.00000000000E+00  0.00000000000E+00  0.99999944173E+02  0.99999999993E+02  0.10566000000E+00 0. -1.
         22   -1    0    0    0    0 -0.00000000000E+00 -0.00000000000E+00 -0.14443504574E+02  0.14443504574E+02  0.00000000000E+00 0. -1.
         13    1    1    2    0    0 -0.57258353246E+01 -0.20009038582E+02  0.15797061146E+02  0.26128626447E+02  0.10566000000E+00 0.  1.
        996    1    1    2    0    0  0.57258353246E+01  0.20009038582E+02  0.69759378453E+02  0.88314878120E+02  0.50000000000E+02 0.  0.
<mgrwt>
<rscale>  0 0.54158534E+02</rscale>
<asrwt>0</asrwt>
<pdfrwt beam="1">  1       13 0.10000000E+01 0.54158534E+02</pdfrwt>
<pdfrwt beam="2">  1       22 0.14443528E+00 0.54158534E+02</pdfrwt>
<totfact> 0.80498731E-01</totfact>
</mgrwt>
</event>
<event>
 4    1  0.2489496E+000  0.5250986E+02  0.7957747E-01  0.1432256E+00
         13   -1    0    0    0    0  0.00000000000E+00  0.00000000000E+00  0.99999944180E+02  0.10000000000E+03  0.10566000000E+00 0. -1.
         22   -1    0    0    0    0 -0.00000000000E+00 -0.00000000000E+00 -0.82080460927E+02  0.82080460927E+02  0.00000000000E+00 0.  1.
         13    1    1    2    0    0 -0.75723919681E+01 -0.14140165666E+02 -0.74271547291E+02  0.75983941108E+02  0.10566000000E+00 0.  1.
        996    1    1    2    0    0  0.75723919681E+01  0.14140165666E+02  0.92191030544E+02  0.10609651982E+03  0.50000000000E+02 0.  0.
<mgrwt>
<rscale>  0 0.52509860E+02</rscale>
<asrwt>0</asrwt>
<pdfrwt beam="1">  1       13 0.10000000E+01 0.52509860E+02</pdfrwt>
<pdfrwt beam="2">  1       22 0.82080466E+00 0.52509860E+02</pdfrwt>
<totfact> 0.25416146E-02</totfact>
</mgrwt>
</event>
<event>
 4    1  0.2489496E+000  0.5222975E+02  0.7957747E-01  0.1433673E+00
         13   -1    0    0    0    0  0.00000000000E+00  0.00000000000E+00  0.99999944176E+02  0.99999999996E+02  0.10566000000E+00 0.  1.
         22   -1    0    0    0    0 -0.00000000000E+00 -0.00000000000E+00 -0.12535115045E+02  0.12535115045E+02  0.00000000000E+00 0.  1.
         13    1    1    2    0    0 -0.52795529190E+01 -0.14144709655E+02  0.70884337774E+01  0.16679434874E+02  0.10566000000E+00 0. -1.
        996    1    1    2    0    0  0.52795529190E+01  0.14144709655E+02  0.80376395354E+02  0.95855680167E+02  0.50000000000E+02 0.  0.
<mgrwt>
<rscale>  0 0.52229747E+02</rscale>
<asrwt>0</asrwt>
<pdfrwt beam="1">  1       13 0.10000000E+01 0.52229747E+02</pdfrwt>
<pdfrwt beam="2">  1       22 0.12535139E+00 0.52229747E+02</pdfrwt>
<totfact> 0.10054494E+00</totfact>
</mgrwt>
</event>
<event>
 4    1  0.2489496E+000  0.6761776E+02  0.7957747E-01  0.1368387E+00
         13   -1    0    0    0    0  0.00000000000E+00  0.00000000000E+00  0.99999944181E+02  0.10000000000E+03  0.10566000000E+00 0.  1.
         22   -1    0    0    0    0 -0.00000000000E+00 -0.00000000000E+00 -0.39928691176E+02  0.39928691176E+02  0.00000000000E+00 0. -1.
         13    1    1    2    0    0 -0.38753879859E+02  0.23880908643E+02 -0.53606599255E+01  0.45835672140E+02  0.10566000000E+00 0. -1.
        996    1    1    2    0    0  0.38753879859E+02 -0.23880908643E+02  0.65431912931E+02  0.94093019037E+02  0.50000000000E+02 0.  0.
<mgrwt>
<rscale>  0 0.67617757E+02</rscale>
<asrwt>0</asrwt>
<pdfrwt beam="1">  1       13 0.10000000E+01 0.67617757E+02</pdfrwt>
<pdfrwt beam="2">  1       22 0.39928708E+00 0.67617757E+02</pdfrwt>
<totfact> 0.12543651E-01</totfact>
</mgrwt>
</event>
<event>
 4    1  0.2489496E+000  0.5350257E+02  0.7957747E-01  0.1427316E+00
         13   -1    0    0    0    0  0.00000000000E+00  0.00000000000E+00  0.99999944184E+02  0.10000000000E+03  0.10566000000E+00 0.  1.
         22   -1    0    0    0    0 -0.00000000000E+00 -0.00000000000E+00 -0.62795195806E+02  0.62795195806E+02  0.00000000000E+00 0. -1.
         13    1    1    2    0    0  0.13488602266E+02  0.13438109148E+02 -0.53887692514E+02  0.57152600441E+02  0.10566000000E+00 0. -1.
        996    1    1    2    0    0 -0.13488602266E+02 -0.13438109148E+02  0.91092440893E+02  0.10564259537E+03  0.50000000000E+02 0.  0.
<mgrwt>
<rscale>  0 0.53502572E+02</rscale>
<asrwt>0</asrwt>
<pdfrwt beam="1">  1       13 0.10000000E+01 0.53502572E+02</pdfrwt>
<pdfrwt beam="2">  1       22 0.62795206E+00 0.53502572E+02</pdfrwt>
<totfact> 0.77567930E-02</totfact>
</mgrwt>
</event>
<event>
 4    1  0.2489496E+000  0.5817662E+02  0.7957747E-01  0.1405647E+00
         13   -1    0    0    0    0  0.00000000000E+00  0.00000000000E+00  0.99999944185E+02  0.10000000000E+03  0.10566000000E+00 0. -1.
         22   -1    0    0    0    0 -0.00000000000E+00 -0.00000000000E+00 -0.20227880129E+02  0.20227880129E+02  0.00000000000E+00 0.  1.
         13    1    1    2    0    0 -0.22399126591E+02  0.19565222524E+02  0.15504887064E+02  0.33539998380E+02  0.10566000000E+00 0.  1.
        996    1    1    2    0    0  0.22399126591E+02 -0.19565222524E+02  0.64267176992E+02  0.86687881754E+02  0.50000000000E+02 0.  0.
<mgrwt>
<rscale>  0 0.58176617E+02</rscale>
<asrwt>0</asrwt>
<pdfrwt beam="1">  1       13 0.10000000E+01 0.58176617E+02</pdfrwt>
<pdfrwt beam="2">  1       22 0.20227902E+00 0.58176617E+02</pdfrwt>
<totfact> 0.44820961E-01</totfact>
</mgrwt>
</event>
<event>
 4    1  0.2489496E+000  0.5775643E+02  0.7957747E-01  0.1407496E+00
         13   -1    0    0    0    0  0.00000000000E+00  0.00000000000E+00  0.99999944175E+02  0.99999999995E+02  0.10566000000E+00 0. -1.
         22   -1    0    0    0    0 -0.00000000000E+00 -0.00000000000E+00 -0.26335663104E+02  0.26335663104E+02  0.00000000000E+00 0.  1.
         13    1    1    2    0    0  0.80959823675E+01  0.27753558719E+02 -0.43841952460E+01  0.29241020572E+02  0.10566000000E+00 0.  1.
        996    1    1    2    0    0 -0.80959823675E+01 -0.27753558719E+02  0.78048476317E+02  0.97094642527E+02  0.50000000000E+02 0.  0.
<mgrwt>
<rscale>  0 0.57756428E+02</rscale>
<asrwt>0</asrwt>
<pdfrwt beam="1">  1       13 0.10000000E+01 0.57756428E+02</pdfrwt>
<pdfrwt beam="2">  1       22 0.26335684E+00 0.57756428E+02</pdfrwt>
<totfact> 0.26829461E-01</totfact>
</mgrwt>
</event>
<event>
 4    1  0.2489496E+000  0.5136074E+02  0.7957747E-01  0.1438137E+00
         13   -1    0    0    0    0  0.00000000000E+00  0.00000000000E+00  0.99999944177E+02  0.99999999997E+02  0.10566000000E+00 0.  1.
         22   -1    0    0    0    0 -0.00000000000E+00 -0.00000000000E+00 -0.99701227248E+01  0.99701227248E+01  0.00000000000E+00 0.  1.
         13    1    1    2    0    0  0.96067495279E+01 -0.67554662788E+01  0.15168186055E+02  0.19183612626E+02  0.10566000000E+00 0. -1.
        996    1    1    2    0    0 -0.96067495279E+01  0.67554662788E+01  0.74861635397E+02  0.90786510097E+02  0.50000000000E+02 0.  0.
<mgrwt>
<rscale>  0 0.51360743E+02</rscale>
<asrwt>0</asrwt>
<pdfrwt beam="1">  1       13 0.10000000E+01 0.51360743E+02</pdfrwt>
<pdfrwt beam="2">  1       22 0.99701479E-01 0.51360743E+02</pdfrwt>
<totfact> 0.14137210E+00</totfact>
</mgrwt>
</event>
<event>
 4    1  0.2489496E+000  0.5223863E+02  0.7957747E-01  0.1433628E+00
         13   -1    0    0    0    0  0.00000000000E+00  0.00000000000E+00  0.99999944173E+02  0.99999999993E+02  0.10566000000E+00 0.  1.
         22   -1    0    0    0    0 -0.00000000000E+00 -0.00000000000E+00 -0.11408154797E+02  0.11408154797E+02  0.00000000000E+00 0.  1.
         13    1    1    2    0    0  0.10158314604E+02  0.11210859888E+02  0.16591665499E+02  0.22453713792E+02  0.10566000000E+00 0. -1.
        996    1    1    2    0    0 -0.10158314604E+02 -0.11210859888E+02  0.72000123877E+02  0.88954440998E+02  0.50000000000E+02 0.  0.
<mgrwt>
<rscale>  0 0.52238633E+02</rscale>
<asrwt>0</asrwt>
<pdfrwt beam="1">  1       13 0.10000000E+01 0.52238633E+02</pdfrwt>
<pdfrwt beam="2">  1       22 0.11408180E+00 0.52238633E+02</pdfrwt>
<totfact> 0.11613263E+00</totfact>
</mgrwt>
</event>
<event>
 4    1  0.2489496E+000  0.5758600E+02  0.7957747E-01  0.1408251E+00
         13   -1    0    0    0    0  0.00000000000E+00  0.00000000000E+00  0.99999944171E+02  0.99999999992E+02  0.10566000000E+00 0. -1.
         22   -1    0    0    0    0 -0.00000000000E+00 -0.00000000000E+00 -0.23193313892E+02  0.23193313892E+02  0.00000000000E+00 0.  1.
         13    1    1    2    0    0  0.13517240891E+02  0.25168063381E+02  0.17927718925E+01  0.28624681845E+02  0.10566000000E+00 0.  1.
        996    1    1    2    0    0 -0.13517240891E+02 -0.25168063381E+02  0.75013858387E+02  0.94568632039E+02  0.50000000000E+02 0.  0.
<mgrwt>
<rscale>  0 0.57585998E+02</rscale>
<asrwt>0</asrwt>
<pdfrwt beam="1">  1       13 0.10000000E+01 0.57585998E+02</pdfrwt>
<pdfrwt beam="2">  1       22 0.23193335E+00 0.57585998E+02</pdfrwt>
<totfact> 0.34445074E-01</totfact>
</mgrwt>
</event>
<event>
 4    1  0.2489496E+000  0.5112999E+02  0.7957747E-01  0.1439340E+00
         13   -1    0    0    0    0  0.00000000000E+00  0.00000000000E+00  0.99999944176E+02  0.99999999996E+02  0.10566000000E+00 0. -1.
         22   -1    0    0    0    0 -0.00000000000E+00 -0.00000000000E+00 -0.98954495682E+01  0.98954495682E+01  0.00000000000E+00 0. -1.
         13    1    1    2    0    0 -0.50404134385E+01  0.94271091485E+01  0.87829690630E+01  0.13835745882E+02  0.10566000000E+00 0.  1.
        996    1    1    2    0    0  0.50404134385E+01 -0.94271091485E+01  0.81321525545E+02  0.96059703682E+02  0.50000000000E+02 0.  0.
<mgrwt>
<rscale>  0 0.51129993E+02</rscale>
<asrwt>0</asrwt>
<pdfrwt beam="1">  1       13 0.10000000E+01 0.51129993E+02</pdfrwt>
<pdfrwt beam="2">  1       22 0.98954747E-01 0.51129993E+02</pdfrwt>
<totfact> 0.14283639E+00</totfact>
</mgrwt>
</event>
<event>
 4    1  0.2489496E+000  0.6050645E+02  0.7957747E-01  0.1395719E+00
         13   -1    0    0    0    0  0.00000000000E+00  0.00000000000E+00  0.99999944175E+02  0.99999999995E+02  0.10566000000E+00 0.  1.
         22   -1    0    0    0    0 -0.00000000000E+00 -0.00000000000E+00 -0.22741855907E+02  0.22741855907E+02  0.00000000000E+00 0. -1.
         13    1    1    2    0    0  0.20194737625E+02  0.27444546891E+02  0.20408726751E+02  0.39718482768E+02  0.10566000000E+00 0. -1.
        996    1    1    2    0    0 -0.20194737625E+02 -0.27444546891E+02  0.56849361517E+02  0.83023373135E+02  0.50000000000E+02 0.  0.
<mgrwt>
<rscale>  0 0.60506451E+02</rscale>
<asrwt>0</asrwt>
<pdfrwt beam="1">  1       13 0.10000000E+01 0.60506451E+02</pdfrwt>
<pdfrwt beam="2">  1       22 0.22741877E+00 0.60506451E+02</pdfrwt>
<totfact> 0.35942746E-01</totfact>
</mgrwt>
</event>
<event>
 4    1  0.2489496E+000  0.5315596E+02  0.7957747E-01  0.1429026E+00
         13   -1    0    0    0    0  0.00000000000E+00  0.00000000000E+00  0.99999944179E+02  0.99999999999E+02  0.10566000000E+00 0. -1.
         22   -1    0    0    0    0 -0.00000000000E+00 -0.00000000000E+00 -0.13180390772E+02  0.13180390772E+02  0.00000000000E+00 0. -1.
         13    1    1    2    0    0 -0.16870521920E+02 -0.63985930313E+01  0.13110483821E+02  0.22303642139E+02  0.10566000000E+00 0.  1.
        996    1    1    2    0    0  0.16870521920E+02  0.63985930313E+01  0.73709069586E+02  0.90876748632E+02  0.50000000000E+02 0.  0.
<mgrwt>
<rscale>  0 0.53155964E+02</rscale>
<asrwt>0</asrwt>
<pdfrwt beam="1">  1       13 0.10000000E+01 0.53155964E+02</pdfrwt>
<pdfrwt beam="2">  1       22 0.13180415E+00 0.53155964E+02</pdfrwt>
<totfact> 0.93111421E-01</totfact>
</mgrwt>
</event>
<event>
 4    1  0.2489496E+000  0.5561084E+02  0.7957747E-01  0.1417232E+00
         13   -1    0    0    0    0  0.00000000000E+00  0.00000000000E+00  0.99999944172E+02  0.99999999992E+02  0.10566000000E+00 0. -1.
         22   -1    0    0    0    0 -0.00000000000E+00 -0.00000000000E+00 -0.22768670379E+02  0.22768670379E+02  0.00000000000E+00 0.  1.
         13    1    1    2    0    0  0.10504629524E+02 -0.21959478592E+02 -0.36489055733E+01  0.24614865780E+02  0.10566000000E+00 0.  1.
        996    1    1    2    0    0 -0.10504629524E+02  0.21959478592E+02  0.80880179367E+02  0.98153804592E+02  0.50000000000E+02 0.  0.
<mgrwt>
<rscale>  0 0.55610844E+02</rscale>
<asrwt>0</asrwt>
<pdfrwt beam="1">  1       13 0.10000000E+01 0.55610844E+02</pdfrwt>
<pdfrwt beam="2">  1       22 0.22768692E+00 0.55610844E+02</pdfrwt>
<totfact> 0.35600681E-01</totfact>
</mgrwt>
</event>
<event>
 4    1  0.2489496E+000  0.6071102E+02  0.7957747E-01  0.1394872E+00
         13   -1    0    0    0    0  0.00000000000E+00  0.00000000000E+00  0.99999944183E+02  0.10000000000E+03  0.10566000000E+00 0. -1.
         22   -1    0    0    0    0 -0.00000000000E+00 -0.00000000000E+00 -0.40628506962E+02  0.40628506962E+02  0.00000000000E+00 0.  1.
         13    1    1    2    0    0  0.83800996810E+01 -0.33400633834E+02 -0.20673048239E+02  0.40164841574E+02  0.10566000000E+00 0.  1.
        996    1    1    2    0    0 -0.83800996810E+01  0.33400633834E+02  0.80044485460E+02  0.10046366539E+03  0.50000000000E+02 0.  0.
<mgrwt>
<rscale>  0 0.60711024E+02</rscale>
<asrwt>0</asrwt>
<pdfrwt beam="1">  1       13 0.10000000E+01 0.60711024E+02</pdfrwt>
<pdfrwt beam="2">  1       22 0.40628524E+00 0.60711024E+02</pdfrwt>
<totfact> 0.12076745E-01</totfact>
</mgrwt>
</event>
<event>
 4    1  0.2489496E+000  0.5171428E+02  0.7957747E-01  0.1436309E+00
         13   -1    0    0    0    0  0.00000000000E+00  0.00000000000E+00  0.99999944172E+02  0.99999999992E+02  0.10566000000E+00 0. -1.
         22   -1    0    0    0    0 -0.00000000000E+00 -0.00000000000E+00 -0.10569538630E+02  0.10569538630E+02  0.00000000000E+00 0. -1.
         13    1    1    2    0    0 -0.12553050066E+02 -0.40972544728E+01  0.15777256952E+02  0.20574245093E+02  0.10566000000E+00 0.  1.
        996    1    1    2    0    0  0.12553050066E+02  0.40972544728E+01  0.73653148590E+02  0.89995293529E+02  0.50000000000E+02 0.  0.
<mgrwt>
<rscale>  0 0.51714278E+02</rscale>
<asrwt>0</asrwt>
<pdfrwt beam="1">  1       13 0.10000000E+01 0.51714278E+02</pdfrwt>
<pdfrwt beam="2">  1       22 0.10569564E+00 0.51714278E+02</pdfrwt>
<totfact> 0.12994130E+00</totfact>
</mgrwt>
</event>
<event>
 4    1  0.2489496E+000  0.5103312E+02  0.7957747E-01  0.1439848E+00
         13   -1    0    0    0    0  0.00000000000E+00  0.00000000000E+00  0.99999944179E+02  0.99999999999E+02  0.10566000000E+00 0.  1.
         22   -1    0    0    0    0 -0.00000000000E+00 -0.00000000000E+00 -0.95370499086E+01  0.95370499086E+01  0.00000000000E+00 0.  1.
         13    1    1    2    0    0 -0.52741159389E+00  0.10203012817E+02  0.20881797657E+02  0.23247371269E+02  0.10566000000E+00 0. -1.
        996    1    1    2    0    0  0.52741159389E+00 -0.10203012817E+02  0.69581096614E+02  0.86289678639E+02  0.50000000000E+02 0.  0.
<mgrwt>
<rscale>  0 0.51033123E+02</rscale>
<asrwt>0</asrwt>
<pdfrwt beam="1">  1       13 0.10000000E+01 0.51033123E+02</pdfrwt>
<pdfrwt beam="2">  1       22 0.95370752E-01 0.51033123E+02</pdfrwt>
<totfact> 0.15057651E+00</totfact>
</mgrwt>
</event>
<event>
 4    1  0.2489496E+000  0.5234122E+02  0.7957747E-01  0.1433108E+00
         13   -1    0    0    0    0  0.00000000000E+00  0.00000000000E+00  0.99999944176E+02  0.99999999997E+02  0.10566000000E+00 0. -1.
         22   -1    0    0    0    0 -0.00000000000E+00 -0.00000000000E+00 -0.46160406388E+02  0.46160406388E+02  0.00000000000E+00 0.  1.
         13    1    1    2    0    0 -0.14918485726E+02  0.41282073626E+01 -0.37677197840E+02  0.40733103411E+02  0.10566000000E+00 0.  1.
        996    1    1    2    0    0  0.14918485726E+02 -0.41282073626E+01  0.91516735628E+02  0.10542730297E+03  0.50000000000E+02 0.  0.
<mgrwt>
<rscale>  0 0.52341220E+02</rscale>
<asrwt>0</asrwt>
<pdfrwt beam="1">  1       13 0.10000000E+01 0.52341220E+02</pdfrwt>
<pdfrwt beam="2">  1       22 0.46160421E+00 0.52341220E+02</pdfrwt>
<totfact> 0.90908923E-02</totfact>
</mgrwt>
</event>
<event>
 4    1  0.2489496E+000  0.5138626E+02  0.7957747E-01  0.1438005E+00
         13   -1    0    0    0    0  0.00000000000E+00  0.00000000000E+00  0.99999944183E+02  0.10000000000E+03  0.10566000000E+00 0. -1.
         22   -1    0    0    0    0 -0.00000000000E+00 -0.00000000000E+00 -0.49419962083E+02  0.49419962083E+02  0.00000000000E+00 0. -1.
         13    1    1    2    0    0 -0.64701798451E-01  0.11855123732E+02 -0.41942207142E+02  0.43585640399E+02  0.10566000000E+00 0.  1.
        996    1    1    2    0    0  0.64701798451E-01 -0.11855123732E+02  0.92522189242E+02  0.10583432169E+03  0.50000000000E+02 0.  0.
<mgrwt>
<rscale>  0 0.51386264E+02</rscale>
<asrwt>0</asrwt>
<pdfrwt beam="1">  1       13 0.10000000E+01 0.51386264E+02</pdfrwt>
<pdfrwt beam="2">  1       22 0.49419976E+00 0.51386264E+02</pdfrwt>
<totfact> 0.75994386E-02</totfact>
</mgrwt>
</event>
<event>
 4    1  0.2489496E+000  0.5135392E+02  0.7957747E-01  0.1438173E+00
         13   -1    0    0    0    0  0.00000000000E+00  0.00000000000E+00  0.99999944176E+02  0.99999999996E+02  0.10566000000E+00 0. -1.
         22   -1    0    0    0    0 -0.00000000000E+00 -0.00000000000E+00 -0.12578603291E+02  0.12578603291E+02  0.00000000000E+00 0. -1.
         13    1    1    2    0    0 -0.49843665023E+01 -0.10601003850E+02  0.62919017109E+00  0.11731676622E+02  0.10566000000E+00 0.  1.
        996    1    1    2    0    0  0.49843665023E+01  0.10601003850E+02  0.86792150714E+02  0.10084692666E+03  0.50000000000E+02 0.  0.
<mgrwt>
<rscale>  0 0.51353921E+02</rscale>
<asrwt>0</asrwt>
<pdfrwt beam="1">  1       13 0.10000000E+01 0.51353921E+02</pdfrwt>
<pdfrwt beam="2">  1       22 0.12578628E+00 0.51353921E+02</pdfrwt>
<totfact> 0.99811687E-01</totfact>
</mgrwt>
</event>
<event>
 4    1  0.2489496E+000  0.5203572E+02  0.7957747E-01  0.1434661E+00
         13   -1    0    0    0    0  0.00000000000E+00  0.00000000000E+00  0.99999944172E+02  0.99999999992E+02  0.10566000000E+00 0.  1.
         22   -1    0    0    0    0 -0.00000000000E+00 -0.00000000000E+00 -0.11315130501E+02  0.11315130501E+02  0.00000000000E+00 0.  1.
         13    1    1    2    0    0 -0.93929604535E+00 -0.14381704791E+02  0.27064601641E+02  0.30662999458E+02  0.10566000000E+00 0. -1.
        996    1    1    2    0    0  0.93929604535E+00  0.14381704791E+02  0.61620212031E+02  0.80652131035E+02  0.50000000000E+02 0.  0.
<mgrwt>
<rscale>  0 0.52035716E+02</rscale>
<asrwt>0</asrwt>
<pdfrwt beam="1">  1       13 0.10000000E+01 0.52035716E+02</pdfrwt>
<pdfrwt beam="2">  1       22 0.11315155E+00 0.52035716E+02</pdfrwt>
<totfact> 0.11751613E+00</totfact>
</mgrwt>
</event>
<event>
 4    1  0.2489496E+000  0.5205815E+02  0.7957747E-01  0.1434546E+00
         13   -1    0    0    0    0  0.00000000000E+00  0.00000000000E+00  0.99999944178E+02  0.99999999998E+02  0.10566000000E+00 0.  1.
         22   -1    0    0    0    0 -0.00000000000E+00 -0.00000000000E+00 -0.19281574364E+02  0.19281574364E+02  0.00000000000E+00 0. -1.
         13    1    1    2    0    0  0.13278941766E+02  0.58069921877E+01 -0.78978182611E+01  0.16505700531E+02  0.10566000000E+00 0. -1.
        996    1    1    2    0    0 -0.13278941766E+02 -0.58069921877E+01  0.88616188075E+02  0.10277587383E+03  0.50000000000E+02 0.  0.
<mgrwt>
<rscale>  0 0.52058155E+02</rscale>
<asrwt>0</asrwt>
<pdfrwt beam="1">  1       13 0.10000000E+01 0.52058155E+02</pdfrwt>
<pdfrwt beam="2">  1       22 0.19281597E+00 0.52058155E+02</pdfrwt>
<totfact> 0.48491183E-01</totfact>
</mgrwt>
</event>
<event>
 4    1  0.2489496E+000  0.6020639E+02  0.7957747E-01  0.1396968E+00
         13   -1    0    0    0    0  0.00000000000E+00  0.00000000000E+00  0.99999944178E+02  0.99999999998E+02  0.10566000000E+00 0. -1.
         22   -1    0    0    0    0 -0.00000000000E+00 -0.00000000000E+00 -0.28573294545E+02  0.28573294545E+02  0.00000000000E+00 0.  1.
         13    1    1    2    0    0 -0.26824742539E+02 -0.20130641218E+02 -0.20255156570E+01  0.33599455440E+02  0.10566000000E+00 0.  1.
        996    1    1    2    0    0  0.26824742539E+02  0.20130641218E+02  0.73452165289E+02  0.94973839103E+02  0.50000000000E+02 0.  0.
<mgrwt>
<rscale>  0 0.60206391E+02</rscale>
<asrwt>0</asrwt>
<pdfrwt beam="1">  1       13 0.10000000E+01 0.60206391E+02</pdfrwt>
<pdfrwt beam="2">  1       22 0.28573314E+00 0.60206391E+02</pdfrwt>
<totfact> 0.22947631E-01</totfact>
</mgrwt>
</event>
<event>
 4    1  0.2489496E+000  0.5137306E+02  0.7957747E-01  0.1438073E+00
         13   -1    0    0    0    0  0.00000000000E+00  0.00000000000E+00  0.99999944165E+02  0.99999999985E+02  0.10566000000E+00 0. -1.
         22   -1    0    0    0    0 -0.00000000000E+00 -0.00000000000E+00 -0.19489774785E+02  0.19489774785E+02  0.00000000000E+00 0.  1.
         13    1    1    2    0    0  0.61258590300E+01  0.10082909198E+02 -0.99671158633E+01  0.15444926980E+02  0.10566000000E+00 0.  1.
        996    1    1    2    0    0 -0.61258590300E+01 -0.10082909198E+02  0.90477285243E+02  0.10404484779E+03  0.50000000000E+02 0.  0.
<mgrwt>
<rscale>  0 0.51373059E+02</rscale>
<asrwt>0</asrwt>
<pdfrwt beam="1">  1       13 0.10000000E+01 0.51373059E+02</pdfrwt>
<pdfrwt beam="2">  1       22 0.19489797E+00 0.51373059E+02</pdfrwt>
<totfact> 0.47480453E-01</totfact>
</mgrwt>
</event>
<event>
 4    1  0.2489496E+000  0.5263736E+02  0.7957747E-01  0.1431614E+00
         13   -1    0    0    0    0  0.00000000000E+00  0.00000000000E+00  0.99999944181E+02  0.10000000000E+03  0.10566000000E+00 0.  1.
         22   -1    0    0    0    0 -0.00000000000E+00 -0.00000000000E+00 -0.14785992786E+02  0.14785992786E+02  0.00000000000E+00 0. -1.
         13    1    1    2    0    0 -0.14242985158E+02 -0.82358426756E+01  0.23541315789E+01  0.16620614619E+02  0.10566000000E+00 0. -1.
        996    1    1    2    0    0  0.14242985158E+02  0.82358426756E+01  0.82859819816E+02  0.98165378167E+02  0.50000000000E+02 0.  0.
<mgrwt>
<rscale>  0 0.52637361E+02</rscale>
<asrwt>0</asrwt>
<pdfrwt beam="1">  1       13 0.10000000E+01 0.52637361E+02</pdfrwt>
<pdfrwt beam="2">  1       22 0.14786017E+00 0.52637361E+02</pdfrwt>
<totfact> 0.77210885E-01</totfact>
</mgrwt>
</event>
<event>
 4    1  0.2489496E+000  0.5265016E+02  0.7957747E-01  0.1431550E+00
         13   -1    0    0    0    0  0.00000000000E+00  0.00000000000E+00  0.99999944179E+02  0.10000000000E+03  0.10566000000E+00 0.  1.
         22   -1    0    0    0    0 -0.00000000000E+00 -0.00000000000E+00 -0.13279303827E+02  0.13279303827E+02  0.00000000000E+00 0.  1.
         13    1    1    2    0    0  0.34678231406E+01  0.16124934253E+02  0.38499054629E+02  0.41883501207E+02  0.10566000000E+00 0. -1.
        996    1    1    2    0    0 -0.34678231406E+01 -0.16124934253E+02  0.48221585723E+02  0.71395802619E+02  0.50000000000E+02 0.  0.
<mgrwt>
<rscale>  0 0.52650160E+02</rscale>
<asrwt>0</asrwt>
<pdfrwt beam="1">  1       13 0.10000000E+01 0.52650160E+02</pdfrwt>
<pdfrwt beam="2">  1       22 0.13279328E+00 0.52650160E+02</pdfrwt>
<totfact> 0.91915399E-01</totfact>
</mgrwt>
</event>
<event>
 4    1  0.2489496E+000  0.5102090E+02  0.7957747E-01  0.1439912E+00
         13   -1    0    0    0    0  0.00000000000E+00  0.00000000000E+00  0.99999944184E+02  0.10000000000E+03  0.10566000000E+00 0.  1.
         22   -1    0    0    0    0 -0.00000000000E+00 -0.00000000000E+00 -0.30274591674E+02  0.30274591674E+02  0.00000000000E+00 0. -1.
         13    1    1    2    0    0 -0.27583439039E+01  0.97736282243E+01 -0.22606955722E+02  0.24783419474E+02  0.10566000000E+00 0. -1.
        996    1    1    2    0    0  0.27583439039E+01 -0.97736282243E+01  0.92332308231E+02  0.10549117220E+03  0.50000000000E+02 0.  0.
<mgrwt>
<rscale>  0 0.51020900E+02</rscale>
<asrwt>0</asrwt>
<pdfrwt beam="1">  1       13 0.10000000E+01 0.51020900E+02</pdfrwt>
<pdfrwt beam="2">  1       22 0.30274611E+00 0.51020900E+02</pdfrwt>
<totfact> 0.20328280E-01</totfact>
</mgrwt>
</event>
<event>
 4    1  0.2489496E+000  0.5253463E+02  0.7957747E-01  0.1432131E+00
         13   -1    0    0    0    0  0.00000000000E+00  0.00000000000E+00  0.99999944182E+02  0.10000000000E+03  0.10566000000E+00 0. -1.
         22   -1    0    0    0    0 -0.00000000000E+00 -0.00000000000E+00 -0.11946453065E+02  0.11946453065E+02  0.00000000000E+00 0.  1.
         13    1    1    2    0    0 -0.19847682241E+01  0.15998369219E+02  0.15446818775E+02  0.22327169478E+02  0.10566000000E+00 0.  1.
        996    1    1    2    0    0  0.19847682241E+01 -0.15998369219E+02  0.72606672341E+02  0.89619283589E+02  0.50000000000E+02 0.  0.
<mgrwt>
<rscale>  0 0.52534628E+02</rscale>
<asrwt>0</asrwt>
<pdfrwt beam="1">  1       13 0.10000000E+01 0.52534628E+02</pdfrwt>
<pdfrwt beam="2">  1       22 0.11946478E+00 0.52534628E+02</pdfrwt>
<totfact> 0.10836126E+00</totfact>
</mgrwt>
</event>
<event>
 4    1  0.2489496E+000  0.5246428E+02  0.7957747E-01  0.1432486E+00
         13   -1    0    0    0    0  0.00000000000E+00  0.00000000000E+00  0.99999944181E+02  0.10000000000E+03  0.10566000000E+00 0.  1.
         22   -1    0    0    0    0 -0.00000000000E+00 -0.00000000000E+00 -0.12681915467E+02  0.12681915467E+02  0.00000000000E+00 0.  1.
         13    1    1    2    0    0  0.78800283659E+01 -0.13798761966E+02  0.35724980704E+02  0.39099694234E+02  0.10566000000E+00 0. -1.
        996    1    1    2    0    0 -0.78800283659E+01  0.13798761966E+02  0.51593048011E+02  0.73582221235E+02  0.50000000000E+02 0.  0.
<mgrwt>
<rscale>  0 0.52464280E+02</rscale>
<asrwt>0</asrwt>
<pdfrwt beam="1">  1       13 0.10000000E+01 0.52464280E+02</pdfrwt>
<pdfrwt beam="2">  1       22 0.12681940E+00 0.52464280E+02</pdfrwt>
<totfact> 0.98787211E-01</totfact>
</mgrwt>
</event>
<event>
 4    1  0.2489496E+000  0.8988091E+02  0.7957747E-01  0.1303140E+00
         13   -1    0    0    0    0  0.00000000000E+00  0.00000000000E+00  0.99999944180E+02  0.10000000000E+03  0.10566000000E+00 0.  1.
         22   -1    0    0    0    0 -0.00000000000E+00 -0.00000000000E+00 -0.85438084949E+02  0.85438084949E+02  0.00000000000E+00 0. -1.
         13    1    1    2    0    0 -0.52307792105E+02  0.53314838945E+02 -0.35345297248E+02  0.82630977050E+02  0.10566000000E+00 0. -1.
        996    1    1    2    0    0  0.52307792105E+02 -0.53314838945E+02  0.49907156480E+02  0.10280710790E+03  0.50000000000E+02 0.  0.
<mgrwt>
<rscale>  0 0.89880905E+02</rscale>
<asrwt>0</asrwt>
<pdfrwt beam="1">  1       13 0.10000000E+01 0.89880905E+02</pdfrwt>
<pdfrwt beam="2">  1       22 0.85438089E+00 0.89880905E+02</pdfrwt>
<totfact> 0.18106304E-02</totfact>
</mgrwt>
</event>
<event>
 4    1  0.2489496E+000  0.5171365E+02  0.7957747E-01  0.1436312E+00
         13   -1    0    0    0    0  0.00000000000E+00  0.00000000000E+00  0.99999944175E+02  0.99999999995E+02  0.10566000000E+00 0. -1.
         22   -1    0    0    0    0 -0.00000000000E+00 -0.00000000000E+00 -0.30429396495E+02  0.30429396495E+02  0.00000000000E+00 0.  1.
         13    1    1    2    0    0  0.19195228479E+01  0.13062029501E+02 -0.21772867675E+02  0.25463112801E+02  0.10566000000E+00 0.  1.
        996    1    1    2    0    0 -0.19195228479E+01 -0.13062029501E+02  0.91343415355E+02  0.10496628369E+03  0.50000000000E+02 0.  0.
<mgrwt>
<rscale>  0 0.51713646E+02</rscale>
<asrwt>0</asrwt>
<pdfrwt beam="1">  1       13 0.10000000E+01 0.51713646E+02</pdfrwt>
<pdfrwt beam="2">  1       22 0.30429416E+00 0.51713646E+02</pdfrwt>
<totfact> 0.20155623E-01</totfact>
</mgrwt>
</event>
<event>
 4    1  0.2489496E+000  0.5135733E+02  0.7957747E-01  0.1438155E+00
         13   -1    0    0    0    0  0.00000000000E+00  0.00000000000E+00  0.99999944189E+02  0.10000000001E+03  0.10566000000E+00 0. -1.
         22   -1    0    0    0    0 -0.00000000000E+00 -0.00000000000E+00 -0.30789696438E+02  0.30789696438E+02  0.00000000000E+00 0.  1.
         13    1    1    2    0    0 -0.11275155885E+02  0.32320959033E+01 -0.22673080137E+02  0.25527540248E+02  0.10566000000E+00 0.  1.
        996    1    1    2    0    0  0.11275155885E+02 -0.32320959033E+01  0.91883327887E+02  0.10526215620E+03  0.50000000000E+02 0.  0.
<mgrwt>
<rscale>  0 0.51357332E+02</rscale>
<asrwt>0</asrwt>
<pdfrwt beam="1">  1       13 0.10000000E+01 0.51357332E+02</pdfrwt>
<pdfrwt beam="2">  1       22 0.30789716E+00 0.51357332E+02</pdfrwt>
<totfact> 0.19714357E-01</totfact>
</mgrwt>
</event>
<event>
 4    1  0.2489496E+000  0.5109609E+02  0.7957747E-01  0.1439518E+00
         13   -1    0    0    0    0  0.00000000000E+00  0.00000000000E+00  0.99999944183E+02  0.10000000000E+03  0.10566000000E+00 0.  1.
         22   -1    0    0    0    0 -0.00000000000E+00 -0.00000000000E+00 -0.95000146210E+01  0.95000146210E+01  0.00000000000E+00 0.  1.
         13    1    1    2    0    0  0.72927504348E+01  0.75911835514E+01  0.14404490257E+02  0.17841266217E+02  0.10566000000E+00 0. -1.
        996    1    1    2    0    0 -0.72927504348E+01 -0.75911835514E+01  0.76095439305E+02  0.91658748408E+02  0.50000000000E+02 0.  0.
<mgrwt>
<rscale>  0 0.51096089E+02</rscale>
<asrwt>0</asrwt>
<pdfrwt beam="1">  1       13 0.10000000E+01 0.51096089E+02</pdfrwt>
<pdfrwt beam="2">  1       22 0.95000399E-01 0.51096089E+02</pdfrwt>
<totfact> 0.15143999E+00</totfact>
</mgrwt>
</event>
<event>
 4    1  0.2489496E+000  0.5199769E+02  0.7957747E-01  0.1434855E+00
         13   -1    0    0    0    0  0.00000000000E+00  0.00000000000E+00  0.99999944180E+02  0.10000000000E+03  0.10566000000E+00 0. -1.
         22   -1    0    0    0    0 -0.00000000000E+00 -0.00000000000E+00 -0.15804558863E+02  0.15804558863E+02  0.00000000000E+00 0.  1.
         13    1    1    2    0    0 -0.10097202409E+02 -0.10089915967E+02 -0.27112776568E+01  0.14530040993E+02  0.10566000000E+00 0.  1.
        996    1    1    2    0    0  0.10097202409E+02  0.10089915967E+02  0.86906662973E+02  0.10127451787E+03  0.50000000000E+02 0.  0.
<mgrwt>
<rscale>  0 0.51997691E+02</rscale>
<asrwt>0</asrwt>
<pdfrwt beam="1">  1       13 0.10000000E+01 0.51997691E+02</pdfrwt>
<pdfrwt beam="2">  1       22 0.15804582E+00 0.51997691E+02</pdfrwt>
<totfact> 0.68954602E-01</totfact>
</mgrwt>
</event>
<event>
 4    1  0.2489496E+000  0.5188649E+02  0.7957747E-01  0.1435424E+00
         13   -1    0    0    0    0  0.00000000000E+00  0.00000000000E+00  0.99999944176E+02  0.99999999996E+02  0.10566000000E+00 0. -1.
         22   -1    0    0    0    0 -0.00000000000E+00 -0.00000000000E+00 -0.24677491101E+02  0.24677491101E+02  0.00000000000E+00 0.  1.
         13    1    1    2    0    0 -0.12756052046E+02 -0.54305261000E+01 -0.15054010645E+02  0.20465626745E+02  0.10566000000E+00 0.  1.
        996    1    1    2    0    0  0.12756052046E+02  0.54305261000E+01  0.90376463719E+02  0.10421186435E+03  0.50000000000E+02 0.  0.
<mgrwt>
<rscale>  0 0.51886486E+02</rscale>
<asrwt>0</asrwt>
<pdfrwt beam="1">  1       13 0.10000000E+01 0.51886486E+02</pdfrwt>
<pdfrwt beam="2">  1       22 0.24677512E+00 0.51886486E+02</pdfrwt>
<totfact> 0.30236224E-01</totfact>
</mgrwt>
</event>
<event>
 4    1  0.2489496E+000  0.5267298E+02  0.7957747E-01  0.1431435E+00
         13   -1    0    0    0    0  0.00000000000E+00  0.00000000000E+00  0.99999944181E+02  0.10000000000E+03  0.10566000000E+00 0. -1.
         22   -1    0    0    0    0 -0.00000000000E+00 -0.00000000000E+00 -0.27967065196E+02  0.27967065196E+02  0.00000000000E+00 0.  1.
         13    1    1    2    0    0  0.15793546675E+02 -0.50006244124E+01 -0.17494687603E+02  0.24093933250E+02  0.10566000000E+00 0.  1.
        996    1    1    2    0    0 -0.15793546675E+02  0.50006244124E+01  0.89527566588E+02  0.10387313195E+03  0.50000000000E+02 0.  0.
<mgrwt>
<rscale>  0 0.52672976E+02</rscale>
<asrwt>0</asrwt>
<pdfrwt beam="1">  1       13 0.10000000E+01 0.52672976E+02</pdfrwt>
<pdfrwt beam="2">  1       22 0.27967085E+00 0.52672976E+02</pdfrwt>
<totfact> 0.23687236E-01</totfact>
</mgrwt>
</event>
<event>
 4    1  0.2489496E+000  0.5124094E+02  0.7957747E-01  0.1438761E+00
         13   -1    0    0    0    0  0.00000000000E+00  0.00000000000E+00  0.99999944174E+02  0.99999999994E+02  0.10566000000E+00 0. -1.
         22   -1    0    0    0    0 -0.00000000000E+00 -0.00000000000E+00 -0.12541460257E+02  0.12541460257E+02  0.00000000000E+00 0.  1.
         13    1    1    2    0    0  0.55604194685E+01 -0.97322041957E+01  0.36580012984E-01  0.11209217872E+02  0.10566000000E+00 0.  1.
        996    1    1    2    0    0 -0.55604194685E+01  0.97322041957E+01  0.87421903904E+02  0.10133224238E+03  0.50000000000E+02 0.  0.
<mgrwt>
<rscale>  0 0.51240941E+02</rscale>
<asrwt>0</asrwt>
<pdfrwt beam="1">  1       13 0.10000000E+01 0.51240941E+02</pdfrwt>
<pdfrwt beam="2">  1       22 0.12541485E+00 0.51240941E+02</pdfrwt>
<totfact> 0.10024669E+00</totfact>
</mgrwt>
</event>
<event>
 4    1  0.2489496E+000  0.5815687E+02  0.7957747E-01  0.1405733E+00
         13   -1    0    0    0    0  0.00000000000E+00  0.00000000000E+00  0.99999944186E+02  0.10000000001E+03  0.10566000000E+00 0.  1.
         22   -1    0    0    0    0 -0.00000000000E+00 -0.00000000000E+00 -0.37396401084E+02  0.37396401084E+02  0.00000000000E+00 0. -1.
         13    1    1    2    0    0 -0.12756823135E+02 -0.26823228135E+02 -0.20409555756E+02  0.36038635299E+02  0.10566000000E+00 0. -1.
        996    1    1    2    0    0  0.12756823135E+02  0.26823228135E+02  0.83013098857E+02  0.10135776579E+03  0.50000000000E+02 0.  0.
<mgrwt>
<rscale>  0 0.58156875E+02</rscale>
<asrwt>0</asrwt>
<pdfrwt beam="1">  1       13 0.10000000E+01 0.58156875E+02</pdfrwt>
<pdfrwt beam="2">  1       22 0.37396419E+00 0.58156875E+02</pdfrwt>
<totfact> 0.14063895E-01</totfact>
</mgrwt>
</event>
<event>
 4    1  0.2489496E+000  0.6353371E+02  0.7957747E-01  0.1383574E+00
         13   -1    0    0    0    0  0.00000000000E+00  0.00000000000E+00  0.99999944175E+02  0.99999999996E+02  0.10566000000E+00 0.  1.
         22   -1    0    0    0    0 -0.00000000000E+00 -0.00000000000E+00 -0.29837141397E+02  0.29837141397E+02  0.00000000000E+00 0. -1.
         13    1    1    2    0    0  0.28700397521E+02 -0.26698683338E+02  0.62055733936E+01  0.39686935067E+02  0.10566000000E+00 0. -1.
        996    1    1    2    0    0 -0.28700397521E+02  0.26698683338E+02  0.63957229385E+02  0.90150206325E+02  0.50000000000E+02 0.  0.
<mgrwt>
<rscale>  0 0.63533712E+02</rscale>
<asrwt>0</asrwt>
<pdfrwt beam="1">  1       13 0.10000000E+01 0.63533712E+02</pdfrwt>
<pdfrwt beam="2">  1       22 0.29837161E+00 0.63533712E+02</pdfrwt>
<totfact> 0.21204632E-01</totfact>
</mgrwt>
</event>
<event>
 4    1  0.2489496E+000  0.5107745E+02  0.7957747E-01  0.1439615E+00
         13   -1    0    0    0    0  0.00000000000E+00  0.00000000000E+00  0.99999944176E+02  0.99999999996E+02  0.10566000000E+00 0. -1.
         22   -1    0    0    0    0 -0.00000000000E+00 -0.00000000000E+00 -0.18324710637E+02  0.18324710637E+02  0.00000000000E+00 0.  1.
         13    1    1    2    0    0 -0.75366336992E+01 -0.72184050049E+01 -0.93083089055E+01  0.13984348288E+02  0.10566000000E+00 0.  1.
        996    1    1    2    0    0  0.75366336992E+01  0.72184050049E+01  0.90983542445E+02  0.10434036234E+03  0.50000000000E+02 0.  0.
<mgrwt>
<rscale>  0 0.51077453E+02</rscale>
<asrwt>0</asrwt>
<pdfrwt beam="1">  1       13 0.10000000E+01 0.51077453E+02</pdfrwt>
<pdfrwt beam="2">  1       22 0.18324733E+00 0.51077453E+02</pdfrwt>
<totfact> 0.53108514E-01</totfact>
</mgrwt>
</event>
<event>
 4    1  0.2489496E+000  0.5580469E+02  0.7957747E-01  0.1416331E+00
         13   -1    0    0    0    0  0.00000000000E+00  0.00000000000E+00  0.99999944184E+02  0.10000000000E+03  0.10566000000E+00 0.  1.
         22   -1    0    0    0    0 -0.00000000000E+00 -0.00000000000E+00 -0.18703556627E+02  0.18703556627E+02  0.00000000000E+00 0. -1.
         13    1    1    2    0    0  0.21721824545E+02  0.11930029444E+02  0.69405660814E+01  0.25736081397E+02  0.10566000000E+00 0. -1.
        996    1    1    2    0    0 -0.21721824545E+02 -0.11930029444E+02  0.74355821476E+02  0.92967475234E+02  0.50000000000E+02 0.  0.
<mgrwt>
<rscale>  0 0.55804689E+02</rscale>
<asrwt>0</asrwt>
<pdfrwt beam="1">  1       13 0.10000000E+01 0.55804689E+02</pdfrwt>
<pdfrwt beam="2">  1       22 0.18703579E+00 0.55804689E+02</pdfrwt>
<totfact> 0.51613342E-01</totfact>
</mgrwt>
</event>
<event>
 4    1  0.2489496E+000  0.5118352E+02  0.7957747E-01  0.1439061E+00
         13   -1    0    0    0    0  0.00000000000E+00  0.00000000000E+00  0.99999944175E+02  0.99999999995E+02  0.10566000000E+00 0.  1.
         22   -1    0    0    0    0 -0.00000000000E+00 -0.00000000000E+00 -0.28205427149E+02  0.28205427149E+02  0.00000000000E+00 0. -1.
         13    1    1    2    0    0 -0.10663644250E+02  0.24576087715E+01 -0.20175368055E+02  0.22952337349E+02  0.10566000000E+00 0. -1.
        996    1    1    2    0    0  0.10663644250E+02 -0.24576087715E+01  0.91969885082E+02  0.10525308980E+03  0.50000000000E+02 0.  0.
<mgrwt>
<rscale>  0 0.51183524E+02</rscale>
<asrwt>0</asrwt>
<pdfrwt beam="1">  1       13 0.10000000E+01 0.51183524E+02</pdfrwt>
<pdfrwt beam="2">  1       22 0.28205447E+00 0.51183524E+02</pdfrwt>
<totfact> 0.23252472E-01</totfact>
</mgrwt>
</event>
<event>
 4    1  0.2489496E+000  0.5103053E+02  0.7957747E-01  0.1439861E+00
         13   -1    0    0    0    0  0.00000000000E+00  0.00000000000E+00  0.99999944178E+02  0.99999999998E+02  0.10566000000E+00 0.  1.
         22   -1    0    0    0    0 -0.00000000000E+00 -0.00000000000E+00 -0.36495112015E+02  0.36495112015E+02  0.00000000000E+00 0. -1.
         13    1    1    2    0    0  0.10185836427E+02  0.60324658519E+00 -0.29057910859E+02  0.30797540773E+02  0.10566000000E+00 0. -1.
        996    1    1    2    0    0 -0.10185836427E+02 -0.60324658519E+00  0.92562743022E+02  0.10569757124E+03  0.50000000000E+02 0.  0.
<mgrwt>
<rscale>  0 0.51030532E+02</rscale>
<asrwt>0</asrwt>
<pdfrwt beam="1">  1       13 0.10000000E+01 0.51030532E+02</pdfrwt>
<pdfrwt beam="2">  1       22 0.36495130E+00 0.51030532E+02</pdfrwt>
<totfact> 0.14592461E-01</totfact>
</mgrwt>
</event>
<event>
 4    1  0.2489496E+000  0.5225838E+02  0.7957747E-01  0.1433528E+00
         13   -1    0    0    0    0  0.00000000000E+00  0.00000000000E+00  0.99999944171E+02  0.99999999991E+02  0.10566000000E+00 0. -1.
         22   -1    0    0    0    0 -0.00000000000E+00 -0.00000000000E+00 -0.11447554823E+02  0.11447554823E+02  0.00000000000E+00 0. -1.
         13    1    1    2    0    0 -0.57584001989E+01 -0.14063385298E+02  0.23800636652E+02  0.28238616255E+02  0.10566000000E+00 0.  1.
        996    1    1    2    0    0  0.57584001989E+01  0.14063385298E+02  0.64751752695E+02  0.83208938559E+02  0.50000000000E+02 0.  0.
<mgrwt>
<rscale>  0 0.52258377E+02</rscale>
<asrwt>0</asrwt>
<pdfrwt beam="1">  1       13 0.10000000E+01 0.52258377E+02</pdfrwt>
<pdfrwt beam="2">  1       22 0.11447580E+00 0.52258377E+02</pdfrwt>
<totfact> 0.11553650E+00</totfact>
</mgrwt>
</event>
<event>
 4    1  0.2489496E+000  0.5523964E+02  0.7957747E-01  0.1418969E+00
         13   -1    0    0    0    0  0.00000000000E+00  0.00000000000E+00  0.99999944176E+02  0.99999999997E+02  0.10566000000E+00 0.  1.
         22   -1    0    0    0    0 -0.00000000000E+00 -0.00000000000E+00 -0.15516428968E+02  0.15516428968E+02  0.00000000000E+00 0. -1.
         13    1    1    2    0    0 -0.19598391763E+02  0.12935250132E+02  0.27284261515E+02  0.35998051977E+02  0.10566000000E+00 0. -1.
        996    1    1    2    0    0  0.19598391763E+02 -0.12935250132E+02  0.57199253694E+02  0.79518376988E+02  0.50000000000E+02 0.  0.
<mgrwt>
<rscale>  0 0.55239638E+02</rscale>
<asrwt>0</asrwt>
<pdfrwt beam="1">  1       13 0.10000000E+01 0.55239638E+02</pdfrwt>
<pdfrwt beam="2">  1       22 0.15516453E+00 0.55239638E+02</pdfrwt>
<totfact> 0.71589591E-01</totfact>
</mgrwt>
</event>
<event>
 4    1  0.2489496E+000  0.6148031E+02  0.7957747E-01  0.1391722E+00
         13   -1    0    0    0    0  0.00000000000E+00  0.00000000000E+00  0.99999944174E+02  0.99999999994E+02  0.10566000000E+00 0.  1.
         22   -1    0    0    0    0 -0.00000000000E+00 -0.00000000000E+00 -0.38291534465E+02  0.38291534465E+02  0.00000000000E+00 0. -1.
         13    1    1    2    0    0 -0.26540223425E+02  0.23988443393E+02 -0.16011545099E+02  0.39194510028E+02  0.10566000000E+00 0. -1.
        996    1    1    2    0    0  0.26540223425E+02 -0.23988443393E+02  0.77719954808E+02  0.99097024431E+02  0.50000000000E+02 0.  0.
<mgrwt>
<rscale>  0 0.61480313E+02</rscale>
<asrwt>0</asrwt>
<pdfrwt beam="1">  1       13 0.10000000E+01 0.61480313E+02</pdfrwt>
<pdfrwt beam="2">  1       22 0.38291552E+00 0.61480313E+02</pdfrwt>
<totfact> 0.13509587E-01</totfact>
</mgrwt>
</event>
<event>
 4    1  0.2489496E+000  0.5298009E+02  0.7957747E-01  0.1429900E+00
         13   -1    0    0    0    0  0.00000000000E+00  0.00000000000E+00  0.99999944182E+02  0.10000000000E+03  0.10566000000E+00 0.  1.
         22   -1    0    0    0    0 -0.00000000000E+00 -0.00000000000E+00 -0.12687417021E+02  0.12687417021E+02  0.00000000000E+00 0.  1.
         13    1    1    2    0    0 -0.61913439649E+01  0.16387707073E+02  0.29176813850E+02  0.34032151176E+02  0.10566000000E+00 0. -1.
        996    1    1    2    0    0  0.61913439649E+01 -0.16387707073E+02  0.58135713311E+02  0.78655265846E+02  0.50000000000E+02 0.  0.
<mgrwt>
<rscale>  0 0.52980088E+02</rscale>
<asrwt>0</asrwt>
<pdfrwt beam="1">  1       13 0.10000000E+01 0.52980088E+02</pdfrwt>
<pdfrwt beam="2">  1       22 0.12687441E+00 0.52980088E+02</pdfrwt>
<totfact> 0.98830062E-01</totfact>
</mgrwt>
</event>
<event>
 4    1  0.2489496E+000  0.5122557E+02  0.7957747E-01  0.1438841E+00
         13   -1    0    0    0    0  0.00000000000E+00  0.00000000000E+00  0.99999944180E+02  0.10000000000E+03  0.10566000000E+00 0. -1.
         22   -1    0    0    0    0 -0.00000000000E+00 -0.00000000000E+00 -0.63379506577E+02  0.63379506577E+02  0.00000000000E+00 0.  1.
         13    1    1    2    0    0 -0.44687639431E+01 -0.10202428690E+02 -0.56237107470E+02  0.57329598141E+02  0.10566000000E+00 0.  1.
        996    1    1    2    0    0  0.44687639431E+01  0.10202428690E+02  0.92857545073E+02  0.10604990844E+03  0.50000000000E+02 0.  0.
<mgrwt>
<rscale>  0 0.51225574E+02</rscale>
<asrwt>0</asrwt>
<pdfrwt beam="1">  1       13 0.10000000E+01 0.51225574E+02</pdfrwt>
<pdfrwt beam="2">  1       22 0.63379517E+00 0.51225574E+02</pdfrwt>
<totfact> 0.80683681E-02</totfact>
</mgrwt>
</event>
<event>
 4    1  0.2489496E+000  0.5913206E+02  0.7957747E-01  0.1401511E+00
         13   -1    0    0    0    0  0.00000000000E+00  0.00000000000E+00  0.99999944174E+02  0.99999999994E+02  0.10566000000E+00 0. -1.
         22   -1    0    0    0    0 -0.00000000000E+00 -0.00000000000E+00 -0.21715852277E+02  0.21715852277E+02  0.00000000000E+00 0.  1.
         13    1    1    2    0    0 -0.38261583824E+01  0.31336266455E+02  0.14503624650E+02  0.34741436000E+02  0.10566000000E+00 0.  1.
        996    1    1    2    0    0  0.38261583824E+01 -0.31336266455E+02  0.63780467247E+02  0.86974416270E+02  0.50000000000E+02 0.  0.
<mgrwt>
<rscale>  0 0.59132065E+02</rscale>
<asrwt>0</asrwt>
<pdfrwt beam="1">  1       13 0.10000000E+01 0.59132065E+02</pdfrwt>
<pdfrwt beam="2">  1       22 0.21715874E+00 0.59132065E+02</pdfrwt>
<totfact> 0.39222080E-01</totfact>
</mgrwt>
</event>
<event>
 4    1  0.2489496E+000  0.5693625E+02  0.7957747E-01  0.1411158E+00
         13   -1    0    0    0    0  0.00000000000E+00  0.00000000000E+00  0.99999944176E+02  0.99999999996E+02  0.10566000000E+00 0. -1.
         22   -1    0    0    0    0 -0.00000000000E+00 -0.00000000000E+00 -0.19417367886E+02  0.19417367886E+02  0.00000000000E+00 0.  1.
         13    1    1    2    0    0  0.24440452757E+02  0.12016692335E+02  0.10662657024E+02  0.29247906668E+02  0.10566000000E+00 0.  1.
        996    1    1    2    0    0 -0.24440452757E+02 -0.12016692335E+02  0.69919919265E+02  0.90169461214E+02  0.50000000000E+02 0.  0.
<mgrwt>
<rscale>  0 0.56936251E+02</rscale>
<asrwt>0</asrwt>
<pdfrwt beam="1">  1       13 0.10000000E+01 0.56936251E+02</pdfrwt>
<pdfrwt beam="2">  1       22 0.19417390E+00 0.56936251E+02</pdfrwt>
<totfact> 0.48274375E-01</totfact>
</mgrwt>
</event>
<event>
 4    1  0.2489496E+000  0.5108278E+02  0.7957747E-01  0.1439587E+00
         13   -1    0    0    0    0  0.00000000000E+00  0.00000000000E+00  0.99999944179E+02  0.99999999999E+02  0.10566000000E+00 0.  1.
         22   -1    0    0    0    0 -0.00000000000E+00 -0.00000000000E+00 -0.11452472750E+02  0.11452472750E+02  0.00000000000E+00 0.  1.
         13    1    1    2    0    0 -0.68399615818E+01 -0.79161420665E+01  0.15643100896E+01  0.10578686580E+02  0.10566000000E+00 0. -1.
        996    1    1    2    0    0  0.68399615818E+01  0.79161420665E+01  0.86983161339E+02  0.10087378617E+03  0.50000000000E+02 0.  0.
<mgrwt>
<rscale>  0 0.51082780E+02</rscale>
<asrwt>0</asrwt>
<pdfrwt beam="1">  1       13 0.10000000E+01 0.51082780E+02</pdfrwt>
<pdfrwt beam="2">  1       22 0.11452497E+00 0.51082780E+02</pdfrwt>
<totfact> 0.11515121E+00</totfact>
</mgrwt>
</event>
<event>
 4    1  0.2489496E+000  0.5795345E+02  0.7957747E-01  0.1406627E+00
         13   -1    0    0    0    0  0.00000000000E+00  0.00000000000E+00  0.99999944172E+02  0.99999999992E+02  0.10566000000E+00 0. -1.
         22   -1    0    0    0    0 -0.00000000000E+00 -0.00000000000E+00 -0.19735771076E+02  0.19735771076E+02  0.00000000000E+00 0.  1.
         13    1    1    2    0    0 -0.95302900621E+01 -0.27708766322E+02  0.16735337819E+02  0.33744404806E+02  0.10566000000E+00 0.  1.
        996    1    1    2    0    0  0.95302900621E+01  0.27708766322E+02  0.63528835277E+02  0.85991366261E+02  0.50000000000E+02 0.  0.
<mgrwt>
<rscale>  0 0.57953448E+02</rscale>
<asrwt>0</asrwt>
<pdfrwt beam="1">  1       13 0.10000000E+01 0.57953448E+02</pdfrwt>
<pdfrwt beam="2">  1       22 0.19735793E+00 0.57953448E+02</pdfrwt>
<totfact> 0.46916726E-01</totfact>
</mgrwt>
</event>
<event>
 4    1  0.2489496E+000  0.5545992E+02  0.7957747E-01  0.1417936E+00
         13   -1    0    0    0    0  0.00000000000E+00  0.00000000000E+00  0.99999944180E+02  0.10000000000E+03  0.10566000000E+00 0. -1.
         22   -1    0    0    0    0 -0.00000000000E+00 -0.00000000000E+00 -0.32407368854E+02  0.32407368854E+02  0.00000000000E+00 0.  1.
         13    1    1    2    0    0 -0.23774325394E+02  0.32533467809E+01 -0.18291657238E+02  0.30172813951E+02  0.10566000000E+00 0.  1.
        996    1    1    2    0    0  0.23774325394E+02 -0.32533467809E+01  0.85884232564E+02  0.10223455490E+03  0.50000000000E+02 0.  0.
<mgrwt>
<rscale>  0 0.55459921E+02</rscale>
<asrwt>0</asrwt>
<pdfrwt beam="1">  1       13 0.10000000E+01 0.55459921E+02</pdfrwt>
<pdfrwt beam="2">  1       22 0.32407388E+00 0.55459921E+02</pdfrwt>
<totfact> 0.18058523E-01</totfact>
</mgrwt>
</event>
<event>
 4    1  0.2489496E+000  0.5812346E+02  0.7957747E-01  0.1405880E+00
         13   -1    0    0    0    0  0.00000000000E+00  0.00000000000E+00  0.99999944187E+02  0.10000000001E+03  0.10566000000E+00 0.  1.
         22   -1    0    0    0    0 -0.00000000000E+00 -0.00000000000E+00 -0.20600152503E+02  0.20600152503E+02  0.00000000000E+00 0. -1.
         13    1    1    2    0    0  0.84167709414E+01  0.28416457895E+02  0.13023159307E+02  0.32372070598E+02  0.10566000000E+00 0. -1.
        996    1    1    2    0    0 -0.84167709414E+01 -0.28416457895E+02  0.66376632376E+02  0.88228081913E+02  0.50000000000E+02 0.  0.
<mgrwt>
<rscale>  0 0.58123464E+02</rscale>
<asrwt>0</asrwt>
<pdfrwt beam="1">  1       13 0.10000000E+01 0.58123464E+02</pdfrwt>
<pdfrwt beam="2">  1       22 0.20600175E+00 0.58123464E+02</pdfrwt>
<totfact> 0.43303585E-01</totfact>
</mgrwt>
</event>
<event>
 4    1  0.2489496E+000  0.5215793E+02  0.7957747E-01  0.1434038E+00
         13   -1    0    0    0    0  0.00000000000E+00  0.00000000000E+00  0.99999944172E+02  0.99999999992E+02  0.10566000000E+00 0.  1.
         22   -1    0    0    0    0 -0.00000000000E+00 -0.00000000000E+00 -0.18072019207E+02  0.18072019207E+02  0.00000000000E+00 0. -1.
         13    1    1    2    0    0  0.83733006028E+01  0.12261216676E+02 -0.58567717074E+01  0.15961282412E+02  0.10566000000E+00 0. -1.
        996    1    1    2    0    0 -0.83733006028E+01 -0.12261216676E+02  0.87784696673E+02  0.10211073679E+03  0.50000000000E+02 0.  0.
<mgrwt>
<rscale>  0 0.52157929E+02</rscale>
<asrwt>0</asrwt>
<pdfrwt beam="1">  1       13 0.10000000E+01 0.52157929E+02</pdfrwt>
<pdfrwt beam="2">  1       22 0.18072042E+00 0.52157929E+02</pdfrwt>
<totfact> 0.54564382E-01</totfact>
</mgrwt>
</event>
<event>
 4    1  0.2489496E+000  0.5120639E+02  0.7957747E-01  0.1438941E+00
         13   -1    0    0    0    0  0.00000000000E+00  0.00000000000E+00  0.99999944185E+02  0.10000000001E+03  0.10566000000E+00 0. -1.
         22   -1    0    0    0    0 -0.00000000000E+00 -0.00000000000E+00 -0.11597370382E+02  0.11597370382E+02  0.00000000000E+00 0. -1.
         13    1    1    2    0    0 -0.99234957799E+01 -0.48598609502E+01  0.21015645425E+01  0.11248188944E+02  0.10566000000E+00 0.  1.
        996    1    1    2    0    0  0.99234957799E+01  0.48598609502E+01  0.86301009261E+02  0.10034918144E+03  0.50000000000E+02 0.  0.
<mgrwt>
<rscale>  0 0.51206386E+02</rscale>
<asrwt>0</asrwt>
<pdfrwt beam="1">  1       13 0.10000000E+01 0.51206386E+02</pdfrwt>
<pdfrwt beam="2">  1       22 0.11597395E+00 0.51206386E+02</pdfrwt>
<totfact> 0.11301975E+00</totfact>
</mgrwt>
</event>
<event>
 4    1  0.2489496E+000  0.5181069E+02  0.7957747E-01  0.1435813E+00
         13   -1    0    0    0    0  0.00000000000E+00  0.00000000000E+00  0.99999944176E+02  0.99999999997E+02  0.10566000000E+00 0. -1.
         22   -1    0    0    0    0 -0.00000000000E+00 -0.00000000000E+00 -0.10748078831E+02  0.10748078831E+02  0.00000000000E+00 0. -1.
         13    1    1    2    0    0  0.11117918306E+02  0.77935610661E+01  0.15344831291E+02  0.20489575714E+02  0.10566000000E+00 0.  1.
        996    1    1    2    0    0 -0.11117918306E+02 -0.77935610661E+01  0.73907034055E+02  0.90258503114E+02  0.50000000000E+02 0.  0.
<mgrwt>
<rscale>  0 0.51810691E+02</rscale>
<asrwt>0</asrwt>
<pdfrwt beam="1">  1       13 0.10000000E+01 0.51810691E+02</pdfrwt>
<pdfrwt beam="2">  1       22 0.10748104E+00 0.51810691E+02</pdfrwt>
<totfact> 0.12680065E+00</totfact>
</mgrwt>
</event>
<event>
 4    1  0.2489496E+000  0.5327145E+02  0.7957747E-01  0.1428455E+00
         13   -1    0    0    0    0  0.00000000000E+00  0.00000000000E+00  0.99999944181E+02  0.10000000000E+03  0.10566000000E+00 0. -1.
         22   -1    0    0    0    0 -0.00000000000E+00 -0.00000000000E+00 -0.28746039565E+02  0.28746039565E+02  0.00000000000E+00 0.  1.
         13    1    1    2    0    0 -0.88292467483E+01 -0.16121144653E+02 -0.17404890825E+02  0.25313796470E+02  0.10566000000E+00 0.  1.
        996    1    1    2    0    0  0.88292467483E+01  0.16121144653E+02  0.88658795441E+02  0.10343224310E+03  0.50000000000E+02 0.  0.
<mgrwt>
<rscale>  0 0.53271445E+02</rscale>
<asrwt>0</asrwt>
<pdfrwt beam="1">  1       13 0.10000000E+01 0.53271445E+02</pdfrwt>
<pdfrwt beam="2">  1       22 0.28746059E+00 0.53271445E+02</pdfrwt>
<totfact> 0.22484643E-01</totfact>
</mgrwt>
</event>
<event>
 4    1  0.2489496E+000  0.5296966E+02  0.7957747E-01  0.1429952E+00
         13   -1    0    0    0    0  0.00000000000E+00  0.00000000000E+00  0.99999944186E+02  0.10000000001E+03  0.10566000000E+00 0.  1.
         22   -1    0    0    0    0 -0.00000000000E+00 -0.00000000000E+00 -0.16816127786E+02  0.16816127786E+02  0.00000000000E+00 0.  1.
         13    1    1    2    0    0 -0.63957940442E+01 -0.16275109065E+02 -0.82013848301E+00  0.17506260243E+02  0.10566000000E+00 0. -1.
        996    1    1    2    0    0  0.63957940442E+01  0.16275109065E+02  0.84003954884E+02  0.99309867549E+02  0.50000000000E+02 0.  0.
<mgrwt>
<rscale>  0 0.52969664E+02</rscale>
<asrwt>0</asrwt>
<pdfrwt beam="1">  1       13 0.10000000E+01 0.52969664E+02</pdfrwt>
<pdfrwt beam="2">  1       22 0.16816151E+00 0.52969664E+02</pdfrwt>
<totfact> 0.62081437E-01</totfact>
</mgrwt>
</event>
<event>
 4    1  0.2489496E+000  0.5170646E+02  0.7957747E-01  0.1436349E+00
         13   -1    0    0    0    0  0.00000000000E+00  0.00000000000E+00  0.99999944181E+02  0.10000000000E+03  0.10566000000E+00 0.  1.
         22   -1    0    0    0    0 -0.00000000000E+00 -0.00000000000E+00 -0.27574885237E+02  0.27574885237E+02  0.00000000000E+00 0. -1.
         13    1    1    2    0    0 -0.57562341455E+01 -0.11850054486E+02 -0.18656873279E+02  0.22839617059E+02  0.10566000000E+00 0. -1.
        996    1    1    2    0    0  0.57562341455E+01  0.11850054486E+02  0.91081932223E+02  0.10473526818E+03  0.50000000000E+02 0.  0.
<mgrwt>
<rscale>  0 0.51706460E+02</rscale>
<asrwt>0</asrwt>
<pdfrwt beam="1">  1       13 0.10000000E+01 0.51706460E+02</pdfrwt>
<pdfrwt beam="2">  1       22 0.27574905E+00 0.51706460E+02</pdfrwt>
<totfact> 0.24311877E-01</totfact>
</mgrwt>
</event>
<event>
 4    1  0.2489496E+000  0.5842955E+02  0.7957747E-01  0.1404543E+00
         13   -1    0    0    0    0  0.00000000000E+00  0.00000000000E+00  0.99999944174E+02  0.99999999994E+02  0.10566000000E+00 0. -1.
         22   -1    0    0    0    0 -0.00000000000E+00 -0.00000000000E+00 -0.23442179984E+02  0.23442179984E+02  0.00000000000E+00 0. -1.
         13    1    1    2    0    0  0.15915605797E+02 -0.25704204188E+02  0.43324905907E+01  0.30541680693E+02  0.10566000000E+00 0.  1.
        996    1    1    2    0    0 -0.15915605797E+02  0.25704204188E+02  0.72225273600E+02  0.92900499285E+02  0.50000000000E+02 0.  0.
<mgrwt>
<rscale>  0 0.58429553E+02</rscale>
<asrwt>0</asrwt>
<pdfrwt beam="1">  1       13 0.10000000E+01 0.58429553E+02</pdfrwt>
<pdfrwt beam="2">  1       22 0.23442201E+00 0.58429553E+02</pdfrwt>
<totfact> 0.33775385E-01</totfact>
</mgrwt>
</event>
<event>
 4    1  0.2489496E+000  0.5265134E+02  0.7957747E-01  0.1431544E+00
         13   -1    0    0    0    0  0.00000000000E+00  0.00000000000E+00  0.99999944182E+02  0.10000000000E+03  0.10566000000E+00 0. -1.
         22   -1    0    0    0    0 -0.00000000000E+00 -0.00000000000E+00 -0.80913280729E+02  0.80913280729E+02  0.00000000000E+00 0.  1.
         13    1    1    2    0    0 -0.44260125345E+01 -0.15892575024E+02 -0.72997986344E+02  0.74839031943E+02  0.10566000000E+00 0.  1.
        996    1    1    2    0    0  0.44260125345E+01  0.15892575024E+02  0.92084649797E+02  0.10607424879E+03  0.50000000000E+02 0.  0.
<mgrwt>
<rscale>  0 0.52651339E+02</rscale>
<asrwt>0</asrwt>
<pdfrwt beam="1">  1       13 0.10000000E+01 0.52651339E+02</pdfrwt>
<pdfrwt beam="2">  1       22 0.80913286E+00 0.52651339E+02</pdfrwt>
<totfact> 0.28374549E-02</totfact>
</mgrwt>
</event>
<event>
 4    1  0.2489496E+000  0.5368021E+02  0.7957747E-01  0.1426445E+00
         13   -1    0    0    0    0  0.00000000000E+00  0.00000000000E+00  0.99999944175E+02  0.99999999995E+02  0.10566000000E+00 0.  1.
         22   -1    0    0    0    0 -0.00000000000E+00 -0.00000000000E+00 -0.17798786376E+02  0.17798786376E+02  0.00000000000E+00 0.  1.
         13    1    1    2    0    0  0.10416901018E+01 -0.19505884468E+02 -0.10530956956E+00  0.19534249443E+02  0.10566000000E+00 0. -1.
        996    1    1    2    0    0 -0.10416901018E+01  0.19505884468E+02  0.82306467368E+02  0.98264536929E+02  0.50000000000E+02 0.  0.
<mgrwt>
<rscale>  0 0.53680207E+02</rscale>
<asrwt>0</asrwt>
<pdfrwt beam="1">  1       13 0.10000000E+01 0.53680207E+02</pdfrwt>
<pdfrwt beam="2">  1       22 0.17798809E+00 0.53680207E+02</pdfrwt>
<totfact> 0.56232457E-01</totfact>
</mgrwt>
</event>
<event>
 4    1  0.2489496E+000  0.5405242E+02  0.7957747E-01  0.1424634E+00
         13   -1    0    0    0    0  0.00000000000E+00  0.00000000000E+00  0.99999944177E+02  0.99999999997E+02  0.10566000000E+00 0.  1.
         22   -1    0    0    0    0 -0.00000000000E+00 -0.00000000000E+00 -0.15055502645E+02  0.15055502645E+02  0.00000000000E+00 0.  1.
         13    1    1    2    0    0 -0.19470880444E+02  0.65229643650E+01  0.39164523289E+02  0.44221434824E+02  0.10566000000E+00 0. -1.
        996    1    1    2    0    0  0.19470880444E+02 -0.65229643650E+01  0.45779918243E+02  0.70834067818E+02  0.50000000000E+02 0.  0.
<mgrwt>
<rscale>  0 0.54052421E+02</rscale>
<asrwt>0</asrwt>
<pdfrwt beam="1">  1       13 0.10000000E+01 0.54052421E+02</pdfrwt>
<pdfrwt beam="2">  1       22 0.15055526E+00 0.54052421E+02</pdfrwt>
<totfact> 0.75138001E-01</totfact>
</mgrwt>
</event>
<event>
 4    1  0.2489496E+000  0.5171210E+02  0.7957747E-01  0.1436320E+00
         13   -1    0    0    0    0  0.00000000000E+00  0.00000000000E+00  0.99999944184E+02  0.10000000000E+03  0.10566000000E+00 0. -1.
         22   -1    0    0    0    0 -0.00000000000E+00 -0.00000000000E+00 -0.10564659195E+02  0.10564659195E+02  0.00000000000E+00 0. -1.
         13    1    1    2    0    0 -0.53556197919E+01 -0.12060602267E+02  0.20707045734E+02  0.24554708254E+02  0.10566000000E+00 0.  1.
        996    1    1    2    0    0  0.53556197919E+01  0.12060602267E+02  0.68728239255E+02  0.86009950944E+02  0.50000000000E+02 0.  0.
<mgrwt>
<rscale>  0 0.51712095E+02</rscale>
<asrwt>0</asrwt>
<pdfrwt beam="1">  1       13 0.10000000E+01 0.51712095E+02</pdfrwt>
<pdfrwt beam="2">  1       22 0.10564684E+00 0.51712095E+02</pdfrwt>
<totfact> 0.13002889E+00</totfact>
</mgrwt>
</event>
<event>
 4    1  0.2489496E+000  0.5270328E+02  0.7957747E-01  0.1431283E+00
         13   -1    0    0    0    0  0.00000000000E+00  0.00000000000E+00  0.99999944173E+02  0.99999999994E+02  0.10566000000E+00 0.  1.
         22   -1    0    0    0    0 -0.00000000000E+00 -0.00000000000E+00 -0.12783128559E+02  0.12783128559E+02  0.00000000000E+00 0.  1.
         13    1    1    2    0    0  0.13750264882E+01  0.16605573575E+02  0.10458130082E+02  0.19672809165E+02  0.10566000000E+00 0. -1.
        996    1    1    2    0    0 -0.13750264882E+01 -0.16605573575E+02  0.76758685533E+02  0.93110319387E+02  0.50000000000E+02 0.  0.
<mgrwt>
<rscale>  0 0.52703280E+02</rscale>
<asrwt>0</asrwt>
<pdfrwt beam="1">  1       13 0.10000000E+01 0.52703280E+02</pdfrwt>
<pdfrwt beam="2">  1       22 0.12783153E+00 0.52703280E+02</pdfrwt>
<totfact> 0.97616764E-01</totfact>
</mgrwt>
</event>
<event>
 4    1  0.2489496E+000  0.5116223E+02  0.7957747E-01  0.1439172E+00
         13   -1    0    0    0    0  0.00000000000E+00  0.00000000000E+00  0.99999944182E+02  0.10000000000E+03  0.10566000000E+00 0.  1.
         22   -1    0    0    0    0 -0.00000000000E+00 -0.00000000000E+00 -0.10434282920E+02  0.10434282920E+02  0.00000000000E+00 0.  1.
         13    1    1    2    0    0  0.22638638448E+01  0.10604168123E+02  0.58455553034E+01  0.12318893697E+02  0.10566000000E+00 0. -1.
        996    1    1    2    0    0 -0.22638638448E+01 -0.10604168123E+02  0.83720105959E+02  0.98115389225E+02  0.50000000000E+02 0.  0.
<mgrwt>
<rscale>  0 0.51162227E+02</rscale>
<asrwt>0</asrwt>
<pdfrwt beam="1">  1       13 0.10000000E+01 0.51162227E+02</pdfrwt>
<pdfrwt beam="2">  1       22 0.10434308E+00 0.51162227E+02</pdfrwt>
<totfact> 0.13224715E+00</totfact>
</mgrwt>
</event>
<event>
 4    1  0.2489496E+000  0.5150441E+02  0.7957747E-01  0.1437392E+00
         13   -1    0    0    0    0  0.00000000000E+00  0.00000000000E+00  0.99999944179E+02  0.99999999999E+02  0.10566000000E+00 0. -1.
         22   -1    0    0    0    0 -0.00000000000E+00 -0.00000000000E+00 -0.10507765749E+02  0.10507765749E+02  0.00000000000E+00 0. -1.
         13    1    1    2    0    0 -0.12250058092E+02 -0.16250390768E+01  0.10544075319E+02  0.16244794970E+02  0.10566000000E+00 0.  1.
        996    1    1    2    0    0  0.12250058092E+02  0.16250390768E+01  0.78948103110E+02  0.94262970778E+02  0.50000000000E+02 0.  0.
<mgrwt>
<rscale>  0 0.51504414E+02</rscale>
<asrwt>0</asrwt>
<pdfrwt beam="1">  1       13 0.10000000E+01 0.51504414E+02</pdfrwt>
<pdfrwt beam="2">  1       22 0.10507791E+00 0.51504414E+02</pdfrwt>
<totfact> 0.13100015E+00</totfact>
</mgrwt>
</event>
<event>
 4    1  0.2489496E+000  0.5143599E+02  0.7957747E-01  0.1437747E+00
         13   -1    0    0    0    0  0.00000000000E+00  0.00000000000E+00  0.99999944182E+02  0.10000000000E+03  0.10566000000E+00 0.  1.
         22   -1    0    0    0    0 -0.00000000000E+00 -0.00000000000E+00 -0.21433532484E+02  0.21433532484E+02  0.00000000000E+00 0. -1.
         13    1    1    2    0    0 -0.11461792773E+02 -0.37800192725E+01 -0.12165062819E+02  0.17136544479E+02  0.10566000000E+00 0. -1.
        996    1    1    2    0    0  0.11461792773E+02  0.37800192725E+01  0.90731474517E+02  0.10429698801E+03  0.50000000000E+02 0.  0.
<mgrwt>
<rscale>  0 0.51435992E+02</rscale>
<asrwt>0</asrwt>
<pdfrwt beam="1">  1       13 0.10000000E+01 0.51435992E+02</pdfrwt>
<pdfrwt beam="2">  1       22 0.21433554E+00 0.51435992E+02</pdfrwt>
<totfact> 0.39719817E-01</totfact>
</mgrwt>
</event>
<event>
 4    1  0.2489496E+000  0.5320754E+02  0.7957747E-01  0.1428771E+00
         13   -1    0    0    0    0  0.00000000000E+00  0.00000000000E+00  0.99999944182E+02  0.10000000000E+03  0.10566000000E+00 0. -1.
         22   -1    0    0    0    0 -0.00000000000E+00 -0.00000000000E+00 -0.13927351060E+02  0.13927351060E+02  0.00000000000E+00 0. -1.
         13    1    1    2    0    0  0.13883999740E+02  0.11759108973E+02  0.90702827426E+01  0.20330353801E+02  0.10566000000E+00 0.  1.
        996    1    1    2    0    0 -0.13883999740E+02 -0.11759108973E+02  0.77002310379E+02  0.93596997261E+02  0.50000000000E+02 0.  0.
<mgrwt>
<rscale>  0 0.53207538E+02</rscale>
<asrwt>0</asrwt>
<pdfrwt beam="1">  1       13 0.10000000E+01 0.53207538E+02</pdfrwt>
<pdfrwt beam="2">  1       22 0.13927375E+00 0.53207538E+02</pdfrwt>
<totfact> 0.85254842E-01</totfact>
</mgrwt>
</event>
<event>
 4    1  0.2489496E+000  0.5287938E+02  0.7957747E-01  0.1430402E+00
         13   -1    0    0    0    0  0.00000000000E+00  0.00000000000E+00  0.99999944180E+02  0.10000000000E+03  0.10566000000E+00 0. -1.
         22   -1    0    0    0    0 -0.00000000000E+00 -0.00000000000E+00 -0.63239085904E+02  0.63239085904E+02  0.00000000000E+00 0.  1.
         13    1    1    2    0    0 -0.17064235367E+02  0.22452205423E+01 -0.54836263373E+02  0.57473960092E+02  0.10566000000E+00 0.  1.
        996    1    1    2    0    0  0.17064235367E+02 -0.22452205423E+01  0.91597121648E+02  0.10576512581E+03  0.50000000000E+02 0.  0.
<mgrwt>
<rscale>  0 0.52879383E+02</rscale>
<asrwt>0</asrwt>
<pdfrwt beam="1">  1       13 0.10000000E+01 0.52879383E+02</pdfrwt>
<pdfrwt beam="2">  1       22 0.63239096E+00 0.52879383E+02</pdfrwt>
<totfact> 0.80003773E-02</totfact>
</mgrwt>
</event>
<event>
 4    1  0.2489496E+000  0.5687844E+02  0.7957747E-01  0.1411419E+00
         13   -1    0    0    0    0  0.00000000000E+00  0.00000000000E+00  0.99999944177E+02  0.99999999998E+02  0.10566000000E+00 0.  1.
         22   -1    0    0    0    0 -0.00000000000E+00 -0.00000000000E+00 -0.17749481365E+02  0.17749481365E+02  0.00000000000E+00 0.  1.
         13    1    1    2    0    0  0.14122851766E+02  0.23145229433E+02  0.31032892054E+02  0.41209321042E+02  0.10566000000E+00 0. -1.
        996    1    1    2    0    0 -0.14122851766E+02 -0.23145229433E+02  0.51217570759E+02  0.76540160321E+02  0.50000000000E+02 0.  0.
<mgrwt>
<rscale>  0 0.56878437E+02</rscale>
<asrwt>0</asrwt>
<pdfrwt beam="1">  1       13 0.10000000E+01 0.56878437E+02</pdfrwt>
<pdfrwt beam="2">  1       22 0.17749504E+00 0.56878437E+02</pdfrwt>
<totfact> 0.56834018E-01</totfact>
</mgrwt>
</event>
<event>
 4    1  0.2489496E+000  0.5418722E+02  0.7957747E-01  0.1423982E+00
         13   -1    0    0    0    0  0.00000000000E+00  0.00000000000E+00  0.99999944169E+02  0.99999999989E+02  0.10566000000E+00 0. -1.
         22   -1    0    0    0    0 -0.00000000000E+00 -0.00000000000E+00 -0.49311630500E+02  0.49311630500E+02  0.00000000000E+00 0.  1.
         13    1    1    2    0    0  0.11791930221E+02  0.17239625415E+02 -0.39163376494E+02  0.44385082238E+02  0.10566000000E+00 0.  1.
        996    1    1    2    0    0 -0.11791930221E+02 -0.17239625415E+02  0.89851690163E+02  0.10492654825E+03  0.50000000000E+02 0.  0.
<mgrwt>
<rscale>  0 0.54187215E+02</rscale>
<asrwt>0</asrwt>
<pdfrwt beam="1">  1       13 0.10000000E+01 0.54187215E+02</pdfrwt>
<pdfrwt beam="2">  1       22 0.49311645E+00 0.54187215E+02</pdfrwt>
<totfact> 0.76552870E-02</totfact>
</mgrwt>
</event>
<event>
 4    1  0.2489496E+000  0.5199222E+02  0.7957747E-01  0.1434883E+00
         13   -1    0    0    0    0  0.00000000000E+00  0.00000000000E+00  0.99999944180E+02  0.10000000000E+03  0.10566000000E+00 0.  1.
         22   -1    0    0    0    0 -0.00000000000E+00 -0.00000000000E+00 -0.11074467087E+02  0.11074467087E+02  0.00000000000E+00 0.  1.
         13    1    1    2    0    0 -0.10618763618E+02  0.95095973795E+01  0.23777338107E+02  0.27722978819E+02  0.10566000000E+00 0. -1.
        996    1    1    2    0    0  0.10618763618E+02 -0.95095973795E+01  0.65148138986E+02  0.83351488268E+02  0.50000000000E+02 0.  0.
<mgrwt>
<rscale>  0 0.51992217E+02</rscale>
<asrwt>0</asrwt>
<pdfrwt beam="1">  1       13 0.10000000E+01 0.51992217E+02</pdfrwt>
<pdfrwt beam="2">  1       22 0.11074492E+00 0.51992217E+02</pdfrwt>
<totfact> 0.12134467E+00</totfact>
</mgrwt>
</event>
<event>
 4    1  0.2489496E+000  0.5300260E+02  0.7957747E-01  0.1429788E+00
         13   -1    0    0    0    0  0.00000000000E+00  0.00000000000E+00  0.99999944173E+02  0.99999999993E+02  0.10566000000E+00 0.  1.
         22   -1    0    0    0    0 -0.00000000000E+00 -0.00000000000E+00 -0.13855055574E+02  0.13855055574E+02  0.00000000000E+00 0.  1.
         13    1    1    2    0    0 -0.11994985361E+02 -0.12860619215E+02  0.77369222039E+01  0.19213181143E+02  0.10566000000E+00 0. -1.
        996    1    1    2    0    0  0.11994985361E+02  0.12860619215E+02  0.78407966395E+02  0.94641874424E+02  0.50000000000E+02 0.  0.
<mgrwt>
<rscale>  0 0.53002596E+02</rscale>
<asrwt>0</asrwt>
<pdfrwt beam="1">  1       13 0.10000000E+01 0.53002596E+02</pdfrwt>
<pdfrwt beam="2">  1       22 0.13855080E+00 0.53002596E+02</pdfrwt>
<totfact> 0.85938890E-01</totfact>
</mgrwt>
</event>
<event>
 4    1  0.2489496E+000  0.7720788E+02  0.7957747E-01  0.1337167E+00
         13   -1    0    0    0    0  0.00000000000E+00  0.00000000000E+00  0.99999944166E+02  0.99999999987E+02  0.10566000000E+00 0.  1.
         22   -1    0    0    0    0 -0.00000000000E+00 -0.00000000000E+00 -0.82124668595E+02  0.82124668595E+02  0.00000000000E+00 0. -1.
         13    1    1    2    0    0  0.57858747949E+02 -0.10650006877E+02 -0.51604798655E+02  0.78256780978E+02  0.10566000000E+00 0. -1.
        996    1    1    2    0    0 -0.57858747949E+02  0.10650006877E+02  0.69480074226E+02  0.10386788760E+03  0.50000000000E+02 0.  0.
<mgrwt>
<rscale>  0 0.77207884E+02</rscale>
<asrwt>0</asrwt>
<pdfrwt beam="1">  1       13 0.10000000E+01 0.77207884E+02</pdfrwt>
<pdfrwt beam="2">  1       22 0.82124674E+00 0.77207884E+02</pdfrwt>
<totfact> 0.25285999E-02</totfact>
</mgrwt>
</event>
<event>
 4    1  0.2489496E+000  0.5751265E+02  0.7957747E-01  0.1408577E+00
         13   -1    0    0    0    0  0.00000000000E+00  0.00000000000E+00  0.99999944176E+02  0.99999999996E+02  0.10566000000E+00 0. -1.
         22   -1    0    0    0    0 -0.00000000000E+00 -0.00000000000E+00 -0.36451882525E+02  0.36451882525E+02  0.00000000000E+00 0.  1.
         13    1    1    2    0    0 -0.17907873275E+02  0.22068363353E+02 -0.20192656951E+02  0.34863435647E+02  0.10566000000E+00 0.  1.
        996    1    1    2    0    0  0.17907873275E+02 -0.22068363353E+02  0.83740718602E+02  0.10158844687E+03  0.50000000000E+02 0.  0.
<mgrwt>
<rscale>  0 0.57512647E+02</rscale>
<asrwt>0</asrwt>
<pdfrwt beam="1">  1       13 0.10000000E+01 0.57512647E+02</pdfrwt>
<pdfrwt beam="2">  1       22 0.36451900E+00 0.57512647E+02</pdfrwt>
<totfact> 0.14710276E-01</totfact>
</mgrwt>
</event>
<event>
 4    1  0.2489496E+000  0.6271878E+02  0.7957747E-01  0.1386764E+00
         13   -1    0    0    0    0  0.00000000000E+00  0.00000000000E+00  0.99999944177E+02  0.99999999997E+02  0.10566000000E+00 0. -1.
         22   -1    0    0    0    0 -0.00000000000E+00 -0.00000000000E+00 -0.40675710992E+02  0.40675710992E+02  0.00000000000E+00 0.  1.
         13    1    1    2    0    0 -0.23983316142E+02  0.29299255339E+02 -0.17322897430E+02  0.41638200681E+02  0.10566000000E+00 0.  1.
        996    1    1    2    0    0  0.23983316142E+02 -0.29299255339E+02  0.76647130615E+02  0.99037510308E+02  0.50000000000E+02 0.  0.
<mgrwt>
<rscale>  0 0.62718784E+02</rscale>
<asrwt>0</asrwt>
<pdfrwt beam="1">  1       13 0.10000000E+01 0.62718784E+02</pdfrwt>
<pdfrwt beam="2">  1       22 0.40675728E+00 0.62718784E+02</pdfrwt>
<totfact> 0.12064727E-01</totfact>
</mgrwt>
</event>
<event>
 4    1  0.2489496E+000  0.5235396E+02  0.7957747E-01  0.1433043E+00
         13   -1    0    0    0    0  0.00000000000E+00  0.00000000000E+00  0.99999944177E+02  0.99999999997E+02  0.10566000000E+00 0. -1.
         22   -1    0    0    0    0 -0.00000000000E+00 -0.00000000000E+00 -0.37789784231E+02  0.37789784231E+02  0.00000000000E+00 0.  1.
         13    1    1    2    0    0  0.10947594879E+02 -0.11003972560E+02 -0.28845082211E+02  0.32756482985E+02  0.10566000000E+00 0.  1.
        996    1    1    2    0    0 -0.10947594879E+02  0.11003972560E+02  0.91055242157E+02  0.10503330124E+03  0.50000000000E+02 0.  0.
<mgrwt>
<rscale>  0 0.52353961E+02</rscale>
<asrwt>0</asrwt>
<pdfrwt beam="1">  1       13 0.10000000E+01 0.52353961E+02</pdfrwt>
<pdfrwt beam="2">  1       22 0.37789802E+00 0.52353961E+02</pdfrwt>
<totfact> 0.13735012E-01</totfact>
</mgrwt>
</event>
<event>
 4    1  0.2489496E+000  0.5103473E+02  0.7957747E-01  0.1439839E+00
         13   -1    0    0    0    0  0.00000000000E+00  0.00000000000E+00  0.99999944174E+02  0.99999999994E+02  0.10566000000E+00 0. -1.
         22   -1    0    0    0    0 -0.00000000000E+00 -0.00000000000E+00 -0.97263362286E+01  0.97263362286E+01  0.00000000000E+00 0. -1.
         13    1    1    2    0    0 -0.67492164749E+01 -0.76805892120E+01  0.83251145953E+01  0.13185676726E+02  0.10566000000E+00 0.  1.
        996    1    1    2    0    0  0.67492164749E+01  0.76805892120E+01  0.81948493350E+02  0.96540659496E+02  0.50000000000E+02 0.  0.
<mgrwt>
<rscale>  0 0.51034727E+02</rscale>
<asrwt>0</asrwt>
<pdfrwt beam="1">  1       13 0.10000000E+01 0.51034727E+02</pdfrwt>
<pdfrwt beam="2">  1       22 0.97263614E-01 0.51034727E+02</pdfrwt>
<totfact> 0.14639361E+00</totfact>
</mgrwt>
</event>
<event>
 4    1  0.2489496E+000  0.5119302E+02  0.7957747E-01  0.1439011E+00
         13   -1    0    0    0    0  0.00000000000E+00  0.00000000000E+00  0.99999944180E+02  0.10000000000E+03  0.10566000000E+00 0. -1.
         22   -1    0    0    0    0 -0.00000000000E+00 -0.00000000000E+00 -0.14136498131E+02  0.14136498131E+02  0.00000000000E+00 0. -1.
         13    1    1    2    0    0 -0.79345898299E+01  0.76005204514E+01 -0.31686377697E+01  0.11435779652E+02  0.10566000000E+00 0.  1.
        996    1    1    2    0    0  0.79345898299E+01 -0.76005204514E+01  0.89032083819E+02  0.10270071848E+03  0.50000000000E+02 0.  0.
<mgrwt>
<rscale>  0 0.51193023E+02</rscale>
<asrwt>0</asrwt>
<pdfrwt beam="1">  1       13 0.10000000E+01 0.51193023E+02</pdfrwt>
<pdfrwt beam="2">  1       22 0.14136522E+00 0.51193023E+02</pdfrwt>
<totfact> 0.82868217E-01</totfact>
</mgrwt>
</event>
<event>
 4    1  0.2489496E+000  0.5154785E+02  0.7957747E-01  0.1437167E+00
         13   -1    0    0    0    0  0.00000000000E+00  0.00000000000E+00  0.99999944172E+02  0.99999999992E+02  0.10566000000E+00 0. -1.
         22   -1    0    0    0    0 -0.00000000000E+00 -0.00000000000E+00 -0.10641336355E+02  0.10641336355E+02  0.00000000000E+00 0. -1.
         13    1    1    2    0    0  0.35625900640E+01  0.12020338567E+02  0.10124998434E+02  0.16115438082E+02  0.10566000000E+00 0.  1.
        996    1    1    2    0    0 -0.35625900640E+01 -0.12020338567E+02  0.79233609382E+02  0.94525898266E+02  0.50000000000E+02 0.  0.
<mgrwt>
<rscale>  0 0.51547848E+02</rscale>
<asrwt>0</asrwt>
<pdfrwt beam="1">  1       13 0.10000000E+01 0.51547848E+02</pdfrwt>
<pdfrwt beam="2">  1       22 0.10641361E+00 0.51547848E+02</pdfrwt>
<totfact> 0.12860238E+00</totfact>
</mgrwt>
</event>
<event>
 4    1  0.2489496E+000  0.5164046E+02  0.7957747E-01  0.1436689E+00
         13   -1    0    0    0    0  0.00000000000E+00  0.00000000000E+00  0.99999944178E+02  0.99999999998E+02  0.10566000000E+00 0. -1.
         22   -1    0    0    0    0 -0.00000000000E+00 -0.00000000000E+00 -0.10869624615E+02  0.10869624615E+02  0.00000000000E+00 0. -1.
         13    1    1    2    0    0 -0.75153155926E+01 -0.10500327406E+02  0.28087081020E+02  0.30913300185E+02  0.10566000000E+00 0.  1.
        996    1    1    2    0    0  0.75153155926E+01  0.10500327406E+02  0.61043238543E+02  0.79956324427E+02  0.50000000000E+02 0.  0.
<mgrwt>
<rscale>  0 0.51640457E+02</rscale>
<asrwt>0</asrwt>
<pdfrwt beam="1">  1       13 0.10000000E+01 0.51640457E+02</pdfrwt>
<pdfrwt beam="2">  1       22 0.10869649E+00 0.51640457E+02</pdfrwt>
<totfact> 0.12465807E+00</totfact>
</mgrwt>
</event>
<event>
 4    1  0.2489496E+000  0.5191642E+02  0.7957747E-01  0.1435271E+00
         13   -1    0    0    0    0  0.00000000000E+00  0.00000000000E+00  0.99999944181E+02  0.10000000000E+03  0.10566000000E+00 0. -1.
         22   -1    0    0    0    0 -0.00000000000E+00 -0.00000000000E+00 -0.13511555597E+02  0.13511555597E+02  0.00000000000E+00 0. -1.
         13    1    1    2    0    0 -0.12847499738E+02 -0.55005929407E+01  0.16830898889E+01  0.14076886297E+02  0.10566000000E+00 0.  1.
        996    1    1    2    0    0  0.12847499738E+02  0.55005929407E+01  0.84805298695E+02  0.99434669301E+02  0.50000000000E+02 0.  0.
<mgrwt>
<rscale>  0 0.51916421E+02</rscale>
<asrwt>0</asrwt>
<pdfrwt beam="1">  1       13 0.10000000E+01 0.51916421E+02</pdfrwt>
<pdfrwt beam="2">  1       22 0.13511580E+00 0.51916421E+02</pdfrwt>
<totfact> 0.89271637E-01</totfact>
</mgrwt>
</event>
<event>
 4    1  0.2489496E+000  0.5162508E+02  0.7957747E-01  0.1436768E+00
         13   -1    0    0    0    0  0.00000000000E+00  0.00000000000E+00  0.99999944184E+02  0.10000000000E+03  0.10566000000E+00 0.  1.
         22   -1    0    0    0    0 -0.00000000000E+00 -0.00000000000E+00 -0.10424711320E+02  0.10424711320E+02  0.00000000000E+00 0. -1.
         13    1    1    2    0    0  0.98052124764E+01  0.83070511340E+01  0.15502474363E+02  0.20136711888E+02  0.10566000000E+00 0. -1.
        996    1    1    2    0    0 -0.98052124764E+01 -0.83070511340E+01  0.74072758501E+02  0.90287999436E+02  0.50000000000E+02 0.  0.
<mgrwt>
<rscale>  0 0.51625084E+02</rscale>
<asrwt>0</asrwt>
<pdfrwt beam="1">  1       13 0.10000000E+01 0.51625084E+02</pdfrwt>
<pdfrwt beam="2">  1       22 0.10424736E+00 0.51625084E+02</pdfrwt>
<totfact> 0.13257143E+00</totfact>
</mgrwt>
</event>
<event>
 4    1  0.2489496E+000  0.5100058E+02  0.7957747E-01  0.1440018E+00
         13   -1    0    0    0    0  0.00000000000E+00  0.00000000000E+00  0.99999944180E+02  0.10000000000E+03  0.10566000000E+00 0.  1.
         22   -1    0    0    0    0 -0.00000000000E+00 -0.00000000000E+00 -0.10750689156E+02  0.10750689156E+02  0.00000000000E+00 0.  1.
         13    1    1    2    0    0 -0.61831542789E+01  0.79263833944E+01  0.28973301186E+01  0.10462534894E+02  0.10566000000E+00 0. -1.
        996    1    1    2    0    0  0.61831542789E+01 -0.79263833944E+01  0.86351924905E+02  0.10028815426E+03  0.50000000000E+02 0.  0.
<mgrwt>
<rscale>  0 0.51000578E+02</rscale>
<asrwt>0</asrwt>
<pdfrwt beam="1">  1       13 0.10000000E+01 0.51000578E+02</pdfrwt>
<pdfrwt beam="2">  1       22 0.10750714E+00 0.51000578E+02</pdfrwt>
<totfact> 0.12651313E+00</totfact>
</mgrwt>
</event>
<event>
 4    1  0.2489496E+000  0.5126599E+02  0.7957747E-01  0.1438630E+00
         13   -1    0    0    0    0  0.00000000000E+00  0.00000000000E+00  0.99999944178E+02  0.99999999998E+02  0.10566000000E+00 0.  1.
         22   -1    0    0    0    0 -0.00000000000E+00 -0.00000000000E+00 -0.18283043203E+02  0.18283043203E+02  0.00000000000E+00 0.  1.
         13    1    1    2    0    0 -0.10817586253E+02 -0.33438859081E+01 -0.87433024335E+01  0.14305881545E+02  0.10566000000E+00 0. -1.
        996    1    1    2    0    0  0.10817586253E+02  0.33438859081E+01  0.90460203408E+02  0.10397716166E+03  0.50000000000E+02 0.  0.
<mgrwt>
<rscale>  0 0.51265990E+02</rscale>
<asrwt>0</asrwt>
<pdfrwt beam="1">  1       13 0.10000000E+01 0.51265990E+02</pdfrwt>
<pdfrwt beam="2">  1       22 0.18283066E+00 0.51265990E+02</pdfrwt>
<totfact> 0.53346225E-01</totfact>
</mgrwt>
</event>
<event>
 4    1  0.2489496E+000  0.5125467E+02  0.7957747E-01  0.1438689E+00
         13   -1    0    0    0    0  0.00000000000E+00  0.00000000000E+00  0.99999944188E+02  0.10000000001E+03  0.10566000000E+00 0.  1.
         22   -1    0    0    0    0 -0.00000000000E+00 -0.00000000000E+00 -0.17097502546E+02  0.17097502546E+02  0.00000000000E+00 0. -1.
         13    1    1    2    0    0  0.10867882859E+02 -0.29883047903E+01 -0.72440049043E+01  0.13398791529E+02  0.10566000000E+00 0. -1.
        996    1    1    2    0    0 -0.10867882859E+02  0.29883047903E+01  0.90146446547E+02  0.10369871103E+03  0.50000000000E+02 0.  0.
<mgrwt>
<rscale>  0 0.51254667E+02</rscale>
<asrwt>0</asrwt>
<pdfrwt beam="1">  1       13 0.10000000E+01 0.51254667E+02</pdfrwt>
<pdfrwt beam="2">  1       22 0.17097526E+00 0.51254667E+02</pdfrwt>
<totfact> 0.60104257E-01</totfact>
</mgrwt>
</event>
<event>
 4    1  0.2489496E+000  0.5118232E+02  0.7957747E-01  0.1439067E+00
         13   -1    0    0    0    0  0.00000000000E+00  0.00000000000E+00  0.99999944182E+02  0.10000000000E+03  0.10566000000E+00 0. -1.
         22   -1    0    0    0    0 -0.00000000000E+00 -0.00000000000E+00 -0.10262502842E+02  0.10262502842E+02  0.00000000000E+00 0. -1.
         13    1    1    2    0    0 -0.10932352600E+02  0.33683943509E+00  0.70402845948E+01  0.13007942396E+02  0.10566000000E+00 0.  1.
        996    1    1    2    0    0  0.10932352600E+02 -0.33683943509E+00  0.82697156745E+02  0.97254560448E+02  0.50000000000E+02 0.  0.
<mgrwt>
<rscale>  0 0.51182319E+02</rscale>
<asrwt>0</asrwt>
<pdfrwt beam="1">  1       13 0.10000000E+01 0.51182319E+02</pdfrwt>
<pdfrwt beam="2">  1       22 0.10262528E+00 0.51182319E+02</pdfrwt>
<totfact> 0.13550121E+00</totfact>
</mgrwt>
</event>
<event>
 4    1  0.2489496E+000  0.5178917E+02  0.7957747E-01  0.1435923E+00
         13   -1    0    0    0    0  0.00000000000E+00  0.00000000000E+00  0.99999944179E+02  0.10000000000E+03  0.10566000000E+00 0.  1.
         22   -1    0    0    0    0 -0.00000000000E+00 -0.00000000000E+00 -0.11862802773E+02  0.11862802773E+02  0.00000000000E+00 0.  1.
         13    1    1    2    0    0 -0.11865420726E+02 -0.64288578374E+01  0.60171535671E+01  0.14776187708E+02  0.10566000000E+00 0. -1.
        996    1    1    2    0    0  0.11865420726E+02  0.64288578374E+01  0.82119987839E+02  0.97086615065E+02  0.50000000000E+02 0.  0.
<mgrwt>
<rscale>  0 0.51789173E+02</rscale>
<asrwt>0</asrwt>
<pdfrwt beam="1">  1       13 0.10000000E+01 0.51789173E+02</pdfrwt>
<pdfrwt beam="2">  1       22 0.11862827E+00 0.51789173E+02</pdfrwt>
<totfact> 0.10934851E+00</totfact>
</mgrwt>
</event>
<event>
 4    1  0.2489496E+000  0.5165813E+02  0.7957747E-01  0.1436598E+00
         13   -1    0    0    0    0  0.00000000000E+00  0.00000000000E+00  0.99999944178E+02  0.99999999998E+02  0.10566000000E+00 0. -1.
         22   -1    0    0    0    0 -0.00000000000E+00 -0.00000000000E+00 -0.16945556591E+02  0.16945556591E+02  0.00000000000E+00 0.  1.
         13    1    1    2    0    0 -0.94628410615E+01  0.88891719423E+01 -0.57572581764E+01  0.14202813965E+02  0.10566000000E+00 0.  1.
        996    1    1    2    0    0  0.94628410615E+01 -0.88891719423E+01  0.88811645763E+02  0.10274274262E+03  0.50000000000E+02 0.  0.
<mgrwt>
<rscale>  0 0.51658133E+02</rscale>
<asrwt>0</asrwt>
<pdfrwt beam="1">  1       13 0.10000000E+01 0.51658133E+02</pdfrwt>
<pdfrwt beam="2">  1       22 0.16945580E+00 0.51658133E+02</pdfrwt>
<totfact> 0.61100226E-01</totfact>
</mgrwt>
</event>
<event>
 4    1  0.2489496E+000  0.5344358E+02  0.7957747E-01  0.1427606E+00
         13   -1    0    0    0    0  0.00000000000E+00  0.00000000000E+00  0.99999944172E+02  0.99999999992E+02  0.10566000000E+00 0.  1.
         22   -1    0    0    0    0 -0.00000000000E+00 -0.00000000000E+00 -0.36324099140E+02  0.36324099140E+02  0.00000000000E+00 0. -1.
         13    1    1    2    0    0 -0.17986727788E+01 -0.18787802494E+02 -0.25881518546E+02  0.32032497758E+02  0.10566000000E+00 0. -1.
        996    1    1    2    0    0  0.17986727788E+01  0.18787802494E+02  0.89557363578E+02  0.10429160137E+03  0.50000000000E+02 0.  0.
<mgrwt>
<rscale>  0 0.53443585E+02</rscale>
<asrwt>0</asrwt>
<pdfrwt beam="1">  1       13 0.10000000E+01 0.53443585E+02</pdfrwt>
<pdfrwt beam="2">  1       22 0.36324117E+00 0.53443585E+02</pdfrwt>
<totfact> 0.14747453E-01</totfact>
</mgrwt>
</event>
<event>
 4    1  0.2489496E+000  0.5279009E+02  0.7957747E-01  0.1430848E+00
         13   -1    0    0    0    0  0.00000000000E+00  0.00000000000E+00  0.99999944174E+02  0.99999999994E+02  0.10566000000E+00 0. -1.
         22   -1    0    0    0    0 -0.00000000000E+00 -0.00000000000E+00 -0.13028409904E+02  0.13028409904E+02  0.00000000000E+00 0. -1.
         13    1    1    2    0    0 -0.93061538907E+01 -0.14148822716E+02  0.99178515318E+01  0.19625713427E+02  0.10566000000E+00 0.  1.
        996    1    1    2    0    0  0.93061538907E+01  0.14148822716E+02  0.77053682738E+02  0.93402696471E+02  0.50000000000E+02 0.  0.
<mgrwt>
<rscale>  0 0.52790091E+02</rscale>
<asrwt>0</asrwt>
<pdfrwt beam="1">  1       13 0.10000000E+01 0.52790091E+02</pdfrwt>
<pdfrwt beam="2">  1       22 0.13028434E+00 0.52790091E+02</pdfrwt>
<totfact> 0.94760990E-01</totfact>
</mgrwt>
</event>
<event>
 4    1  0.2489496E+000  0.5132280E+02  0.7957747E-01  0.1438335E+00
         13   -1    0    0    0    0  0.00000000000E+00  0.00000000000E+00  0.99999944178E+02  0.99999999998E+02  0.10566000000E+00 0.  1.
         22   -1    0    0    0    0 -0.00000000000E+00 -0.00000000000E+00 -0.10230591477E+02  0.10230591477E+02  0.00000000000E+00 0.  1.
         13    1    1    2    0    0 -0.99590353253E+01 -0.59031634868E+01  0.95974664518E+01  0.15038359289E+02  0.10566000000E+00 0. -1.
        996    1    1    2    0    0  0.99590353253E+01  0.59031634868E+01  0.80171886250E+02  0.95192232186E+02  0.50000000000E+02 0.  0.
<mgrwt>
<rscale>  0 0.51322799E+02</rscale>
<asrwt>0</asrwt>
<pdfrwt beam="1">  1       13 0.10000000E+01 0.51322799E+02</pdfrwt>
<pdfrwt beam="2">  1       22 0.10230617E+00 0.51322799E+02</pdfrwt>
<totfact> 0.13616379E+00</totfact>
</mgrwt>
</event>
<event>
 4    1  0.2489496E+000  0.5348112E+02  0.7957747E-01  0.1427421E+00
         13   -1    0    0    0    0  0.00000000000E+00  0.00000000000E+00  0.99999944177E+02  0.99999999998E+02  0.10566000000E+00 0.  1.
         22   -1    0    0    0    0 -0.00000000000E+00 -0.00000000000E+00 -0.16923523971E+02  0.16923523971E+02  0.00000000000E+00 0. -1.
         13    1    1    2    0    0 -0.17900434568E+02  0.63090661953E+01  0.10585974659E+01  0.19009515159E+02  0.10566000000E+00 0. -1.
        996    1    1    2    0    0  0.17900434568E+02 -0.63090661953E+01  0.82017822741E+02  0.97914008809E+02  0.50000000000E+02 0.  0.
<mgrwt>
<rscale>  0 0.53481117E+02</rscale>
<asrwt>0</asrwt>
<pdfrwt beam="1">  1       13 0.10000000E+01 0.53481117E+02</pdfrwt>
<pdfrwt beam="2">  1       22 0.16923547E+00 0.53481117E+02</pdfrwt>
<totfact> 0.61454066E-01</totfact>
</mgrwt>
</event>
<event>
 4    1  0.2489496E+000  0.5252025E+02  0.7957747E-01  0.1432203E+00
         13   -1    0    0    0    0  0.00000000000E+00  0.00000000000E+00  0.99999944173E+02  0.99999999993E+02  0.10566000000E+00 0.  1.
         22   -1    0    0    0    0 -0.00000000000E+00 -0.00000000000E+00 -0.22685547316E+02  0.22685547316E+02  0.00000000000E+00 0. -1.
         13    1    1    2    0    0 -0.10717051683E+02 -0.11980059660E+02 -0.11319160244E+02  0.19659897733E+02  0.10566000000E+00 0. -1.
        996    1    1    2    0    0  0.10717051683E+02  0.11980059660E+02  0.88633557101E+02  0.10302564958E+03  0.50000000000E+02 0.  0.
<mgrwt>
<rscale>  0 0.52520253E+02</rscale>
<asrwt>0</asrwt>
<pdfrwt beam="1">  1       13 0.10000000E+01 0.52520253E+02</pdfrwt>
<pdfrwt beam="2">  1       22 0.22685569E+00 0.52520253E+02</pdfrwt>
<totfact> 0.35676803E-01</totfact>
</mgrwt>
</event>
<event>
 4    1  0.2489496E+000  0.5232015E+02  0.7957747E-01  0.1433214E+00
         13   -1    0    0    0    0  0.00000000000E+00  0.00000000000E+00  0.99999944173E+02  0.99999999994E+02  0.10566000000E+00 0. -1.
         22   -1    0    0    0    0 -0.00000000000E+00 -0.00000000000E+00 -0.12052236362E+02  0.12052236362E+02  0.00000000000E+00 0. -1.
         13    1    1    2    0    0 -0.83571678110E+01  0.12944323138E+02  0.10720264045E+02  0.18770534903E+02  0.10566000000E+00 0.  1.
        996    1    1    2    0    0  0.83571678110E+01 -0.12944323138E+02  0.77227443766E+02  0.93281701453E+02  0.50000000000E+02 0.  0.
<mgrwt>
<rscale>  0 0.52320147E+02</rscale>
<asrwt>0</asrwt>
<pdfrwt beam="1">  1       13 0.10000000E+01 0.52320147E+02</pdfrwt>
<pdfrwt beam="2">  1       22 0.12052261E+00 0.52320147E+02</pdfrwt>
<totfact> 0.10685664E+00</totfact>
</mgrwt>
</event>
<event>
 4    1  0.2489496E+000  0.5923764E+02  0.7957747E-01  0.1401059E+00
         13   -1    0    0    0    0  0.00000000000E+00  0.00000000000E+00  0.99999944179E+02  0.99999999999E+02  0.10566000000E+00 0.  1.
         22   -1    0    0    0    0 -0.00000000000E+00 -0.00000000000E+00 -0.26480628098E+02  0.26480628098E+02  0.00000000000E+00 0.  1.
         13    1    1    2    0    0  0.30230545375E+02  0.97576497660E+01 -0.38089463911E+00  0.31768755837E+02  0.10566000000E+00 0. -1.
        996    1    1    2    0    0 -0.30230545375E+02 -0.97576497660E+01  0.73900210720E+02  0.94711872261E+02  0.50000000000E+02 0.  0.
<mgrwt>
<rscale>  0 0.59237637E+02</rscale>
<asrwt>0</asrwt>
<pdfrwt beam="1">  1       13 0.10000000E+01 0.59237637E+02</pdfrwt>
<pdfrwt beam="2">  1       22 0.26480649E+00 0.59237637E+02</pdfrwt>
<totfact> 0.26592838E-01</totfact>
</mgrwt>
</event>
<event>
 4    1  0.2489496E+000  0.5114098E+02  0.7957747E-01  0.1439283E+00
         13   -1    0    0    0    0  0.00000000000E+00  0.00000000000E+00  0.99999944179E+02  0.10000000000E+03  0.10566000000E+00 0. -1.
         22   -1    0    0    0    0 -0.00000000000E+00 -0.00000000000E+00 -0.96869160021E+01  0.96869160021E+01  0.00000000000E+00 0. -1.
         13    1    1    2    0    0  0.84025477138E+01 -0.66930212138E+01  0.20526192432E+02  0.23167543695E+02  0.10566000000E+00 0.  1.
        996    1    1    2    0    0 -0.84025477138E+01  0.66930212138E+01  0.69786835745E+02  0.86519372307E+02  0.50000000000E+02 0.  0.
<mgrwt>
<rscale>  0 0.51140975E+02</rscale>
<asrwt>0</asrwt>
<pdfrwt beam="1">  1       13 0.10000000E+01 0.51140975E+02</pdfrwt>
<pdfrwt beam="2">  1       22 0.96869412E-01 0.51140975E+02</pdfrwt>
<totfact> 0.14728885E+00</totfact>
</mgrwt>
</event>
<event>
 4    1  0.2489496E+000  0.5497750E+02  0.7957747E-01  0.1420205E+00
         13   -1    0    0    0    0  0.00000000000E+00  0.00000000000E+00  0.99999944180E+02  0.10000000000E+03  0.10566000000E+00 0.  1.
         22   -1    0    0    0    0 -0.00000000000E+00 -0.00000000000E+00 -0.29914138058E+02  0.29914138058E+02  0.00000000000E+00 0. -1.
         13    1    1    2    0    0  0.67425454086E+01  0.21841784131E+02 -0.15906983425E+02  0.27849034783E+02  0.10566000000E+00 0. -1.
        996    1    1    2    0    0 -0.67425454086E+01 -0.21841784131E+02  0.85992789546E+02  0.10206510328E+03  0.50000000000E+02 0.  0.
<mgrwt>
<rscale>  0 0.54977500E+02</rscale>
<asrwt>0</asrwt>
<pdfrwt beam="1">  1       13 0.10000000E+01 0.54977500E+02</pdfrwt>
<pdfrwt beam="2">  1       22 0.29914158E+00 0.54977500E+02</pdfrwt>
<totfact> 0.20894243E-01</totfact>
</mgrwt>
</event>
<event>
 4    1  0.2489496E+000  0.5235547E+02  0.7957747E-01  0.1433036E+00
         13   -1    0    0    0    0  0.00000000000E+00  0.00000000000E+00  0.99999944178E+02  0.99999999999E+02  0.10566000000E+00 0. -1.
         22   -1    0    0    0    0 -0.00000000000E+00 -0.00000000000E+00 -0.21496545706E+02  0.21496545706E+02  0.00000000000E+00 0.  1.
         13    1    1    2    0    0 -0.14561037600E+02 -0.53917584416E+01 -0.10140779567E+02  0.18545658504E+02  0.10566000000E+00 0.  1.
        996    1    1    2    0    0  0.14561037600E+02  0.53917584416E+01  0.88644178039E+02  0.10295088720E+03  0.50000000000E+02 0.  0.
<mgrwt>
<rscale>  0 0.52355467E+02</rscale>
<asrwt>0</asrwt>
<pdfrwt beam="1">  1       13 0.10000000E+01 0.52355467E+02</pdfrwt>
<pdfrwt beam="2">  1       22 0.21496568E+00 0.52355467E+02</pdfrwt>
<totfact> 0.39560863E-01</totfact>
</mgrwt>
</event>
<event>
 4    1  0.2489496E+000  0.5238287E+02  0.7957747E-01  0.1432897E+00
         13   -1    0    0    0    0  0.00000000000E+00  0.00000000000E+00  0.99999944182E+02  0.10000000000E+03  0.10566000000E+00 0. -1.
         22   -1    0    0    0    0 -0.00000000000E+00 -0.00000000000E+00 -0.78638636779E+02  0.78638636779E+02  0.00000000000E+00 0.  1.
         13    1    1    2    0    0  0.96780941688E+01  0.12259671616E+02 -0.70869461693E+02  0.72570357720E+02  0.10566000000E+00 0.  1.
        996    1    1    2    0    0 -0.96780941688E+01 -0.12259671616E+02  0.92230769096E+02  0.10606827906E+03  0.50000000000E+02 0.  0.
<mgrwt>
<rscale>  0 0.52382870E+02</rscale>
<asrwt>0</asrwt>
<pdfrwt beam="1">  1       13 0.10000000E+01 0.52382870E+02</pdfrwt>
<pdfrwt beam="2">  1       22 0.78638643E+00 0.52382870E+02</pdfrwt>
<totfact> 0.34997479E-02</totfact>
</mgrwt>
</event>
<event>
 4    1  0.2489496E+000  0.5159340E+02  0.7957747E-01  0.1436932E+00
         13   -1    0    0    0    0  0.00000000000E+00  0.00000000000E+00  0.99999944177E+02  0.99999999997E+02  0.10566000000E+00 0.  1.
         22   -1    0    0    0    0 -0.00000000000E+00 -0.00000000000E+00 -0.10355514095E+02  0.10355514095E+02  0.00000000000E+00 0.  1.
         13    1    1    2    0    0  0.28206858343E+01 -0.12406572874E+02  0.16162476338E+02  0.20569786690E+02  0.10566000000E+00 0. -1.
        996    1    1    2    0    0 -0.28206858343E+01  0.12406572874E+02  0.73481953744E+02  0.89785727402E+02  0.50000000000E+02 0.  0.
<mgrwt>
<rscale>  0 0.51593404E+02</rscale>
<asrwt>0</asrwt>
<pdfrwt beam="1">  1       13 0.10000000E+01 0.51593404E+02</pdfrwt>
<pdfrwt beam="2">  1       22 0.10355539E+00 0.51593404E+02</pdfrwt>
<totfact> 0.13385976E+00</totfact>
</mgrwt>
</event>
<event>
 4    1  0.2489496E+000  0.5565494E+02  0.7957747E-01  0.1417027E+00
         13   -1    0    0    0    0  0.00000000000E+00  0.00000000000E+00  0.99999944170E+02  0.99999999990E+02  0.10566000000E+00 0.  1.
         22   -1    0    0    0    0 -0.00000000000E+00 -0.00000000000E+00 -0.29154418161E+02  0.29154418161E+02  0.00000000000E+00 0. -1.
         13    1    1    2    0    0 -0.23299931333E+02 -0.73882005533E+01 -0.13634868401E+02  0.27989160542E+02  0.10566000000E+00 0. -1.
        996    1    1    2    0    0  0.23299931333E+02  0.73882005533E+01  0.84480394409E+02  0.10116525761E+03  0.50000000000E+02 0.  0.
<mgrwt>
<rscale>  0 0.55654940E+02</rscale>
<asrwt>0</asrwt>
<pdfrwt beam="1">  1       13 0.10000000E+01 0.55654940E+02</pdfrwt>
<pdfrwt beam="2">  1       22 0.29154438E+00 0.55654940E+02</pdfrwt>
<totfact> 0.21955192E-01</totfact>
</mgrwt>
</event>
<event>
 4    1  0.2489496E+000  0.5110645E+02  0.7957747E-01  0.1439463E+00
         13   -1    0    0    0    0  0.00000000000E+00  0.00000000000E+00  0.99999944179E+02  0.99999999999E+02  0.10566000000E+00 0. -1.
         22   -1    0    0    0    0 -0.00000000000E+00 -0.00000000000E+00 -0.13464768382E+02  0.13464768382E+02  0.00000000000E+00 0. -1.
         13    1    1    2    0    0  0.10180411445E+02 -0.28685388586E+01 -0.24412705137E+01  0.10855425285E+02  0.10566000000E+00 0.  1.
        996    1    1    2    0    0 -0.10180411445E+02  0.28685388586E+01  0.88976446311E+02  0.10260934310E+03  0.50000000000E+02 0.  0.
<mgrwt>
<rscale>  0 0.51106451E+02</rscale>
<asrwt>0</asrwt>
<pdfrwt beam="1">  1       13 0.10000000E+01 0.51106451E+02</pdfrwt>
<pdfrwt beam="2">  1       22 0.13464793E+00 0.51106451E+02</pdfrwt>
<totfact> 0.89610879E-01</totfact>
</mgrwt>
</event>
<event>
 4    1  0.2489496E+000  0.5154145E+02  0.7957747E-01  0.1437200E+00
         13   -1    0    0    0    0  0.00000000000E+00  0.00000000000E+00  0.99999944173E+02  0.99999999993E+02  0.10566000000E+00 0. -1.
         22   -1    0    0    0    0 -0.00000000000E+00 -0.00000000000E+00 -0.16076141247E+02  0.16076141247E+02  0.00000000000E+00 0.  1.
         13    1    1    2    0    0 -0.50028333154E+01 -0.11467011864E+02 -0.48551474323E+01  0.13420295187E+02  0.10566000000E+00 0.  1.
        996    1    1    2    0    0  0.50028333154E+01  0.11467011864E+02  0.88778950358E+02  0.10265584605E+03  0.50000000000E+02 0.  0.
<mgrwt>
<rscale>  0 0.51541446E+02</rscale>
<asrwt>0</asrwt>
<pdfrwt beam="1">  1       13 0.10000000E+01 0.51541446E+02</pdfrwt>
<pdfrwt beam="2">  1       22 0.16076165E+00 0.51541446E+02</pdfrwt>
<totfact> 0.66917181E-01</totfact>
</mgrwt>
</event>
<event>
 4    1  0.2489496E+000  0.5206142E+02  0.7957747E-01  0.1434530E+00
         13   -1    0    0    0    0  0.00000000000E+00  0.00000000000E+00  0.99999944187E+02  0.10000000001E+03  0.10566000000E+00 0. -1.
         22   -1    0    0    0    0 -0.00000000000E+00 -0.00000000000E+00 -0.19546028216E+02  0.19546028216E+02  0.00000000000E+00 0.  1.
         13    1    1    2    0    0 -0.14496834754E+02 -0.48291967491E+00 -0.82541102297E+01  0.16689305828E+02  0.10566000000E+00 0.  1.
        996    1    1    2    0    0  0.14496834754E+02  0.48291967491E+00  0.88708026201E+02  0.10285672239E+03  0.50000000000E+02 0.  0.
<mgrwt>
<rscale>  0 0.52061420E+02</rscale>
<asrwt>0</asrwt>
<pdfrwt beam="1">  1       13 0.10000000E+01 0.52061420E+02</pdfrwt>
<pdfrwt beam="2">  1       22 0.19546051E+00 0.52061420E+02</pdfrwt>
<totfact> 0.47287579E-01</totfact>
</mgrwt>
</event>
<event>
 4    1  0.2489496E+000  0.5100229E+02  0.7957747E-01  0.1440009E+00
         13   -1    0    0    0    0  0.00000000000E+00  0.00000000000E+00  0.99999944180E+02  0.10000000000E+03  0.10566000000E+00 0.  1.
         22   -1    0    0    0    0 -0.00000000000E+00 -0.00000000000E+00 -0.96674352666E+01  0.96674352666E+01  0.00000000000E+00 0.  1.
         13    1    1    2    0    0 -0.87314166100E+01 -0.49996046143E+01  0.81658374341E+01  0.12958616722E+02  0.10566000000E+00 0. -1.
        996    1    1    2    0    0  0.87314166100E+01  0.49996046143E+01  0.82166671479E+02  0.96708818545E+02  0.50000000000E+02 0.  0.
<mgrwt>
<rscale>  0 0.51002291E+02</rscale>
<asrwt>0</asrwt>
<pdfrwt beam="1">  1       13 0.10000000E+01 0.51002291E+02</pdfrwt>
<pdfrwt beam="2">  1       22 0.96674605E-01 0.51002291E+02</pdfrwt>
<totfact> 0.14766446E+00</totfact>
</mgrwt>
</event>
<event>
 4    1  0.2489496E+000  0.5179642E+02  0.7957747E-01  0.1435886E+00
         13   -1    0    0    0    0  0.00000000000E+00  0.00000000000E+00  0.99999944173E+02  0.99999999994E+02  0.10566000000E+00 0.  1.
         22   -1    0    0    0    0 -0.00000000000E+00 -0.00000000000E+00 -0.54901450305E+02  0.54901450305E+02  0.00000000000E+00 0. -1.
         13    1    1    2    0    0  0.71786154501E+01 -0.11460238466E+02 -0.47180046125E+02  0.49079909350E+02  0.10566000000E+00 0. -1.
        996    1    1    2    0    0 -0.71786154501E+01  0.11460238466E+02  0.92278539993E+02  0.10582154095E+03  0.50000000000E+02 0.  0.
<mgrwt>
<rscale>  0 0.51796424E+02</rscale>
<asrwt>0</asrwt>
<pdfrwt beam="1">  1       13 0.10000000E+01 0.51796424E+02</pdfrwt>
<pdfrwt beam="2">  1       22 0.54901463E+00 0.51796424E+02</pdfrwt>
<totfact> 0.59312949E-02</totfact>
</mgrwt>
</event>
<event>
 4    1  0.2489496E+000  0.5168790E+02  0.7957747E-01  0.1436444E+00
         13   -1    0    0    0    0  0.00000000000E+00  0.00000000000E+00  0.99999944182E+02  0.10000000000E+03  0.10566000000E+00 0. -1.
         22   -1    0    0    0    0 -0.00000000000E+00 -0.00000000000E+00 -0.14235109266E+02  0.14235109266E+02  0.00000000000E+00 0. -1.
         13    1    1    2    0    0  0.72295638527E+01 -0.10925745416E+02  0.49217659477E+02  0.50931597999E+02  0.10566000000E+00 0.  1.
        996    1    1    2    0    0 -0.72295638527E+01  0.10925745416E+02  0.36547175439E+02  0.63303511269E+02  0.50000000000E+02 0.  0.
<mgrwt>
<rscale>  0 0.51687895E+02</rscale>
<asrwt>0</asrwt>
<pdfrwt beam="1">  1       13 0.10000000E+01 0.51687895E+02</pdfrwt>
<pdfrwt beam="2">  1       22 0.14235133E+00 0.51687895E+02</pdfrwt>
<totfact> 0.82021219E-01</totfact>
</mgrwt>
</event>
<event>
 4    1  0.2489496E+000  0.5494912E+02  0.7957747E-01  0.1420340E+00
         13   -1    0    0    0    0  0.00000000000E+00  0.00000000000E+00  0.99999944178E+02  0.99999999998E+02  0.10566000000E+00 0.  1.
         22   -1    0    0    0    0 -0.00000000000E+00 -0.00000000000E+00 -0.27177741504E+02  0.27177741504E+02  0.00000000000E+00 0. -1.
         13    1    1    2    0    0  0.22694769732E+02  0.20865405143E+01 -0.12271414554E+02  0.25884454866E+02  0.10566000000E+00 0. -1.
        996    1    1    2    0    0 -0.22694769732E+02 -0.20865405143E+01  0.85093617229E+02  0.10129328664E+03  0.50000000000E+02 0.  0.
<mgrwt>
<rscale>  0 0.54949124E+02</rscale>
<asrwt>0</asrwt>
<pdfrwt beam="1">  1       13 0.10000000E+01 0.54949124E+02</pdfrwt>
<pdfrwt beam="2">  1       22 0.27177762E+00 0.54949124E+02</pdfrwt>
<totfact> 0.25124876E-01</totfact>
</mgrwt>
</event>
<event>
 4    1  0.2489496E+000  0.5141647E+02  0.7957747E-01  0.1437848E+00
         13   -1    0    0    0    0  0.00000000000E+00  0.00000000000E+00  0.99999944180E+02  0.10000000000E+03  0.10566000000E+00 0. -1.
         22   -1    0    0    0    0 -0.00000000000E+00 -0.00000000000E+00 -0.16760949424E+02  0.16760949424E+02  0.00000000000E+00 0.  1.
         13    1    1    2    0    0  0.91393391429E+01 -0.77540698147E+01 -0.62763854397E+01  0.13529866846E+02  0.10566000000E+00 0.  1.
        996    1    1    2    0    0 -0.91393391429E+01  0.77540698147E+01  0.89515380195E+02  0.10323108258E+03  0.50000000000E+02 0.  0.
<mgrwt>
<rscale>  0 0.51416467E+02</rscale>
<asrwt>0</asrwt>
<pdfrwt beam="1">  1       13 0.10000000E+01 0.51416467E+02</pdfrwt>
<pdfrwt beam="2">  1       22 0.16760973E+00 0.51416467E+02</pdfrwt>
<totfact> 0.62250277E-01</totfact>
</mgrwt>
</event>
<event>
 4    1  0.2489496E+000  0.5153345E+02  0.7957747E-01  0.1437242E+00
         13   -1    0    0    0    0  0.00000000000E+00  0.00000000000E+00  0.99999944177E+02  0.99999999998E+02  0.10566000000E+00 0. -1.
         22   -1    0    0    0    0 -0.00000000000E+00 -0.00000000000E+00 -0.55190164940E+02  0.55190164940E+02  0.00000000000E+00 0.  1.
         13    1    1    2    0    0 -0.39409378091E+01 -0.11839169656E+02 -0.47694561630E+02  0.49299891501E+02  0.10566000000E+00 0.  1.
        996    1    1    2    0    0  0.39409378091E+01  0.11839169656E+02  0.92504340868E+02  0.10589027344E+03  0.50000000000E+02 0.  0.
<mgrwt>
<rscale>  0 0.51533454E+02</rscale>
<asrwt>0</asrwt>
<pdfrwt beam="1">  1       13 0.10000000E+01 0.51533454E+02</pdfrwt>
<pdfrwt beam="2">  1       22 0.55190177E+00 0.51533454E+02</pdfrwt>
<totfact> 0.59031867E-02</totfact>
</mgrwt>
</event>
<event>
 4    1  0.2489496E+000  0.5271249E+02  0.7957747E-01  0.1431237E+00
         13   -1    0    0    0    0  0.00000000000E+00  0.00000000000E+00  0.99999944172E+02  0.99999999992E+02  0.10566000000E+00 0.  1.
         22   -1    0    0    0    0 -0.00000000000E+00 -0.00000000000E+00 -0.39195509356E+02  0.39195509356E+02  0.00000000000E+00 0. -1.
         13    1    1    2    0    0 -0.14547619504E+02 -0.81837047858E+01 -0.29924656420E+02  0.34265178872E+02  0.10566000000E+00 0. -1.
        996    1    1    2    0    0  0.14547619504E+02  0.81837047858E+01  0.90729091236E+02  0.10493033048E+03  0.50000000000E+02 0.  0.
<mgrwt>
<rscale>  0 0.52712487E+02</rscale>
<asrwt>0</asrwt>
<pdfrwt beam="1">  1       13 0.10000000E+01 0.52712487E+02</pdfrwt>
<pdfrwt beam="2">  1       22 0.39195526E+00 0.52712487E+02</pdfrwt>
<totfact> 0.12855303E-01</totfact>
</mgrwt>
</event>
<event>
 4    1  0.2489496E+000  0.5123347E+02  0.7957747E-01  0.1438800E+00
         13   -1    0    0    0    0  0.00000000000E+00  0.00000000000E+00  0.99999944168E+02  0.99999999988E+02  0.10566000000E+00 0. -1.
         22   -1    0    0    0    0 -0.00000000000E+00 -0.00000000000E+00 -0.19559456972E+02  0.19559456972E+02  0.00000000000E+00 0.  1.
         13    1    1    2    0    0  0.10610560070E+02  0.35049782238E+01 -0.10401036262E+02  0.15266354401E+02  0.10566000000E+00 0.  1.
        996    1    1    2    0    0 -0.10610560070E+02 -0.35049782238E+01  0.90841523457E+02  0.10429310256E+03  0.50000000000E+02 0.  0.
<mgrwt>
<rscale>  0 0.51233474E+02</rscale>
<asrwt>0</asrwt>
<pdfrwt beam="1">  1       13 0.10000000E+01 0.51233474E+02</pdfrwt>
<pdfrwt beam="2">  1       22 0.19559479E+00 0.51233474E+02</pdfrwt>
<totfact> 0.47156075E-01</totfact>
</mgrwt>
</event>
<event>
 4    1  0.2489496E+000  0.5209300E+02  0.7957747E-01  0.1434369E+00
         13   -1    0    0    0    0  0.00000000000E+00  0.00000000000E+00  0.99999944176E+02  0.99999999997E+02  0.10566000000E+00 0.  1.
         22   -1    0    0    0    0 -0.00000000000E+00 -0.00000000000E+00 -0.11291709124E+02  0.11291709124E+02  0.00000000000E+00 0.  1.
         13    1    1    2    0    0 -0.13369071966E+02  0.59117415331E+01  0.25400921487E+02  0.29306974419E+02  0.10566000000E+00 0. -1.
        996    1    1    2    0    0  0.13369071966E+02 -0.59117415331E+01  0.63307313565E+02  0.81984734701E+02  0.50000000000E+02 0.  0.
<mgrwt>
<rscale>  0 0.52093001E+02</rscale>
<asrwt>0</asrwt>
<pdfrwt beam="1">  1       13 0.10000000E+01 0.52093001E+02</pdfrwt>
<pdfrwt beam="2">  1       22 0.11291734E+00 0.52093001E+02</pdfrwt>
<totfact> 0.11789748E+00</totfact>
</mgrwt>
</event>
<event>
 4    1  0.2489496E+000  0.7294074E+02  0.7957747E-01  0.1350369E+00
         13   -1    0    0    0    0  0.00000000000E+00  0.00000000000E+00  0.99999944174E+02  0.99999999994E+02  0.10566000000E+00 0.  1.
         22   -1    0    0    0    0 -0.00000000000E+00 -0.00000000000E+00 -0.44138681407E+02  0.44138681407E+02  0.00000000000E+00 0. -1.
         13    1    1    2    0    0 -0.43451354433E+02 -0.30534110119E+02  0.14287343072E+01  0.53126307312E+02  0.10566000000E+00 0. -1.
        996    1    1    2    0    0  0.43451354433E+02  0.30534110119E+02  0.54432528460E+02  0.91012374089E+02  0.50000000000E+02 0.  0.
<mgrwt>
<rscale>  0 0.72940744E+02</rscale>
<asrwt>0</asrwt>
<pdfrwt beam="1">  1       13 0.10000000E+01 0.72940744E+02</pdfrwt>
<pdfrwt beam="2">  1       22 0.44138697E+00 0.72940744E+02</pdfrwt>
<totfact> 0.10210864E-01</totfact>
</mgrwt>
</event>
<event>
 4    1  0.2489496E+000  0.5283556E+02  0.7957747E-01  0.1430621E+00
         13   -1    0    0    0    0  0.00000000000E+00  0.00000000000E+00  0.99999944191E+02  0.10000000001E+03  0.10566000000E+00 0.  1.
         22   -1    0    0    0    0 -0.00000000000E+00 -0.00000000000E+00 -0.24237085453E+02  0.24237085453E+02  0.00000000000E+00 0.  1.
         13    1    1    2    0    0  0.99262964680E+01 -0.13894768756E+02 -0.12641933591E+02  0.21246778798E+02  0.10566000000E+00 0. -1.
        996    1    1    2    0    0 -0.99262964680E+01  0.13894768756E+02  0.88404792329E+02  0.10299030667E+03  0.50000000000E+02 0.  0.
<mgrwt>
<rscale>  0 0.52835556E+02</rscale>
<asrwt>0</asrwt>
<pdfrwt beam="1">  1       13 0.10000000E+01 0.52835556E+02</pdfrwt>
<pdfrwt beam="2">  1       22 0.24237107E+00 0.52835556E+02</pdfrwt>
<totfact> 0.31371729E-01</totfact>
</mgrwt>
</event>
<event>
 4    1  0.2489496E+000  0.5112508E+02  0.7957747E-01  0.1439366E+00
         13   -1    0    0    0    0  0.00000000000E+00  0.00000000000E+00  0.99999944179E+02  0.99999999999E+02  0.10566000000E+00 0. -1.
         22   -1    0    0    0    0 -0.00000000000E+00 -0.00000000000E+00 -0.23293806673E+02  0.23293806673E+02  0.00000000000E+00 0.  1.
         13    1    1    2    0    0 -0.93416036953E+01  0.51486626318E+01 -0.14936864361E+02  0.18354709681E+02  0.10566000000E+00 0.  1.
        996    1    1    2    0    0  0.93416036953E+01 -0.51486626318E+01  0.91643001866E+02  0.10493909699E+03  0.50000000000E+02 0.  0.
<mgrwt>
<rscale>  0 0.51125085E+02</rscale>
<asrwt>0</asrwt>
<pdfrwt beam="1">  1       13 0.10000000E+01 0.51125085E+02</pdfrwt>
<pdfrwt beam="2">  1       22 0.23293828E+00 0.51125085E+02</pdfrwt>
<totfact> 0.33809954E-01</totfact>
</mgrwt>
</event>
<event>
 4    1  0.2489496E+000  0.5304410E+02  0.7957747E-01  0.1429582E+00
         13   -1    0    0    0    0  0.00000000000E+00  0.00000000000E+00  0.99999944175E+02  0.99999999995E+02  0.10566000000E+00 0. -1.
         22   -1    0    0    0    0 -0.00000000000E+00 -0.00000000000E+00 -0.51040874289E+02  0.51040874289E+02  0.00000000000E+00 0.  1.
         13    1    1    2    0    0  0.17450950211E+02 -0.30234211999E+01 -0.42091457674E+02  0.45665946964E+02  0.10566000000E+00 0.  1.
        996    1    1    2    0    0 -0.17450950211E+02  0.30234211999E+01  0.91050527559E+02  0.10537492732E+03  0.50000000000E+02 0.  0.
<mgrwt>
<rscale>  0 0.53044102E+02</rscale>
<asrwt>0</asrwt>
<pdfrwt beam="1">  1       13 0.10000000E+01 0.53044102E+02</pdfrwt>
<pdfrwt beam="2">  1       22 0.51040888E+00 0.53044102E+02</pdfrwt>
<totfact> 0.69638316E-02</totfact>
</mgrwt>
</event>
<event>
 4    1  0.2489496E+000  0.5377593E+02  0.7957747E-01  0.1425978E+00
         13   -1    0    0    0    0  0.00000000000E+00  0.00000000000E+00  0.99999944178E+02  0.99999999998E+02  0.10566000000E+00 0. -1.
         22   -1    0    0    0    0 -0.00000000000E+00 -0.00000000000E+00 -0.15941727417E+02  0.15941727417E+02  0.00000000000E+00 0. -1.
         13    1    1    2    0    0 -0.18124959064E+01 -0.19712061842E+02  0.45948266292E+02  0.50031038993E+02  0.10566000000E+00 0.  1.
        996    1    1    2    0    0  0.18124959064E+01  0.19712061842E+02  0.38109950470E+02  0.65910688422E+02  0.50000000000E+02 0.  0.
<mgrwt>
<rscale>  0 0.53775929E+02</rscale>
<asrwt>0</asrwt>
<pdfrwt beam="1">  1       13 0.10000000E+01 0.53775929E+02</pdfrwt>
<pdfrwt beam="2">  1       22 0.15941751E+00 0.53775929E+02</pdfrwt>
<totfact> 0.68183438E-01</totfact>
</mgrwt>
</event>
<event>
 4    1  0.2489496E+000  0.5127038E+02  0.7957747E-01  0.1438607E+00
         13   -1    0    0    0    0  0.00000000000E+00  0.00000000000E+00  0.99999944182E+02  0.10000000000E+03  0.10566000000E+00 0. -1.
         22   -1    0    0    0    0 -0.00000000000E+00 -0.00000000000E+00 -0.11932165035E+02  0.11932165035E+02  0.00000000000E+00 0. -1.
         13    1    1    2    0    0 -0.86890322994E+00  0.11309170846E+02  0.16674327028E+01  0.11464895721E+02  0.10566000000E+00 0.  1.
        996    1    1    2    0    0  0.86890322994E+00 -0.11309170846E+02  0.86400346445E+02  0.10046726932E+03  0.50000000000E+02 0.  0.
<mgrwt>
<rscale>  0 0.51270385E+02</rscale>
<asrwt>0</asrwt>
<pdfrwt beam="1">  1       13 0.10000000E+01 0.51270385E+02</pdfrwt>
<pdfrwt beam="2">  1       22 0.11932190E+00 0.51270385E+02</pdfrwt>
<totfact> 0.10825222E+00</totfact>
</mgrwt>
</event>
<event>
 4    1  0.2489496E+000  0.5167697E+02  0.7957747E-01  0.1436501E+00
         13   -1    0    0    0    0  0.00000000000E+00  0.00000000000E+00  0.99999944184E+02  0.10000000000E+03  0.10566000000E+00 0.  1.
         22   -1    0    0    0    0 -0.00000000000E+00 -0.00000000000E+00 -0.23503473807E+02  0.23503473807E+02  0.00000000000E+00 0. -1.
         13    1    1    2    0    0 -0.11869081225E+02 -0.54437603178E+01 -0.14091723462E+02  0.19211909059E+02  0.10566000000E+00 0. -1.
        996    1    1    2    0    0  0.11869081225E+02  0.54437603178E+01  0.90588193839E+02  0.10429156475E+03  0.50000000000E+02 0.  0.
<mgrwt>
<rscale>  0 0.51676974E+02</rscale>
<asrwt>0</asrwt>
<pdfrwt beam="1">  1       13 0.10000000E+01 0.51676974E+02</pdfrwt>
<pdfrwt beam="2">  1       22 0.23503495E+00 0.51676974E+02</pdfrwt>
<totfact> 0.33254818E-01</totfact>
</mgrwt>
</event>
<event>
 4    1  0.2489496E+000  0.5239340E+02  0.7957747E-01  0.1432844E+00
         13   -1    0    0    0    0  0.00000000000E+00  0.00000000000E+00  0.99999944178E+02  0.99999999998E+02  0.10566000000E+00 0. -1.
         22   -1    0    0    0    0 -0.00000000000E+00 -0.00000000000E+00 -0.11606965532E+02  0.11606965532E+02  0.00000000000E+00 0. -1.
         13    1    1    2    0    0  0.48934504599E+01 -0.14870202807E+02  0.17988359522E+02  0.23846614670E+02  0.10566000000E+00 0.  1.
        996    1    1    2    0    0 -0.48934504599E+01  0.14870202807E+02  0.70404619124E+02  0.87760350859E+02  0.50000000000E+02 0.  0.
<mgrwt>
<rscale>  0 0.52393404E+02</rscale>
<asrwt>0</asrwt>
<pdfrwt beam="1">  1       13 0.10000000E+01 0.52393404E+02</pdfrwt>
<pdfrwt beam="2">  1       22 0.11606990E+00 0.52393404E+02</pdfrwt>
<totfact> 0.11318349E+00</totfact>
</mgrwt>
</event>
<event>
 4    1  0.2489496E+000  0.5213808E+02  0.7957747E-01  0.1434139E+00
         13   -1    0    0    0    0  0.00000000000E+00  0.00000000000E+00  0.99999944178E+02  0.99999999998E+02  0.10566000000E+00 0.  1.
         22   -1    0    0    0    0 -0.00000000000E+00 -0.00000000000E+00 -0.18427553402E+02  0.18427553402E+02  0.00000000000E+00 0. -1.
         13    1    1    2    0    0 -0.14363402080E+02 -0.34744163239E+01 -0.64485987882E+01  0.16123724088E+02  0.10566000000E+00 0. -1.
        996    1    1    2    0    0  0.14363402080E+02  0.34744163239E+01  0.88020989564E+02  0.10230382931E+03  0.50000000000E+02 0.  0.
<mgrwt>
<rscale>  0 0.52138075E+02</rscale>
<asrwt>0</asrwt>
<pdfrwt beam="1">  1       13 0.10000000E+01 0.52138075E+02</pdfrwt>
<pdfrwt beam="2">  1       22 0.18427576E+00 0.52138075E+02</pdfrwt>
<totfact> 0.52679339E-01</totfact>
</mgrwt>
</event>
<event>
 4    1  0.2489496E+000  0.5114767E+02  0.7957747E-01  0.1439248E+00
         13   -1    0    0    0    0  0.00000000000E+00  0.00000000000E+00  0.99999944175E+02  0.99999999996E+02  0.10566000000E+00 0. -1.
         22   -1    0    0    0    0 -0.00000000000E+00 -0.00000000000E+00 -0.11218149204E+02  0.11218149204E+02  0.00000000000E+00 0. -1.
         13    1    1    2    0    0 -0.15591778848E+01 -0.10660812441E+02  0.27332391525E+01  0.11116011780E+02  0.10566000000E+00 0.  1.
        996    1    1    2    0    0  0.15591778848E+01  0.10660812441E+02  0.86048555819E+02  0.10010213742E+03  0.50000000000E+02 0.  0.
<mgrwt>
<rscale>  0 0.51147668E+02</rscale>
<asrwt>0</asrwt>
<pdfrwt beam="1">  1       13 0.10000000E+01 0.51147668E+02</pdfrwt>
<pdfrwt beam="2">  1       22 0.11218174E+00 0.51147668E+02</pdfrwt>
<totfact> 0.11879790E+00</totfact>
</mgrwt>
</event>
<event>
 4    1  0.2489496E+000  0.5127315E+02  0.7957747E-01  0.1438593E+00
         13   -1    0    0    0    0  0.00000000000E+00  0.00000000000E+00  0.99999944184E+02  0.10000000000E+03  0.10566000000E+00 0.  1.
         22   -1    0    0    0    0 -0.00000000000E+00 -0.00000000000E+00 -0.14844818751E+02  0.14844818751E+02  0.00000000000E+00 0.  1.
         13    1    1    2    0    0 -0.71574524024E+01  0.88151295786E+01 -0.39650265083E+01  0.12027810841E+02  0.10566000000E+00 0. -1.
        996    1    1    2    0    0  0.71574524024E+01 -0.88151295786E+01  0.89120151941E+02  0.10281700791E+03  0.50000000000E+02 0.  0.
<mgrwt>
<rscale>  0 0.51273147E+02</rscale>
<asrwt>0</asrwt>
<pdfrwt beam="1">  1       13 0.10000000E+01 0.51273147E+02</pdfrwt>
<pdfrwt beam="2">  1       22 0.14844843E+00 0.51273147E+02</pdfrwt>
<totfact> 0.76489761E-01</totfact>
</mgrwt>
</event>
<event>
 4    1  0.2489496E+000  0.5164918E+02  0.7957747E-01  0.1436644E+00
         13   -1    0    0    0    0  0.00000000000E+00  0.00000000000E+00  0.99999944174E+02  0.99999999994E+02  0.10566000000E+00 0. -1.
         22   -1    0    0    0    0 -0.00000000000E+00 -0.00000000000E+00 -0.12857234005E+02  0.12857234005E+02  0.00000000000E+00 0. -1.
         13    1    1    2    0    0  0.11937697306E+02 -0.50128681681E+01  0.17582756397E+01  0.13066757880E+02  0.10566000000E+00 0.  1.
        996    1    1    2    0    0 -0.11937697306E+02  0.50128681681E+01  0.85384434529E+02  0.99790476119E+02  0.50000000000E+02 0.  0.
<mgrwt>
<rscale>  0 0.51649177E+02</rscale>
<asrwt>0</asrwt>
<pdfrwt beam="1">  1       13 0.10000000E+01 0.51649177E+02</pdfrwt>
<pdfrwt beam="2">  1       22 0.12857258E+00 0.51649177E+02</pdfrwt>
<totfact> 0.96515117E-01</totfact>
</mgrwt>
</event>
<event>
 4    1  0.2489496E+000  0.5109570E+02  0.7957747E-01  0.1439520E+00
         13   -1    0    0    0    0  0.00000000000E+00  0.00000000000E+00  0.99999944178E+02  0.99999999998E+02  0.10566000000E+00 0.  1.
         22   -1    0    0    0    0 -0.00000000000E+00 -0.00000000000E+00 -0.95161020484E+01  0.95161020484E+01  0.00000000000E+00 0.  1.
         13    1    1    2    0    0 -0.54008022233E+01 -0.90334037781E+01  0.13488820777E+02  0.17109368734E+02  0.10566000000E+00 0. -1.
        996    1    1    2    0    0  0.54008022233E+01  0.90334037781E+01  0.76995021352E+02  0.92406733312E+02  0.50000000000E+02 0.  0.
<mgrwt>
<rscale>  0 0.51095705E+02</rscale>
<asrwt>0</asrwt>
<pdfrwt beam="1">  1       13 0.10000000E+01 0.51095705E+02</pdfrwt>
<pdfrwt beam="2">  1       22 0.95161273E-01 0.51095705E+02</pdfrwt>
<totfact> 0.15107413E+00</totfact>
</mgrwt>
</event>
<event>
 4    1  0.2489496E+000  0.5107855E+02  0.7957747E-01  0.1439609E+00
         13   -1    0    0    0    0  0.00000000000E+00  0.00000000000E+00  0.99999944171E+02  0.99999999991E+02  0.10566000000E+00 0. -1.
         22   -1    0    0    0    0 -0.00000000000E+00 -0.00000000000E+00 -0.13055200108E+02  0.13055200108E+02  0.00000000000E+00 0.  1.
         13    1    1    2    0    0 -0.10254275268E+02  0.19666577054E+01 -0.18624549466E+01  0.10606498304E+02  0.10566000000E+00 0.  1.
        996    1    1    2    0    0  0.10254275268E+02 -0.19666577054E+01  0.88807199009E+02  0.10244870180E+03  0.50000000000E+02 0.  0.
<mgrwt>
<rscale>  0 0.51078546E+02</rscale>
<asrwt>0</asrwt>
<pdfrwt beam="1">  1       13 0.10000000E+01 0.51078546E+02</pdfrwt>
<pdfrwt beam="2">  1       22 0.13055224E+00 0.51078546E+02</pdfrwt>
<totfact> 0.94104986E-01</totfact>
</mgrwt>
</event>
<event>
 4    1  0.2489496E+000  0.5141176E+02  0.7957747E-01  0.1437872E+00
         13   -1    0    0    0    0  0.00000000000E+00  0.00000000000E+00  0.99999944180E+02  0.10000000000E+03  0.10566000000E+00 0.  1.
         22   -1    0    0    0    0 -0.00000000000E+00 -0.00000000000E+00 -0.14345637454E+02  0.14345637454E+02  0.00000000000E+00 0.  1.
         13    1    1    2    0    0  0.10971009740E+02  0.47755527103E+01 -0.25660588563E+01  0.12237842150E+02  0.10566000000E+00 0. -1.
        996    1    1    2    0    0 -0.10971009740E+02 -0.47755527103E+01  0.88220365582E+02  0.10210779530E+03  0.50000000000E+02 0.  0.
<mgrwt>
<rscale>  0 0.51411759E+02</rscale>
<asrwt>0</asrwt>
<pdfrwt beam="1">  1       13 0.10000000E+01 0.51411759E+02</pdfrwt>
<pdfrwt beam="2">  1       22 0.14345661E+00 0.51411759E+02</pdfrwt>
<totfact> 0.80944644E-01</totfact>
</mgrwt>
</event>
<event>
 4    1  0.2489496E+000  0.5612871E+02  0.7957747E-01  0.1414835E+00
         13   -1    0    0    0    0  0.00000000000E+00  0.00000000000E+00  0.99999944177E+02  0.99999999998E+02  0.10566000000E+00 0. -1.
         22   -1    0    0    0    0 -0.00000000000E+00 -0.00000000000E+00 -0.16669614030E+02  0.16669614030E+02  0.00000000000E+00 0.  1.
         13    1    1    2    0    0 -0.13870251307E+02  0.21402049169E+02  0.27366808688E+02  0.37408354171E+02  0.10566000000E+00 0.  1.
        996    1    1    2    0    0  0.13870251307E+02 -0.21402049169E+02  0.55963521459E+02  0.79261259857E+02  0.50000000000E+02 0.  0.
<mgrwt>
<rscale>  0 0.56128705E+02</rscale>
<asrwt>0</asrwt>
<pdfrwt beam="1">  1       13 0.10000000E+01 0.56128705E+02</pdfrwt>
<pdfrwt beam="2">  1       22 0.16669637E+00 0.56128705E+02</pdfrwt>
<totfact> 0.63405725E-01</totfact>
</mgrwt>
</event>
<event>
 4    1  0.2489496E+000  0.5104248E+02  0.7957747E-01  0.1439798E+00
         13   -1    0    0    0    0  0.00000000000E+00  0.00000000000E+00  0.99999944180E+02  0.10000000000E+03  0.10566000000E+00 0.  1.
         22   -1    0    0    0    0 -0.00000000000E+00 -0.00000000000E+00 -0.97105719703E+01  0.97105719703E+01  0.00000000000E+00 0.  1.
         13    1    1    2    0    0 -0.98864085738E+01 -0.27555978683E+01  0.86235730768E+01  0.13405654432E+02  0.10566000000E+00 0. -1.
        996    1    1    2    0    0  0.98864085738E+01  0.27555978683E+01  0.81665799133E+02  0.96304917539E+02  0.50000000000E+02 0.  0.
<mgrwt>
<rscale>  0 0.51042476E+02</rscale>
<asrwt>0</asrwt>
<pdfrwt beam="1">  1       13 0.10000000E+01 0.51042476E+02</pdfrwt>
<pdfrwt beam="2">  1       22 0.97105972E-01 0.51042476E+02</pdfrwt>
<totfact> 0.14673806E+00</totfact>
</mgrwt>
</event>
<event>
 4    1  0.2489496E+000  0.5125706E+02  0.7957747E-01  0.1438677E+00
         13   -1    0    0    0    0  0.00000000000E+00  0.00000000000E+00  0.99999944172E+02  0.99999999992E+02  0.10566000000E+00 0. -1.
         22   -1    0    0    0    0 -0.00000000000E+00 -0.00000000000E+00 -0.21822310307E+02  0.21822310307E+02  0.00000000000E+00 0.  1.
         13    1    1    2    0    0 -0.10068622321E+02  0.50900589390E+01 -0.13007057838E+02  0.17218611242E+02  0.10566000000E+00 0.  1.
        996    1    1    2    0    0  0.10068622321E+02 -0.50900589390E+01  0.91184691703E+02  0.10460369906E+03  0.50000000000E+02 0.  0.
<mgrwt>
<rscale>  0 0.51257057E+02</rscale>
<asrwt>0</asrwt>
<pdfrwt beam="1">  1       13 0.10000000E+01 0.51257057E+02</pdfrwt>
<pdfrwt beam="2">  1       22 0.21822332E+00 0.51257057E+02</pdfrwt>
<totfact> 0.38365406E-01</totfact>
</mgrwt>
</event>
<event>
 4    1  0.2489496E+000  0.5393611E+02  0.7957747E-01  0.1425198E+00
         13   -1    0    0    0    0  0.00000000000E+00  0.00000000000E+00  0.99999944178E+02  0.99999999998E+02  0.10566000000E+00 0. -1.
         22   -1    0    0    0    0 -0.00000000000E+00 -0.00000000000E+00 -0.14563450943E+02  0.14563450943E+02  0.00000000000E+00 0. -1.
         13    1    1    2    0    0  0.13805618763E+02 -0.14782052612E+02  0.36529605858E+02  0.41755567977E+02  0.10566000000E+00 0.  1.
        996    1    1    2    0    0 -0.13805618763E+02  0.14782052612E+02  0.48906887376E+02  0.72807882964E+02  0.50000000000E+02 0.  0.
<mgrwt>
<rscale>  0 0.53936112E+02</rscale>
<asrwt>0</asrwt>
<pdfrwt beam="1">  1       13 0.10000000E+01 0.53936112E+02</pdfrwt>
<pdfrwt beam="2">  1       22 0.14563475E+00 0.53936112E+02</pdfrwt>
<totfact> 0.79376094E-01</totfact>
</mgrwt>
</event>
<event>
 4    1  0.2489496E+000  0.5601612E+02  0.7957747E-01  0.1415354E+00
         13   -1    0    0    0    0  0.00000000000E+00  0.00000000000E+00  0.99999944180E+02  0.10000000000E+03  0.10566000000E+00 0.  1.
         22   -1    0    0    0    0 -0.00000000000E+00 -0.00000000000E+00 -0.22880670740E+02  0.22880670740E+02  0.00000000000E+00 0. -1.
         13    1    1    2    0    0  0.12266792246E+01  0.25225007244E+02 -0.26653871843E+01  0.25395298487E+02  0.10566000000E+00 0. -1.
        996    1    1    2    0    0 -0.12266792246E+01 -0.25225007244E+02  0.79784660625E+02  0.97485372253E+02  0.50000000000E+02 0.  0.
<mgrwt>
<rscale>  0 0.56016120E+02</rscale>
<asrwt>0</asrwt>
<pdfrwt beam="1">  1       13 0.10000000E+01 0.56016120E+02</pdfrwt>
<pdfrwt beam="2">  1       22 0.22880692E+00 0.56016120E+02</pdfrwt>
<totfact> 0.35284767E-01</totfact>
</mgrwt>
</event>
<event>
 4    1  0.2489496E+000  0.5326390E+02  0.7957747E-01  0.1428492E+00
         13   -1    0    0    0    0  0.00000000000E+00  0.00000000000E+00  0.99999944180E+02  0.10000000000E+03  0.10566000000E+00 0.  1.
         22   -1    0    0    0    0 -0.00000000000E+00 -0.00000000000E+00 -0.12914881212E+02  0.12914881212E+02  0.00000000000E+00 0. -1.
         13    1    1    2    0    0  0.18350894772E+02 -0.53664870762E+00  0.26597319272E+02  0.32318290290E+02  0.10566000000E+00 0. -1.
        996    1    1    2    0    0 -0.18350894772E+02  0.53664870762E+00  0.60487743696E+02  0.80596590922E+02  0.50000000000E+02 0.  0.
<mgrwt>
<rscale>  0 0.53263903E+02</rscale>
<asrwt>0</asrwt>
<pdfrwt beam="1">  1       13 0.10000000E+01 0.53263903E+02</pdfrwt>
<pdfrwt beam="2">  1       22 0.12914906E+00 0.53263903E+02</pdfrwt>
<totfact> 0.96173007E-01</totfact>
</mgrwt>
</event>
<event>
 4    1  0.2489496E+000  0.5125811E+02  0.7957747E-01  0.1438671E+00
         13   -1    0    0    0    0  0.00000000000E+00  0.00000000000E+00  0.99999944177E+02  0.99999999997E+02  0.10566000000E+00 0.  1.
         22   -1    0    0    0    0 -0.00000000000E+00 -0.00000000000E+00 -0.98463031448E+01  0.98463031448E+01  0.00000000000E+00 0.  1.
         13    1    1    2    0    0 -0.75403568855E+01  0.83985948628E+01  0.12984741491E+02  0.17204884576E+02  0.10566000000E+00 0. -1.
        996    1    1    2    0    0  0.75403568855E+01 -0.83985948628E+01  0.77168899541E+02  0.92641418566E+02  0.50000000000E+02 0.  0.
<mgrwt>
<rscale>  0 0.51258105E+02</rscale>
<asrwt>0</asrwt>
<pdfrwt beam="1">  1       13 0.10000000E+01 0.51258105E+02</pdfrwt>
<pdfrwt beam="2">  1       22 0.98463283E-01 0.51258105E+02</pdfrwt>
<totfact> 0.14391147E+00</totfact>
</mgrwt>
</event>
<event>
 4    1  0.2489496E+000  0.5501829E+02  0.7957747E-01  0.1420012E+00
         13   -1    0    0    0    0  0.00000000000E+00  0.00000000000E+00  0.99999944179E+02  0.99999999999E+02  0.10566000000E+00 0.  1.
         22   -1    0    0    0    0 -0.00000000000E+00 -0.00000000000E+00 -0.20969852991E+02  0.20969852991E+02  0.00000000000E+00 0. -1.
         13    1    1    2    0    0  0.11874816320E+02 -0.19646916972E+02 -0.19809654161E+01  0.23042308850E+02  0.10566000000E+00 0. -1.
        996    1    1    2    0    0 -0.11874816320E+02  0.19646916972E+02  0.81011056604E+02  0.97927544140E+02  0.50000000000E+02 0.  0.
<mgrwt>
<rscale>  0 0.55018293E+02</rscale>
<asrwt>0</asrwt>
<pdfrwt beam="1">  1       13 0.10000000E+01 0.55018293E+02</pdfrwt>
<pdfrwt beam="2">  1       22 0.20969875E+00 0.55018293E+02</pdfrwt>
<totfact> 0.41660631E-01</totfact>
</mgrwt>
</event>
<event>
 4    1  0.2489496E+000  0.5166796E+02  0.7957747E-01  0.1436547E+00
         13   -1    0    0    0    0  0.00000000000E+00  0.00000000000E+00  0.99999944178E+02  0.99999999998E+02  0.10566000000E+00 0. -1.
         22   -1    0    0    0    0 -0.00000000000E+00 -0.00000000000E+00 -0.10543483047E+02  0.10543483047E+02  0.00000000000E+00 0. -1.
         13    1    1    2    0    0 -0.12461931063E+02 -0.37787368544E+01  0.14313301826E+02  0.19350978044E+02  0.10566000000E+00 0.  1.
        996    1    1    2    0    0  0.12461931063E+02  0.37787368544E+01  0.75143159305E+02  0.91192505001E+02  0.50000000000E+02 0.  0.
<mgrwt>
<rscale>  0 0.51667965E+02</rscale>
<asrwt>0</asrwt>
<pdfrwt beam="1">  1       13 0.10000000E+01 0.51667965E+02</pdfrwt>
<pdfrwt beam="2">  1       22 0.10543508E+00 0.51667965E+02</pdfrwt>
<totfact> 0.13039938E+00</totfact>
</mgrwt>
</event>
<event>
 4    1  0.2489496E+000  0.5156498E+02  0.7957747E-01  0.1437079E+00
         13   -1    0    0    0    0  0.00000000000E+00  0.00000000000E+00  0.99999944176E+02  0.99999999997E+02  0.10566000000E+00 0. -1.
         22   -1    0    0    0    0 -0.00000000000E+00 -0.00000000000E+00 -0.10295400367E+02  0.10295400367E+02  0.00000000000E+00 0. -1.
         13    1    1    2    0    0 -0.12202890407E+02  0.31680504304E+01  0.17536869144E+02  0.21598611557E+02  0.10566000000E+00 0.  1.
        996    1    1    2    0    0  0.12202890407E+02 -0.31680504304E+01  0.72167674666E+02  0.88696788806E+02  0.50000000000E+02 0.  0.
<mgrwt>
<rscale>  0 0.51564979E+02</rscale>
<asrwt>0</asrwt>
<pdfrwt beam="1">  1       13 0.10000000E+01 0.51564979E+02</pdfrwt>
<pdfrwt beam="2">  1       22 0.10295425E+00 0.51564979E+02</pdfrwt>
<totfact> 0.13499397E+00</totfact>
</mgrwt>
</event>
<event>
 4    1  0.2489496E+000  0.5324213E+02  0.7957747E-01  0.1428600E+00
         13   -1    0    0    0    0  0.00000000000E+00  0.00000000000E+00  0.99999944165E+02  0.99999999985E+02  0.10566000000E+00 0. -1.
         22   -1    0    0    0    0 -0.00000000000E+00 -0.00000000000E+00 -0.20421183863E+02  0.20421183863E+02  0.00000000000E+00 0. -1.
         13    1    1    2    0    0 -0.17027409893E+02  0.66926745600E+01 -0.63230594209E+01  0.19357603801E+02  0.10566000000E+00 0.  1.
        996    1    1    2    0    0  0.17027409893E+02 -0.66926745600E+01  0.85901819722E+02  0.10106358005E+03  0.50000000000E+02 0.  0.
<mgrwt>
<rscale>  0 0.53242132E+02</rscale>
<asrwt>0</asrwt>
<pdfrwt beam="1">  1       13 0.10000000E+01 0.53242132E+02</pdfrwt>
<pdfrwt beam="2">  1       22 0.20421206E+00 0.53242132E+02</pdfrwt>
<totfact> 0.43669186E-01</totfact>
</mgrwt>
</event>
<event>
 4    1  0.2489496E+000  0.6147073E+02  0.7957747E-01  0.1391761E+00
         13   -1    0    0    0    0  0.00000000000E+00  0.00000000000E+00  0.99999944181E+02  0.10000000000E+03  0.10566000000E+00 0.  1.
         22   -1    0    0    0    0 -0.00000000000E+00 -0.00000000000E+00 -0.24445360802E+02  0.24445360802E+02  0.00000000000E+00 0. -1.
         13    1    1    2    0    0  0.35062024173E+02  0.70217377432E+01  0.17170885779E+02  0.39667377308E+02  0.10566000000E+00 0. -1.
        996    1    1    2    0    0 -0.35062024173E+02 -0.70217377432E+01  0.58383697601E+02  0.84777983495E+02  0.50000000000E+02 0.  0.
<mgrwt>
<rscale>  0 0.61470728E+02</rscale>
<asrwt>0</asrwt>
<pdfrwt beam="1">  1       13 0.10000000E+01 0.61470728E+02</pdfrwt>
<pdfrwt beam="2">  1       22 0.24445382E+00 0.61470728E+02</pdfrwt>
<totfact> 0.31236235E-01</totfact>
</mgrwt>
</event>
<event>
 4    1  0.2489496E+000  0.5147889E+02  0.7957747E-01  0.1437524E+00
         13   -1    0    0    0    0  0.00000000000E+00  0.00000000000E+00  0.99999944185E+02  0.10000000001E+03  0.10566000000E+00 0.  1.
         22   -1    0    0    0    0 -0.00000000000E+00 -0.00000000000E+00 -0.10548518976E+02  0.10548518976E+02  0.00000000000E+00 0.  1.
         13    1    1    2    0    0  0.81273495166E+01 -0.91663747173E+01  0.26749035074E+02  0.29421051596E+02  0.10566000000E+00 0. -1.
        996    1    1    2    0    0 -0.81273495166E+01  0.91663747173E+01  0.62702390135E+02  0.81127467385E+02  0.50000000000E+02 0.  0.
<mgrwt>
<rscale>  0 0.51478891E+02</rscale>
<asrwt>0</asrwt>
<pdfrwt beam="1">  1       13 0.10000000E+01 0.51478891E+02</pdfrwt>
<pdfrwt beam="2">  1       22 0.10548544E+00 0.51478891E+02</pdfrwt>
<totfact> 0.13024959E+00</totfact>
</mgrwt>
</event>
<event>
 4    1  0.2489496E+000  0.5106692E+02  0.7957747E-01  0.1439670E+00
         13   -1    0    0    0    0  0.00000000000E+00  0.00000000000E+00  0.99999944184E+02  0.10000000000E+03  0.10566000000E+00 0. -1.
         22   -1    0    0    0    0 -0.00000000000E+00 -0.00000000000E+00 -0.96733403945E+01  0.96733403945E+01  0.00000000000E+00 0. -1.
         13    1    1    2    0    0  0.10300772078E+02 -0.13131973337E+01  0.95503940059E+01  0.14108564149E+02  0.10566000000E+00 0.  1.
        996    1    1    2    0    0 -0.10300772078E+02  0.13131973337E+01  0.80776209784E+02  0.95564776250E+02  0.50000000000E+02 0.  0.
<mgrwt>
<rscale>  0 0.51066921E+02</rscale>
<asrwt>0</asrwt>
<pdfrwt beam="1">  1       13 0.10000000E+01 0.51066921E+02</pdfrwt>
<pdfrwt beam="2">  1       22 0.96733656E-01 0.51066921E+02</pdfrwt>
<totfact> 0.14755870E+00</totfact>
</mgrwt>
</event>
<event>
 4    1  0.2489496E+000  0.5374991E+02  0.7957747E-01  0.1426105E+00
         13   -1    0    0    0    0  0.00000000000E+00  0.00000000000E+00  0.99999944177E+02  0.99999999997E+02  0.10566000000E+00 0.  1.
         22   -1    0    0    0    0 -0.00000000000E+00 -0.00000000000E+00 -0.13496343005E+02  0.13496343005E+02  0.00000000000E+00 0.  1.
         13    1    1    2    0    0  0.19463572007E+02  0.31972673122E+01  0.23111862491E+02  0.30384576768E+02  0.10566000000E+00 0. -1.
        996    1    1    2    0    0 -0.19463572007E+02 -0.31972673122E+01  0.63391738682E+02  0.83111766235E+02  0.50000000000E+02 0.  0.
<mgrwt>
<rscale>  0 0.53749913E+02</rscale>
<asrwt>0</asrwt>
<pdfrwt beam="1">  1       13 0.10000000E+01 0.53749913E+02</pdfrwt>
<pdfrwt beam="2">  1       22 0.13496367E+00 0.53749913E+02</pdfrwt>
<totfact> 0.89777036E-01</totfact>
</mgrwt>
</event>
<event>
 4    1  0.2489496E+000  0.5552774E+02  0.7957747E-01  0.1417620E+00
         13   -1    0    0    0    0  0.00000000000E+00  0.00000000000E+00  0.99999944179E+02  0.99999999999E+02  0.10566000000E+00 0.  1.
         22   -1    0    0    0    0 -0.00000000000E+00 -0.00000000000E+00 -0.28997433850E+02  0.28997433850E+02  0.00000000000E+00 0. -1.
         13    1    1    2    0    0  0.19931564166E+02 -0.13640490250E+02 -0.13661598179E+02  0.27748525244E+02  0.10566000000E+00 0. -1.
        996    1    1    2    0    0 -0.19931564166E+02  0.13640490250E+02  0.84664108508E+02  0.10124890861E+03  0.50000000000E+02 0.  0.
<mgrwt>
<rscale>  0 0.55527743E+02</rscale>
<asrwt>0</asrwt>
<pdfrwt beam="1">  1       13 0.10000000E+01 0.55527743E+02</pdfrwt>
<pdfrwt beam="2">  1       22 0.28997454E+00 0.55527743E+02</pdfrwt>
<totfact> 0.22178948E-01</totfact>
</mgrwt>
</event>
<event>
 4    1  0.2489496E+000  0.6021900E+02  0.7957747E-01  0.1396915E+00
         13   -1    0    0    0    0  0.00000000000E+00  0.00000000000E+00  0.99999944176E+02  0.99999999996E+02  0.10566000000E+00 0. -1.
         22   -1    0    0    0    0 -0.00000000000E+00 -0.00000000000E+00 -0.65717369198E+02  0.65717369198E+02  0.00000000000E+00 0.  1.
         13    1    1    2    0    0  0.14843733075E+01  0.33527959213E+02 -0.51160343031E+02  0.61185940183E+02  0.10566000000E+00 0.  1.
        996    1    1    2    0    0 -0.14843733075E+01 -0.33527959213E+02  0.85442918009E+02  0.10453142901E+03  0.50000000000E+02 0.  0.
<mgrwt>
<rscale>  0 0.60218995E+02</rscale>
<asrwt>0</asrwt>
<pdfrwt beam="1">  1       13 0.10000000E+01 0.60218995E+02</pdfrwt>
<pdfrwt beam="2">  1       22 0.65717379E+00 0.60218995E+02</pdfrwt>
<totfact> 0.87221431E-02</totfact>
</mgrwt>
</event>
<event>
 4    1  0.2489496E+000  0.5250676E+02  0.7957747E-01  0.1432271E+00
         13   -1    0    0    0    0  0.00000000000E+00  0.00000000000E+00  0.99999944177E+02  0.99999999997E+02  0.10566000000E+00 0.  1.
         22   -1    0    0    0    0 -0.00000000000E+00 -0.00000000000E+00 -0.11854477879E+02  0.11854477879E+02  0.00000000000E+00 0. -1.
         13    1    1    2    0    0  0.11215902280E+02  0.11452671540E+02  0.16242829548E+02  0.22821060999E+02  0.10566000000E+00 0. -1.
        996    1    1    2    0    0 -0.11215902280E+02 -0.11452671540E+02  0.71902636750E+02  0.89033416878E+02  0.50000000000E+02 0.  0.
<mgrwt>
<rscale>  0 0.52506763E+02</rscale>
<asrwt>0</asrwt>
<pdfrwt beam="1">  1       13 0.10000000E+01 0.52506763E+02</pdfrwt>
<pdfrwt beam="2">  1       22 0.11854502E+00 0.52506763E+02</pdfrwt>
<totfact> 0.10964174E+00</totfact>
</mgrwt>
</event>
<event>
 4    1  0.2489496E+000  0.5204543E+02  0.7957747E-01  0.1434611E+00
         13   -1    0    0    0    0  0.00000000000E+00  0.00000000000E+00  0.99999944178E+02  0.99999999998E+02  0.10566000000E+00 0. -1.
         22   -1    0    0    0    0 -0.00000000000E+00 -0.00000000000E+00 -0.17496590967E+02  0.17496590967E+02  0.00000000000E+00 0. -1.
         13    1    1    2    0    0 -0.51372315815E+01 -0.13503182908E+02 -0.53315180484E+01  0.15400108626E+02  0.10566000000E+00 0.  1.
        996    1    1    2    0    0  0.51372315815E+01  0.13503182908E+02  0.87834871258E+02  0.10209648234E+03  0.50000000000E+02 0.  0.
<mgrwt>
<rscale>  0 0.52045433E+02</rscale>
<asrwt>0</asrwt>
<pdfrwt beam="1">  1       13 0.10000000E+01 0.52045433E+02</pdfrwt>
<pdfrwt beam="2">  1       22 0.17496614E+00 0.52045433E+02</pdfrwt>
<totfact> 0.57795214E-01</totfact>
</mgrwt>
</event>
<event>
 4    1  0.2489496E+000  0.5357909E+02  0.7957747E-01  0.1426940E+00
         13   -1    0    0    0    0  0.00000000000E+00  0.00000000000E+00  0.99999944179E+02  0.10000000000E+03  0.10566000000E+00 0.  1.
         22   -1    0    0    0    0 -0.00000000000E+00 -0.00000000000E+00 -0.17812635797E+02  0.17812635797E+02  0.00000000000E+00 0. -1.
         13    1    1    2    0    0 -0.17345394542E+02 -0.83579975081E+01 -0.52664127898E+00  0.19261551060E+02  0.10566000000E+00 0. -1.
        996    1    1    2    0    0  0.17345394542E+02  0.83579975081E+01  0.82713949661E+02  0.98551084736E+02  0.50000000000E+02 0.  0.
<mgrwt>
<rscale>  0 0.53579090E+02</rscale>
<asrwt>0</asrwt>
<pdfrwt beam="1">  1       13 0.10000000E+01 0.53579090E+02</pdfrwt>
<pdfrwt beam="2">  1       22 0.17812659E+00 0.53579090E+02</pdfrwt>
<totfact> 0.56143949E-01</totfact>
</mgrwt>
</event>
<event>
 4    1  0.2489496E+000  0.5189962E+02  0.7957747E-01  0.1435357E+00
         13   -1    0    0    0    0  0.00000000000E+00  0.00000000000E+00  0.99999944181E+02  0.10000000000E+03  0.10566000000E+00 0.  1.
         22   -1    0    0    0    0 -0.00000000000E+00 -0.00000000000E+00 -0.17111264777E+02  0.17111264777E+02  0.00000000000E+00 0. -1.
         13    1    1    2    0    0 -0.43867216325E+00 -0.13906038511E+02 -0.52141152841E+01  0.14858280606E+02  0.10566000000E+00 0. -1.
        996    1    1    2    0    0  0.43867216325E+00  0.13906038511E+02  0.88102794689E+02  0.10225298417E+03  0.50000000000E+02 0.  0.
<mgrwt>
<rscale>  0 0.51899618E+02</rscale>
<asrwt>0</asrwt>
<pdfrwt beam="1">  1       13 0.10000000E+01 0.51899618E+02</pdfrwt>
<pdfrwt beam="2">  1       22 0.17111288E+00 0.51899618E+02</pdfrwt>
<totfact> 0.60094862E-01</totfact>
</mgrwt>
</event>
<event>
 4    1  0.2489496E+000  0.5277680E+02  0.7957747E-01  0.1430915E+00
         13   -1    0    0    0    0  0.00000000000E+00  0.00000000000E+00  0.99999944180E+02  0.10000000000E+03  0.10566000000E+00 0. -1.
         22   -1    0    0    0    0 -0.00000000000E+00 -0.00000000000E+00 -0.21970510463E+02  0.21970510463E+02  0.00000000000E+00 0.  1.
         13    1    1    2    0    0  0.10370538521E+02  0.13335746531E+02 -0.97804261358E+01  0.19520709623E+02  0.10566000000E+00 0.  1.
        996    1    1    2    0    0 -0.10370538521E+02 -0.13335746531E+02  0.87809859853E+02  0.10244980084E+03  0.50000000000E+02 0.  0.
<mgrwt>
<rscale>  0 0.52776796E+02</rscale>
<asrwt>0</asrwt>
<pdfrwt beam="1">  1       13 0.10000000E+01 0.52776796E+02</pdfrwt>
<pdfrwt beam="2">  1       22 0.21970532E+00 0.52776796E+02</pdfrwt>
<totfact> 0.37968608E-01</totfact>
</mgrwt>
</event>
<event>
 4    1  0.2489496E+000  0.5172858E+02  0.7957747E-01  0.1436235E+00
         13   -1    0    0    0    0  0.00000000000E+00  0.00000000000E+00  0.99999944180E+02  0.10000000000E+03  0.10566000000E+00 0. -1.
         22   -1    0    0    0    0 -0.00000000000E+00 -0.00000000000E+00 -0.12926856170E+02  0.12926856170E+02  0.00000000000E+00 0.  1.
         13    1    1    2    0    0  0.69024351281E+01  0.11322660377E+02  0.20706977735E+01  0.13421818134E+02  0.10566000000E+00 0.  1.
        996    1    1    2    0    0 -0.69024351281E+01 -0.11322660377E+02  0.85002390237E+02  0.99505038037E+02  0.50000000000E+02 0.  0.
<mgrwt>
<rscale>  0 0.51728583E+02</rscale>
<asrwt>0</asrwt>
<pdfrwt beam="1">  1       13 0.10000000E+01 0.51728583E+02</pdfrwt>
<pdfrwt beam="2">  1       22 0.12926880E+00 0.51728583E+02</pdfrwt>
<totfact> 0.95716620E-01</totfact>
</mgrwt>
</event>
<event>
 4    1  0.2489496E+000  0.5131527E+02  0.7957747E-01  0.1438374E+00
         13   -1    0    0    0    0  0.00000000000E+00  0.00000000000E+00  0.99999944177E+02  0.99999999997E+02  0.10566000000E+00 0. -1.
         22   -1    0    0    0    0 -0.00000000000E+00 -0.00000000000E+00 -0.10215592614E+02  0.10215592614E+02  0.00000000000E+00 0. -1.
         13    1    1    2    0    0 -0.91674798295E+01  0.70152964393E+01  0.95869464081E+01  0.15005924697E+02  0.10566000000E+00 0.  1.
        996    1    1    2    0    0  0.91674798295E+01 -0.70152964393E+01  0.80197405155E+02  0.95209667913E+02  0.50000000000E+02 0.  0.
<mgrwt>
<rscale>  0 0.51315271E+02</rscale>
<asrwt>0</asrwt>
<pdfrwt beam="1">  1       13 0.10000000E+01 0.51315271E+02</pdfrwt>
<pdfrwt beam="2">  1       22 0.10215618E+00 0.51315271E+02</pdfrwt>
<totfact> 0.13645263E+00</totfact>
</mgrwt>
</event>
<event>
 4    1  0.2489496E+000  0.5764857E+02  0.7957747E-01  0.1407973E+00
         13   -1    0    0    0    0  0.00000000000E+00  0.00000000000E+00  0.99999944175E+02  0.99999999995E+02  0.10566000000E+00 0. -1.
         22   -1    0    0    0    0 -0.00000000000E+00 -0.00000000000E+00 -0.20816239513E+02  0.20816239513E+02  0.00000000000E+00 0. -1.
         13    1    1    2    0    0  0.25543199499E+02  0.13072973066E+02  0.46236843989E+02  0.54417043024E+02  0.10566000000E+00 0.  1.
        996    1    1    2    0    0 -0.25543199499E+02 -0.13072973066E+02  0.32946860673E+02  0.66399196483E+02  0.50000000000E+02 0.  0.
<mgrwt>
<rscale>  0 0.57648570E+02</rscale>
<asrwt>0</asrwt>
<pdfrwt beam="1">  1       13 0.10000000E+01 0.57648570E+02</pdfrwt>
<pdfrwt beam="2">  1       22 0.20816262E+00 0.57648570E+02</pdfrwt>
<totfact> 0.42425027E-01</totfact>
</mgrwt>
</event>
<event>
 4    1  0.2489496E+000  0.6365972E+02  0.7957747E-01  0.1383085E+00
         13   -1    0    0    0    0  0.00000000000E+00  0.00000000000E+00  0.99999944177E+02  0.99999999997E+02  0.10566000000E+00 0.  1.
         22   -1    0    0    0    0 -0.00000000000E+00 -0.00000000000E+00 -0.28396452839E+02  0.28396452839E+02  0.00000000000E+00 0. -1.
         13    1    1    2    0    0 -0.28255163428E+01 -0.39301100745E+02  0.43842685191E+02  0.58947029367E+02  0.10566000000E+00 0. -1.
        996    1    1    2    0    0  0.28255163428E+01  0.39301100745E+02  0.27760806147E+02  0.69449423470E+02  0.50000000000E+02 0.  0.
<mgrwt>
<rscale>  0 0.63659721E+02</rscale>
<asrwt>0</asrwt>
<pdfrwt beam="1">  1       13 0.10000000E+01 0.63659721E+02</pdfrwt>
<pdfrwt beam="2">  1       22 0.28396473E+00 0.63659721E+02</pdfrwt>
<totfact> 0.23318163E-01</totfact>
</mgrwt>
</event>
<event>
 4    1  0.2489496E+000  0.7806668E+02  0.7957747E-01  0.1334629E+00
         13   -1    0    0    0    0  0.00000000000E+00  0.00000000000E+00  0.99999944177E+02  0.99999999998E+02  0.10566000000E+00 0.  1.
         22   -1    0    0    0    0 -0.00000000000E+00 -0.00000000000E+00 -0.48652167087E+02  0.48652167087E+02  0.00000000000E+00 0. -1.
         13    1    1    2    0    0  0.49497783043E+01 -0.59748698008E+02  0.11661736766E+02  0.61077119180E+02  0.10566000000E+00 0. -1.
        996    1    1    2    0    0 -0.49497783043E+01  0.59748698008E+02  0.39686040324E+02  0.87575047905E+02  0.50000000000E+02 0.  0.
<mgrwt>
<rscale>  0 0.78066684E+02</rscale>
<asrwt>0</asrwt>
<pdfrwt beam="1">  1       13 0.10000000E+01 0.78066684E+02</pdfrwt>
<pdfrwt beam="2">  1       22 0.48652181E+00 0.78066684E+02</pdfrwt>
<totfact> 0.80157812E-02</totfact>
</mgrwt>
</event>
<event>
 4    1  0.2489496E+000  0.5242285E+02  0.7957747E-01  0.1432695E+00
         13   -1    0    0    0    0  0.00000000000E+00  0.00000000000E+00  0.99999944181E+02  0.10000000000E+03  0.10566000000E+00 0.  1.
         22   -1    0    0    0    0 -0.00000000000E+00 -0.00000000000E+00 -0.24028777590E+02  0.24028777590E+02  0.00000000000E+00 0.  1.
         13    1    1    2    0    0 -0.13835609136E+02 -0.75320386614E+01 -0.13224665011E+02  0.20568388737E+02  0.10566000000E+00 0. -1.
        996    1    1    2    0    0  0.13835609136E+02  0.75320386614E+01  0.89195831602E+02  0.10346038885E+03  0.50000000000E+02 0.  0.
<mgrwt>
<rscale>  0 0.52422855E+02</rscale>
<asrwt>0</asrwt>
<pdfrwt beam="1">  1       13 0.10000000E+01 0.52422855E+02</pdfrwt>
<pdfrwt beam="2">  1       22 0.24028799E+00 0.52422855E+02</pdfrwt>
<totfact> 0.31886357E-01</totfact>
</mgrwt>
</event>
<event>
 4    1  0.2489496E+000  0.7339540E+02  0.7957747E-01  0.1348913E+00
         13   -1    0    0    0    0  0.00000000000E+00  0.00000000000E+00  0.99999944183E+02  0.10000000000E+03  0.10566000000E+00 0.  1.
         22   -1    0    0    0    0 -0.00000000000E+00 -0.00000000000E+00 -0.44807753960E+02  0.44807753960E+02  0.00000000000E+00 0. -1.
         13    1    1    2    0    0  0.53284825522E+02 -0.69001528340E+01  0.12896612145E+01  0.53745317286E+02  0.10566000000E+00 0. -1.
        996    1    1    2    0    0 -0.53284825522E+02  0.69001528340E+01  0.53902529009E+02  0.91062436677E+02  0.50000000000E+02 0.  0.
<mgrwt>
<rscale>  0 0.73395400E+02</rscale>
<asrwt>0</asrwt>
<pdfrwt beam="1">  1       13 0.10000000E+01 0.73395400E+02</pdfrwt>
<pdfrwt beam="2">  1       22 0.44807769E+00 0.73395400E+02</pdfrwt>
<totfact> 0.98639901E-02</totfact>
</mgrwt>
</event>
<event>
 4    1  0.2489496E+000  0.5450866E+02  0.7957747E-01  0.1422437E+00
         13   -1    0    0    0    0  0.00000000000E+00  0.00000000000E+00  0.99999944174E+02  0.99999999994E+02  0.10566000000E+00 0.  1.
         22   -1    0    0    0    0 -0.00000000000E+00 -0.00000000000E+00 -0.17040653835E+02  0.17040653835E+02  0.00000000000E+00 0.  1.
         13    1    1    2    0    0 -0.21703363449E+02 -0.39734054526E+00  0.56204936932E+01  0.22423090285E+02  0.10566000000E+00 0. -1.
        996    1    1    2    0    0  0.21703363449E+02  0.39734054526E+00  0.77338796646E+02  0.94617563545E+02  0.50000000000E+02 0.  0.
<mgrwt>
<rscale>  0 0.54508659E+02</rscale>
<asrwt>0</asrwt>
<pdfrwt beam="1">  1       13 0.10000000E+01 0.54508659E+02</pdfrwt>
<pdfrwt beam="2">  1       22 0.17040677E+00 0.54508659E+02</pdfrwt>
<totfact> 0.60831662E-01</totfact>
</mgrwt>
</event>
<event>
 4    1  0.2489496E+000  0.5159248E+02  0.7957747E-01  0.1436937E+00
         13   -1    0    0    0    0  0.00000000000E+00  0.00000000000E+00  0.99999944177E+02  0.99999999998E+02  0.10566000000E+00 0. -1.
         22   -1    0    0    0    0 -0.00000000000E+00 -0.00000000000E+00 -0.10734956062E+02  0.10734956062E+02  0.00000000000E+00 0.  1.
         13    1    1    2    0    0 -0.12661660170E+02  0.12107890724E+01  0.10099346491E+02  0.16241662847E+02  0.10566000000E+00 0.  1.
        996    1    1    2    0    0  0.12661660170E+02 -0.12107890724E+01  0.79165641624E+02  0.94493293213E+02  0.50000000000E+02 0.  0.
<mgrwt>
<rscale>  0 0.51592477E+02</rscale>
<asrwt>0</asrwt>
<pdfrwt beam="1">  1       13 0.10000000E+01 0.51592477E+02</pdfrwt>
<pdfrwt beam="2">  1       22 0.10734981E+00 0.51592477E+02</pdfrwt>
<totfact> 0.12696473E+00</totfact>
</mgrwt>
</event>
<event>
 4    1  0.2489496E+000  0.5238936E+02  0.7957747E-01  0.1432864E+00
         13   -1    0    0    0    0  0.00000000000E+00  0.00000000000E+00  0.99999944181E+02  0.10000000000E+03  0.10566000000E+00 0. -1.
         22   -1    0    0    0    0 -0.00000000000E+00 -0.00000000000E+00 -0.72917205340E+02  0.72917205340E+02  0.00000000000E+00 0.  1.
         13    1    1    2    0    0  0.92636267703E+00 -0.15613665196E+02 -0.65064580877E+02  0.66918275063E+02  0.10566000000E+00 0.  1.
        996    1    1    2    0    0 -0.92636267703E+00  0.15613665196E+02  0.92147319718E+02  0.10599893028E+03  0.50000000000E+02 0.  0.
<mgrwt>
<rscale>  0 0.52389357E+02</rscale>
<asrwt>0</asrwt>
<pdfrwt beam="1">  1       13 0.10000000E+01 0.52389357E+02</pdfrwt>
<pdfrwt beam="2">  1       22 0.72917213E+00 0.52389357E+02</pdfrwt>
<totfact> 0.59202424E-02</totfact>
</mgrwt>
</event>
<event>
 4    1  0.2489496E+000  0.5837315E+02  0.7957747E-01  0.1404788E+00
         13   -1    0    0    0    0  0.00000000000E+00  0.00000000000E+00  0.99999944172E+02  0.99999999992E+02  0.10566000000E+00 0.  1.
         22   -1    0    0    0    0 -0.00000000000E+00 -0.00000000000E+00 -0.22065514759E+02  0.22065514759E+02  0.00000000000E+00 0.  1.
         13    1    1    2    0    0  0.27608892961E+02  0.12048820473E+02  0.83907962339E+01  0.31270460035E+02  0.10566000000E+00 0. -1.
        996    1    1    2    0    0 -0.27608892961E+02 -0.12048820473E+02  0.69543633179E+02  0.90795054717E+02  0.50000000000E+02 0.  0.
<mgrwt>
<rscale>  0 0.58373153E+02</rscale>
<asrwt>0</asrwt>
<pdfrwt beam="1">  1       13 0.10000000E+01 0.58373153E+02</pdfrwt>
<pdfrwt beam="2">  1       22 0.22065537E+00 0.58373153E+02</pdfrwt>
<totfact> 0.37990547E-01</totfact>
</mgrwt>
</event>
<event>
 4    1  0.2489496E+000  0.5163524E+02  0.7957747E-01  0.1436716E+00
         13   -1    0    0    0    0  0.00000000000E+00  0.00000000000E+00  0.99999944178E+02  0.99999999998E+02  0.10566000000E+00 0. -1.
         22   -1    0    0    0    0 -0.00000000000E+00 -0.00000000000E+00 -0.27431389243E+02  0.27431389243E+02  0.00000000000E+00 0.  1.
         13    1    1    2    0    0  0.61543203272E+01 -0.11327953615E+02 -0.18614619959E+02  0.22643176280E+02  0.10566000000E+00 0.  1.
        996    1    1    2    0    0 -0.61543203272E+01  0.11327953615E+02  0.91183174894E+02  0.10478821296E+03  0.50000000000E+02 0.  0.
<mgrwt>
<rscale>  0 0.51635242E+02</rscale>
<asrwt>0</asrwt>
<pdfrwt beam="1">  1       13 0.10000000E+01 0.51635242E+02</pdfrwt>
<pdfrwt beam="2">  1       22 0.27431410E+00 0.51635242E+02</pdfrwt>
<totfact> 0.24557417E-01</totfact>
</mgrwt>
</event>
<event>
 4    1  0.2489496E+000  0.5406342E+02  0.7957747E-01  0.1424581E+00
         13   -1    0    0    0    0  0.00000000000E+00  0.00000000000E+00  0.99999944178E+02  0.99999999998E+02  0.10566000000E+00 0.  1.
         22   -1    0    0    0    0 -0.00000000000E+00 -0.00000000000E+00 -0.17953144049E+02  0.17953144049E+02  0.00000000000E+00 0. -1.
         13    1    1    2    0    0  0.18736319909E+02  0.84736822725E+01  0.10752795553E+01  0.20591754786E+02  0.10566000000E+00 0. -1.
        996    1    1    2    0    0 -0.18736319909E+02 -0.84736822725E+01  0.80971520573E+02  0.97361389262E+02  0.50000000000E+02 0.  0.
<mgrwt>
<rscale>  0 0.54063416E+02</rscale>
<asrwt>0</asrwt>
<pdfrwt beam="1">  1       13 0.10000000E+01 0.54063416E+02</pdfrwt>
<pdfrwt beam="2">  1       22 0.17953167E+00 0.54063416E+02</pdfrwt>
<totfact> 0.55408898E-01</totfact>
</mgrwt>
</event>
<event>
 4    1  0.2489496E+000  0.5417995E+02  0.7957747E-01  0.1424017E+00
         13   -1    0    0    0    0  0.00000000000E+00  0.00000000000E+00  0.99999944183E+02  0.10000000000E+03  0.10566000000E+00 0. -1.
         22   -1    0    0    0    0 -0.00000000000E+00 -0.00000000000E+00 -0.15055952972E+02  0.15055952972E+02  0.00000000000E+00 0.  1.
         13    1    1    2    0    0 -0.11568578694E+02 -0.17367633114E+02  0.11615965634E+02  0.23883226638E+02  0.10566000000E+00 0.  1.
        996    1    1    2    0    0  0.11568578694E+02  0.17367633114E+02  0.73328025576E+02  0.91172726338E+02  0.50000000000E+02 0.  0.
<mgrwt>
<rscale>  0 0.54179947E+02</rscale>
<asrwt>0</asrwt>
<pdfrwt beam="1">  1       13 0.10000000E+01 0.54179947E+02</pdfrwt>
<pdfrwt beam="2">  1       22 0.15055977E+00 0.54179947E+02</pdfrwt>
<totfact> 0.75152968E-01</totfact>
</mgrwt>
</event>
<event>
 4    1  0.2489496E+000  0.5197295E+02  0.7957747E-01  0.1434982E+00
         13   -1    0    0    0    0  0.00000000000E+00  0.00000000000E+00  0.99999944183E+02  0.10000000000E+03  0.10566000000E+00 0.  1.
         22   -1    0    0    0    0 -0.00000000000E+00 -0.00000000000E+00 -0.15647821443E+02  0.15647821443E+02  0.00000000000E+00 0.  1.
         13    1    1    2    0    0  0.87111618586E+01  0.11193870139E+02 -0.25288065832E+01  0.14408091351E+02  0.10566000000E+00 0. -1.
        996    1    1    2    0    0 -0.87111618586E+01 -0.11193870139E+02  0.86880929323E+02  0.10123973009E+03  0.50000000000E+02 0.  0.
<mgrwt>
<rscale>  0 0.51972946E+02</rscale>
<asrwt>0</asrwt>
<pdfrwt beam="1">  1       13 0.10000000E+01 0.51972946E+02</pdfrwt>
<pdfrwt beam="2">  1       22 0.15647845E+00 0.51972946E+02</pdfrwt>
<totfact> 0.70127725E-01</totfact>
</mgrwt>
</event>
<event>
 4    1  0.2489496E+000  0.5120057E+02  0.7957747E-01  0.1438971E+00
         13   -1    0    0    0    0  0.00000000000E+00  0.00000000000E+00  0.99999944185E+02  0.10000000001E+03  0.10566000000E+00 0.  1.
         22   -1    0    0    0    0 -0.00000000000E+00 -0.00000000000E+00 -0.66043280813E+02  0.66043280813E+02  0.00000000000E+00 0. -1.
         13    1    1    2    0    0  0.54135848064E+01  0.96016647533E+01 -0.58944978009E+02  0.59966828022E+02  0.10566000000E+00 0. -1.
        996    1    1    2    0    0 -0.54135848064E+01 -0.96016647533E+01  0.92901641381E+02  0.10607645280E+03  0.50000000000E+02 0.  0.
<mgrwt>
<rscale>  0 0.51200575E+02</rscale>
<asrwt>0</asrwt>
<pdfrwt beam="1">  1       13 0.10000000E+01 0.51200575E+02</pdfrwt>
<pdfrwt beam="2">  1       22 0.66043290E+00 0.51200575E+02</pdfrwt>
<totfact> 0.87260211E-02</totfact>
</mgrwt>
</event>
<event>
 4    1  0.2489496E+000  0.5372491E+02  0.7957747E-01  0.1426227E+00
         13   -1    0    0    0    0  0.00000000000E+00  0.00000000000E+00  0.99999944182E+02  0.10000000000E+03  0.10566000000E+00 0. -1.
         22   -1    0    0    0    0 -0.00000000000E+00 -0.00000000000E+00 -0.15125976951E+02  0.15125976951E+02  0.00000000000E+00 0. -1.
         13    1    1    2    0    0  0.87087238068E-01 -0.19656004909E+02  0.42065528528E+02  0.46431519117E+02  0.10566000000E+00 0.  1.
        996    1    1    2    0    0 -0.87087238068E-01  0.19656004909E+02  0.42808438703E+02  0.68694457836E+02  0.50000000000E+02 0.  0.
<mgrwt>
<rscale>  0 0.53724911E+02</rscale>
<asrwt>0</asrwt>
<pdfrwt beam="1">  1       13 0.10000000E+01 0.53724911E+02</pdfrwt>
<pdfrwt beam="2">  1       22 0.15126001E+00 0.53724911E+02</pdfrwt>
<totfact> 0.74506198E-01</totfact>
</mgrwt>
</event>
<event>
 4    1  0.2489496E+000  0.5256979E+02  0.7957747E-01  0.1431954E+00
         13   -1    0    0    0    0  0.00000000000E+00  0.00000000000E+00  0.99999944175E+02  0.99999999995E+02  0.10566000000E+00 0. -1.
         22   -1    0    0    0    0 -0.00000000000E+00 -0.00000000000E+00 -0.62940001948E+02  0.62940001948E+02  0.00000000000E+00 0.  1.
         13    1    1    2    0    0  0.16234159295E+02  0.18668871100E+00 -0.54770887622E+02  0.57126561910E+02  0.10566000000E+00 0.  1.
        996    1    1    2    0    0 -0.16234159295E+02 -0.18668871100E+00  0.91830829849E+02  0.10581344003E+03  0.50000000000E+02 0.  0.
<mgrwt>
<rscale>  0 0.52569790E+02</rscale>
<asrwt>0</asrwt>
<pdfrwt beam="1">  1       13 0.10000000E+01 0.52569790E+02</pdfrwt>
<pdfrwt beam="2">  1       22 0.62940012E+00 0.52569790E+02</pdfrwt>
<totfact> 0.78379847E-02</totfact>
</mgrwt>
</event>
<event>
 4    1  0.2489496E+000  0.5100496E+02  0.7957747E-01  0.1439995E+00
         13   -1    0    0    0    0  0.00000000000E+00  0.00000000000E+00  0.99999944182E+02  0.10000000000E+03  0.10566000000E+00 0.  1.
         22   -1    0    0    0    0 -0.00000000000E+00 -0.00000000000E+00 -0.10553504542E+02  0.10553504542E+02  0.00000000000E+00 0.  1.
         13    1    1    2    0    0 -0.89318709561E+01  0.46612385131E+01  0.36025795272E+01  0.10700243293E+02  0.10566000000E+00 0. -1.
        996    1    1    2    0    0  0.89318709561E+01 -0.46612385131E+01  0.85843860113E+02  0.99853261251E+02  0.50000000000E+02 0.  0.
<mgrwt>
<rscale>  0 0.51004955E+02</rscale>
<asrwt>0</asrwt>
<pdfrwt beam="1">  1       13 0.10000000E+01 0.51004955E+02</pdfrwt>
<pdfrwt beam="2">  1       22 0.10553530E+00 0.51004955E+02</pdfrwt>
<totfact> 0.13001218E+00</totfact>
</mgrwt>
</event>
<event>
 4    1  0.2489496E+000  0.5210981E+02  0.7957747E-01  0.1434283E+00
         13   -1    0    0    0    0  0.00000000000E+00  0.00000000000E+00  0.99999944173E+02  0.99999999994E+02  0.10566000000E+00 0. -1.
         22   -1    0    0    0    0 -0.00000000000E+00 -0.00000000000E+00 -0.47230463723E+02  0.47230463723E+02  0.00000000000E+00 0.  1.
         13    1    1    2    0    0 -0.14250478597E+02 -0.35151665909E+01 -0.39015224540E+02  0.41684906697E+02  0.10566000000E+00 0.  1.
        996    1    1    2    0    0  0.14250478597E+02  0.35151665909E+01  0.91784704990E+02  0.10554555702E+03  0.50000000000E+02 0.  0.
<mgrwt>
<rscale>  0 0.52109812E+02</rscale>
<asrwt>0</asrwt>
<pdfrwt beam="1">  1       13 0.10000000E+01 0.52109812E+02</pdfrwt>
<pdfrwt beam="2">  1       22 0.47230478E+00 0.52109812E+02</pdfrwt>
<totfact> 0.85802067E-02</totfact>
</mgrwt>
</event>
<event>
 4    1  0.2489496E+000  0.5190836E+02  0.7957747E-01  0.1435312E+00
         13   -1    0    0    0    0  0.00000000000E+00  0.00000000000E+00  0.99999944173E+02  0.99999999993E+02  0.10566000000E+00 0. -1.
         22   -1    0    0    0    0 -0.00000000000E+00 -0.00000000000E+00 -0.69229686511E+02  0.69229686511E+02  0.00000000000E+00 0.  1.
         13    1    1    2    0    0  0.65971871377E+00 -0.13929902141E+02 -0.61661959352E+02  0.63219346704E+02  0.10566000000E+00 0.  1.
        996    1    1    2    0    0 -0.65971871377E+00  0.13929902141E+02  0.92432217014E+02  0.10601033980E+03  0.50000000000E+02 0.  0.
<mgrwt>
<rscale>  0 0.51908356E+02</rscale>
<asrwt>0</asrwt>
<pdfrwt beam="1">  1       13 0.10000000E+01 0.51908356E+02</pdfrwt>
<pdfrwt beam="2">  1       22 0.69229695E+00 0.51908356E+02</pdfrwt>
<totfact> 0.78411714E-02</totfact>
</mgrwt>
</event>
<event>
 4    1  0.2489496E+000  0.5145788E+02  0.7957747E-01  0.1437633E+00
         13   -1    0    0    0    0  0.00000000000E+00  0.00000000000E+00  0.99999944177E+02  0.99999999997E+02  0.10566000000E+00 0. -1.
         22   -1    0    0    0    0 -0.00000000000E+00 -0.00000000000E+00 -0.10673971164E+02  0.10673971164E+02  0.00000000000E+00 0. -1.
         13    1    1    2    0    0 -0.88698672379E+01  0.83210195755E+01  0.28594041631E+02  0.31073208595E+02  0.10566000000E+00 0.  1.
        996    1    1    2    0    0  0.88698672379E+01 -0.83210195755E+01  0.60731931382E+02  0.79600762566E+02  0.50000000000E+02 0.  0.
<mgrwt>
<rscale>  0 0.51457885E+02</rscale>
<asrwt>0</asrwt>
<pdfrwt beam="1">  1       13 0.10000000E+01 0.51457885E+02</pdfrwt>
<pdfrwt beam="2">  1       22 0.10673996E+00 0.51457885E+02</pdfrwt>
<totfact> 0.12799609E+00</totfact>
</mgrwt>
</event>
<event>
 4    1  0.2489496E+000  0.5226932E+02  0.7957747E-01  0.1433472E+00
         13   -1    0    0    0    0  0.00000000000E+00  0.00000000000E+00  0.99999944176E+02  0.99999999996E+02  0.10566000000E+00 0.  1.
         22   -1    0    0    0    0 -0.00000000000E+00 -0.00000000000E+00 -0.15883355467E+02  0.15883355467E+02  0.00000000000E+00 0. -1.
         13    1    1    2    0    0 -0.10682821509E+02  0.10860892255E+02 -0.17749622164E+01  0.15337643589E+02  0.10566000000E+00 0. -1.
        996    1    1    2    0    0  0.10682821509E+02 -0.10860892255E+02  0.85891550925E+02  0.10054571187E+03  0.50000000000E+02 0.  0.
<mgrwt>
<rscale>  0 0.52269318E+02</rscale>
<asrwt>0</asrwt>
<pdfrwt beam="1">  1       13 0.10000000E+01 0.52269318E+02</pdfrwt>
<pdfrwt beam="2">  1       22 0.15883379E+00 0.52269318E+02</pdfrwt>
<totfact> 0.68410112E-01</totfact>
</mgrwt>
</event>
<event>
 4    1  0.2489496E+000  0.5747317E+02  0.7957747E-01  0.1408752E+00
         13   -1    0    0    0    0  0.00000000000E+00  0.00000000000E+00  0.99999944179E+02  0.99999999999E+02  0.10566000000E+00 0.  1.
         22   -1    0    0    0    0 -0.00000000000E+00 -0.00000000000E+00 -0.28434278279E+02  0.28434278279E+02  0.00000000000E+00 0. -1.
         13    1    1    2    0    0  0.78600509960E+01 -0.27228388581E+02 -0.87614530103E+01  0.29663778742E+02  0.10566000000E+00 0. -1.
        996    1    1    2    0    0 -0.78600509960E+01  0.27228388581E+02  0.80327118910E+02  0.98770499536E+02  0.50000000000E+02 0.  0.
<mgrwt>
<rscale>  0 0.57473172E+02</rscale>
<asrwt>0</asrwt>
<pdfrwt beam="1">  1       13 0.10000000E+01 0.57473172E+02</pdfrwt>
<pdfrwt beam="2">  1       22 0.28434298E+00 0.57473172E+02</pdfrwt>
<totfact> 0.23087162E-01</totfact>
</mgrwt>
</event>
<event>
 4    1  0.2489496E+000  0.5192181E+02  0.7957747E-01  0.1435243E+00
         13   -1    0    0    0    0  0.00000000000E+00  0.00000000000E+00  0.99999944174E+02  0.99999999994E+02  0.10566000000E+00 0. -1.
         22   -1    0    0    0    0 -0.00000000000E+00 -0.00000000000E+00 -0.22198237417E+02  0.22198237417E+02  0.00000000000E+00 0.  1.
         13    1    1    2    0    0 -0.13970294751E+02  0.84006768403E+00 -0.12020272658E+02  0.18449199656E+02  0.10566000000E+00 0.  1.
        996    1    1    2    0    0  0.13970294751E+02 -0.84006768403E+00  0.89821979415E+02  0.10374903776E+03  0.50000000000E+02 0.  0.
<mgrwt>
<rscale>  0 0.51921815E+02</rscale>
<asrwt>0</asrwt>
<pdfrwt beam="1">  1       13 0.10000000E+01 0.51921815E+02</pdfrwt>
<pdfrwt beam="2">  1       22 0.22198259E+00 0.51921815E+02</pdfrwt>
<totfact> 0.37168639E-01</totfact>
</mgrwt>
</event>
<event>
 4    1  0.2489496E+000  0.5257075E+02  0.7957747E-01  0.1431949E+00
         13   -1    0    0    0    0  0.00000000000E+00  0.00000000000E+00  0.99999944169E+02  0.99999999989E+02  0.10566000000E+00 0. -1.
         22   -1    0    0    0    0 -0.00000000000E+00 -0.00000000000E+00 -0.28125340074E+02  0.28125340074E+02  0.00000000000E+00 0.  1.
         13    1    1    2    0    0 -0.60071714974E+01  0.15086347329E+02 -0.17851741302E+02  0.24132546834E+02  0.10566000000E+00 0.  1.
        996    1    1    2    0    0  0.60071714974E+01 -0.15086347329E+02  0.89726345397E+02  0.10399279323E+03  0.50000000000E+02 0.  0.
<mgrwt>
<rscale>  0 0.52570752E+02</rscale>
<asrwt>0</asrwt>
<pdfrwt beam="1">  1       13 0.10000000E+01 0.52570752E+02</pdfrwt>
<pdfrwt beam="2">  1       22 0.28125360E+00 0.52570752E+02</pdfrwt>
<totfact> 0.23426584E-01</totfact>
</mgrwt>
</event>
<event>
 4    1  0.2489496E+000  0.6702219E+02  0.7957747E-01  0.1370522E+00
         13   -1    0    0    0    0  0.00000000000E+00  0.00000000000E+00  0.99999944174E+02  0.99999999994E+02  0.10566000000E+00 0.  1.
         22   -1    0    0    0    0 -0.00000000000E+00 -0.00000000000E+00 -0.33243248135E+02  0.33243248135E+02  0.00000000000E+00 0. -1.
         13    1    1    2    0    0  0.28862354206E+02 -0.34043183756E+02  0.10768069904E+02  0.45912267904E+02  0.10566000000E+00 0. -1.
        996    1    1    2    0    0 -0.28862354206E+02  0.34043183756E+02  0.55988626135E+02  0.87330980225E+02  0.50000000000E+02 0.  0.
<mgrwt>
<rscale>  0 0.67022189E+02</rscale>
<asrwt>0</asrwt>
<pdfrwt beam="1">  1       13 0.10000000E+01 0.67022189E+02</pdfrwt>
<pdfrwt beam="2">  1       22 0.33243267E+00 0.67022189E+02</pdfrwt>
<totfact> 0.17452920E-01</totfact>
</mgrwt>
</event>
<event>
 4    1  0.2489496E+000  0.5262628E+02  0.7957747E-01  0.1431670E+00
         13   -1    0    0    0    0  0.00000000000E+00  0.00000000000E+00  0.99999944170E+02  0.99999999990E+02  0.10566000000E+00 0.  1.
         22   -1    0    0    0    0 -0.00000000000E+00 -0.00000000000E+00 -0.74396511124E+02  0.74396511124E+02  0.00000000000E+00 0. -1.
         13    1    1    2    0    0  0.17889353861E+01 -0.16319464911E+02 -0.66403083671E+02  0.68402528534E+02  0.10566000000E+00 0. -1.
        996    1    1    2    0    0 -0.17889353861E+01  0.16319464911E+02  0.92006516717E+02  0.10599398258E+03  0.50000000000E+02 0.  0.
<mgrwt>
<rscale>  0 0.52626279E+02</rscale>
<asrwt>0</asrwt>
<pdfrwt beam="1">  1       13 0.10000000E+01 0.52626279E+02</pdfrwt>
<pdfrwt beam="2">  1       22 0.74396518E+00 0.52626279E+02</pdfrwt>
<totfact> 0.51819308E-02</totfact>
</mgrwt>
</event>
<event>
 4    1  0.2489496E+000  0.8635694E+02  0.7957747E-01  0.1311922E+00
         13   -1    0    0    0    0  0.00000000000E+00  0.00000000000E+00  0.99999944179E+02  0.99999999999E+02  0.10566000000E+00 0. -1.
         22   -1    0    0    0    0 -0.00000000000E+00 -0.00000000000E+00 -0.76841564751E+02  0.76841564751E+02  0.00000000000E+00 0.  1.
         13    1    1    2    0    0  0.30671540773E+02 -0.63378049454E+02 -0.28784913195E+02  0.76066437787E+02  0.10566000000E+00 0.  1.
        996    1    1    2    0    0 -0.30671540773E+02  0.63378049454E+02  0.51943292623E+02  0.10077512696E+03  0.50000000000E+02 0.  0.
<mgrwt>
<rscale>  0 0.86356937E+02</rscale>
<asrwt>0</asrwt>
<pdfrwt beam="1">  1       13 0.10000000E+01 0.86356937E+02</pdfrwt>
<pdfrwt beam="2">  1       22 0.76841571E+00 0.86356937E+02</pdfrwt>
<totfact> 0.41290158E-02</totfact>
</mgrwt>
</event>
<event>
 4    1  0.2489496E+000  0.5245738E+02  0.7957747E-01  0.1432521E+00
         13   -1    0    0    0    0  0.00000000000E+00  0.00000000000E+00  0.99999944180E+02  0.10000000000E+03  0.10566000000E+00 0.  1.
         22   -1    0    0    0    0 -0.00000000000E+00 -0.00000000000E+00 -0.14720724904E+02  0.14720724904E+02  0.00000000000E+00 0. -1.
         13    1    1    2    0    0 -0.15734794029E+02 -0.20475766902E+01  0.15863936627E+01  0.15946915762E+02  0.10566000000E+00 0. -1.
        996    1    1    2    0    0  0.15734794029E+02  0.20475766902E+01  0.83692825613E+02  0.98773809142E+02  0.50000000000E+02 0.  0.
<mgrwt>
<rscale>  0 0.52457376E+02</rscale>
<asrwt>0</asrwt>
<pdfrwt beam="1">  1       13 0.10000000E+01 0.52457376E+02</pdfrwt>
<pdfrwt beam="2">  1       22 0.14720749E+00 0.52457376E+02</pdfrwt>
<totfact> 0.77749651E-01</totfact>
</mgrwt>
</event>
<event>
 4    1  0.2489496E+000  0.5112036E+02  0.7957747E-01  0.1439391E+00
         13   -1    0    0    0    0  0.00000000000E+00  0.00000000000E+00  0.99999944173E+02  0.99999999993E+02  0.10566000000E+00 0. -1.
         22   -1    0    0    0    0 -0.00000000000E+00 -0.00000000000E+00 -0.18425427338E+02  0.18425427338E+02  0.00000000000E+00 0.  1.
         13    1    1    2    0    0  0.51317969130E+01  0.93249939323E+01 -0.93158915991E+01  0.14145241310E+02  0.10566000000E+00 0.  1.
        996    1    1    2    0    0 -0.51317969130E+01 -0.93249939323E+01  0.90890408434E+02  0.10428018602E+03  0.50000000000E+02 0.  0.
<mgrwt>
<rscale>  0 0.51120357E+02</rscale>
<asrwt>0</asrwt>
<pdfrwt beam="1">  1       13 0.10000000E+01 0.51120357E+02</pdfrwt>
<pdfrwt beam="2">  1       22 0.18425450E+00 0.51120357E+02</pdfrwt>
<totfact> 0.52589495E-01</totfact>
</mgrwt>
</event>
<event>
 4    1  0.2489496E+000  0.5113115E+02  0.7957747E-01  0.1439334E+00
         13   -1    0    0    0    0  0.00000000000E+00  0.00000000000E+00  0.99999944179E+02  0.10000000000E+03  0.10566000000E+00 0. -1.
         22   -1    0    0    0    0 -0.00000000000E+00 -0.00000000000E+00 -0.99779151750E+01  0.99779151750E+01  0.00000000000E+00 0. -1.
         13    1    1    2    0    0 -0.10402071038E+02  0.24882036433E+01  0.25500151558E+02  0.27652542971E+02  0.10566000000E+00 0.  1.
        996    1    1    2    0    0  0.10402071038E+02 -0.24882036433E+01  0.64521877447E+02  0.82325372204E+02  0.50000000000E+02 0.  0.
<mgrwt>
<rscale>  0 0.51131147E+02</rscale>
<asrwt>0</asrwt>
<pdfrwt beam="1">  1       13 0.10000000E+01 0.51131147E+02</pdfrwt>
<pdfrwt beam="2">  1       22 0.99779403E-01 0.51131147E+02</pdfrwt>
<totfact> 0.14113343E+00</totfact>
</mgrwt>
</event>
<event>
 4    1  0.2489496E+000  0.5254058E+02  0.7957747E-01  0.1432101E+00
         13   -1    0    0    0    0  0.00000000000E+00  0.00000000000E+00  0.99999944181E+02  0.10000000000E+03  0.10566000000E+00 0. -1.
         22   -1    0    0    0    0 -0.00000000000E+00 -0.00000000000E+00 -0.12566564417E+02  0.12566564417E+02  0.00000000000E+00 0. -1.
         13    1    1    2    0    0  0.15239746732E+02 -0.53162840771E+01  0.99892387456E+01  0.18981802117E+02  0.10566000000E+00 0.  1.
        996    1    1    2    0    0 -0.15239746732E+02  0.53162840771E+01  0.77444141019E+02  0.93584762301E+02  0.50000000000E+02 0.  0.
<mgrwt>
<rscale>  0 0.52540582E+02</rscale>
<asrwt>0</asrwt>
<pdfrwt beam="1">  1       13 0.10000000E+01 0.52540582E+02</pdfrwt>
<pdfrwt beam="2">  1       22 0.12566589E+00 0.52540582E+02</pdfrwt>
<totfact> 0.10022150E+00</totfact>
</mgrwt>
</event>
<event>
 4    1  0.2489496E+000  0.6429466E+02  0.7957747E-01  0.1380645E+00
         13   -1    0    0    0    0  0.00000000000E+00  0.00000000000E+00  0.99999944173E+02  0.99999999993E+02  0.10566000000E+00 0.  1.
         22   -1    0    0    0    0 -0.00000000000E+00 -0.00000000000E+00 -0.27847880283E+02  0.27847880283E+02  0.00000000000E+00 0. -1.
         13    1    1    2    0    0 -0.40417130235E+02 -0.50849724420E+00  0.20199300328E+02  0.45186567514E+02  0.10566000000E+00 0. -1.
        996    1    1    2    0    0  0.40417130235E+02  0.50849724420E+00  0.51952763562E+02  0.82661312763E+02  0.50000000000E+02 0.  0.
<mgrwt>
<rscale>  0 0.64294658E+02</rscale>
<asrwt>0</asrwt>
<pdfrwt beam="1">  1       13 0.10000000E+01 0.64294658E+02</pdfrwt>
<pdfrwt beam="2">  1       22 0.27847900E+00 0.64294658E+02</pdfrwt>
<totfact> 0.24238613E-01</totfact>
</mgrwt>
</event>
<event>
 4    1  0.2489496E+000  0.5804291E+02  0.7957747E-01  0.1406233E+00
         13   -1    0    0    0    0  0.00000000000E+00  0.00000000000E+00  0.99999944175E+02  0.99999999995E+02  0.10566000000E+00 0.  1.
         22   -1    0    0    0    0 -0.00000000000E+00 -0.00000000000E+00 -0.26531802196E+02  0.26531802196E+02  0.00000000000E+00 0. -1.
         13    1    1    2    0    0 -0.19331640791E+02 -0.22254591874E+02 -0.39815337247E+01  0.29746310191E+02  0.10566000000E+00 0. -1.
        996    1    1    2    0    0  0.19331640791E+02  0.22254591874E+02  0.77449675704E+02  0.96785492000E+02  0.50000000000E+02 0.  0.
<mgrwt>
<rscale>  0 0.58042908E+02</rscale>
<asrwt>0</asrwt>
<pdfrwt beam="1">  1       13 0.10000000E+01 0.58042908E+02</pdfrwt>
<pdfrwt beam="2">  1       22 0.26531823E+00 0.58042908E+02</pdfrwt>
<totfact> 0.26450209E-01</totfact>
</mgrwt>
</event>
<event>
 4    1  0.2489496E+000  0.5258637E+02  0.7957747E-01  0.1431871E+00
         13   -1    0    0    0    0  0.00000000000E+00  0.00000000000E+00  0.99999944180E+02  0.10000000000E+03  0.10566000000E+00 0.  1.
         22   -1    0    0    0    0 -0.00000000000E+00 -0.00000000000E+00 -0.16241335008E+02  0.16241335008E+02  0.00000000000E+00 0. -1.
         13    1    1    2    0    0  0.16226761386E+02  0.14205930744E+01 -0.11909079107E+01  0.16332645085E+02  0.10566000000E+00 0. -1.
        996    1    1    2    0    0 -0.16226761386E+02 -0.14205930744E+01  0.84949517083E+02  0.99908689924E+02  0.50000000000E+02 0.  0.
<mgrwt>
<rscale>  0 0.52586366E+02</rscale>
<asrwt>0</asrwt>
<pdfrwt beam="1">  1       13 0.10000000E+01 0.52586366E+02</pdfrwt>
<pdfrwt beam="2">  1       22 0.16241358E+00 0.52586366E+02</pdfrwt>
<totfact> 0.65889213E-01</totfact>
</mgrwt>
</event>
<event>
 4    1  0.2489496E+000  0.6460794E+02  0.7957747E-01  0.1379452E+00
         13   -1    0    0    0    0  0.00000000000E+00  0.00000000000E+00  0.99999944185E+02  0.10000000001E+03  0.10566000000E+00 0. -1.
         22   -1    0    0    0    0 -0.00000000000E+00 -0.00000000000E+00 -0.28843944085E+02  0.28843944085E+02  0.00000000000E+00 0.  1.
         13    1    1    2    0    0 -0.35904588239E+02  0.19622607256E+02  0.16138707826E+02  0.43984715827E+02  0.10566000000E+00 0.  1.
        996    1    1    2    0    0  0.35904588239E+02 -0.19622607256E+02  0.55017292274E+02  0.84859228262E+02  0.50000000000E+02 0.  0.
<mgrwt>
<rscale>  0 0.64607942E+02</rscale>
<asrwt>0</asrwt>
<pdfrwt beam="1">  1       13 0.10000000E+01 0.64607942E+02</pdfrwt>
<pdfrwt beam="2">  1       22 0.28843964E+00 0.64607942E+02</pdfrwt>
<totfact> 0.22647871E-01</totfact>
</mgrwt>
</event>
<event>
 4    1  0.2489496E+000  0.5460927E+02  0.7957747E-01  0.1421956E+00
         13   -1    0    0    0    0  0.00000000000E+00  0.00000000000E+00  0.99999944178E+02  0.99999999998E+02  0.10566000000E+00 0. -1.
         22   -1    0    0    0    0 -0.00000000000E+00 -0.00000000000E+00 -0.15549436135E+02  0.15549436135E+02  0.00000000000E+00 0.  1.
         13    1    1    2    0    0  0.61302020874E+01  0.21085370274E+02  0.12651198935E+02  0.25342379836E+02  0.10566000000E+00 0.  1.
        996    1    1    2    0    0 -0.61302020874E+01 -0.21085370274E+02  0.71799309109E+02  0.90207056297E+02  0.50000000000E+02 0.  0.
<mgrwt>
<rscale>  0 0.54609269E+02</rscale>
<asrwt>0</asrwt>
<pdfrwt beam="1">  1       13 0.10000000E+01 0.54609269E+02</pdfrwt>
<pdfrwt beam="2">  1       22 0.15549460E+00 0.54609269E+02</pdfrwt>
<totfact> 0.71247482E-01</totfact>
</mgrwt>
</event>
<event>
 4    1  0.2489496E+000  0.6010004E+02  0.7957747E-01  0.1397412E+00
         13   -1    0    0    0    0  0.00000000000E+00  0.00000000000E+00  0.99999944177E+02  0.99999999997E+02  0.10566000000E+00 0. -1.
         22   -1    0    0    0    0 -0.00000000000E+00 -0.00000000000E+00 -0.34211226426E+02  0.34211226426E+02  0.00000000000E+00 0. -1.
         13    1    1    2    0    0 -0.33185838779E+02  0.32733255060E+01 -0.12413529004E+02  0.35582599986E+02  0.10566000000E+00 0.  1.
        996    1    1    2    0    0  0.33185838779E+02 -0.32733255060E+01  0.78202246755E+02  0.98628626437E+02  0.50000000000E+02 0.  0.
<mgrwt>
<rscale>  0 0.60100038E+02</rscale>
<asrwt>0</asrwt>
<pdfrwt beam="1">  1       13 0.10000000E+01 0.60100038E+02</pdfrwt>
<pdfrwt beam="2">  1       22 0.34211245E+00 0.60100038E+02</pdfrwt>
<totfact> 0.16484909E-01</totfact>
</mgrwt>
</event>
<event>
 4    1  0.2489496E+000  0.5115710E+02  0.7957747E-01  0.1439199E+00
         13   -1    0    0    0    0  0.00000000000E+00  0.00000000000E+00  0.99999944185E+02  0.10000000001E+03  0.10566000000E+00 0. -1.
         22   -1    0    0    0    0 -0.00000000000E+00 -0.00000000000E+00 -0.10707449525E+02  0.10707449525E+02  0.00000000000E+00 0. -1.
         13    1    1    2    0    0  0.47475525915E+01  0.97216118569E+01  0.45849919991E+01  0.11750842879E+02  0.10566000000E+00 0.  1.
        996    1    1    2    0    0 -0.47475525915E+01 -0.97216118569E+01  0.84707502662E+02  0.98956606651E+02  0.50000000000E+02 0.  0.
<mgrwt>
<rscale>  0 0.51157101E+02</rscale>
<asrwt>0</asrwt>
<pdfrwt beam="1">  1       13 0.10000000E+01 0.51157101E+02</pdfrwt>
<pdfrwt beam="2">  1       22 0.10707474E+00 0.51157101E+02</pdfrwt>
<totfact> 0.12731548E+00</totfact>
</mgrwt>
</event>
<event>
 4    1  0.2489496E+000  0.5150314E+02  0.7957747E-01  0.1437399E+00
         13   -1    0    0    0    0  0.00000000000E+00  0.00000000000E+00  0.99999944178E+02  0.99999999999E+02  0.10566000000E+00 0. -1.
         22   -1    0    0    0    0 -0.00000000000E+00 -0.00000000000E+00 -0.10501368547E+02  0.10501368547E+02  0.00000000000E+00 0. -1.
         13    1    1    2    0    0 -0.12121479155E+02  0.23754453607E+01  0.25651514456E+02  0.28470763170E+02  0.10566000000E+00 0.  1.
        996    1    1    2    0    0  0.12121479155E+02 -0.23754453607E+01  0.63847061176E+02  0.82030605376E+02  0.50000000000E+02 0.  0.
<mgrwt>
<rscale>  0 0.51503136E+02</rscale>
<asrwt>0</asrwt>
<pdfrwt beam="1">  1       13 0.10000000E+01 0.51503136E+02</pdfrwt>
<pdfrwt beam="2">  1       22 0.10501394E+00 0.51503136E+02</pdfrwt>
<totfact> 0.13111691E+00</totfact>
</mgrwt>
</event>
<event>
 4    1  0.2489496E+000  0.5118829E+02  0.7957747E-01  0.1439036E+00
         13   -1    0    0    0    0  0.00000000000E+00  0.00000000000E+00  0.99999944180E+02  0.10000000000E+03  0.10566000000E+00 0. -1.
         22   -1    0    0    0    0 -0.00000000000E+00 -0.00000000000E+00 -0.41960126096E+02  0.41960126096E+02  0.00000000000E+00 0.  1.
         13    1    1    2    0    0  0.10555529764E+02  0.29701237538E+01 -0.34503011269E+02  0.36203726250E+02  0.10566000000E+00 0.  1.
        996    1    1    2    0    0 -0.10555529764E+02 -0.29701237538E+01  0.92542829353E+02  0.10575639985E+03  0.50000000000E+02 0.  0.
<mgrwt>
<rscale>  0 0.51188288E+02</rscale>
<asrwt>0</asrwt>
<pdfrwt beam="1">  1       13 0.10000000E+01 0.51188288E+02</pdfrwt>
<pdfrwt beam="2">  1       22 0.41960142E+00 0.51188288E+02</pdfrwt>
<totfact> 0.11250726E-01</totfact>
</mgrwt>
</event>
<event>
 4    1  0.2489496E+000  0.5211780E+02  0.7957747E-01  0.1434242E+00
         13   -1    0    0    0    0  0.00000000000E+00  0.00000000000E+00  0.99999944172E+02  0.99999999992E+02  0.10566000000E+00 0.  1.
         22   -1    0    0    0    0 -0.00000000000E+00 -0.00000000000E+00 -0.30116519182E+02  0.30116519182E+02  0.00000000000E+00 0. -1.
         13    1    1    2    0    0 -0.82347593517E+01 -0.12184163024E+02 -0.20829357532E+02  0.25497811463E+02  0.10566000000E+00 0. -1.
        996    1    1    2    0    0  0.82347593517E+01  0.12184163024E+02  0.90712782522E+02  0.10461870771E+03  0.50000000000E+02 0.  0.
<mgrwt>
<rscale>  0 0.52117800E+02</rscale>
<asrwt>0</asrwt>
<pdfrwt beam="1">  1       13 0.10000000E+01 0.52117800E+02</pdfrwt>
<pdfrwt beam="2">  1       22 0.30116539E+00 0.52117800E+02</pdfrwt>
<totfact> 0.20556900E-01</totfact>
</mgrwt>
</event>
<event>
 4    1  0.2489496E+000  0.5323814E+02  0.7957747E-01  0.1428619E+00
         13   -1    0    0    0    0  0.00000000000E+00  0.00000000000E+00  0.99999944179E+02  0.99999999999E+02  0.10566000000E+00 0. -1.
         22   -1    0    0    0    0 -0.00000000000E+00 -0.00000000000E+00 -0.15206028560E+02  0.15206028560E+02  0.00000000000E+00 0.  1.
         13    1    1    2    0    0  0.66457392430E+01  0.17033321828E+02  0.44393576952E+01  0.18815391661E+02  0.10566000000E+00 0.  1.
        996    1    1    2    0    0 -0.66457392430E+01 -0.17033321828E+02  0.80354557924E+02  0.96390636898E+02  0.50000000000E+02 0.  0.
<mgrwt>
<rscale>  0 0.53238143E+02</rscale>
<asrwt>0</asrwt>
<pdfrwt beam="1">  1       13 0.10000000E+01 0.53238143E+02</pdfrwt>
<pdfrwt beam="2">  1       22 0.15206052E+00 0.53238143E+02</pdfrwt>
<totfact> 0.73780007E-01</totfact>
</mgrwt>
</event>
<event>
 4    1  0.2489496E+000  0.5490196E+02  0.7957747E-01  0.1420563E+00
         13   -1    0    0    0    0  0.00000000000E+00  0.00000000000E+00  0.99999944183E+02  0.10000000000E+03  0.10566000000E+00 0. -1.
         22   -1    0    0    0    0 -0.00000000000E+00 -0.00000000000E+00 -0.70421063518E+02  0.70421063518E+02  0.00000000000E+00 0.  1.
         13    1    1    2    0    0  0.14232349337E+01 -0.22631820002E+02 -0.60678383979E+02  0.64777328755E+02  0.10566000000E+00 0.  1.
        996    1    1    2    0    0 -0.14232349337E+01  0.22631820002E+02  0.90257264644E+02  0.10564373477E+03  0.50000000000E+02 0.  0.
<mgrwt>
<rscale>  0 0.54901957E+02</rscale>
<asrwt>0</asrwt>
<pdfrwt beam="1">  1       13 0.10000000E+01 0.54901957E+02</pdfrwt>
<pdfrwt beam="2">  1       22 0.70421072E+00 0.54901957E+02</pdfrwt>
<totfact> 0.72466537E-02</totfact>
</mgrwt>
</event>
<event>
 4    1  0.2489496E+000  0.5131337E+02  0.7957747E-01  0.1438384E+00
         13   -1    0    0    0    0  0.00000000000E+00  0.00000000000E+00  0.99999944179E+02  0.99999999999E+02  0.10566000000E+00 0. -1.
         22   -1    0    0    0    0 -0.00000000000E+00 -0.00000000000E+00 -0.17932478641E+02  0.17932478641E+02  0.00000000000E+00 0. -1.
         13    1    1    2    0    0  0.81933164735E+01  0.81198451873E+01 -0.81629320160E+01  0.14131770725E+02  0.10566000000E+00 0.  1.
        996    1    1    2    0    0 -0.81933164735E+01 -0.81198451873E+01  0.90230397554E+02  0.10380070791E+03  0.50000000000E+02 0.  0.
<mgrwt>
<rscale>  0 0.51313374E+02</rscale>
<asrwt>0</asrwt>
<pdfrwt beam="1">  1       13 0.10000000E+01 0.51313374E+02</pdfrwt>
<pdfrwt beam="2">  1       22 0.17932502E+00 0.51313374E+02</pdfrwt>
<totfact> 0.55239255E-01</totfact>
</mgrwt>
</event>
<event>
 4    1  0.2489496E+000  0.5723548E+02  0.7957747E-01  0.1409813E+00
         13   -1    0    0    0    0  0.00000000000E+00  0.00000000000E+00  0.99999944176E+02  0.99999999996E+02  0.10566000000E+00 0. -1.
         22   -1    0    0    0    0 -0.00000000000E+00 -0.00000000000E+00 -0.54645936338E+02  0.54645936338E+02  0.00000000000E+00 0.  1.
         13    1    1    2    0    0  0.27184431302E+02 -0.60751330806E+01 -0.41888349606E+02  0.50304528065E+02  0.10566000000E+00 0.  1.
        996    1    1    2    0    0 -0.27184431302E+02  0.60751330806E+01  0.87242357444E+02  0.10434140827E+03  0.50000000000E+02 0.  0.
<mgrwt>
<rscale>  0 0.57235483E+02</rscale>
<asrwt>0</asrwt>
<pdfrwt beam="1">  1       13 0.10000000E+01 0.57235483E+02</pdfrwt>
<pdfrwt beam="2">  1       22 0.54645949E+00 0.57235483E+02</pdfrwt>
<totfact> 0.59703341E-02</totfact>
</mgrwt>
</event>
<event>
 4    1  0.2489496E+000  0.5583766E+02  0.7957747E-01  0.1416179E+00
         13   -1    0    0    0    0  0.00000000000E+00  0.00000000000E+00  0.99999944185E+02  0.10000000001E+03  0.10566000000E+00 0. -1.
         22   -1    0    0    0    0 -0.00000000000E+00 -0.00000000000E+00 -0.70005426377E+02  0.70005426377E+02  0.00000000000E+00 0.  1.
         13    1    1    2    0    0 -0.11769608987E+02 -0.21893391291E+02 -0.59520845648E+02  0.64502608541E+02  0.10566000000E+00 0.  1.
        996    1    1    2    0    0  0.11769608987E+02  0.21893391291E+02  0.89515363456E+02  0.10550281784E+03  0.50000000000E+02 0.  0.
<mgrwt>
<rscale>  0 0.55837660E+02</rscale>
<asrwt>0</asrwt>
<pdfrwt beam="1">  1       13 0.10000000E+01 0.55837660E+02</pdfrwt>
<pdfrwt beam="2">  1       22 0.70005435E+00 0.55837660E+02</pdfrwt>
<totfact> 0.74617477E-02</totfact>
</mgrwt>
</event>
<event>
 4    1  0.2489496E+000  0.5131283E+02  0.7957747E-01  0.1438386E+00
         13   -1    0    0    0    0  0.00000000000E+00  0.00000000000E+00  0.99999944183E+02  0.10000000000E+03  0.10566000000E+00 0.  1.
         22   -1    0    0    0    0 -0.00000000000E+00 -0.00000000000E+00 -0.11385312606E+02  0.11385312606E+02  0.00000000000E+00 0.  1.
         13    1    1    2    0    0 -0.11484991465E+02  0.10493981288E+01  0.35943028807E+01  0.12080415665E+02  0.10566000000E+00 0. -1.
        996    1    1    2    0    0  0.11484991465E+02 -0.10493981288E+01  0.85020328697E+02  0.99304896944E+02  0.50000000000E+02 0.  0.
<mgrwt>
<rscale>  0 0.51312827E+02</rscale>
<asrwt>0</asrwt>
<pdfrwt beam="1">  1       13 0.10000000E+01 0.51312827E+02</pdfrwt>
<pdfrwt beam="2">  1       22 0.11385337E+00 0.51312827E+02</pdfrwt>
<totfact> 0.11623651E+00</totfact>
</mgrwt>
</event>
<event>
 4    1  0.2489496E+000  0.5110145E+02  0.7957747E-01  0.1439490E+00
         13   -1    0    0    0    0  0.00000000000E+00  0.00000000000E+00  0.99999944174E+02  0.99999999994E+02  0.10566000000E+00 0. -1.
         22   -1    0    0    0    0 -0.00000000000E+00 -0.00000000000E+00 -0.47577446986E+02  0.47577446986E+02  0.00000000000E+00 0.  1.
         13    1    1    2    0    0 -0.54800460242E+01 -0.90181413055E+01 -0.40325442162E+02  0.41683452672E+02  0.10566000000E+00 0.  1.
        996    1    1    2    0    0  0.54800460242E+01  0.90181413055E+01  0.92747939350E+02  0.10589399431E+03  0.50000000000E+02 0.  0.
<mgrwt>
<rscale>  0 0.51101446E+02</rscale>
<asrwt>0</asrwt>
<pdfrwt beam="1">  1       13 0.10000000E+01 0.51101446E+02</pdfrwt>
<pdfrwt beam="2">  1       22 0.47577462E+00 0.51101446E+02</pdfrwt>
<totfact> 0.84146913E-02</totfact>
</mgrwt>
</event>
<event>
 4    1  0.2489496E+000  0.5485875E+02  0.7957747E-01  0.1420768E+00
         13   -1    0    0    0    0  0.00000000000E+00  0.00000000000E+00  0.99999944179E+02  0.10000000000E+03  0.10566000000E+00 0. -1.
         22   -1    0    0    0    0 -0.00000000000E+00 -0.00000000000E+00 -0.15001715179E+02  0.15001715179E+02  0.00000000000E+00 0.  1.
         13    1    1    2    0    0 -0.28740728711E+01  0.22387985360E+02  0.23257419558E+02  0.32409889107E+02  0.10566000000E+00 0.  1.
        996    1    1    2    0    0  0.28740728711E+01 -0.22387985360E+02  0.61740809442E+02  0.82591826072E+02  0.50000000000E+02 0.  0.
<mgrwt>
<rscale>  0 0.54858748E+02</rscale>
<asrwt>0</asrwt>
<pdfrwt beam="1">  1       13 0.10000000E+01 0.54858748E+02</pdfrwt>
<pdfrwt beam="2">  1       22 0.15001739E+00 0.54858748E+02</pdfrwt>
<totfact> 0.75706414E-01</totfact>
</mgrwt>
</event>
<event>
 4    1  0.2489496E+000  0.5534678E+02  0.7957747E-01  0.1418466E+00
         13   -1    0    0    0    0  0.00000000000E+00  0.00000000000E+00  0.99999944175E+02  0.99999999995E+02  0.10566000000E+00 0.  1.
         22   -1    0    0    0    0 -0.00000000000E+00 -0.00000000000E+00 -0.21958687447E+02  0.21958687447E+02  0.00000000000E+00 0. -1.
         13    1    1    2    0    0 -0.70947763929E+01  0.22647952136E+02 -0.28935249464E+01  0.23909187328E+02  0.10566000000E+00 0. -1.
        996    1    1    2    0    0  0.70947763929E+01 -0.22647952136E+02  0.80934781674E+02  0.98049500114E+02  0.50000000000E+02 0.  0.
<mgrwt>
<rscale>  0 0.55346776E+02</rscale>
<asrwt>0</asrwt>
<pdfrwt beam="1">  1       13 0.10000000E+01 0.55346776E+02</pdfrwt>
<pdfrwt beam="2">  1       22 0.21958709E+00 0.55346776E+02</pdfrwt>
<totfact> 0.38168270E-01</totfact>
</mgrwt>
</event>
<event>
 4    1  0.2489496E+000  0.6472821E+02  0.7957747E-01  0.1378997E+00
         13   -1    0    0    0    0  0.00000000000E+00  0.00000000000E+00  0.99999944176E+02  0.99999999996E+02  0.10566000000E+00 0. -1.
         22   -1    0    0    0    0 -0.00000000000E+00 -0.00000000000E+00 -0.28633342217E+02  0.28633342217E+02  0.00000000000E+00 0. -1.
         13    1    1    2    0    0  0.85725867646E+00 -0.41097516893E+02  0.18583307376E+02  0.45111985817E+02  0.10566000000E+00 0.  1.
        996    1    1    2    0    0 -0.85725867646E+00  0.41097516893E+02  0.52783294583E+02  0.83521356396E+02  0.50000000000E+02 0.  0.
<mgrwt>
<rscale>  0 0.64728207E+02</rscale>
<asrwt>0</asrwt>
<pdfrwt beam="1">  1       13 0.10000000E+01 0.64728207E+02</pdfrwt>
<pdfrwt beam="2">  1       22 0.28633362E+00 0.64728207E+02</pdfrwt>
<totfact> 0.22973531E-01</totfact>
</mgrwt>
</event>
<event>
 4    1  0.2489496E+000  0.5296693E+02  0.7957747E-01  0.1429966E+00
         13   -1    0    0    0    0  0.00000000000E+00  0.00000000000E+00  0.99999944183E+02  0.10000000000E+03  0.10566000000E+00 0. -1.
         22   -1    0    0    0    0 -0.00000000000E+00 -0.00000000000E+00 -0.17129196055E+02  0.17129196055E+02  0.00000000000E+00 0.  1.
         13    1    1    2    0    0 -0.14832169201E+02  0.92467569561E+01 -0.14649191686E+01  0.17540037332E+02  0.10566000000E+00 0.  1.
        996    1    1    2    0    0  0.14832169201E+02 -0.92467569561E+01  0.84335667296E+02  0.99589158726E+02  0.50000000000E+02 0.  0.
<mgrwt>
<rscale>  0 0.52966931E+02</rscale>
<asrwt>0</asrwt>
<pdfrwt beam="1">  1       13 0.10000000E+01 0.52966931E+02</pdfrwt>
<pdfrwt beam="2">  1       22 0.17129219E+00 0.52966931E+02</pdfrwt>
<totfact> 0.60107070E-01</totfact>
</mgrwt>
</event>
<event>
 4    1  0.2489496E+000  0.5140103E+02  0.7957747E-01  0.1437928E+00
         13   -1    0    0    0    0  0.00000000000E+00  0.00000000000E+00  0.99999944180E+02  0.10000000000E+03  0.10566000000E+00 0. -1.
         22   -1    0    0    0    0 -0.00000000000E+00 -0.00000000000E+00 -0.11268058235E+02  0.11268058235E+02  0.00000000000E+00 0. -1.
         13    1    1    2    0    0 -0.66281544677E-02 -0.11919147300E+02  0.48050205337E+01  0.12851673146E+02  0.10566000000E+00 0.  1.
        996    1    1    2    0    0  0.66281544677E-02  0.11919147300E+02  0.83926865411E+02  0.98416385089E+02  0.50000000000E+02 0.  0.
<mgrwt>
<rscale>  0 0.51401032E+02</rscale>
<asrwt>0</asrwt>
<pdfrwt beam="1">  1       13 0.10000000E+01 0.51401032E+02</pdfrwt>
<pdfrwt beam="2">  1       22 0.11268083E+00 0.51401032E+02</pdfrwt>
<totfact> 0.11808052E+00</totfact>
</mgrwt>
</event>
<event>
 4    1  0.2489496E+000  0.6401205E+02  0.7957747E-01  0.1381727E+00
         13   -1    0    0    0    0  0.00000000000E+00  0.00000000000E+00  0.99999944178E+02  0.99999999998E+02  0.10566000000E+00 0.  1.
         22   -1    0    0    0    0 -0.00000000000E+00 -0.00000000000E+00 -0.62385767626E+02  0.62385767626E+02  0.00000000000E+00 0. -1.
         13    1    1    2    0    0 -0.19644518966E+02 -0.34808549822E+02 -0.43487765918E+02  0.59065550152E+02  0.10566000000E+00 0. -1.
        996    1    1    2    0    0  0.19644518966E+02  0.34808549822E+02  0.81101942471E+02  0.10332021747E+03  0.50000000000E+02 0.  0.
<mgrwt>
<rscale>  0 0.64012048E+02</rscale>
<asrwt>0</asrwt>
<pdfrwt beam="1">  1       13 0.10000000E+01 0.64012048E+02</pdfrwt>
<pdfrwt beam="2">  1       22 0.62385778E+00 0.64012048E+02</pdfrwt>
<totfact> 0.75235924E-02</totfact>
</mgrwt>
</event>
<event>
 4    1  0.2489496E+000  0.6015502E+02  0.7957747E-01  0.1397182E+00
         13   -1    0    0    0    0  0.00000000000E+00  0.00000000000E+00  0.99999944175E+02  0.99999999995E+02  0.10566000000E+00 0. -1.
         22   -1    0    0    0    0 -0.00000000000E+00 -0.00000000000E+00 -0.21903665180E+02  0.21903665180E+02  0.00000000000E+00 0.  1.
         13    1    1    2    0    0 -0.15878545742E+02  0.29436341676E+02  0.27555152220E+02  0.43335020527E+02  0.10566000000E+00 0.  1.
        996    1    1    2    0    0  0.15878545742E+02 -0.29436341676E+02  0.50541126775E+02  0.78568644648E+02  0.50000000000E+02 0.  0.
<mgrwt>
<rscale>  0 0.60155020E+02</rscale>
<asrwt>0</asrwt>
<pdfrwt beam="1">  1       13 0.10000000E+01 0.60155020E+02</pdfrwt>
<pdfrwt beam="2">  1       22 0.21903687E+00 0.60155020E+02</pdfrwt>
<totfact> 0.38635676E-01</totfact>
</mgrwt>
</event>
<event>
 4    1  0.2489496E+000  0.5512202E+02  0.7957747E-01  0.1419523E+00
         13   -1    0    0    0    0  0.00000000000E+00  0.00000000000E+00  0.99999944173E+02  0.99999999993E+02  0.10566000000E+00 0. -1.
         22   -1    0    0    0    0 -0.00000000000E+00 -0.00000000000E+00 -0.38337896111E+02  0.38337896111E+02  0.00000000000E+00 0.  1.
         13    1    1    2    0    0  0.12614347956E+02  0.19476008686E+02 -0.25960248663E+02  0.34819281488E+02  0.10566000000E+00 0.  1.
        996    1    1    2    0    0 -0.12614347956E+02 -0.19476008686E+02  0.87622296725E+02  0.10351861462E+03  0.50000000000E+02 0.  0.
<mgrwt>
<rscale>  0 0.55122016E+02</rscale>
<asrwt>0</asrwt>
<pdfrwt beam="1">  1       13 0.10000000E+01 0.55122016E+02</pdfrwt>
<pdfrwt beam="2">  1       22 0.38337913E+00 0.55122016E+02</pdfrwt>
<totfact> 0.13414036E-01</totfact>
</mgrwt>
</event>
<event>
 4    1  0.2489496E+000  0.5226978E+02  0.7957747E-01  0.1433470E+00
         13   -1    0    0    0    0  0.00000000000E+00  0.00000000000E+00  0.99999944177E+02  0.99999999997E+02  0.10566000000E+00 0. -1.
         22   -1    0    0    0    0 -0.00000000000E+00 -0.00000000000E+00 -0.14867273864E+02  0.14867273864E+02  0.00000000000E+00 0.  1.
         13    1    1    2    0    0 -0.13278593090E+02  0.74705680196E+01  0.31780466206E+00  0.15239507368E+02  0.10566000000E+00 0.  1.
        996    1    1    2    0    0  0.13278593090E+02 -0.74705680196E+01  0.84814865651E+02  0.99627766493E+02  0.50000000000E+02 0.  0.
<mgrwt>
<rscale>  0 0.52269785E+02</rscale>
<asrwt>0</asrwt>
<pdfrwt beam="1">  1       13 0.10000000E+01 0.52269785E+02</pdfrwt>
<pdfrwt beam="2">  1       22 0.14867298E+00 0.52269785E+02</pdfrwt>
<totfact> 0.76455160E-01</totfact>
</mgrwt>
</event>
<event>
 4    1  0.2489496E+000  0.5147068E+02  0.7957747E-01  0.1437567E+00
         13   -1    0    0    0    0  0.00000000000E+00  0.00000000000E+00  0.99999944173E+02  0.99999999993E+02  0.10566000000E+00 0.  1.
         22   -1    0    0    0    0 -0.00000000000E+00 -0.00000000000E+00 -0.10140333170E+02  0.10140333170E+02  0.00000000000E+00 0.  1.
         13    1    1    2    0    0 -0.12215529754E+02  0.10694212048E+00  0.17444610011E+02  0.21296858600E+02  0.10566000000E+00 0. -1.
        996    1    1    2    0    0  0.12215529754E+02 -0.10694212048E+00  0.72415000992E+02  0.88843474563E+02  0.50000000000E+02 0.  0.
<mgrwt>
<rscale>  0 0.51470677E+02</rscale>
<asrwt>0</asrwt>
<pdfrwt beam="1">  1       13 0.10000000E+01 0.51470677E+02</pdfrwt>
<pdfrwt beam="2">  1       22 0.10140358E+00 0.51470677E+02</pdfrwt>
<totfact> 0.13798028E+00</totfact>
</mgrwt>
</event>
<event>
 4    1  0.2489496E+000  0.5252187E+02  0.7957747E-01  0.1432195E+00
         13   -1    0    0    0    0  0.00000000000E+00  0.00000000000E+00  0.99999944183E+02  0.10000000000E+03  0.10566000000E+00 0. -1.
         22   -1    0    0    0    0 -0.00000000000E+00 -0.00000000000E+00 -0.37796636233E+02  0.37796636233E+02  0.00000000000E+00 0.  1.
         13    1    1    2    0    0  0.47831378717E+00 -0.16072272417E+02 -0.28650280610E+02  0.32854169717E+02  0.10566000000E+00 0.  1.
        996    1    1    2    0    0 -0.47831378717E+00  0.16072272417E+02  0.90853588560E+02  0.10494246652E+03  0.50000000000E+02 0.  0.
<mgrwt>
<rscale>  0 0.52521869E+02</rscale>
<asrwt>0</asrwt>
<pdfrwt beam="1">  1       13 0.10000000E+01 0.52521869E+02</pdfrwt>
<pdfrwt beam="2">  1       22 0.37796654E+00 0.52521869E+02</pdfrwt>
<totfact> 0.13732585E-01</totfact>
</mgrwt>
</event>
<event>
 4    1  0.2489496E+000  0.5328530E+02  0.7957747E-01  0.1428386E+00
         13   -1    0    0    0    0  0.00000000000E+00  0.00000000000E+00  0.99999944178E+02  0.99999999998E+02  0.10566000000E+00 0. -1.
         22   -1    0    0    0    0 -0.00000000000E+00 -0.00000000000E+00 -0.12997914497E+02  0.12997914497E+02  0.00000000000E+00 0. -1.
         13    1    1    2    0    0 -0.16577616438E+02 -0.80315445673E+01  0.17388419001E+02  0.25331627549E+02  0.10566000000E+00 0.  1.
        996    1    1    2    0    0  0.16577616438E+02  0.80315445673E+01  0.69613610680E+02  0.87666286945E+02  0.50000000000E+02 0.  0.
<mgrwt>
<rscale>  0 0.53285299E+02</rscale>
<asrwt>0</asrwt>
<pdfrwt beam="1">  1       13 0.10000000E+01 0.53285299E+02</pdfrwt>
<pdfrwt beam="2">  1       22 0.12997939E+00 0.53285299E+02</pdfrwt>
<totfact> 0.95211665E-01</totfact>
</mgrwt>
</event>
<event>
 4    1  0.2489496E+000  0.5641730E+02  0.7957747E-01  0.1413513E+00
         13   -1    0    0    0    0  0.00000000000E+00  0.00000000000E+00  0.99999944183E+02  0.10000000000E+03  0.10566000000E+00 0. -1.
         22   -1    0    0    0    0 -0.00000000000E+00 -0.00000000000E+00 -0.28211465510E+02  0.28211465510E+02  0.00000000000E+00 0.  1.
         13    1    1    2    0    0 -0.16882715898E+02 -0.19947078098E+02 -0.10730439650E+02  0.28250053449E+02  0.10566000000E+00 0.  1.
        996    1    1    2    0    0  0.16882715898E+02  0.19947078098E+02  0.82518918323E+02  0.99961412064E+02  0.50000000000E+02 0.  0.
<mgrwt>
<rscale>  0 0.56417302E+02</rscale>
<asrwt>0</asrwt>
<pdfrwt beam="1">  1       13 0.10000000E+01 0.56417302E+02</pdfrwt>
<pdfrwt beam="2">  1       22 0.28211486E+00 0.56417302E+02</pdfrwt>
<totfact> 0.23409420E-01</totfact>
</mgrwt>
</event>
<event>
 4    1  0.2489496E+000  0.5292314E+02  0.7957747E-01  0.1430184E+00
         13   -1    0    0    0    0  0.00000000000E+00  0.00000000000E+00  0.99999944161E+02  0.99999999982E+02  0.10566000000E+00 0. -1.
         22   -1    0    0    0    0 -0.00000000000E+00 -0.00000000000E+00 -0.69606002346E+02  0.69606002346E+02  0.00000000000E+00 0.  1.
         13    1    1    2    0    0  0.16505899034E+02  0.53304939577E+01 -0.61315488937E+02  0.63721732685E+02  0.10566000000E+00 0.  1.
        996    1    1    2    0    0 -0.16505899034E+02 -0.53304939577E+01  0.91709430753E+02  0.10588426964E+03  0.50000000000E+02 0.  0.
<mgrwt>
<rscale>  0 0.52923141E+02</rscale>
<asrwt>0</asrwt>
<pdfrwt beam="1">  1       13 0.10000000E+01 0.52923141E+02</pdfrwt>
<pdfrwt beam="2">  1       22 0.69606011E+00 0.52923141E+02</pdfrwt>
<totfact> 0.76616257E-02</totfact>
</mgrwt>
</event>
<event>
 4    1  0.2489496E+000  0.5530963E+02  0.7957747E-01  0.1418640E+00
         13   -1    0    0    0    0  0.00000000000E+00  0.00000000000E+00  0.99999944178E+02  0.99999999998E+02  0.10566000000E+00 0. -1.
         22   -1    0    0    0    0 -0.00000000000E+00 -0.00000000000E+00 -0.23921096748E+02  0.23921096748E+02  0.00000000000E+00 0.  1.
         13    1    1    2    0    0  0.23187179817E+02 -0.46379066697E+01 -0.65064326908E+01  0.24525503390E+02  0.10566000000E+00 0.  1.
        996    1    1    2    0    0 -0.23187179817E+02  0.46379066697E+01  0.82585280121E+02  0.99395593357E+02  0.50000000000E+02 0.  0.
<mgrwt>
<rscale>  0 0.55309633E+02</rscale>
<asrwt>0</asrwt>
<pdfrwt beam="1">  1       13 0.10000000E+01 0.55309633E+02</pdfrwt>
<pdfrwt beam="2">  1       22 0.23921118E+00 0.55309633E+02</pdfrwt>
<totfact> 0.32313348E-01</totfact>
</mgrwt>
</event>
<event>
 4    1  0.2489496E+000  0.5404229E+02  0.7957747E-01  0.1424683E+00
         13   -1    0    0    0    0  0.00000000000E+00  0.00000000000E+00  0.99999944178E+02  0.99999999998E+02  0.10566000000E+00 0. -1.
         22   -1    0    0    0    0 -0.00000000000E+00 -0.00000000000E+00 -0.20348788150E+02  0.20348788150E+02  0.00000000000E+00 0.  1.
         13    1    1    2    0    0 -0.11492547583E+02  0.16984996600E+02 -0.38684180239E+01  0.20869704873E+02  0.10566000000E+00 0.  1.
        996    1    1    2    0    0  0.11492547583E+02 -0.16984996600E+02  0.83519574052E+02  0.99479083275E+02  0.50000000000E+02 0.  0.
<mgrwt>
<rscale>  0 0.54042287E+02</rscale>
<asrwt>0</asrwt>
<pdfrwt beam="1">  1       13 0.10000000E+01 0.54042287E+02</pdfrwt>
<pdfrwt beam="2">  1       22 0.20348810E+00 0.54042287E+02</pdfrwt>
<totfact> 0.44022149E-01</totfact>
</mgrwt>
</event>
<event>
 4    1  0.2489496E+000  0.5267679E+02  0.7957747E-01  0.1431416E+00
         13   -1    0    0    0    0  0.00000000000E+00  0.00000000000E+00  0.99999944187E+02  0.10000000001E+03  0.10566000000E+00 0.  1.
         22   -1    0    0    0    0 -0.00000000000E+00 -0.00000000000E+00 -0.27234409057E+02  0.27234409057E+02  0.00000000000E+00 0. -1.
         13    1    1    2    0    0 -0.16369145128E+02 -0.26258255575E+01 -0.16624238105E+02  0.23478081878E+02  0.10566000000E+00 0. -1.
        996    1    1    2    0    0  0.16369145128E+02  0.26258255575E+01  0.89389773235E+02  0.10375632719E+03  0.50000000000E+02 0.  0.
<mgrwt>
<rscale>  0 0.52676787E+02</rscale>
<asrwt>0</asrwt>
<pdfrwt beam="1">  1       13 0.10000000E+01 0.52676787E+02</pdfrwt>
<pdfrwt beam="2">  1       22 0.27234429E+00 0.52676787E+02</pdfrwt>
<totfact> 0.24942657E-01</totfact>
</mgrwt>
</event>
<event>
 4    1  0.2489496E+000  0.5100754E+02  0.7957747E-01  0.1439982E+00
         13   -1    0    0    0    0  0.00000000000E+00  0.00000000000E+00  0.99999944181E+02  0.10000000000E+03  0.10566000000E+00 0.  1.
         22   -1    0    0    0    0 -0.00000000000E+00 -0.00000000000E+00 -0.20526235003E+02  0.20526235003E+02  0.00000000000E+00 0.  1.
         13    1    1    2    0    0  0.85651267780E+01  0.53298510667E+01 -0.12070055641E+02  0.15731055792E+02  0.10566000000E+00 0. -1.
        996    1    1    2    0    0 -0.85651267780E+01 -0.53298510667E+01  0.91543764819E+02  0.10479517921E+03  0.50000000000E+02 0.  0.
<mgrwt>
<rscale>  0 0.51007536E+02</rscale>
<asrwt>0</asrwt>
<pdfrwt beam="1">  1       13 0.10000000E+01 0.51007536E+02</pdfrwt>
<pdfrwt beam="2">  1       22 0.20526257E+00 0.51007536E+02</pdfrwt>
<totfact> 0.43079095E-01</totfact>
</mgrwt>
</event>
<event>
 4    1  0.2489496E+000  0.5125677E+02  0.7957747E-01  0.1438678E+00
         13   -1    0    0    0    0  0.00000000000E+00  0.00000000000E+00  0.99999944174E+02  0.99999999995E+02  0.10566000000E+00 0.  1.
         22   -1    0    0    0    0 -0.00000000000E+00 -0.00000000000E+00 -0.21249634154E+02  0.21249634154E+02  0.00000000000E+00 0. -1.
         13    1    1    2    0    0  0.10289952985E+02 -0.46231091707E+01 -0.12345466984E+02  0.16723575872E+02  0.10566000000E+00 0. -1.
        996    1    1    2    0    0 -0.10289952985E+02  0.46231091707E+01  0.91095777005E+02  0.10452605828E+03  0.50000000000E+02 0.  0.
<mgrwt>
<rscale>  0 0.51256768E+02</rscale>
<asrwt>0</asrwt>
<pdfrwt beam="1">  1       13 0.10000000E+01 0.51256768E+02</pdfrwt>
<pdfrwt beam="2">  1       22 0.21249656E+00 0.51256768E+02</pdfrwt>
<totfact> 0.40364525E-01</totfact>
</mgrwt>
</event>
<event>
 4    1  0.2489496E+000  0.5215982E+02  0.7957747E-01  0.1434028E+00
         13   -1    0    0    0    0  0.00000000000E+00  0.00000000000E+00  0.99999944173E+02  0.99999999993E+02  0.10566000000E+00 0.  1.
         22   -1    0    0    0    0 -0.00000000000E+00 -0.00000000000E+00 -0.11446053484E+02  0.11446053484E+02  0.00000000000E+00 0.  1.
         13    1    1    2    0    0  0.25758088322E+01 -0.14629140097E+02  0.13673108405E+02  0.20189392972E+02  0.10566000000E+00 0. -1.
        996    1    1    2    0    0 -0.25758088322E+01  0.14629140097E+02  0.74880782284E+02  0.91256660505E+02  0.50000000000E+02 0.  0.
<mgrwt>
<rscale>  0 0.52159817E+02</rscale>
<asrwt>0</asrwt>
<pdfrwt beam="1">  1       13 0.10000000E+01 0.52159817E+02</pdfrwt>
<pdfrwt beam="2">  1       22 0.11446078E+00 0.52159817E+02</pdfrwt>
<totfact> 0.11553351E+00</totfact>
</mgrwt>
</event>
<event>
 4    1  0.2489496E+000  0.5215397E+02  0.7957747E-01  0.1434058E+00
         13   -1    0    0    0    0  0.00000000000E+00  0.00000000000E+00  0.99999944181E+02  0.10000000000E+03  0.10566000000E+00 0.  1.
         22   -1    0    0    0    0 -0.00000000000E+00 -0.00000000000E+00 -0.23913307743E+02  0.23913307743E+02  0.00000000000E+00 0. -1.
         13    1    1    2    0    0 -0.13998972052E+02  0.49055993825E+01 -0.13626043062E+02  0.20142401480E+02  0.10566000000E+00 0. -1.
        996    1    1    2    0    0  0.13998972052E+02 -0.49055993825E+01  0.89712679500E+02  0.10377090626E+03  0.50000000000E+02 0.  0.
<mgrwt>
<rscale>  0 0.52153966E+02</rscale>
<asrwt>0</asrwt>
<pdfrwt beam="1">  1       13 0.10000000E+01 0.52153966E+02</pdfrwt>
<pdfrwt beam="2">  1       22 0.23913329E+00 0.52153966E+02</pdfrwt>
<totfact> 0.32174741E-01</totfact>
</mgrwt>
</event>
<event>
 4    1  0.2489496E+000  0.5101883E+02  0.7957747E-01  0.1439922E+00
         13   -1    0    0    0    0  0.00000000000E+00  0.00000000000E+00  0.99999944175E+02  0.99999999996E+02  0.10566000000E+00 0. -1.
         22   -1    0    0    0    0 -0.00000000000E+00 -0.00000000000E+00 -0.23086062825E+02  0.23086062825E+02  0.00000000000E+00 0. -1.
         13    1    1    2    0    0 -0.92402828328E+01 -0.41878079424E+01 -0.14913650944E+02  0.18037425279E+02  0.10566000000E+00 0.  1.
        996    1    1    2    0    0  0.92402828328E+01  0.41878079424E+01  0.91827532294E+02  0.10504863754E+03  0.50000000000E+02 0.  0.
<mgrwt>
<rscale>  0 0.51018826E+02</rscale>
<asrwt>0</asrwt>
<pdfrwt beam="1">  1       13 0.10000000E+01 0.51018826E+02</pdfrwt>
<pdfrwt beam="2">  1       22 0.23086084E+00 0.51018826E+02</pdfrwt>
<totfact> 0.34398441E-01</totfact>
</mgrwt>
</event>
<event>
 4    1  0.2489496E+000  0.5147884E+02  0.7957747E-01  0.1437525E+00
         13   -1    0    0    0    0  0.00000000000E+00  0.00000000000E+00  0.99999944176E+02  0.99999999996E+02  0.10566000000E+00 0.  1.
         22   -1    0    0    0    0 -0.00000000000E+00 -0.00000000000E+00 -0.10499224175E+02  0.10499224175E+02  0.00000000000E+00 0.  1.
         13    1    1    2    0    0  0.62306480614E+01 -0.10547489129E+02  0.10132762259E+02  0.15898255792E+02  0.10566000000E+00 0. -1.
        996    1    1    2    0    0 -0.62306480614E+01  0.10547489129E+02  0.79367957741E+02  0.94600968379E+02  0.50000000000E+02 0.  0.
<mgrwt>
<rscale>  0 0.51478835E+02</rscale>
<asrwt>0</asrwt>
<pdfrwt beam="1">  1       13 0.10000000E+01 0.51478835E+02</pdfrwt>
<pdfrwt beam="2">  1       22 0.10499249E+00 0.51478835E+02</pdfrwt>
<totfact> 0.13114864E+00</totfact>
</mgrwt>
</event>
<event>
 4    1  0.2489496E+000  0.5102410E+02  0.7957747E-01  0.1439895E+00
         13   -1    0    0    0    0  0.00000000000E+00  0.00000000000E+00  0.99999944172E+02  0.99999999992E+02  0.10566000000E+00 0.  1.
         22   -1    0    0    0    0 -0.00000000000E+00 -0.00000000000E+00 -0.10022488320E+02  0.10022488320E+02  0.00000000000E+00 0.  1.
         13    1    1    2    0    0  0.94196063665E+01 -0.38379974712E+01  0.61479175496E+01  0.11885590558E+02  0.10566000000E+00 0. -1.
        996    1    1    2    0    0 -0.94196063665E+01  0.38379974712E+01  0.83829538303E+02  0.98136897754E+02  0.50000000000E+02 0.  0.
<mgrwt>
<rscale>  0 0.51024104E+02</rscale>
<asrwt>0</asrwt>
<pdfrwt beam="1">  1       13 0.10000000E+01 0.51024104E+02</pdfrwt>
<pdfrwt beam="2">  1       22 0.10022513E+00 0.51024104E+02</pdfrwt>
<totfact> 0.14018889E+00</totfact>
</mgrwt>
</event>
<event>
 4    1  0.2489496E+000  0.5422112E+02  0.7957747E-01  0.1423819E+00
         13   -1    0    0    0    0  0.00000000000E+00  0.00000000000E+00  0.99999944179E+02  0.99999999999E+02  0.10566000000E+00 0. -1.
         22   -1    0    0    0    0 -0.00000000000E+00 -0.00000000000E+00 -0.14456777472E+02  0.14456777472E+02  0.00000000000E+00 0. -1.
         13    1    1    2    0    0  0.12640252161E+02  0.16737792844E+02  0.31946991472E+02  0.38217157300E+02  0.10566000000E+00 0.  1.
        996    1    1    2    0    0 -0.12640252161E+02 -0.16737792844E+02  0.53596175235E+02  0.76239620171E+02  0.50000000000E+02 0.  0.
<mgrwt>
<rscale>  0 0.54221118E+02</rscale>
<asrwt>0</asrwt>
<pdfrwt beam="1">  1       13 0.10000000E+01 0.54221118E+02</pdfrwt>
<pdfrwt beam="2">  1       22 0.14456801E+00 0.54221118E+02</pdfrwt>
<totfact> 0.80387355E-01</totfact>
</mgrwt>
</event>
<event>
 4    1  0.2489496E+000  0.5185830E+02  0.7957747E-01  0.1435569E+00
         13   -1    0    0    0    0  0.00000000000E+00  0.00000000000E+00  0.99999944180E+02  0.10000000000E+03  0.10566000000E+00 0.  1.
         22   -1    0    0    0    0 -0.00000000000E+00 -0.00000000000E+00 -0.14968170821E+02  0.14968170821E+02  0.00000000000E+00 0. -1.
         13    1    1    2    0    0 -0.60179078895E+01  0.12372082588E+02 -0.17531297046E+01  0.13869688920E+02  0.10566000000E+00 0. -1.
        996    1    1    2    0    0  0.60179078895E+01 -0.12372082588E+02  0.86784903063E+02  0.10109848190E+03  0.50000000000E+02 0.  0.
<mgrwt>
<rscale>  0 0.51858304E+02</rscale>
<asrwt>0</asrwt>
<pdfrwt beam="1">  1       13 0.10000000E+01 0.51858304E+02</pdfrwt>
<pdfrwt beam="2">  1       22 0.14968195E+00 0.51858304E+02</pdfrwt>
<totfact> 0.75537164E-01</totfact>
</mgrwt>
</event>
<event>
 4    1  0.2489496E+000  0.5166929E+02  0.7957747E-01  0.1436540E+00
         13   -1    0    0    0    0  0.00000000000E+00  0.00000000000E+00  0.99999944180E+02  0.10000000000E+03  0.10566000000E+00 0.  1.
         22   -1    0    0    0    0 -0.00000000000E+00 -0.00000000000E+00 -0.16791894798E+02  0.16791894798E+02  0.00000000000E+00 0. -1.
         13    1    1    2    0    0 -0.11974220698E+02 -0.51316184410E+01 -0.54934264987E+01  0.14138754113E+02  0.10566000000E+00 0. -1.
        996    1    1    2    0    0  0.11974220698E+02  0.51316184410E+01  0.88701475881E+02  0.10265314069E+03  0.50000000000E+02 0.  0.
<mgrwt>
<rscale>  0 0.51669289E+02</rscale>
<asrwt>0</asrwt>
<pdfrwt beam="1">  1       13 0.10000000E+01 0.51669289E+02</pdfrwt>
<pdfrwt beam="2">  1       22 0.16791918E+00 0.51669289E+02</pdfrwt>
<totfact> 0.62081374E-01</totfact>
</mgrwt>
</event>
<event>
 4    1  0.2489496E+000  0.6200849E+02  0.7957747E-01  0.1389591E+00
         13   -1    0    0    0    0  0.00000000000E+00  0.00000000000E+00  0.99999944175E+02  0.99999999996E+02  0.10566000000E+00 0.  1.
         22   -1    0    0    0    0 -0.00000000000E+00 -0.00000000000E+00 -0.31367493916E+02  0.31367493916E+02  0.00000000000E+00 0.  1.
         13    1    1    2    0    0 -0.27283779597E+02 -0.24508121067E+02 -0.27923571553E+01  0.36781259493E+02  0.10566000000E+00 0. -1.
        996    1    1    2    0    0  0.27283779597E+02  0.24508121067E+02  0.71424807414E+02  0.94586234419E+02  0.50000000000E+02 0.  0.
<mgrwt>
<rscale>  0 0.62008488E+02</rscale>
<asrwt>0</asrwt>
<pdfrwt beam="1">  1       13 0.10000000E+01 0.62008488E+02</pdfrwt>
<pdfrwt beam="2">  1       22 0.31367513E+00 0.62008488E+02</pdfrwt>
<totfact> 0.19289553E-01</totfact>
</mgrwt>
</event>
<event>
 4    1  0.2489496E+000  0.5757906E+02  0.7957747E-01  0.1408282E+00
         13   -1    0    0    0    0  0.00000000000E+00  0.00000000000E+00  0.99999944183E+02  0.10000000000E+03  0.10566000000E+00 0. -1.
         22   -1    0    0    0    0 -0.00000000000E+00 -0.00000000000E+00 -0.22711504252E+02  0.22711504252E+02  0.00000000000E+00 0.  1.
         13    1    1    2    0    0  0.28526061029E+02  0.12694496317E+01  0.29856372983E+01  0.28710152460E+02  0.10566000000E+00 0.  1.
        996    1    1    2    0    0 -0.28526061029E+02 -0.12694496317E+01  0.74302802632E+02  0.94001351795E+02  0.50000000000E+02 0.  0.
<mgrwt>
<rscale>  0 0.57579056E+02</rscale>
<asrwt>0</asrwt>
<pdfrwt beam="1">  1       13 0.10000000E+01 0.57579056E+02</pdfrwt>
<pdfrwt beam="2">  1       22 0.22711526E+00 0.57579056E+02</pdfrwt>
<totfact> 0.35882676E-01</totfact>
</mgrwt>
</event>
<event>
 4    1  0.2489496E+000  0.5257490E+02  0.7957747E-01  0.1431928E+00
         13   -1    0    0    0    0  0.00000000000E+00  0.00000000000E+00  0.99999944179E+02  0.10000000000E+03  0.10566000000E+00 0.  1.
         22   -1    0    0    0    0 -0.00000000000E+00 -0.00000000000E+00 -0.13458230530E+02  0.13458230530E+02  0.00000000000E+00 0.  1.
         13    1    1    2    0    0 -0.11724584674E+02 -0.11254094992E+02  0.60996303878E+01  0.17359066645E+02  0.10566000000E+00 0. -1.
        996    1    1    2    0    0  0.11724584674E+02  0.11254094992E+02  0.80442083261E+02  0.96099163885E+02  0.50000000000E+02 0.  0.
<mgrwt>
<rscale>  0 0.52574904E+02</rscale>
<asrwt>0</asrwt>
<pdfrwt beam="1">  1       13 0.10000000E+01 0.52574904E+02</pdfrwt>
<pdfrwt beam="2">  1       22 0.13458255E+00 0.52574904E+02</pdfrwt>
<totfact> 0.89962977E-01</totfact>
</mgrwt>
</event>
<event>
 4    1  0.2489496E+000  0.5167774E+02  0.7957747E-01  0.1436497E+00
         13   -1    0    0    0    0  0.00000000000E+00  0.00000000000E+00  0.99999944180E+02  0.10000000000E+03  0.10566000000E+00 0. -1.
         22   -1    0    0    0    0 -0.00000000000E+00 -0.00000000000E+00 -0.13021411374E+02  0.13021411374E+02  0.00000000000E+00 0.  1.
         13    1    1    2    0    0 -0.25948129982E+01 -0.12800618021E+02  0.15156670047E+01  0.13149041285E+02  0.10566000000E+00 0.  1.
        996    1    1    2    0    0  0.25948129982E+01  0.12800618021E+02  0.85462865802E+02  0.99872370089E+02  0.50000000000E+02 0.  0.
<mgrwt>
<rscale>  0 0.51677741E+02</rscale>
<asrwt>0</asrwt>
<pdfrwt beam="1">  1       13 0.10000000E+01 0.51677741E+02</pdfrwt>
<pdfrwt beam="2">  1       22 0.13021436E+00 0.51677741E+02</pdfrwt>
<totfact> 0.94614350E-01</totfact>
</mgrwt>
</event>
<event>
 4    1  0.2489496E+000  0.6096596E+02  0.7957747E-01  0.1393822E+00
         13   -1    0    0    0    0  0.00000000000E+00  0.00000000000E+00  0.99999944174E+02  0.99999999994E+02  0.10566000000E+00 0.  1.
         22   -1    0    0    0    0 -0.00000000000E+00 -0.00000000000E+00 -0.32909498374E+02  0.32909498374E+02  0.00000000000E+00 0.  1.
         13    1    1    2    0    0 -0.18279280999E+02  0.29710537082E+02 -0.83946363689E+01  0.35879370275E+02  0.10566000000E+00 0. -1.
        996    1    1    2    0    0  0.18279280999E+02 -0.29710537082E+02  0.75485082169E+02  0.97030128092E+02  0.50000000000E+02 0.  0.
<mgrwt>
<rscale>  0 0.60965959E+02</rscale>
<asrwt>0</asrwt>
<pdfrwt beam="1">  1       13 0.10000000E+01 0.60965959E+02</pdfrwt>
<pdfrwt beam="2">  1       22 0.32909517E+00 0.60965959E+02</pdfrwt>
<totfact> 0.17670788E-01</totfact>
</mgrwt>
</event>
<event>
 4    1  0.2489496E+000  0.5352630E+02  0.7957747E-01  0.1427199E+00
         13   -1    0    0    0    0  0.00000000000E+00  0.00000000000E+00  0.99999944178E+02  0.99999999999E+02  0.10566000000E+00 0.  1.
         22   -1    0    0    0    0 -0.00000000000E+00 -0.00000000000E+00 -0.17816138535E+02  0.17816138535E+02  0.00000000000E+00 0.  1.
         13    1    1    2    0    0 -0.12840055202E+02  0.14149117418E+02 -0.73569493058E+00  0.19121112739E+02  0.10566000000E+00 0. -1.
        996    1    1    2    0    0  0.12840055202E+02 -0.14149117418E+02  0.82919500573E+02  0.98695025795E+02  0.50000000000E+02 0.  0.
<mgrwt>
<rscale>  0 0.53526298E+02</rscale>
<asrwt>0</asrwt>
<pdfrwt beam="1">  1       13 0.10000000E+01 0.53526298E+02</pdfrwt>
<pdfrwt beam="2">  1       22 0.17816161E+00 0.53526298E+02</pdfrwt>
<totfact> 0.56118781E-01</totfact>
</mgrwt>
</event>
<event>
 4    1  0.2489496E+000  0.5217239E+02  0.7957747E-01  0.1433964E+00
         13   -1    0    0    0    0  0.00000000000E+00  0.00000000000E+00  0.99999944180E+02  0.10000000000E+03  0.10566000000E+00 0.  1.
         22   -1    0    0    0    0 -0.00000000000E+00 -0.00000000000E+00 -0.19229115413E+02  0.19229115413E+02  0.00000000000E+00 0. -1.
         13    1    1    2    0    0  0.14365691978E+02  0.39478372856E+01 -0.75098207541E+01  0.16684336877E+02  0.10566000000E+00 0. -1.
        996    1    1    2    0    0 -0.14365691978E+02 -0.39478372856E+01  0.88280649521E+02  0.10254477854E+03  0.50000000000E+02 0.  0.
<mgrwt>
<rscale>  0 0.52172392E+02</rscale>
<asrwt>0</asrwt>
<pdfrwt beam="1">  1       13 0.10000000E+01 0.52172392E+02</pdfrwt>
<pdfrwt beam="2">  1       22 0.19229138E+00 0.52172392E+02</pdfrwt>
<totfact> 0.48745045E-01</totfact>
</mgrwt>
</event>
<event>
 4    1  0.2489496E+000  0.5166176E+02  0.7957747E-01  0.1436579E+00
         13   -1    0    0    0    0  0.00000000000E+00  0.00000000000E+00  0.99999944176E+02  0.99999999996E+02  0.10566000000E+00 0. -1.
         22   -1    0    0    0    0 -0.00000000000E+00 -0.00000000000E+00 -0.10665071129E+02  0.10665071129E+02  0.00000000000E+00 0. -1.
         13    1    1    2    0    0  0.92112496605E+01 -0.91701021476E+01  0.12190893770E+02  0.17820408206E+02  0.10566000000E+00 0.  1.
        996    1    1    2    0    0 -0.92112496605E+01  0.91701021476E+01  0.77143979278E+02  0.92844662919E+02  0.50000000000E+02 0.  0.
<mgrwt>
<rscale>  0 0.51661764E+02</rscale>
<asrwt>0</asrwt>
<pdfrwt beam="1">  1       13 0.10000000E+01 0.51661764E+02</pdfrwt>
<pdfrwt beam="2">  1       22 0.10665096E+00 0.51661764E+02</pdfrwt>
<totfact> 0.12821522E+00</totfact>
</mgrwt>
</event>
<event>
 4    1  0.2489496E+000  0.6178475E+02  0.7957747E-01  0.1390491E+00
         13   -1    0    0    0    0  0.00000000000E+00  0.00000000000E+00  0.99999944183E+02  0.10000000000E+03  0.10566000000E+00 0. -1.
         22   -1    0    0    0    0 -0.00000000000E+00 -0.00000000000E+00 -0.60594977722E+02  0.60594977722E+02  0.00000000000E+00 0.  1.
         13    1    1    2    0    0 -0.22946846260E+02 -0.28121128900E+02 -0.43847560708E+02  0.56920781688E+02  0.10566000000E+00 0.  1.
        996    1    1    2    0    0  0.22946846260E+02  0.28121128900E+02  0.83252527169E+02  0.10367419604E+03  0.50000000000E+02 0.  0.
<mgrwt>
<rscale>  0 0.61784753E+02</rscale>
<asrwt>0</asrwt>
<pdfrwt beam="1">  1       13 0.10000000E+01 0.61784753E+02</pdfrwt>
<pdfrwt beam="2">  1       22 0.60594989E+00 0.61784753E+02</pdfrwt>
<totfact> 0.65924187E-02</totfact>
</mgrwt>
</event>
<event>
 4    1  0.2489496E+000  0.5341994E+02  0.7957747E-01  0.1427722E+00
         13   -1    0    0    0    0  0.00000000000E+00  0.00000000000E+00  0.99999944182E+02  0.10000000000E+03  0.10566000000E+00 0.  1.
         22   -1    0    0    0    0 -0.00000000000E+00 -0.00000000000E+00 -0.20770165264E+02  0.20770165264E+02  0.00000000000E+00 0. -1.
         13    1    1    2    0    0 -0.18468981666E+02  0.35478165957E+01 -0.63808759832E+01  0.19859935265E+02  0.10566000000E+00 0. -1.
        996    1    1    2    0    0  0.18468981666E+02 -0.35478165957E+01  0.85610654901E+02  0.10091023000E+03  0.50000000000E+02 0.  0.
<mgrwt>
<rscale>  0 0.53419943E+02</rscale>
<asrwt>0</asrwt>
<pdfrwt beam="1">  1       13 0.10000000E+01 0.53419943E+02</pdfrwt>
<pdfrwt beam="2">  1       22 0.20770187E+00 0.53419943E+02</pdfrwt>
<totfact> 0.42308997E-01</totfact>
</mgrwt>
</event>
<event>
 4    1  0.2489496E+000  0.6328586E+02  0.7957747E-01  0.1384538E+00
         13   -1    0    0    0    0  0.00000000000E+00  0.00000000000E+00  0.99999944177E+02  0.99999999997E+02  0.10566000000E+00 0. -1.
         22   -1    0    0    0    0 -0.00000000000E+00 -0.00000000000E+00 -0.38255263436E+02  0.38255263436E+02  0.00000000000E+00 0.  1.
         13    1    1    2    0    0  0.32768959503E+02 -0.20767648577E+02 -0.12442306258E+02  0.40742141370E+02  0.10566000000E+00 0.  1.
        996    1    1    2    0    0 -0.32768959503E+02  0.20767648577E+02  0.74186986999E+02  0.97513122062E+02  0.50000000000E+02 0.  0.
<mgrwt>
<rscale>  0 0.63285859E+02</rscale>
<asrwt>0</asrwt>
<pdfrwt beam="1">  1       13 0.10000000E+01 0.63285859E+02</pdfrwt>
<pdfrwt beam="2">  1       22 0.38255281E+00 0.63285859E+02</pdfrwt>
<totfact> 0.13550565E-01</totfact>
</mgrwt>
</event>
<event>
 4    1  0.2489496E+000  0.6362198E+02  0.7957747E-01  0.1383231E+00
         13   -1    0    0    0    0  0.00000000000E+00  0.00000000000E+00  0.99999944176E+02  0.99999999996E+02  0.10566000000E+00 0. -1.
         22   -1    0    0    0    0 -0.00000000000E+00 -0.00000000000E+00 -0.41839900202E+02  0.41839900202E+02  0.00000000000E+00 0.  1.
         13    1    1    2    0    0  0.32269413041E+02 -0.22504262788E+02 -0.17437797067E+02  0.43033066266E+02  0.10566000000E+00 0.  1.
        996    1    1    2    0    0 -0.32269413041E+02  0.22504262788E+02  0.75597841041E+02  0.98806833932E+02  0.50000000000E+02 0.  0.
<mgrwt>
<rscale>  0 0.63621984E+02</rscale>
<asrwt>0</asrwt>
<pdfrwt beam="1">  1       13 0.10000000E+01 0.63621984E+02</pdfrwt>
<pdfrwt beam="2">  1       22 0.41839916E+00 0.63621984E+02</pdfrwt>
<totfact> 0.11407566E-01</totfact>
</mgrwt>
</event>
<event>
 4    1  0.2489496E+000  0.5188861E+02  0.7957747E-01  0.1435413E+00
         13   -1    0    0    0    0  0.00000000000E+00  0.00000000000E+00  0.99999944176E+02  0.99999999997E+02  0.10566000000E+00 0.  1.
         22   -1    0    0    0    0 -0.00000000000E+00 -0.00000000000E+00 -0.43275022036E+02  0.43275022036E+02  0.00000000000E+00 0. -1.
         13    1    1    2    0    0  0.11659971104E+02 -0.75148559108E+01 -0.35134216166E+02  0.37773698458E+02  0.10566000000E+00 0. -1.
        996    1    1    2    0    0 -0.11659971104E+02  0.75148559108E+01  0.91859138307E+02  0.10550132357E+03  0.50000000000E+02 0.  0.
<mgrwt>
<rscale>  0 0.51888611E+02</rscale>
<asrwt>0</asrwt>
<pdfrwt beam="1">  1       13 0.10000000E+01 0.51888611E+02</pdfrwt>
<pdfrwt beam="2">  1       22 0.43275038E+00 0.51888611E+02</pdfrwt>
<totfact> 0.10549510E-01</totfact>
</mgrwt>
</event>
<event>
 4    1  0.2489496E+000  0.5102668E+02  0.7957747E-01  0.1439881E+00
         13   -1    0    0    0    0  0.00000000000E+00  0.00000000000E+00  0.99999944175E+02  0.99999999995E+02  0.10566000000E+00 0.  1.
         22   -1    0    0    0    0 -0.00000000000E+00 -0.00000000000E+00 -0.19163103573E+02  0.19163103573E+02  0.00000000000E+00 0. -1.
         13    1    1    2    0    0 -0.70613287610E+01  0.73389153044E+01 -0.10444102615E+02  0.14588093953E+02  0.10566000000E+00 0. -1.
        996    1    1    2    0    0  0.70613287610E+01 -0.73389153044E+01  0.91280943216E+02  0.10457500962E+03  0.50000000000E+02 0.  0.
<mgrwt>
<rscale>  0 0.51026680E+02</rscale>
<asrwt>0</asrwt>
<pdfrwt beam="1">  1       13 0.10000000E+01 0.51026680E+02</pdfrwt>
<pdfrwt beam="2">  1       22 0.19163126E+00 0.51026680E+02</pdfrwt>
<totfact> 0.48950312E-01</totfact>
</mgrwt>
</event>
<event>
 4    1  0.2489496E+000  0.5267672E+02  0.7957747E-01  0.1431416E+00
         13   -1    0    0    0    0  0.00000000000E+00  0.00000000000E+00  0.99999944173E+02  0.99999999994E+02  0.10566000000E+00 0.  1.
         22   -1    0    0    0    0 -0.00000000000E+00 -0.00000000000E+00 -0.17960180458E+02  0.17960180458E+02  0.00000000000E+00 0. -1.
         13    1    1    2    0    0 -0.33225743693E+01 -0.16241843367E+02 -0.40196989729E+01  0.17058901497E+02  0.10566000000E+00 0. -1.
        996    1    1    2    0    0  0.33225743693E+01  0.16241843367E+02  0.86059462689E+02  0.10090127895E+03  0.50000000000E+02 0.  0.
<mgrwt>
<rscale>  0 0.52676721E+02</rscale>
<asrwt>0</asrwt>
<pdfrwt beam="1">  1       13 0.10000000E+01 0.52676721E+02</pdfrwt>
<pdfrwt beam="2">  1       22 0.17960203E+00 0.52676721E+02</pdfrwt>
<totfact> 0.55229015E-01</totfact>
</mgrwt>
</event>
<event>
 4    1  0.2489496E+000  0.5152552E+02  0.7957747E-01  0.1437283E+00
         13   -1    0    0    0    0  0.00000000000E+00  0.00000000000E+00  0.99999944182E+02  0.10000000000E+03  0.10566000000E+00 0. -1.
         22   -1    0    0    0    0 -0.00000000000E+00 -0.00000000000E+00 -0.11819185520E+02  0.11819185520E+02  0.00000000000E+00 0. -1.
         13    1    1    2    0    0 -0.12223997166E+02  0.23352505182E+01  0.39113865702E+01  0.13045674020E+02  0.10566000000E+00 0.  1.
        996    1    1    2    0    0  0.12223997166E+02 -0.23352505182E+01  0.84269372091E+02  0.98773511502E+02  0.50000000000E+02 0.  0.
<mgrwt>
<rscale>  0 0.51525523E+02</rscale>
<asrwt>0</asrwt>
<pdfrwt beam="1">  1       13 0.10000000E+01 0.51525523E+02</pdfrwt>
<pdfrwt beam="2">  1       22 0.11819210E+00 0.51525523E+02</pdfrwt>
<totfact> 0.10989850E+00</totfact>
</mgrwt>
</event>
<event>
 4    1  0.2489496E+000  0.5103611E+02  0.7957747E-01  0.1439832E+00
         13   -1    0    0    0    0  0.00000000000E+00  0.00000000000E+00  0.99999944182E+02  0.10000000000E+03  0.10566000000E+00 0.  1.
         22   -1    0    0    0    0 -0.00000000000E+00 -0.00000000000E+00 -0.29767966702E+02  0.29767966702E+02  0.00000000000E+00 0. -1.
         13    1    1    2    0    0  0.65709857625E+01  0.78426364686E+01 -0.22052850228E+02  0.24310988624E+02  0.10566000000E+00 0. -1.
        996    1    1    2    0    0 -0.65709857625E+01 -0.78426364686E+01  0.92284827708E+02  0.10545697808E+03  0.50000000000E+02 0.  0.
<mgrwt>
<rscale>  0 0.51036113E+02</rscale>
<asrwt>0</asrwt>
<pdfrwt beam="1">  1       13 0.10000000E+01 0.51036113E+02</pdfrwt>
<pdfrwt beam="2">  1       22 0.29767986E+00 0.51036113E+02</pdfrwt>
<totfact> 0.20979449E-01</totfact>
</mgrwt>
</event>
<event>
 4    1  0.2489496E+000  0.5371369E+02  0.7957747E-01  0.1426282E+00
         13   -1    0    0    0    0  0.00000000000E+00  0.00000000000E+00  0.99999944186E+02  0.10000000001E+03  0.10566000000E+00 0.  1.
         22   -1    0    0    0    0 -0.00000000000E+00 -0.00000000000E+00 -0.14468014247E+02  0.14468014247E+02  0.00000000000E+00 0.  1.
         13    1    1    2    0    0  0.24597645997E+01 -0.19470746790E+02  0.10697118489E+02  0.22351732158E+02  0.10566000000E+00 0. -1.
        996    1    1    2    0    0 -0.24597645997E+01  0.19470746790E+02  0.74834811450E+02  0.92116282096E+02  0.50000000000E+02 0.  0.
<mgrwt>
<rscale>  0 0.53713689E+02</rscale>
<asrwt>0</asrwt>
<pdfrwt beam="1">  1       13 0.10000000E+01 0.53713689E+02</pdfrwt>
<pdfrwt beam="2">  1       22 0.14468038E+00 0.53713689E+02</pdfrwt>
<totfact> 0.80203704E-01</totfact>
</mgrwt>
</event>
<event>
 4    1  0.2489496E+000  0.5947517E+02  0.7957747E-01  0.1400048E+00
         13   -1    0    0    0    0  0.00000000000E+00  0.00000000000E+00  0.99999944178E+02  0.99999999999E+02  0.10566000000E+00 0. -1.
         22   -1    0    0    0    0 -0.00000000000E+00 -0.00000000000E+00 -0.22070544832E+02  0.22070544832E+02  0.00000000000E+00 0.  1.
         13    1    1    2    0    0 -0.21569732617E+01  0.32134765765E+02  0.40709237391E+02  0.51909044274E+02  0.10566000000E+00 0.  1.
        996    1    1    2    0    0  0.21569732617E+01 -0.32134765765E+02  0.37220161956E+02  0.70161500557E+02  0.50000000000E+02 0.  0.
<mgrwt>
<rscale>  0 0.59475169E+02</rscale>
<asrwt>0</asrwt>
<pdfrwt beam="1">  1       13 0.10000000E+01 0.59475169E+02</pdfrwt>
<pdfrwt beam="2">  1       22 0.22070567E+00 0.59475169E+02</pdfrwt>
<totfact> 0.38036117E-01</totfact>
</mgrwt>
</event>
<event>
 4    1  0.2489496E+000  0.5143915E+02  0.7957747E-01  0.1437730E+00
         13   -1    0    0    0    0  0.00000000000E+00  0.00000000000E+00  0.99999944173E+02  0.99999999993E+02  0.10566000000E+00 0. -1.
         22   -1    0    0    0    0 -0.00000000000E+00 -0.00000000000E+00 -0.10128169407E+02  0.10128169407E+02  0.00000000000E+00 0. -1.
         13    1    1    2    0    0  0.11783461805E+02 -0.26712711229E+01  0.14467800462E+02  0.18849776544E+02  0.10566000000E+00 0.  1.
        996    1    1    2    0    0 -0.11783461805E+02  0.26712711229E+01  0.75403974304E+02  0.91278392856E+02  0.50000000000E+02 0.  0.
<mgrwt>
<rscale>  0 0.51439145E+02</rscale>
<asrwt>0</asrwt>
<pdfrwt beam="1">  1       13 0.10000000E+01 0.51439145E+02</pdfrwt>
<pdfrwt beam="2">  1       22 0.10128194E+00 0.51439145E+02</pdfrwt>
<totfact> 0.13821068E+00</totfact>
</mgrwt>
</event>
<event>
 4    1  0.2489496E+000  0.5669873E+02  0.7957747E-01  0.1412232E+00
         13   -1    0    0    0    0  0.00000000000E+00  0.00000000000E+00  0.99999944185E+02  0.10000000001E+03  0.10566000000E+00 0. -1.
         22   -1    0    0    0    0 -0.00000000000E+00 -0.00000000000E+00 -0.17760531711E+02  0.17760531711E+02  0.00000000000E+00 0. -1.
         13    1    1    2    0    0  0.25715303924E+01 -0.26610767289E+02  0.34458865970E+02  0.43613877519E+02  0.10566000000E+00 0.  1.
        996    1    1    2    0    0 -0.25715303924E+01  0.26610767289E+02  0.47780546505E+02  0.74146654197E+02  0.50000000000E+02 0.  0.
<mgrwt>
<rscale>  0 0.56698728E+02</rscale>
<asrwt>0</asrwt>
<pdfrwt beam="1">  1       13 0.10000000E+01 0.56698728E+02</pdfrwt>
<pdfrwt beam="2">  1       22 0.17760555E+00 0.56698728E+02</pdfrwt>
<totfact> 0.56753235E-01</totfact>
</mgrwt>
</event>
<event>
 4    1  0.2489496E+000  0.8117460E+02  0.7957747E-01  0.1325751E+00
         13   -1    0    0    0    0  0.00000000000E+00  0.00000000000E+00  0.99999944172E+02  0.99999999992E+02  0.10566000000E+00 0.  1.
         22   -1    0    0    0    0 -0.00000000000E+00 -0.00000000000E+00 -0.64639921190E+02  0.64639921190E+02  0.00000000000E+00 0. -1.
         13    1    1    2    0    0 -0.76134685018E+01  0.63492916454E+02 -0.19277305436E+02  0.66790276323E+02  0.10566000000E+00 0. -1.
        996    1    1    2    0    0  0.76134685018E+01 -0.63492916454E+02  0.54637328418E+02  0.97849644859E+02  0.50000000000E+02 0.  0.
<mgrwt>
<rscale>  0 0.81174598E+02</rscale>
<asrwt>0</asrwt>
<pdfrwt beam="1">  1       13 0.10000000E+01 0.81174598E+02</pdfrwt>
<pdfrwt beam="2">  1       22 0.64639931E+00 0.81174598E+02</pdfrwt>
<totfact> 0.85531288E-02</totfact>
</mgrwt>
</event>
<event>
 4    1  0.2489496E+000  0.5215040E+02  0.7957747E-01  0.1434076E+00
         13   -1    0    0    0    0  0.00000000000E+00  0.00000000000E+00  0.99999944179E+02  0.99999999999E+02  0.10566000000E+00 0.  1.
         22   -1    0    0    0    0 -0.00000000000E+00 -0.00000000000E+00 -0.11240958699E+02  0.11240958699E+02  0.00000000000E+00 0.  1.
         13    1    1    2    0    0  0.14790571166E+02  0.95021947647E+00  0.22007134860E+02  0.26532792187E+02  0.10566000000E+00 0. -1.
        996    1    1    2    0    0 -0.14790571166E+02 -0.95021947647E+00  0.66751850620E+02  0.84708166511E+02  0.50000000000E+02 0.  0.
<mgrwt>
<rscale>  0 0.52150397E+02</rscale>
<asrwt>0</asrwt>
<pdfrwt beam="1">  1       13 0.10000000E+01 0.52150397E+02</pdfrwt>
<pdfrwt beam="2">  1       22 0.11240983E+00 0.52150397E+02</pdfrwt>
<totfact> 0.11871178E+00</totfact>
</mgrwt>
</event>
<event>
 4    1  0.2489496E+000  0.5135556E+02  0.7957747E-01  0.1438164E+00
         13   -1    0    0    0    0  0.00000000000E+00  0.00000000000E+00  0.99999944171E+02  0.99999999992E+02  0.10566000000E+00 0. -1.
         22   -1    0    0    0    0 -0.00000000000E+00 -0.00000000000E+00 -0.20590340601E+02  0.20590340601E+02  0.00000000000E+00 0.  1.
         13    1    1    2    0    0  0.15133682488E+01  0.11623412398E+02 -0.11344909022E+02  0.16312943450E+02  0.10566000000E+00 0.  1.
        996    1    1    2    0    0 -0.15133682488E+01 -0.11623412398E+02  0.90754512592E+02  0.10427739714E+03  0.50000000000E+02 0.  0.
<mgrwt>
<rscale>  0 0.51355564E+02</rscale>
<asrwt>0</asrwt>
<pdfrwt beam="1">  1       13 0.10000000E+01 0.51355564E+02</pdfrwt>
<pdfrwt beam="2">  1       22 0.20590363E+00 0.51355564E+02</pdfrwt>
<totfact> 0.42853808E-01</totfact>
</mgrwt>
</event>
<event>
 4    1  0.2489496E+000  0.7183733E+02  0.7957747E-01  0.1353954E+00
         13   -1    0    0    0    0  0.00000000000E+00  0.00000000000E+00  0.99999944173E+02  0.99999999993E+02  0.10566000000E+00 0.  1.
         22   -1    0    0    0    0 -0.00000000000E+00 -0.00000000000E+00 -0.38590962164E+02  0.38590962164E+02  0.00000000000E+00 0. -1.
         13    1    1    2    0    0  0.47935601155E+02  0.19046779245E+02  0.17866908790E+02  0.54587903893E+02  0.10566000000E+00 0. -1.
        996    1    1    2    0    0 -0.47935601155E+02 -0.19046779245E+02  0.43542073219E+02  0.84003058265E+02  0.50000000000E+02 0.  0.
<mgrwt>
<rscale>  0 0.71837328E+02</rscale>
<asrwt>0</asrwt>
<pdfrwt beam="1">  1       13 0.10000000E+01 0.71837328E+02</pdfrwt>
<pdfrwt beam="2">  1       22 0.38590979E+00 0.71837328E+02</pdfrwt>
<totfact> 0.13409473E-01</totfact>
</mgrwt>
</event>
<event>
 4    1  0.2489496E+000  0.5140772E+02  0.7957747E-01  0.1437893E+00
         13   -1    0    0    0    0  0.00000000000E+00  0.00000000000E+00  0.99999944179E+02  0.99999999999E+02  0.10566000000E+00 0.  1.
         22   -1    0    0    0    0 -0.00000000000E+00 -0.00000000000E+00 -0.11143161855E+02  0.11143161855E+02  0.00000000000E+00 0.  1.
         13    1    1    2    0    0 -0.28405984800E+01 -0.11605382701E+02  0.53731773125E+01  0.13100996368E+02  0.10566000000E+00 0. -1.
        996    1    1    2    0    0  0.28405984800E+01  0.11605382701E+02  0.83483605012E+02  0.98042165486E+02  0.50000000000E+02 0.  0.
<mgrwt>
<rscale>  0 0.51407722E+02</rscale>
<asrwt>0</asrwt>
<pdfrwt beam="1">  1       13 0.10000000E+01 0.51407722E+02</pdfrwt>
<pdfrwt beam="2">  1       22 0.11143187E+00 0.51407722E+02</pdfrwt>
<totfact> 0.12006753E+00</totfact>
</mgrwt>
</event>
<event>
 4    1  0.2489496E+000  0.5790446E+02  0.7957747E-01  0.1406842E+00
         13   -1    0    0    0    0  0.00000000000E+00  0.00000000000E+00  0.99999944195E+02  0.10000000002E+03  0.10566000000E+00 0. -1.
         22   -1    0    0    0    0 -0.00000000000E+00 -0.00000000000E+00 -0.67370775284E+02  0.67370775284E+02  0.00000000000E+00 0. -1.
         13    1    1    2    0    0  0.13288769228E+02 -0.26006453944E+02 -0.55038025449E+02  0.62306680570E+02  0.10566000000E+00 0.  1.
        996    1    1    2    0    0 -0.13288769228E+02  0.26006453944E+02  0.87667194360E+02  0.10506409473E+03  0.50000000000E+02 0.  0.
<mgrwt>
<rscale>  0 0.57904465E+02</rscale>
<asrwt>0</asrwt>
<pdfrwt beam="1">  1       13 0.10000000E+01 0.57904465E+02</pdfrwt>
<pdfrwt beam="2">  1       22 0.67370784E+00 0.57904465E+02</pdfrwt>
<totfact> 0.85404140E-02</totfact>
</mgrwt>
</event>
<event>
 4    1  0.2489496E+000  0.5130415E+02  0.7957747E-01  0.1438432E+00
         13   -1    0    0    0    0  0.00000000000E+00  0.00000000000E+00  0.99999944180E+02  0.10000000000E+03  0.10566000000E+00 0. -1.
         22   -1    0    0    0    0 -0.00000000000E+00 -0.00000000000E+00 -0.15281374412E+02  0.15281374412E+02  0.00000000000E+00 0. -1.
         13    1    1    2    0    0 -0.11025943406E+02  0.32472180136E+01 -0.45158178153E+01  0.12349883700E+02  0.10566000000E+00 0.  1.
        996    1    1    2    0    0  0.11025943406E+02 -0.32472180136E+01  0.89234387584E+02  0.10293149071E+03  0.50000000000E+02 0.  0.
<mgrwt>
<rscale>  0 0.51304150E+02</rscale>
<asrwt>0</asrwt>
<pdfrwt beam="1">  1       13 0.10000000E+01 0.51304150E+02</pdfrwt>
<pdfrwt beam="2">  1       22 0.15281398E+00 0.51304150E+02</pdfrwt>
<totfact> 0.72886173E-01</totfact>
</mgrwt>
</event>
<event>
 4    1  0.2489496E+000  0.5144254E+02  0.7957747E-01  0.1437713E+00
         13   -1    0    0    0    0  0.00000000000E+00  0.00000000000E+00  0.99999944182E+02  0.10000000000E+03  0.10566000000E+00 0. -1.
         22   -1    0    0    0    0 -0.00000000000E+00 -0.00000000000E+00 -0.12827492851E+02  0.12827492851E+02  0.00000000000E+00 0. -1.
         13    1    1    2    0    0  0.11943721983E+02 -0.19189510422E+01  0.58505458422E+00  0.12111495399E+02  0.10566000000E+00 0.  1.
        996    1    1    2    0    0 -0.11943721983E+02  0.19189510422E+01  0.86587396747E+02  0.10071599745E+03  0.50000000000E+02 0.  0.
<mgrwt>
<rscale>  0 0.51442539E+02</rscale>
<asrwt>0</asrwt>
<pdfrwt beam="1">  1       13 0.10000000E+01 0.51442539E+02</pdfrwt>
<pdfrwt beam="2">  1       22 0.12827517E+00 0.51442539E+02</pdfrwt>
<totfact> 0.96822335E-01</totfact>
</mgrwt>
</event>
<event>
 4    1  0.2489496E+000  0.5296468E+02  0.7957747E-01  0.1429977E+00
         13   -1    0    0    0    0  0.00000000000E+00  0.00000000000E+00  0.99999944178E+02  0.99999999998E+02  0.10566000000E+00 0.  1.
         22   -1    0    0    0    0 -0.00000000000E+00 -0.00000000000E+00 -0.12851501701E+02  0.12851501701E+02  0.00000000000E+00 0. -1.
         13    1    1    2    0    0  0.37862422846E+01 -0.17056419141E+02  0.31539271583E+02  0.36055427894E+02  0.10566000000E+00 0. -1.
        996    1    1    2    0    0 -0.37862422846E+01  0.17056419141E+02  0.55609170894E+02  0.76796073806E+02  0.50000000000E+02 0.  0.
<mgrwt>
<rscale>  0 0.52964678E+02</rscale>
<asrwt>0</asrwt>
<pdfrwt beam="1">  1       13 0.10000000E+01 0.52964678E+02</pdfrwt>
<pdfrwt beam="2">  1       22 0.12851526E+00 0.52964678E+02</pdfrwt>
<totfact> 0.96857749E-01</totfact>
</mgrwt>
</event>
<event>
 4    1  0.2489496E+000  0.5150750E+02  0.7957747E-01  0.1437376E+00
         13   -1    0    0    0    0  0.00000000000E+00  0.00000000000E+00  0.99999944183E+02  0.10000000000E+03  0.10566000000E+00 0. -1.
         22   -1    0    0    0    0 -0.00000000000E+00 -0.00000000000E+00 -0.10618447841E+02  0.10618447841E+02  0.00000000000E+00 0. -1.
         13    1    1    2    0    0 -0.30388446754E+01 -0.11991148463E+02  0.96173411580E+01  0.15669289499E+02  0.10566000000E+00 0.  1.
        996    1    1    2    0    0  0.30388446754E+01  0.11991148463E+02  0.79764155184E+02  0.94949158346E+02  0.50000000000E+02 0.  0.
<mgrwt>
<rscale>  0 0.51507497E+02</rscale>
<asrwt>0</asrwt>
<pdfrwt beam="1">  1       13 0.10000000E+01 0.51507497E+02</pdfrwt>
<pdfrwt beam="2">  1       22 0.10618473E+00 0.51507497E+02</pdfrwt>
<totfact> 0.12899856E+00</totfact>
</mgrwt>
</event>
<event>
 4    1  0.2489496E+000  0.5447942E+02  0.7957747E-01  0.1422577E+00
         13   -1    0    0    0    0  0.00000000000E+00  0.00000000000E+00  0.99999944179E+02  0.99999999999E+02  0.10566000000E+00 0.  1.
         22   -1    0    0    0    0 -0.00000000000E+00 -0.00000000000E+00 -0.14634637980E+02  0.14634637980E+02  0.00000000000E+00 0. -1.
         13    1    1    2    0    0  0.16381211382E+02 -0.14130212186E+02  0.19184937344E+02  0.28915047427E+02  0.10566000000E+00 0. -1.
        996    1    1    2    0    0 -0.16381211382E+02  0.14130212186E+02  0.66180368854E+02  0.85719590552E+02  0.50000000000E+02 0.  0.
<mgrwt>
<rscale>  0 0.54479418E+02</rscale>
<asrwt>0</asrwt>
<pdfrwt beam="1">  1       13 0.10000000E+01 0.54479418E+02</pdfrwt>
<pdfrwt beam="2">  1       22 0.14634662E+00 0.54479418E+02</pdfrwt>
<totfact> 0.78824879E-01</totfact>
</mgrwt>
</event>
<event>
 4    1  0.2489496E+000  0.5545949E+02  0.7957747E-01  0.1417938E+00
         13   -1    0    0    0    0  0.00000000000E+00  0.00000000000E+00  0.99999944177E+02  0.99999999997E+02  0.10566000000E+00 0. -1.
         22   -1    0    0    0    0 -0.00000000000E+00 -0.00000000000E+00 -0.61808438308E+02  0.61808438308E+02  0.00000000000E+00 0.  1.
         13    1    1    2    0    0  0.22785653781E+02  0.75212691020E+01 -0.51237996620E+02  0.56578255265E+02  0.10566000000E+00 0.  1.
        996    1    1    2    0    0 -0.22785653781E+02 -0.75212691020E+01  0.89429502489E+02  0.10523018304E+03  0.50000000000E+02 0.  0.
<mgrwt>
<rscale>  0 0.55459494E+02</rscale>
<asrwt>0</asrwt>
<pdfrwt beam="1">  1       13 0.10000000E+01 0.55459494E+02</pdfrwt>
<pdfrwt beam="2">  1       22 0.61808449E+00 0.55459494E+02</pdfrwt>
<totfact> 0.71806333E-02</totfact>
</mgrwt>
</event>
<event>
 4    1  0.2489496E+000  0.6295891E+02  0.7957747E-01  0.1385818E+00
         13   -1    0    0    0    0  0.00000000000E+00  0.00000000000E+00  0.99999944173E+02  0.99999999994E+02  0.10566000000E+00 0.  1.
         22   -1    0    0    0    0 -0.00000000000E+00 -0.00000000000E+00 -0.38510590658E+02  0.38510590658E+02  0.00000000000E+00 0. -1.
         13    1    1    2    0    0  0.57624641163E+01  0.37823521880E+02 -0.13522035570E+02  0.40579322445E+02  0.10566000000E+00 0. -1.
        996    1    1    2    0    0 -0.57624641163E+01 -0.37823521880E+02  0.75011389086E+02  0.97931268207E+02  0.50000000000E+02 0.  0.
<mgrwt>
<rscale>  0 0.62958914E+02</rscale>
<asrwt>0</asrwt>
<pdfrwt beam="1">  1       13 0.10000000E+01 0.62958914E+02</pdfrwt>
<pdfrwt beam="2">  1       22 0.38510608E+00 0.62958914E+02</pdfrwt>
<totfact> 0.13383261E-01</totfact>
</mgrwt>
</event>
<event>
 4    1  0.2489496E+000  0.5449302E+02  0.7957747E-01  0.1422512E+00
         13   -1    0    0    0    0  0.00000000000E+00  0.00000000000E+00  0.99999944176E+02  0.99999999996E+02  0.10566000000E+00 0.  1.
         22   -1    0    0    0    0 -0.00000000000E+00 -0.00000000000E+00 -0.15646351486E+02  0.15646351486E+02  0.00000000000E+00 0.  1.
         13    1    1    2    0    0  0.20182659060E+02 -0.78834874435E+01  0.11096179997E+02  0.24343900171E+02  0.10566000000E+00 0. -1.
        996    1    1    2    0    0 -0.20182659060E+02  0.78834874435E+01  0.73257412693E+02  0.91302451311E+02  0.50000000000E+02 0.  0.
<mgrwt>
<rscale>  0 0.54493019E+02</rscale>
<asrwt>0</asrwt>
<pdfrwt beam="1">  1       13 0.10000000E+01 0.54493019E+02</pdfrwt>
<pdfrwt beam="2">  1       22 0.15646375E+00 0.54493019E+02</pdfrwt>
<totfact> 0.70485832E-01</totfact>
</mgrwt>
</event>
<event>
 4    1  0.2489496E+000  0.6497462E+02  0.7957747E-01  0.1378067E+00
         13   -1    0    0    0    0  0.00000000000E+00  0.00000000000E+00  0.99999944176E+02  0.99999999997E+02  0.10566000000E+00 0. -1.
         22   -1    0    0    0    0 -0.00000000000E+00 -0.00000000000E+00 -0.28602929063E+02  0.28602929063E+02  0.00000000000E+00 0.  1.
         13    1    1    2    0    0 -0.19708078817E+02  0.36514277376E+02  0.33928285719E+02  0.53598885799E+02  0.10566000000E+00 0.  1.
        996    1    1    2    0    0  0.19708078817E+02 -0.36514277376E+02  0.37468729395E+02  0.75004043260E+02  0.50000000000E+02 0.  0.
<mgrwt>
<rscale>  0 0.64974617E+02</rscale>
<asrwt>0</asrwt>
<pdfrwt beam="1">  1       13 0.10000000E+01 0.64974617E+02</pdfrwt>
<pdfrwt beam="2">  1       22 0.28602949E+00 0.64974617E+02</pdfrwt>
<totfact> 0.23027038E-01</totfact>
</mgrwt>
</event>
<event>
 4    1  0.2489496E+000  0.5538406E+02  0.7957747E-01  0.1418291E+00
         13   -1    0    0    0    0  0.00000000000E+00  0.00000000000E+00  0.99999944178E+02  0.99999999998E+02  0.10566000000E+00 0.  1.
         22   -1    0    0    0    0 -0.00000000000E+00 -0.00000000000E+00 -0.66810285503E+02  0.66810285503E+02  0.00000000000E+00 0. -1.
         13    1    1    2    0    0 -0.22627101505E+02  0.74436531544E+01 -0.56546575282E+02  0.61358944213E+02  0.10566000000E+00 0. -1.
        996    1    1    2    0    0  0.22627101505E+02 -0.74436531544E+01  0.89736233956E+02  0.10545134129E+03  0.50000000000E+02 0.  0.
<mgrwt>
<rscale>  0 0.55384056E+02</rscale>
<asrwt>0</asrwt>
<pdfrwt beam="1">  1       13 0.10000000E+01 0.55384056E+02</pdfrwt>
<pdfrwt beam="2">  1       22 0.66810295E+00 0.55384056E+02</pdfrwt>
<totfact> 0.86605553E-02</totfact>
</mgrwt>
</event>
<event>
 4    1  0.2489496E+000  0.7027673E+02  0.7957747E-01  0.1359155E+00
         13   -1    0    0    0    0  0.00000000000E+00  0.00000000000E+00  0.99999944177E+02  0.99999999997E+02  0.10566000000E+00 0.  1.
         22   -1    0    0    0    0 -0.00000000000E+00 -0.00000000000E+00 -0.61095273327E+02  0.61095273327E+02  0.00000000000E+00 0. -1.
         13    1    1    2    0    0  0.41143495445E+02 -0.27313581247E+02 -0.33904203038E+02  0.59902630040E+02  0.10566000000E+00 0. -1.
        996    1    1    2    0    0 -0.41143495445E+02  0.27313581247E+02  0.72808873888E+02  0.10119264328E+03  0.50000000000E+02 0.  0.
<mgrwt>
<rscale>  0 0.70276731E+02</rscale>
<asrwt>0</asrwt>
<pdfrwt beam="1">  1       13 0.10000000E+01 0.70276731E+02</pdfrwt>
<pdfrwt beam="2">  1       22 0.61095284E+00 0.70276731E+02</pdfrwt>
<totfact> 0.68139263E-02</totfact>
</mgrwt>
</event>
<event>
 4    1  0.2489496E+000  0.5527711E+02  0.7957747E-01  0.1418793E+00
         13   -1    0    0    0    0  0.00000000000E+00  0.00000000000E+00  0.99999944167E+02  0.99999999988E+02  0.10566000000E+00 0.  1.
         22   -1    0    0    0    0 -0.00000000000E+00 -0.00000000000E+00 -0.24852986642E+02  0.24852986642E+02  0.00000000000E+00 0. -1.
         13    1    1    2    0    0 -0.10587277438E+02  0.21058687640E+02 -0.81012584816E+01  0.24923890581E+02  0.10566000000E+00 0. -1.
        996    1    1    2    0    0  0.10587277438E+02 -0.21058687640E+02  0.83248216007E+02  0.99929096048E+02  0.50000000000E+02 0.  0.
<mgrwt>
<rscale>  0 0.55277109E+02</rscale>
<asrwt>0</asrwt>
<pdfrwt beam="1">  1       13 0.10000000E+01 0.55277109E+02</pdfrwt>
<pdfrwt beam="2">  1       22 0.24853008E+00 0.55277109E+02</pdfrwt>
<totfact> 0.29972791E-01</totfact>
</mgrwt>
</event>
<event>
 4    1  0.2489496E+000  0.5152025E+02  0.7957747E-01  0.1437310E+00
         13   -1    0    0    0    0  0.00000000000E+00  0.00000000000E+00  0.99999944175E+02  0.99999999995E+02  0.10566000000E+00 0.  1.
         22   -1    0    0    0    0 -0.00000000000E+00 -0.00000000000E+00 -0.13441152574E+02  0.13441152574E+02  0.00000000000E+00 0.  1.
         13    1    1    2    0    0  0.56173064990E+01  0.11080687769E+02 -0.32806725595E+00  0.12427975132E+02  0.10566000000E+00 0. -1.
        996    1    1    2    0    0 -0.56173064990E+01 -0.11080687769E+02  0.86886858857E+02  0.10101317744E+03  0.50000000000E+02 0.  0.
<mgrwt>
<rscale>  0 0.51520246E+02</rscale>
<asrwt>0</asrwt>
<pdfrwt beam="1">  1       13 0.10000000E+01 0.51520246E+02</pdfrwt>
<pdfrwt beam="2">  1       22 0.13441177E+00 0.51520246E+02</pdfrwt>
<totfact> 0.89942695E-01</totfact>
</mgrwt>
</event>
<event>
 4    1  0.2489496E+000  0.5260473E+02  0.7957747E-01  0.1431778E+00
         13   -1    0    0    0    0  0.00000000000E+00  0.00000000000E+00  0.99999944178E+02  0.99999999999E+02  0.10566000000E+00 0. -1.
         22   -1    0    0    0    0 -0.00000000000E+00 -0.00000000000E+00 -0.14342291237E+02  0.14342291237E+02  0.00000000000E+00 0.  1.
         13    1    1    2    0    0  0.16346853614E+02  0.19501201641E+00  0.33936241140E+01  0.16696871007E+02  0.10566000000E+00 0.  1.
        996    1    1    2    0    0 -0.16346853614E+02 -0.19501201641E+00  0.82264028827E+02  0.97645420229E+02  0.50000000000E+02 0.  0.
<mgrwt>
<rscale>  0 0.52604730E+02</rscale>
<asrwt>0</asrwt>
<pdfrwt beam="1">  1       13 0.10000000E+01 0.52604730E+02</pdfrwt>
<pdfrwt beam="2">  1       22 0.14342315E+00 0.52604730E+02</pdfrwt>
<totfact> 0.81176848E-01</totfact>
</mgrwt>
</event>
<event>
 4    1  0.2489496E+000  0.5278679E+02  0.7957747E-01  0.1430865E+00
         13   -1    0    0    0    0  0.00000000000E+00  0.00000000000E+00  0.99999944184E+02  0.10000000000E+03  0.10566000000E+00 0.  1.
         22   -1    0    0    0    0 -0.00000000000E+00 -0.00000000000E+00 -0.12318587798E+02  0.12318587798E+02  0.00000000000E+00 0. -1.
         13    1    1    2    0    0  0.16866827440E+02 -0.13983526229E+01  0.15938502790E+02  0.23248490127E+02  0.10566000000E+00 0. -1.
        996    1    1    2    0    0 -0.16866827440E+02  0.13983526229E+01  0.71742853595E+02  0.89070097676E+02  0.50000000000E+02 0.  0.
<mgrwt>
<rscale>  0 0.52786791E+02</rscale>
<asrwt>0</asrwt>
<pdfrwt beam="1">  1       13 0.10000000E+01 0.52786791E+02</pdfrwt>
<pdfrwt beam="2">  1       22 0.12318612E+00 0.52786791E+02</pdfrwt>
<totfact> 0.10342457E+00</totfact>
</mgrwt>
</event>
<event>
 4    1  0.2489496E+000  0.5882266E+02  0.7957747E-01  0.1402840E+00
         13   -1    0    0    0    0  0.00000000000E+00  0.00000000000E+00  0.99999944174E+02  0.99999999995E+02  0.10566000000E+00 0.  1.
         22   -1    0    0    0    0 -0.00000000000E+00 -0.00000000000E+00 -0.20638058069E+02  0.20638058069E+02  0.00000000000E+00 0. -1.
         13    1    1    2    0    0 -0.30870249420E+02 -0.26708364071E+01  0.18960523126E+02  0.36326550450E+02  0.10566000000E+00 0. -1.
        996    1    1    2    0    0  0.30870249420E+02  0.26708364071E+01  0.60401362979E+02  0.84311507614E+02  0.50000000000E+02 0.  0.
<mgrwt>
<rscale>  0 0.58822663E+02</rscale>
<asrwt>0</asrwt>
<pdfrwt beam="1">  1       13 0.10000000E+01 0.58822663E+02</pdfrwt>
<pdfrwt beam="2">  1       22 0.20638080E+00 0.58822663E+02</pdfrwt>
<totfact> 0.43200316E-01</totfact>
</mgrwt>
</event>
<event>
 4    1  0.2489496E+000  0.5164793E+02  0.7957747E-01  0.1436650E+00
         13   -1    0    0    0    0  0.00000000000E+00  0.00000000000E+00  0.99999944181E+02  0.10000000000E+03  0.10566000000E+00 0. -1.
         22   -1    0    0    0    0 -0.00000000000E+00 -0.00000000000E+00 -0.22594326972E+02  0.22594326972E+02  0.00000000000E+00 0.  1.
         13    1    1    2    0    0 -0.78071701901E+01 -0.10322649304E+02 -0.13083154646E+02  0.18403507670E+02  0.10566000000E+00 0.  1.
        996    1    1    2    0    0  0.78071701901E+01  0.10322649304E+02  0.90488771856E+02  0.10419081930E+03  0.50000000000E+02 0.  0.
<mgrwt>
<rscale>  0 0.51647933E+02</rscale>
<asrwt>0</asrwt>
<pdfrwt beam="1">  1       13 0.10000000E+01 0.51647933E+02</pdfrwt>
<pdfrwt beam="2">  1       22 0.22594349E+00 0.51647933E+02</pdfrwt>
<totfact> 0.35903812E-01</totfact>
</mgrwt>
</event>
<event>
 4    1  0.2489496E+000  0.5153160E+02  0.7957747E-01  0.1437251E+00
         13   -1    0    0    0    0  0.00000000000E+00  0.00000000000E+00  0.99999944178E+02  0.99999999998E+02  0.10566000000E+00 0.  1.
         22   -1    0    0    0    0 -0.00000000000E+00 -0.00000000000E+00 -0.12556200083E+02  0.12556200083E+02  0.00000000000E+00 0.  1.
         13    1    1    2    0    0 -0.11117837312E+02 -0.56479319227E+01  0.17936091010E+01  0.12598953891E+02  0.10566000000E+00 0. -1.
        996    1    1    2    0    0  0.11117837312E+02  0.56479319227E+01  0.85650134994E+02  0.99957246190E+02  0.50000000000E+02 0.  0.
<mgrwt>
<rscale>  0 0.51531597E+02</rscale>
<asrwt>0</asrwt>
<pdfrwt beam="1">  1       13 0.10000000E+01 0.51531597E+02</pdfrwt>
<pdfrwt beam="2">  1       22 0.12556224E+00 0.51531597E+02</pdfrwt>
<totfact> 0.10012841E+00</totfact>
</mgrwt>
</event>
<event>
 4    1  0.2489496E+000  0.5696486E+02  0.7957747E-01  0.1411029E+00
         13   -1    0    0    0    0  0.00000000000E+00  0.00000000000E+00  0.99999944177E+02  0.99999999998E+02  0.10566000000E+00 0.  1.
         22   -1    0    0    0    0 -0.00000000000E+00 -0.00000000000E+00 -0.18168311109E+02  0.18168311109E+02  0.00000000000E+00 0. -1.
         13    1    1    2    0    0  0.25418570428E+02  0.99444178966E+01  0.35253369173E+02  0.44584822215E+02  0.10566000000E+00 0. -1.
        996    1    1    2    0    0 -0.25418570428E+02 -0.99444178966E+01  0.46578263896E+02  0.73583488891E+02  0.50000000000E+02 0.  0.
<mgrwt>
<rscale>  0 0.56964859E+02</rscale>
<asrwt>0</asrwt>
<pdfrwt beam="1">  1       13 0.10000000E+01 0.56964859E+02</pdfrwt>
<pdfrwt beam="2">  1       22 0.18168334E+00 0.56964859E+02</pdfrwt>
<totfact> 0.54511614E-01</totfact>
</mgrwt>
</event>
<event>
 4    1  0.2489496E+000  0.5547651E+02  0.7957747E-01  0.1417859E+00
         13   -1    0    0    0    0  0.00000000000E+00  0.00000000000E+00  0.99999944179E+02  0.99999999999E+02  0.10566000000E+00 0.  1.
         22   -1    0    0    0    0 -0.00000000000E+00 -0.00000000000E+00 -0.75768731097E+02  0.75768731097E+02  0.00000000000E+00 0. -1.
         13    1    1    2    0    0  0.12620168203E+02 -0.20454198718E+02 -0.65780847762E+02  0.70034091605E+02  0.10566000000E+00 0. -1.
        996    1    1    2    0    0 -0.12620168203E+02  0.20454198718E+02  0.90012060844E+02  0.10573463949E+03  0.50000000000E+02 0.  0.
<mgrwt>
<rscale>  0 0.55476508E+02</rscale>
<asrwt>0</asrwt>
<pdfrwt beam="1">  1       13 0.10000000E+01 0.55476508E+02</pdfrwt>
<pdfrwt beam="2">  1       22 0.75768738E+00 0.55476508E+02</pdfrwt>
<totfact> 0.45659343E-02</totfact>
</mgrwt>
</event>
<event>
 4    1  0.2489496E+000  0.5128161E+02  0.7957747E-01  0.1438549E+00
         13   -1    0    0    0    0  0.00000000000E+00  0.00000000000E+00  0.99999944180E+02  0.10000000000E+03  0.10566000000E+00 0.  1.
         22   -1    0    0    0    0 -0.00000000000E+00 -0.00000000000E+00 -0.20818201659E+02  0.20818201659E+02  0.00000000000E+00 0. -1.
         13    1    1    2    0    0  0.11337043289E+02  0.11290031311E+01 -0.11785185265E+02  0.16392222374E+02  0.10566000000E+00 0. -1.
        996    1    1    2    0    0 -0.11337043289E+02 -0.11290031311E+01  0.90966927786E+02  0.10442597928E+03  0.50000000000E+02 0.  0.
<mgrwt>
<rscale>  0 0.51281607E+02</rscale>
<asrwt>0</asrwt>
<pdfrwt beam="1">  1       13 0.10000000E+01 0.51281607E+02</pdfrwt>
<pdfrwt beam="2">  1       22 0.20818224E+00 0.51281607E+02</pdfrwt>
<totfact> 0.41967496E-01</totfact>
</mgrwt>
</event>
<event>
 4    1  0.2489496E+000  0.5343813E+02  0.7957747E-01  0.1427633E+00
         13   -1    0    0    0    0  0.00000000000E+00  0.00000000000E+00  0.99999944178E+02  0.99999999998E+02  0.10566000000E+00 0. -1.
         22   -1    0    0    0    0 -0.00000000000E+00 -0.00000000000E+00 -0.28300569334E+02  0.28300569334E+02  0.00000000000E+00 0.  1.
         13    1    1    2    0    0  0.98588719120E+01 -0.16075970677E+02 -0.16577728828E+02  0.25109090898E+02  0.10566000000E+00 0.  1.
        996    1    1    2    0    0 -0.98588719120E+01  0.16075970677E+02  0.88277103672E+02  0.10319147843E+03  0.50000000000E+02 0.  0.
<mgrwt>
<rscale>  0 0.53438134E+02</rscale>
<asrwt>0</asrwt>
<pdfrwt beam="1">  1       13 0.10000000E+01 0.53438134E+02</pdfrwt>
<pdfrwt beam="2">  1       22 0.28300589E+00 0.53438134E+02</pdfrwt>
<totfact> 0.23175046E-01</totfact>
</mgrwt>
</event>
<event>
 4    1  0.2489496E+000  0.5758368E+02  0.7957747E-01  0.1408261E+00
         13   -1    0    0    0    0  0.00000000000E+00  0.00000000000E+00  0.99999944179E+02  0.10000000000E+03  0.10566000000E+00 0.  1.
         22   -1    0    0    0    0 -0.00000000000E+00 -0.00000000000E+00 -0.55481811846E+02  0.55481811846E+02  0.00000000000E+00 0. -1.
         13    1    1    2    0    0  0.26848741768E+02  0.97480733241E+01 -0.42457455374E+02  0.51171540420E+02  0.10566000000E+00 0. -1.
        996    1    1    2    0    0 -0.26848741768E+02 -0.97480733241E+01  0.86975587707E+02  0.10431027143E+03  0.50000000000E+02 0.  0.
<mgrwt>
<rscale>  0 0.57583677E+02</rscale>
<asrwt>0</asrwt>
<pdfrwt beam="1">  1       13 0.10000000E+01 0.57583677E+02</pdfrwt>
<pdfrwt beam="2">  1       22 0.55481824E+00 0.57583677E+02</pdfrwt>
<totfact> 0.58901366E-02</totfact>
</mgrwt>
</event>
<event>
 4    1  0.2489496E+000  0.5226285E+02  0.7957747E-01  0.1433505E+00
         13   -1    0    0    0    0  0.00000000000E+00  0.00000000000E+00  0.99999944185E+02  0.10000000001E+03  0.10566000000E+00 0.  1.
         22   -1    0    0    0    0 -0.00000000000E+00 -0.00000000000E+00 -0.69757299922E+02  0.69757299922E+02  0.00000000000E+00 0. -1.
         13    1    1    2    0    0  0.12406183287E+02 -0.88029707013E+01 -0.61945098857E+02  0.63785673261E+02  0.10566000000E+00 0. -1.
        996    1    1    2    0    0 -0.12406183287E+02  0.88029707013E+01  0.92187743120E+02  0.10597162667E+03  0.50000000000E+02 0.  0.
<mgrwt>
<rscale>  0 0.52262852E+02</rscale>
<asrwt>0</asrwt>
<pdfrwt beam="1">  1       13 0.10000000E+01 0.52262852E+02</pdfrwt>
<pdfrwt beam="2">  1       22 0.69757308E+00 0.52262852E+02</pdfrwt>
<totfact> 0.75871090E-02</totfact>
</mgrwt>
</event>
<event>
 4    1  0.2489496E+000  0.5226849E+02  0.7957747E-01  0.1433476E+00
         13   -1    0    0    0    0  0.00000000000E+00  0.00000000000E+00  0.99999944184E+02  0.10000000000E+03  0.10566000000E+00 0.  1.
         22   -1    0    0    0    0 -0.00000000000E+00 -0.00000000000E+00 -0.31859659689E+02  0.31859659689E+02  0.00000000000E+00 0. -1.
         13    1    1    2    0    0 -0.29867682631E+01  0.14935681204E+02 -0.22534068974E+02  0.27199095320E+02  0.10566000000E+00 0. -1.
        996    1    1    2    0    0  0.29867682631E+01 -0.14935681204E+02  0.90674353469E+02  0.10466056437E+03  0.50000000000E+02 0.  0.
<mgrwt>
<rscale>  0 0.52268493E+02</rscale>
<asrwt>0</asrwt>
<pdfrwt beam="1">  1       13 0.10000000E+01 0.52268493E+02</pdfrwt>
<pdfrwt beam="2">  1       22 0.31859679E+00 0.52268493E+02</pdfrwt>
<totfact> 0.18549913E-01</totfact>
</mgrwt>
</event>
<event>
 4    1  0.2489496E+000  0.6371366E+02  0.7957747E-01  0.1382877E+00
         13   -1    0    0    0    0  0.00000000000E+00  0.00000000000E+00  0.99999944187E+02  0.10000000001E+03  0.10566000000E+00 0.  1.
         22   -1    0    0    0    0 -0.00000000000E+00 -0.00000000000E+00 -0.50536767666E+02  0.50536767666E+02  0.00000000000E+00 0. -1.
         13    1    1    2    0    0  0.88584678860E+01  0.38483212646E+02 -0.29341859033E+02  0.49197418270E+02  0.10566000000E+00 0. -1.
        996    1    1    2    0    0 -0.88584678860E+01 -0.38483212646E+02  0.78805035554E+02  0.10133934940E+03  0.50000000000E+02 0.  0.
<mgrwt>
<rscale>  0 0.63713657E+02</rscale>
<asrwt>0</asrwt>
<pdfrwt beam="1">  1       13 0.10000000E+01 0.63713657E+02</pdfrwt>
<pdfrwt beam="2">  1       22 0.50536781E+00 0.63713657E+02</pdfrwt>
<totfact> 0.71821728E-02</totfact>
</mgrwt>
</event>
<event>
 4    1  0.2489496E+000  0.5105253E+02  0.7957747E-01  0.1439746E+00
         13   -1    0    0    0    0  0.00000000000E+00  0.00000000000E+00  0.99999944174E+02  0.99999999994E+02  0.10566000000E+00 0.  1.
         22   -1    0    0    0    0 -0.00000000000E+00 -0.00000000000E+00 -0.12538783280E+02  0.12538783280E+02  0.00000000000E+00 0.  1.
         13    1    1    2    0    0 -0.96571392560E+01  0.36193908324E+01 -0.10423811293E+01  0.10366197522E+02  0.10566000000E+00 0. -1.
        996    1    1    2    0    0  0.96571392560E+01 -0.36193908324E+01  0.88503542023E+02  0.10217258575E+03  0.50000000000E+02 0.  0.
<mgrwt>
<rscale>  0 0.51052525E+02</rscale>
<asrwt>0</asrwt>
<pdfrwt beam="1">  1       13 0.10000000E+01 0.51052525E+02</pdfrwt>
<pdfrwt beam="2">  1       22 0.12538808E+00 0.51052525E+02</pdfrwt>
<totfact> 0.10023773E+00</totfact>
</mgrwt>
</event>
<event>
 4    1  0.2489496E+000  0.5111633E+02  0.7957747E-01  0.1439412E+00
         13   -1    0    0    0    0  0.00000000000E+00  0.00000000000E+00  0.99999944170E+02  0.99999999990E+02  0.10566000000E+00 0.  1.
         22   -1    0    0    0    0 -0.00000000000E+00 -0.00000000000E+00 -0.19486276429E+02  0.19486276429E+02  0.00000000000E+00 0. -1.
         13    1    1    2    0    0 -0.98212582926E+01 -0.40524726670E+01 -0.10603199671E+02  0.15010618124E+02  0.10566000000E+00 0. -1.
        996    1    1    2    0    0  0.98212582926E+01  0.40524726670E+01  0.91116867412E+02  0.10447565830E+03  0.50000000000E+02 0.  0.
<mgrwt>
<rscale>  0 0.51116334E+02</rscale>
<asrwt>0</asrwt>
<pdfrwt beam="1">  1       13 0.10000000E+01 0.51116334E+02</pdfrwt>
<pdfrwt beam="2">  1       22 0.19486299E+00 0.51116334E+02</pdfrwt>
<totfact> 0.47473689E-01</totfact>
</mgrwt>
</event>
<event>
 4    1  0.2489496E+000  0.5103908E+02  0.7957747E-01  0.1439816E+00
         13   -1    0    0    0    0  0.00000000000E+00  0.00000000000E+00  0.99999944179E+02  0.99999999999E+02  0.10566000000E+00 0.  1.
         22   -1    0    0    0    0 -0.00000000000E+00 -0.00000000000E+00 -0.16474899411E+02  0.16474899411E+02  0.00000000000E+00 0. -1.
         13    1    1    2    0    0 -0.73540894322E+01  0.71347666247E+01 -0.70996731336E+01  0.12466116027E+02  0.10566000000E+00 0. -1.
        996    1    1    2    0    0  0.73540894322E+01 -0.71347666247E+01  0.90624717902E+02  0.10400878338E+03  0.50000000000E+02 0.  0.
<mgrwt>
<rscale>  0 0.51039078E+02</rscale>
<asrwt>0</asrwt>
<pdfrwt beam="1">  1       13 0.10000000E+01 0.51039078E+02</pdfrwt>
<pdfrwt beam="2">  1       22 0.16474923E+00 0.51039078E+02</pdfrwt>
<totfact> 0.64089863E-01</totfact>
</mgrwt>
</event>
<event>
 4    1  0.2489496E+000  0.5276160E+02  0.7957747E-01  0.1430991E+00
         13   -1    0    0    0    0  0.00000000000E+00  0.00000000000E+00  0.99999944171E+02  0.99999999991E+02  0.10566000000E+00 0. -1.
         22   -1    0    0    0    0 -0.00000000000E+00 -0.00000000000E+00 -0.12139890890E+02  0.12139890890E+02  0.00000000000E+00 0. -1.
         13    1    1    2    0    0  0.11712383580E+02  0.12108097532E+02  0.19057067571E+02  0.25435584197E+02  0.10566000000E+00 0.  1.
        996    1    1    2    0    0 -0.11712383580E+02 -0.12108097532E+02  0.68802985710E+02  0.86704306684E+02  0.50000000000E+02 0.  0.
<mgrwt>
<rscale>  0 0.52761595E+02</rscale>
<asrwt>0</asrwt>
<pdfrwt beam="1">  1       13 0.10000000E+01 0.52761595E+02</pdfrwt>
<pdfrwt beam="2">  1       22 0.12139915E+00 0.52761595E+02</pdfrwt>
<totfact> 0.10577632E+00</totfact>
</mgrwt>
</event>
<event>
 4    1  0.2489496E+000  0.5326995E+02  0.7957747E-01  0.1428462E+00
         13   -1    0    0    0    0  0.00000000000E+00  0.00000000000E+00  0.99999944180E+02  0.10000000000E+03  0.10566000000E+00 0. -1.
         22   -1    0    0    0    0 -0.00000000000E+00 -0.00000000000E+00 -0.14533207636E+02  0.14533207636E+02  0.00000000000E+00 0. -1.
         13    1    1    2    0    0 -0.90563395595E+01  0.15989678786E+02  0.69405962403E+01  0.19643577936E+02  0.10566000000E+00 0.  1.
        996    1    1    2    0    0  0.90563395595E+01 -0.15989678786E+02  0.78526140304E+02  0.94889629702E+02  0.50000000000E+02 0.  0.
<mgrwt>
<rscale>  0 0.53269946E+02</rscale>
<asrwt>0</asrwt>
<pdfrwt beam="1">  1       13 0.10000000E+01 0.53269946E+02</pdfrwt>
<pdfrwt beam="2">  1       22 0.14533231E+00 0.53269946E+02</pdfrwt>
<totfact> 0.79542069E-01</totfact>
</mgrwt>
</event>
<event>
 4    1  0.2489496E+000  0.5243339E+02  0.7957747E-01  0.1432642E+00
         13   -1    0    0    0    0  0.00000000000E+00  0.00000000000E+00  0.99999944179E+02  0.10000000000E+03  0.10566000000E+00 0. -1.
         22   -1    0    0    0    0 -0.00000000000E+00 -0.00000000000E+00 -0.13253264383E+02  0.13253264383E+02  0.00000000000E+00 0. -1.
         13    1    1    2    0    0  0.23326877848E+01 -0.15614693225E+02  0.58235587757E+01  0.16828103804E+02  0.10566000000E+00 0.  1.
        996    1    1    2    0    0 -0.23326877848E+01  0.15614693225E+02  0.80923121021E+02  0.96425160578E+02  0.50000000000E+02 0.  0.
<mgrwt>
<rscale>  0 0.52433387E+02</rscale>
<asrwt>0</asrwt>
<pdfrwt beam="1">  1       13 0.10000000E+01 0.52433387E+02</pdfrwt>
<pdfrwt beam="2">  1       22 0.13253289E+00 0.52433387E+02</pdfrwt>
<totfact> 0.92159833E-01</totfact>
</mgrwt>
</event>
<event>
 4    1  0.2489496E+000  0.5614305E+02  0.7957747E-01  0.1414769E+00
         13   -1    0    0    0    0  0.00000000000E+00  0.00000000000E+00  0.99999944179E+02  0.10000000000E+03  0.10566000000E+00 0.  1.
         22   -1    0    0    0    0 -0.00000000000E+00 -0.00000000000E+00 -0.16685447374E+02  0.16685447374E+02  0.00000000000E+00 0. -1.
         13    1    1    2    0    0  0.23362105814E+02  0.10307987948E+02  0.27166840100E+02  0.37283923729E+02  0.10566000000E+00 0. -1.
        996    1    1    2    0    0 -0.23362105814E+02 -0.10307987948E+02  0.56147656705E+02  0.79401523645E+02  0.50000000000E+02 0.  0.
<mgrwt>
<rscale>  0 0.56143055E+02</rscale>
<asrwt>0</asrwt>
<pdfrwt beam="1">  1       13 0.10000000E+01 0.56143055E+02</pdfrwt>
<pdfrwt beam="2">  1       22 0.16685471E+00 0.56143055E+02</pdfrwt>
<totfact> 0.63302583E-01</totfact>
</mgrwt>
</event>
<event>
 4    1  0.2489496E+000  0.5135656E+02  0.7957747E-01  0.1438159E+00
         13   -1    0    0    0    0  0.00000000000E+00  0.00000000000E+00  0.99999944179E+02  0.99999999999E+02  0.10566000000E+00 0. -1.
         22   -1    0    0    0    0 -0.00000000000E+00 -0.00000000000E+00 -0.10729251169E+02  0.10729251169E+02  0.00000000000E+00 0.  1.
         13    1    1    2    0    0 -0.86907160942E+00 -0.11693635267E+02  0.67431354873E+01  0.13526915075E+02  0.10566000000E+00 0.  1.
        996    1    1    2    0    0  0.86907160942E+00  0.11693635267E+02  0.82527557523E+02  0.97202336093E+02  0.50000000000E+02 0.  0.
<mgrwt>
<rscale>  0 0.51356561E+02</rscale>
<asrwt>0</asrwt>
<pdfrwt beam="1">  1       13 0.10000000E+01 0.51356561E+02</pdfrwt>
<pdfrwt beam="2">  1       22 0.10729276E+00 0.51356561E+02</pdfrwt>
<totfact> 0.12699381E+00</totfact>
</mgrwt>
</event>
<event>
 4    1  0.2489496E+000  0.5363424E+02  0.7957747E-01  0.1426670E+00
         13   -1    0    0    0    0  0.00000000000E+00  0.00000000000E+00  0.99999944182E+02  0.10000000000E+03  0.10566000000E+00 0. -1.
         22   -1    0    0    0    0 -0.00000000000E+00 -0.00000000000E+00 -0.19358997644E+02  0.19358997644E+02  0.00000000000E+00 0.  1.
         13    1    1    2    0    0 -0.18824972463E+02  0.47172114607E+01 -0.33596153825E+01  0.19695934905E+02  0.10566000000E+00 0.  1.
        996    1    1    2    0    0  0.18824972463E+02 -0.47172114607E+01  0.84000561920E+02  0.99663062742E+02  0.50000000000E+02 0.  0.
<mgrwt>
<rscale>  0 0.53634240E+02</rscale>
<asrwt>0</asrwt>
<pdfrwt beam="1">  1       13 0.10000000E+01 0.53634240E+02</pdfrwt>
<pdfrwt beam="2">  1       22 0.19359020E+00 0.53634240E+02</pdfrwt>
<totfact> 0.48270804E-01</totfact>
</mgrwt>
</event>
<event>
 4    1  0.2489496E+000  0.5130563E+02  0.7957747E-01  0.1438424E+00
         13   -1    0    0    0    0  0.00000000000E+00  0.00000000000E+00  0.99999944179E+02  0.99999999999E+02  0.10566000000E+00 0. -1.
         22   -1    0    0    0    0 -0.00000000000E+00 -0.00000000000E+00 -0.11029211267E+02  0.11029211267E+02  0.00000000000E+00 0. -1.
         13    1    1    2    0    0 -0.43642439323E+01 -0.10640557105E+02  0.48176199638E+01  0.12469511087E+02  0.10566000000E+00 0.  1.
        996    1    1    2    0    0  0.43642439323E+01  0.10640557105E+02  0.84153112948E+02  0.98559700179E+02  0.50000000000E+02 0.  0.
<mgrwt>
<rscale>  0 0.51305634E+02</rscale>
<asrwt>0</asrwt>
<pdfrwt beam="1">  1       13 0.10000000E+01 0.51305634E+02</pdfrwt>
<pdfrwt beam="2">  1       22 0.11029236E+00 0.51305634E+02</pdfrwt>
<totfact> 0.12189261E+00</totfact>
</mgrwt>
</event>
<event>
 4    1  0.2489496E+000  0.7152879E+02  0.7957747E-01  0.1354970E+00
         13   -1    0    0    0    0  0.00000000000E+00  0.00000000000E+00  0.99999944182E+02  0.10000000000E+03  0.10566000000E+00 0. -1.
         22   -1    0    0    0    0 -0.00000000000E+00 -0.00000000000E+00 -0.44127532093E+02  0.44127532093E+02  0.00000000000E+00 0.  1.
         13    1    1    2    0    0 -0.50903655579E+02  0.50184789830E+01 -0.33553060625E+01  0.51260477226E+02  0.10566000000E+00 0.  1.
        996    1    1    2    0    0  0.50903655579E+02 -0.50184789830E+01  0.59227718152E+02  0.92867054869E+02  0.50000000000E+02 0.  0.
<mgrwt>
<rscale>  0 0.71528786E+02</rscale>
<asrwt>0</asrwt>
<pdfrwt beam="1">  1       13 0.10000000E+01 0.71528786E+02</pdfrwt>
<pdfrwt beam="2">  1       22 0.44127548E+00 0.71528786E+02</pdfrwt>
<totfact> 0.10210321E-01</totfact>
</mgrwt>
</event>
<event>
 4    1  0.2489496E+000  0.5132956E+02  0.7957747E-01  0.1438299E+00
         13   -1    0    0    0    0  0.00000000000E+00  0.00000000000E+00  0.99999944180E+02  0.10000000000E+03  0.10566000000E+00 0.  1.
         22   -1    0    0    0    0 -0.00000000000E+00 -0.00000000000E+00 -0.23119002282E+02  0.23119002282E+02  0.00000000000E+00 0. -1.
         13    1    1    2    0    0 -0.10565697485E+02  0.48051656943E+01 -0.14339416617E+02  0.18448675119E+02  0.10566000000E+00 0. -1.
        996    1    1    2    0    0  0.10565697485E+02 -0.48051656943E+01  0.91220358516E+02  0.10467032716E+03  0.50000000000E+02 0.  0.
<mgrwt>
<rscale>  0 0.51329559E+02</rscale>
<asrwt>0</asrwt>
<pdfrwt beam="1">  1       13 0.10000000E+01 0.51329559E+02</pdfrwt>
<pdfrwt beam="2">  1       22 0.23119024E+00 0.51329559E+02</pdfrwt>
<totfact> 0.34321146E-01</totfact>
</mgrwt>
</event>
<event>
 4    1  0.2489496E+000  0.5740500E+02  0.7957747E-01  0.1409056E+00
         13   -1    0    0    0    0  0.00000000000E+00  0.00000000000E+00  0.99999944183E+02  0.10000000000E+03  0.10566000000E+00 0. -1.
         22   -1    0    0    0    0 -0.00000000000E+00 -0.00000000000E+00 -0.31253099869E+02  0.31253099869E+02  0.00000000000E+00 0.  1.
         13    1    1    2    0    0  0.13379665548E+01 -0.28169913030E+02 -0.13249732553E+02  0.31159280020E+02  0.10566000000E+00 0.  1.
        996    1    1    2    0    0 -0.13379665548E+01  0.28169913030E+02  0.81996576867E+02  0.10009381985E+03  0.50000000000E+02 0.  0.
<mgrwt>
<rscale>  0 0.57405001E+02</rscale>
<asrwt>0</asrwt>
<pdfrwt beam="1">  1       13 0.10000000E+01 0.57405001E+02</pdfrwt>
<pdfrwt beam="2">  1       22 0.31253119E+00 0.57405001E+02</pdfrwt>
<totfact> 0.19322868E-01</totfact>
</mgrwt>
</event>
<event>
 4    1  0.2489496E+000  0.5250308E+02  0.7957747E-01  0.1432290E+00
         13   -1    0    0    0    0  0.00000000000E+00  0.00000000000E+00  0.99999944188E+02  0.10000000001E+03  0.10566000000E+00 0. -1.
         22   -1    0    0    0    0 -0.00000000000E+00 -0.00000000000E+00 -0.23937728217E+02  0.23937728217E+02  0.00000000000E+00 0.  1.
         13    1    1    2    0    0  0.15535213645E+02  0.39026939694E+01 -0.12947730408E+02  0.20596814558E+02  0.10566000000E+00 0.  1.
        996    1    1    2    0    0 -0.15535213645E+02 -0.39026939694E+01  0.89009946379E+02  0.10334091367E+03  0.50000000000E+02 0.  0.
<mgrwt>
<rscale>  0 0.52503085E+02</rscale>
<asrwt>0</asrwt>
<pdfrwt beam="1">  1       13 0.10000000E+01 0.52503085E+02</pdfrwt>
<pdfrwt beam="2">  1       22 0.23937749E+00 0.52503085E+02</pdfrwt>
<totfact> 0.32128536E-01</totfact>
</mgrwt>
</event>
<event>
 4    1  0.2489496E+000  0.5269619E+02  0.7957747E-01  0.1431319E+00
         13   -1    0    0    0    0  0.00000000000E+00  0.00000000000E+00  0.99999944177E+02  0.99999999997E+02  0.10566000000E+00 0. -1.
         22   -1    0    0    0    0 -0.00000000000E+00 -0.00000000000E+00 -0.13307877565E+02  0.13307877565E+02  0.00000000000E+00 0.  1.
         13    1    1    2    0    0 -0.59911030546E+01  0.15524002269E+02  0.76601454539E+01  0.18318759638E+02  0.10566000000E+00 0.  1.
        996    1    1    2    0    0  0.59911030546E+01 -0.15524002269E+02  0.79031921158E+02  0.94989117925E+02  0.50000000000E+02 0.  0.
<mgrwt>
<rscale>  0 0.52696185E+02</rscale>
<asrwt>0</asrwt>
<pdfrwt beam="1">  1       13 0.10000000E+01 0.52696185E+02</pdfrwt>
<pdfrwt beam="2">  1       22 0.13307902E+00 0.52696185E+02</pdfrwt>
<totfact> 0.91610925E-01</totfact>
</mgrwt>
</event>
<event>
 4    1  0.2489496E+000  0.5802328E+02  0.7957747E-01  0.1406319E+00
         13   -1    0    0    0    0  0.00000000000E+00  0.00000000000E+00  0.99999944178E+02  0.99999999998E+02  0.10566000000E+00 0.  1.
         22   -1    0    0    0    0 -0.00000000000E+00 -0.00000000000E+00 -0.37105467956E+02  0.37105467956E+02  0.00000000000E+00 0. -1.
         13    1    1    2    0    0  0.25147689085E+02 -0.15306675963E+02 -0.20238902866E+02  0.35725690317E+02  0.10566000000E+00 0. -1.
        996    1    1    2    0    0 -0.25147689085E+02  0.15306675963E+02  0.83133379088E+02  0.10137977764E+03  0.50000000000E+02 0.  0.
<mgrwt>
<rscale>  0 0.58023276E+02</rscale>
<asrwt>0</asrwt>
<pdfrwt beam="1">  1       13 0.10000000E+01 0.58023276E+02</pdfrwt>
<pdfrwt beam="2">  1       22 0.37105486E+00 0.58023276E+02</pdfrwt>
<totfact> 0.14259851E-01</totfact>
</mgrwt>
</event>
<event>
 4    1  0.2489496E+000  0.5571195E+02  0.7957747E-01  0.1416762E+00
         13   -1    0    0    0    0  0.00000000000E+00  0.00000000000E+00  0.99999944169E+02  0.99999999989E+02  0.10566000000E+00 0. -1.
         22   -1    0    0    0    0 -0.00000000000E+00 -0.00000000000E+00 -0.35333184823E+02  0.35333184823E+02  0.00000000000E+00 0.  1.
         13    1    1    2    0    0  0.90679275337E+01 -0.22838427438E+02 -0.21549132857E+02  0.32683288827E+02  0.10566000000E+00 0.  1.
        996    1    1    2    0    0 -0.90679275337E+01  0.22838427438E+02  0.86215892203E+02  0.10264989599E+03  0.50000000000E+02 0.  0.
<mgrwt>
<rscale>  0 0.55711947E+02</rscale>
<asrwt>0</asrwt>
<pdfrwt beam="1">  1       13 0.10000000E+01 0.55711947E+02</pdfrwt>
<pdfrwt beam="2">  1       22 0.35333203E+00 0.55711947E+02</pdfrwt>
<totfact> 0.15513515E-01</totfact>
</mgrwt>
</event>
<event>
 4    1  0.2489496E+000  0.5421336E+02  0.7957747E-01  0.1423856E+00
         13   -1    0    0    0    0  0.00000000000E+00  0.00000000000E+00  0.99999944179E+02  0.99999999999E+02  0.10566000000E+00 0.  1.
         22   -1    0    0    0    0 -0.00000000000E+00 -0.00000000000E+00 -0.15783058439E+02  0.15783058439E+02  0.00000000000E+00 0. -1.
         13    1    1    2    0    0  0.16747775384E+02  0.12593646067E+02  0.83959087539E+01  0.22574107942E+02  0.10566000000E+00 0. -1.
        996    1    1    2    0    0 -0.16747775384E+02 -0.12593646067E+02  0.75820976985E+02  0.93208950496E+02  0.50000000000E+02 0.  0.
<mgrwt>
<rscale>  0 0.54213355E+02</rscale>
<asrwt>0</asrwt>
<pdfrwt beam="1">  1       13 0.10000000E+01 0.54213355E+02</pdfrwt>
<pdfrwt beam="2">  1       22 0.15783082E+00 0.54213355E+02</pdfrwt>
<totfact> 0.69414587E-01</totfact>
</mgrwt>
</event>
<event>
 4    1  0.2489496E+000  0.5226803E+02  0.7957747E-01  0.1433479E+00
         13   -1    0    0    0    0  0.00000000000E+00  0.00000000000E+00  0.99999944180E+02  0.10000000000E+03  0.10566000000E+00 0. -1.
         22   -1    0    0    0    0 -0.00000000000E+00 -0.00000000000E+00 -0.17757799092E+02  0.17757799092E+02  0.00000000000E+00 0. -1.
         13    1    1    2    0    0  0.12995820746E+02 -0.79407245220E+01 -0.50227955141E+01  0.16037022841E+02  0.10566000000E+00 0.  1.
        996    1    1    2    0    0 -0.12995820746E+02  0.79407245220E+01  0.87264940602E+02  0.10172077625E+03  0.50000000000E+02 0.  0.
<mgrwt>
<rscale>  0 0.52268025E+02</rscale>
<asrwt>0</asrwt>
<pdfrwt beam="1">  1       13 0.10000000E+01 0.52268025E+02</pdfrwt>
<pdfrwt beam="2">  1       22 0.17757822E+00 0.52268025E+02</pdfrwt>
<totfact> 0.56316055E-01</totfact>
</mgrwt>
</event>
<event>
 4    1  0.2489496E+000  0.5651635E+02  0.7957747E-01  0.1413061E+00
         13   -1    0    0    0    0  0.00000000000E+00  0.00000000000E+00  0.99999944183E+02  0.10000000000E+03  0.10566000000E+00 0. -1.
         22   -1    0    0    0    0 -0.00000000000E+00 -0.00000000000E+00 -0.69760786410E+02  0.69760786410E+02  0.00000000000E+00 0.  1.
         13    1    1    2    0    0  0.16072675854E+02  0.20875035793E+02 -0.58724314761E+02  0.64363454978E+02  0.10566000000E+00 0.  1.
        996    1    1    2    0    0 -0.16072675854E+02 -0.20875035793E+02  0.88963472534E+02  0.10539733144E+03  0.50000000000E+02 0.  0.
<mgrwt>
<rscale>  0 0.56516352E+02</rscale>
<asrwt>0</asrwt>
<pdfrwt beam="1">  1       13 0.10000000E+01 0.56516352E+02</pdfrwt>
<pdfrwt beam="2">  1       22 0.69760795E+00 0.56516352E+02</pdfrwt>
<totfact> 0.75848808E-02</totfact>
</mgrwt>
</event>
<event>
 4    1  0.2489496E+000  0.5477320E+02  0.7957747E-01  0.1421174E+00
         13   -1    0    0    0    0  0.00000000000E+00  0.00000000000E+00  0.99999944181E+02  0.10000000000E+03  0.10566000000E+00 0. -1.
         22   -1    0    0    0    0 -0.00000000000E+00 -0.00000000000E+00 -0.15827203148E+02  0.15827203148E+02  0.00000000000E+00 0. -1.
         13    1    1    2    0    0  0.14701870504E+02  0.16851080031E+02  0.38439804500E+02  0.44471717176E+02  0.10566000000E+00 0.  1.
        996    1    1    2    0    0 -0.14701870504E+02 -0.16851080031E+02  0.45732936533E+02  0.71355485973E+02  0.50000000000E+02 0.  0.
<mgrwt>
<rscale>  0 0.54773204E+02</rscale>
<asrwt>0</asrwt>
<pdfrwt beam="1">  1       13 0.10000000E+01 0.54773204E+02</pdfrwt>
<pdfrwt beam="2">  1       22 0.15827227E+00 0.54773204E+02</pdfrwt>
<totfact> 0.69158679E-01</totfact>
</mgrwt>
</event>
<event>
 4    1  0.2489496E+000  0.5111315E+02  0.7957747E-01  0.1439428E+00
         13   -1    0    0    0    0  0.00000000000E+00  0.00000000000E+00  0.99999944177E+02  0.99999999997E+02  0.10566000000E+00 0. -1.
         22   -1    0    0    0    0 -0.00000000000E+00 -0.00000000000E+00 -0.10230636052E+02  0.10230636052E+02  0.00000000000E+00 0.  1.
         13    1    1    2    0    0 -0.19879889882E+01  0.10421229893E+02  0.62545448857E+01  0.12316031360E+02  0.10566000000E+00 0.  1.
        996    1    1    2    0    0  0.19879889882E+01 -0.10421229893E+02  0.83514763239E+02  0.97914604690E+02  0.50000000000E+02 0.  0.
<mgrwt>
<rscale>  0 0.51113150E+02</rscale>
<asrwt>0</asrwt>
<pdfrwt beam="1">  1       13 0.10000000E+01 0.51113150E+02</pdfrwt>
<pdfrwt beam="2">  1       22 0.10230661E+00 0.51113150E+02</pdfrwt>
<totfact> 0.13609404E+00</totfact>
</mgrwt>
</event>
<event>
 4    1  0.2489496E+000  0.5109172E+02  0.7957747E-01  0.1439541E+00
         13   -1    0    0    0    0  0.00000000000E+00  0.00000000000E+00  0.99999944174E+02  0.99999999994E+02  0.10566000000E+00 0. -1.
         22   -1    0    0    0    0 -0.00000000000E+00 -0.00000000000E+00 -0.10838728580E+02  0.10838728580E+02  0.00000000000E+00 0.  1.
         13    1    1    2    0    0  0.10481951554E+02 -0.70186965402E+00  0.34551930939E+01  0.11059541254E+02  0.10566000000E+00 0.  1.
        996    1    1    2    0    0 -0.10481951554E+02  0.70186965402E+00  0.85706022500E+02  0.99779187320E+02  0.50000000000E+02 0.  0.
<mgrwt>
<rscale>  0 0.51091721E+02</rscale>
<asrwt>0</asrwt>
<pdfrwt beam="1">  1       13 0.10000000E+01 0.51091721E+02</pdfrwt>
<pdfrwt beam="2">  1       22 0.10838753E+00 0.51091721E+02</pdfrwt>
<totfact> 0.12502339E+00</totfact>
</mgrwt>
</event>
<event>
 4    1  0.2489496E+000  0.5119018E+02  0.7957747E-01  0.1439026E+00
         13   -1    0    0    0    0  0.00000000000E+00  0.00000000000E+00  0.99999944182E+02  0.10000000000E+03  0.10566000000E+00 0. -1.
         22   -1    0    0    0    0 -0.00000000000E+00 -0.00000000000E+00 -0.10427342625E+02  0.10427342625E+02  0.00000000000E+00 0. -1.
         13    1    1    2    0    0  0.93155828746E+01  0.58012662847E+01  0.62314925504E+01  0.12620516560E+02  0.10566000000E+00 0.  1.
        996    1    1    2    0    0 -0.93155828746E+01 -0.58012662847E+01  0.83341109007E+02  0.97806826067E+02  0.50000000000E+02 0.  0.
<mgrwt>
<rscale>  0 0.51190182E+02</rscale>
<asrwt>0</asrwt>
<pdfrwt beam="1">  1       13 0.10000000E+01 0.51190182E+02</pdfrwt>
<pdfrwt beam="2">  1       22 0.10427368E+00 0.51190182E+02</pdfrwt>
<totfact> 0.13238496E+00</totfact>
</mgrwt>
</event>
<event>
 4    1  0.2489496E+000  0.5772462E+02  0.7957747E-01  0.1407636E+00
         13   -1    0    0    0    0  0.00000000000E+00  0.00000000000E+00  0.99999944182E+02  0.10000000000E+03  0.10566000000E+00 0.  1.
         22   -1    0    0    0    0 -0.00000000000E+00 -0.00000000000E+00 -0.58142621148E+02  0.58142621148E+02  0.00000000000E+00 0. -1.
         13    1    1    2    0    0 -0.28206938671E+02  0.60415574490E+01 -0.45239147610E+02  0.53653736553E+02  0.10566000000E+00 0. -1.
        996    1    1    2    0    0  0.28206938671E+02 -0.60415574490E+01  0.87096470644E+02  0.10448888460E+03  0.50000000000E+02 0.  0.
<mgrwt>
<rscale>  0 0.57724620E+02</rscale>
<asrwt>0</asrwt>
<pdfrwt beam="1">  1       13 0.10000000E+01 0.57724620E+02</pdfrwt>
<pdfrwt beam="2">  1       22 0.58142633E+00 0.57724620E+02</pdfrwt>
<totfact> 0.58590219E-02</totfact>
</mgrwt>
</event>
<event>
 4    1  0.2489496E+000  0.6131974E+02  0.7957747E-01  0.1392375E+00
         13   -1    0    0    0    0  0.00000000000E+00  0.00000000000E+00  0.99999944179E+02  0.99999999999E+02  0.10566000000E+00 0.  1.
         22   -1    0    0    0    0 -0.00000000000E+00 -0.00000000000E+00 -0.23541003006E+02  0.23541003006E+02  0.00000000000E+00 0.  1.
         13    1    1    2    0    0 -0.11506623982E+02  0.33581373231E+02  0.24070395957E+02  0.42889464313E+02  0.10566000000E+00 0. -1.
        996    1    1    2    0    0  0.11506623982E+02 -0.33581373231E+02  0.52388545216E+02  0.80651538692E+02  0.50000000000E+02 0.  0.
<mgrwt>
<rscale>  0 0.61319744E+02</rscale>
<asrwt>0</asrwt>
<pdfrwt beam="1">  1       13 0.10000000E+01 0.61319744E+02</pdfrwt>
<pdfrwt beam="2">  1       22 0.23541024E+00 0.61319744E+02</pdfrwt>
<totfact> 0.33634630E-01</totfact>
</mgrwt>
</event>
<event>
 4    1  0.2489496E+000  0.5204854E+02  0.7957747E-01  0.1434595E+00
         13   -1    0    0    0    0  0.00000000000E+00  0.00000000000E+00  0.99999944168E+02  0.99999999989E+02  0.10566000000E+00 0. -1.
         22   -1    0    0    0    0 -0.00000000000E+00 -0.00000000000E+00 -0.21625591894E+02  0.21625591894E+02  0.00000000000E+00 0.  1.
         13    1    1    2    0    0 -0.82481851178E+01  0.11875090104E+02 -0.11022135899E+02  0.18181005652E+02  0.10566000000E+00 0.  1.
        996    1    1    2    0    0  0.82481851178E+01 -0.11875090104E+02  0.89396488173E+02  0.10344458623E+03  0.50000000000E+02 0.  0.
<mgrwt>
<rscale>  0 0.52048538E+02</rscale>
<asrwt>0</asrwt>
<pdfrwt beam="1">  1       13 0.10000000E+01 0.52048538E+02</pdfrwt>
<pdfrwt beam="2">  1       22 0.21625614E+00 0.52048538E+02</pdfrwt>
<totfact> 0.39090147E-01</totfact>
</mgrwt>
</event>
<event>
 4    1  0.2489496E+000  0.5183777E+02  0.7957747E-01  0.1435674E+00
         13   -1    0    0    0    0  0.00000000000E+00  0.00000000000E+00  0.99999944181E+02  0.10000000000E+03  0.10566000000E+00 0. -1.
         22   -1    0    0    0    0 -0.00000000000E+00 -0.00000000000E+00 -0.11226878009E+02  0.11226878009E+02  0.00000000000E+00 0. -1.
         13    1    1    2    0    0 -0.12330195342E+02  0.59262413710E+01  0.29278232661E+02  0.32316870606E+02  0.10566000000E+00 0.  1.
        996    1    1    2    0    0  0.12330195342E+02 -0.59262413710E+01  0.59494833511E+02  0.78910007404E+02  0.50000000000E+02 0.  0.
<mgrwt>
<rscale>  0 0.51837767E+02</rscale>
<asrwt>0</asrwt>
<pdfrwt beam="1">  1       13 0.10000000E+01 0.51837767E+02</pdfrwt>
<pdfrwt beam="2">  1       22 0.11226903E+00 0.51837767E+02</pdfrwt>
<totfact> 0.11884955E+00</totfact>
</mgrwt>
</event>
<event>
 4    1  0.2489496E+000  0.5102299E+02  0.7957747E-01  0.1439901E+00
         13   -1    0    0    0    0  0.00000000000E+00  0.00000000000E+00  0.99999944186E+02  0.10000000001E+03  0.10566000000E+00 0.  1.
         22   -1    0    0    0    0 -0.00000000000E+00 -0.00000000000E+00 -0.19559350660E+02  0.19559350660E+02  0.00000000000E+00 0.  1.
         13    1    1    2    0    0  0.40538152075E+01 -0.93226780797E+01 -0.10917950490E+02  0.14918396403E+02  0.10566000000E+00 0. -1.
        996    1    1    2    0    0 -0.40538152075E+01  0.93226780797E+01  0.91358544015E+02  0.10464095426E+03  0.50000000000E+02 0.  0.
<mgrwt>
<rscale>  0 0.51022992E+02</rscale>
<asrwt>0</asrwt>
<pdfrwt beam="1">  1       13 0.10000000E+01 0.51022992E+02</pdfrwt>
<pdfrwt beam="2">  1       22 0.19559373E+00 0.51022992E+02</pdfrwt>
<totfact> 0.47138210E-01</totfact>
</mgrwt>
</event>
<event>
 4    1  0.2489496E+000  0.5117072E+02  0.7957747E-01  0.1439127E+00
         13   -1    0    0    0    0  0.00000000000E+00  0.00000000000E+00  0.99999944176E+02  0.99999999996E+02  0.10566000000E+00 0.  1.
         22   -1    0    0    0    0 -0.00000000000E+00 -0.00000000000E+00 -0.12234325730E+02  0.12234325730E+02  0.00000000000E+00 0.  1.
         13    1    1    2    0    0  0.23704395481E+01 -0.10621832397E+02  0.42644607210E+02  0.44011543886E+02  0.10566000000E+00 0. -1.
        996    1    1    2    0    0 -0.23704395481E+01  0.10621832397E+02  0.45121011236E+02  0.68222781840E+02  0.50000000000E+02 0.  0.
<mgrwt>
<rscale>  0 0.51170717E+02</rscale>
<asrwt>0</asrwt>
<pdfrwt beam="1">  1       13 0.10000000E+01 0.51170717E+02</pdfrwt>
<pdfrwt beam="2">  1       22 0.12234350E+00 0.51170717E+02</pdfrwt>
<totfact> 0.10415266E+00</totfact>
</mgrwt>
</event>
<event>
 4    1  0.2489496E+000  0.5143074E+02  0.7957747E-01  0.1437774E+00
         13   -1    0    0    0    0  0.00000000000E+00  0.00000000000E+00  0.99999944172E+02  0.99999999993E+02  0.10566000000E+00 0.  1.
         22   -1    0    0    0    0 -0.00000000000E+00 -0.00000000000E+00 -0.44843348960E+02  0.44843348960E+02  0.00000000000E+00 0. -1.
         13    1    1    2    0    0  0.31174362895E+01  0.11636273499E+02 -0.37216466414E+02  0.39117742858E+02  0.10566000000E+00 0. -1.
        996    1    1    2    0    0 -0.31174362895E+01 -0.11636273499E+02  0.92373061626E+02  0.10572560609E+03  0.50000000000E+02 0.  0.
<mgrwt>
<rscale>  0 0.51430742E+02</rscale>
<asrwt>0</asrwt>
<pdfrwt beam="1">  1       13 0.10000000E+01 0.51430742E+02</pdfrwt>
<pdfrwt beam="2">  1       22 0.44843364E+00 0.51430742E+02</pdfrwt>
<totfact> 0.97375694E-02</totfact>
</mgrwt>
</event>
<event>
 4    1  0.2489496E+000  0.5133246E+02  0.7957747E-01  0.1438284E+00
         13   -1    0    0    0    0  0.00000000000E+00  0.00000000000E+00  0.99999944179E+02  0.99999999999E+02  0.10566000000E+00 0.  1.
         22   -1    0    0    0    0 -0.00000000000E+00 -0.00000000000E+00 -0.12465940210E+02  0.12465940210E+02  0.00000000000E+00 0. -1.
         13    1    1    2    0    0  0.39165237412E+01  0.10939933573E+02  0.75951429129E+00  0.11645141939E+02  0.10566000000E+00 0. -1.
        996    1    1    2    0    0 -0.39165237412E+01 -0.10939933573E+02  0.86774489678E+02  0.10082079827E+03  0.50000000000E+02 0.  0.
<mgrwt>
<rscale>  0 0.51332459E+02</rscale>
<asrwt>0</asrwt>
<pdfrwt beam="1">  1       13 0.10000000E+01 0.51332459E+02</pdfrwt>
<pdfrwt beam="2">  1       22 0.12465965E+00 0.51332459E+02</pdfrwt>
<totfact> 0.10121215E+00</totfact>
</mgrwt>
</event>
<event>
 4    1  0.2489496E+000  0.5128136E+02  0.7957747E-01  0.1438550E+00
         13   -1    0    0    0    0  0.00000000000E+00  0.00000000000E+00  0.99999944178E+02  0.99999999998E+02  0.10566000000E+00 0. -1.
         22   -1    0    0    0    0 -0.00000000000E+00 -0.00000000000E+00 -0.34821177566E+02  0.34821177566E+02  0.00000000000E+00 0.  1.
         13    1    1    2    0    0  0.74179024709E+01  0.86459308191E+01 -0.27018324525E+02  0.29321978463E+02  0.10566000000E+00 0.  1.
        996    1    1    2    0    0 -0.74179024709E+01 -0.86459308191E+01  0.92197091137E+02  0.10549919910E+03  0.50000000000E+02 0.  0.
<mgrwt>
<rscale>  0 0.51281355E+02</rscale>
<asrwt>0</asrwt>
<pdfrwt beam="1">  1       13 0.10000000E+01 0.51281355E+02</pdfrwt>
<pdfrwt beam="2">  1       22 0.34821196E+00 0.51281355E+02</pdfrwt>
<totfact> 0.15843231E-01</totfact>
</mgrwt>
</event>
<event>
 4    1  0.2489496E+000  0.5129402E+02  0.7957747E-01  0.1438484E+00
         13   -1    0    0    0    0  0.00000000000E+00  0.00000000000E+00  0.99999944185E+02  0.10000000001E+03  0.10566000000E+00 0.  1.
         22   -1    0    0    0    0 -0.00000000000E+00 -0.00000000000E+00 -0.99288461394E+01  0.99288461394E+01  0.00000000000E+00 0.  1.
         13    1    1    2    0    0  0.96850896933E+00  0.11407804946E+02  0.12699408096E+02  0.17098600917E+02  0.10566000000E+00 0. -1.
        996    1    1    2    0    0 -0.96850896933E+00 -0.11407804946E+02  0.77371689950E+02  0.92830245228E+02  0.50000000000E+02 0.  0.
<mgrwt>
<rscale>  0 0.51294015E+02</rscale>
<asrwt>0</asrwt>
<pdfrwt beam="1">  1       13 0.10000000E+01 0.51294015E+02</pdfrwt>
<pdfrwt beam="2">  1       22 0.99288713E-01 0.51294015E+02</pdfrwt>
<totfact> 0.14219978E+00</totfact>
</mgrwt>
</event>
<event>
 4    1  0.2489496E+000  0.5471986E+02  0.7957747E-01  0.1421428E+00
         13   -1    0    0    0    0  0.00000000000E+00  0.00000000000E+00  0.99999944181E+02  0.10000000000E+03  0.10566000000E+00 0.  1.
         22   -1    0    0    0    0 -0.00000000000E+00 -0.00000000000E+00 -0.16296901326E+02  0.16296901326E+02  0.00000000000E+00 0. -1.
         13    1    1    2    0    0 -0.44715454478E+01 -0.21777693883E+02  0.96895824863E+01  0.24252048209E+02  0.10566000000E+00 0. -1.
        996    1    1    2    0    0  0.44715454478E+01  0.21777693883E+02  0.74013460369E+02  0.92044853117E+02  0.50000000000E+02 0.  0.
<mgrwt>
<rscale>  0 0.54719856E+02</rscale>
<asrwt>0</asrwt>
<pdfrwt beam="1">  1       13 0.10000000E+01 0.54719856E+02</pdfrwt>
<pdfrwt beam="2">  1       22 0.16296925E+00 0.54719856E+02</pdfrwt>
<totfact> 0.65770040E-01</totfact>
</mgrwt>
</event>
<event>
 4    1  0.2489496E+000  0.5232157E+02  0.7957747E-01  0.1433207E+00
         13   -1    0    0    0    0  0.00000000000E+00  0.00000000000E+00  0.99999944188E+02  0.10000000001E+03  0.10566000000E+00 0. -1.
         22   -1    0    0    0    0 -0.00000000000E+00 -0.00000000000E+00 -0.23590138496E+02  0.23590138496E+02  0.00000000000E+00 0.  1.
         13    1    1    2    0    0  0.14666469230E+02 -0.47371782696E+01 -0.12889213660E+02  0.20092017580E+02  0.10566000000E+00 0.  1.
        996    1    1    2    0    0 -0.14666469230E+02  0.47371782696E+01  0.89299019352E+02  0.10349812092E+03  0.50000000000E+02 0.  0.
<mgrwt>
<rscale>  0 0.52321565E+02</rscale>
<asrwt>0</asrwt>
<pdfrwt beam="1">  1       13 0.10000000E+01 0.52321565E+02</pdfrwt>
<pdfrwt beam="2">  1       22 0.23590160E+00 0.52321565E+02</pdfrwt>
<totfact> 0.33051507E-01</totfact>
</mgrwt>
</event>
<event>
 4    1  0.2489496E+000  0.5577809E+02  0.7957747E-01  0.1416455E+00
         13   -1    0    0    0    0  0.00000000000E+00  0.00000000000E+00  0.99999944182E+02  0.10000000000E+03  0.10566000000E+00 0. -1.
         22   -1    0    0    0    0 -0.00000000000E+00 -0.00000000000E+00 -0.16200913012E+02  0.16200913012E+02  0.00000000000E+00 0.  1.
         13    1    1    2    0    0 -0.23035648539E+02  0.89752241187E+01  0.25811410086E+02  0.35741233978E+02  0.10566000000E+00 0.  1.
        996    1    1    2    0    0  0.23035648539E+02 -0.89752241187E+01  0.57987621085E+02  0.80459679036E+02  0.50000000000E+02 0.  0.
<mgrwt>
<rscale>  0 0.55778094E+02</rscale>
<asrwt>0</asrwt>
<pdfrwt beam="1">  1       13 0.10000000E+01 0.55778094E+02</pdfrwt>
<pdfrwt beam="2">  1       22 0.16200936E+00 0.55778094E+02</pdfrwt>
<totfact> 0.66573037E-01</totfact>
</mgrwt>
</event>
<event>
 4    1  0.2489496E+000  0.5519185E+02  0.7957747E-01  0.1419194E+00
         13   -1    0    0    0    0  0.00000000000E+00  0.00000000000E+00  0.99999944188E+02  0.10000000001E+03  0.10566000000E+00 0.  1.
         22   -1    0    0    0    0 -0.00000000000E+00 -0.00000000000E+00 -0.16830917106E+02  0.16830917106E+02  0.00000000000E+00 0. -1.
         13    1    1    2    0    0 -0.44253042984E+01  0.22946819737E+02  0.10607671162E+02  0.25664639208E+02  0.10566000000E+00 0. -1.
        996    1    1    2    0    0  0.44253042984E+01 -0.22946819737E+02  0.72561355920E+02  0.91166277905E+02  0.50000000000E+02 0.  0.
<mgrwt>
<rscale>  0 0.55191846E+02</rscale>
<asrwt>0</asrwt>
<pdfrwt beam="1">  1       13 0.10000000E+01 0.55191846E+02</pdfrwt>
<pdfrwt beam="2">  1       22 0.16830940E+00 0.55191846E+02</pdfrwt>
<totfact> 0.62243670E-01</totfact>
</mgrwt>
</event>
<event>
 4    1  0.2489496E+000  0.5171445E+02  0.7957747E-01  0.1436308E+00
         13   -1    0    0    0    0  0.00000000000E+00  0.00000000000E+00  0.99999944183E+02  0.10000000000E+03  0.10566000000E+00 0.  1.
         22   -1    0    0    0    0 -0.00000000000E+00 -0.00000000000E+00 -0.10796601885E+02  0.10796601885E+02  0.00000000000E+00 0.  1.
         13    1    1    2    0    0  0.29125764315E+01 -0.12880245574E+02  0.11816216755E+02  0.17720552191E+02  0.10566000000E+00 0. -1.
        996    1    1    2    0    0 -0.29125764315E+01  0.12880245574E+02  0.77387125543E+02  0.93076049698E+02  0.50000000000E+02 0.  0.
<mgrwt>
<rscale>  0 0.51714445E+02</rscale>
<asrwt>0</asrwt>
<pdfrwt beam="1">  1       13 0.10000000E+01 0.51714445E+02</pdfrwt>
<pdfrwt beam="2">  1       22 0.10796627E+00 0.51714445E+02</pdfrwt>
<totfact> 0.12593055E+00</totfact>
</mgrwt>
</event>
<event>
 4    1  0.2489496E+000  0.5160549E+02  0.7957747E-01  0.1436869E+00
         13   -1    0    0    0    0  0.00000000000E+00  0.00000000000E+00  0.99999944181E+02  0.10000000000E+03  0.10566000000E+00 0.  1.
         22   -1    0    0    0    0 -0.00000000000E+00 -0.00000000000E+00 -0.11107426916E+02  0.11107426916E+02  0.00000000000E+00 0.  1.
         13    1    1    2    0    0 -0.12713122203E+02  0.12258235531E+01  0.77345941863E+01  0.14931886378E+02  0.10566000000E+00 0. -1.
        996    1    1    2    0    0  0.12713122203E+02 -0.12258235531E+01  0.81157923079E+02  0.96175540539E+02  0.50000000000E+02 0.  0.
<mgrwt>
<rscale>  0 0.51605485E+02</rscale>
<asrwt>0</asrwt>
<pdfrwt beam="1">  1       13 0.10000000E+01 0.51605485E+02</pdfrwt>
<pdfrwt beam="2">  1       22 0.11107452E+00 0.51605485E+02</pdfrwt>
<totfact> 0.12070000E+00</totfact>
</mgrwt>
</event>
<event>
 4    1  0.2489496E+000  0.5120328E+02  0.7957747E-01  0.1438957E+00
         13   -1    0    0    0    0  0.00000000000E+00  0.00000000000E+00  0.99999944178E+02  0.99999999998E+02  0.10566000000E+00 0.  1.
         22   -1    0    0    0    0 -0.00000000000E+00 -0.00000000000E+00 -0.21708123676E+02  0.21708123676E+02  0.00000000000E+00 0. -1.
         13    1    1    2    0    0  0.79517189248E+01 -0.76515289164E+01 -0.12990742119E+02  0.17045417960E+02  0.10566000000E+00 0. -1.
        996    1    1    2    0    0 -0.79517189248E+01  0.76515289164E+01  0.91282562621E+02  0.10466270571E+03  0.50000000000E+02 0.  0.
<mgrwt>
<rscale>  0 0.51203278E+02</rscale>
<asrwt>0</asrwt>
<pdfrwt beam="1">  1       13 0.10000000E+01 0.51203278E+02</pdfrwt>
<pdfrwt beam="2">  1       22 0.21708146E+00 0.51203278E+02</pdfrwt>
<totfact> 0.38749373E-01</totfact>
</mgrwt>
</event>
<event>
 4    1  0.2489496E+000  0.5111302E+02  0.7957747E-01  0.1439429E+00
         13   -1    0    0    0    0  0.00000000000E+00  0.00000000000E+00  0.99999944182E+02  0.10000000000E+03  0.10566000000E+00 0.  1.
         22   -1    0    0    0    0 -0.00000000000E+00 -0.00000000000E+00 -0.95297860741E+01  0.95297860741E+01  0.00000000000E+00 0.  1.
         13    1    1    2    0    0  0.80866976255E+01  0.68663145755E+01  0.16585744030E+02  0.19688550567E+02  0.10566000000E+00 0. -1.
        996    1    1    2    0    0 -0.80866976255E+01 -0.68663145755E+01  0.73884414078E+02  0.89841235510E+02  0.50000000000E+02 0.  0.
<mgrwt>
<rscale>  0 0.51113021E+02</rscale>
<asrwt>0</asrwt>
<pdfrwt beam="1">  1       13 0.10000000E+01 0.51113021E+02</pdfrwt>
<pdfrwt beam="2">  1       22 0.95298113E-01 0.51113021E+02</pdfrwt>
<totfact> 0.15077059E+00</totfact>
</mgrwt>
</event>
<event>
 4    1  0.2489496E+000  0.5164565E+02  0.7957747E-01  0.1436662E+00
         13   -1    0    0    0    0  0.00000000000E+00  0.00000000000E+00  0.99999944172E+02  0.99999999992E+02  0.10566000000E+00 0. -1.
         22   -1    0    0    0    0 -0.00000000000E+00 -0.00000000000E+00 -0.24416722075E+02  0.24416722075E+02  0.00000000000E+00 0.  1.
         13    1    1    2    0    0 -0.12918826704E+02 -0.61411800731E+00 -0.15208054755E+02  0.19964200906E+02  0.10566000000E+00 0.  1.
        996    1    1    2    0    0  0.12918826704E+02  0.61411800731E+00  0.90791276852E+02  0.10445252116E+03  0.50000000000E+02 0.  0.
<mgrwt>
<rscale>  0 0.51645651E+02</rscale>
<asrwt>0</asrwt>
<pdfrwt beam="1">  1       13 0.10000000E+01 0.51645651E+02</pdfrwt>
<pdfrwt beam="2">  1       22 0.24416743E+00 0.51645651E+02</pdfrwt>
<totfact> 0.30861787E-01</totfact>
</mgrwt>
</event>
<event>
 4    1  0.2489496E+000  0.5432411E+02  0.7957747E-01  0.1423323E+00
         13   -1    0    0    0    0  0.00000000000E+00  0.00000000000E+00  0.99999944179E+02  0.99999999999E+02  0.10566000000E+00 0. -1.
         22   -1    0    0    0    0 -0.00000000000E+00 -0.00000000000E+00 -0.26146297546E+02  0.26146297546E+02  0.00000000000E+00 0.  1.
         13    1    1    2    0    0 -0.21083702366E+02  0.25664627456E+01 -0.12115148467E+02  0.24451936997E+02  0.10566000000E+00 0.  1.
        996    1    1    2    0    0  0.21083702366E+02 -0.25664627456E+01  0.85968795100E+02  0.10169436055E+03  0.50000000000E+02 0.  0.
<mgrwt>
<rscale>  0 0.54324113E+02</rscale>
<asrwt>0</asrwt>
<pdfrwt beam="1">  1       13 0.10000000E+01 0.54324113E+02</pdfrwt>
<pdfrwt beam="2">  1       22 0.26146318E+00 0.54324113E+02</pdfrwt>
<totfact> 0.27083543E-01</totfact>
</mgrwt>
</event>
<event>
 4    1  0.2489496E+000  0.5392197E+02  0.7957747E-01  0.1425267E+00
         13   -1    0    0    0    0  0.00000000000E+00  0.00000000000E+00  0.99999944186E+02  0.10000000001E+03  0.10566000000E+00 0.  1.
         22   -1    0    0    0    0 -0.00000000000E+00 -0.00000000000E+00 -0.36203344228E+02  0.36203344228E+02  0.00000000000E+00 0. -1.
         13    1    1    2    0    0  0.47703310692E+01  0.19616913654E+02 -0.25111930574E+02  0.32221104590E+02  0.10566000000E+00 0. -1.
        996    1    1    2    0    0 -0.47703310692E+01 -0.19616913654E+02  0.88908530533E+02  0.10398223964E+03  0.50000000000E+02 0.  0.
<mgrwt>
<rscale>  0 0.53921975E+02</rscale>
<asrwt>0</asrwt>
<pdfrwt beam="1">  1       13 0.10000000E+01 0.53921975E+02</pdfrwt>
<pdfrwt beam="2">  1       22 0.36203362E+00 0.53921975E+02</pdfrwt>
<totfact> 0.14840684E-01</totfact>
</mgrwt>
</event>
<event>
 4    1  0.2489496E+000  0.5100253E+02  0.7957747E-01  0.1440008E+00
         13   -1    0    0    0    0  0.00000000000E+00  0.00000000000E+00  0.99999944176E+02  0.99999999997E+02  0.10566000000E+00 0.  1.
         22   -1    0    0    0    0 -0.00000000000E+00 -0.00000000000E+00 -0.10546124237E+02  0.10546124237E+02  0.00000000000E+00 0.  1.
         13    1    1    2    0    0  0.26042981413E+01 -0.97198854607E+01  0.36043868964E+01  0.10689308262E+02  0.10566000000E+00 0. -1.
        996    1    1    2    0    0 -0.26042981413E+01  0.97198854607E+01  0.85849433043E+02  0.99856815972E+02  0.50000000000E+02 0.  0.
<mgrwt>
<rscale>  0 0.51002535E+02</rscale>
<asrwt>0</asrwt>
<pdfrwt beam="1">  1       13 0.10000000E+01 0.51002535E+02</pdfrwt>
<pdfrwt beam="2">  1       22 0.10546149E+00 0.51002535E+02</pdfrwt>
<totfact> 0.13014512E+00</totfact>
</mgrwt>
</event>
<event>
 4    1  0.2489496E+000  0.5357724E+02  0.7957747E-01  0.1426950E+00
         13   -1    0    0    0    0  0.00000000000E+00  0.00000000000E+00  0.99999944181E+02  0.10000000000E+03  0.10566000000E+00 0.  1.
         22   -1    0    0    0    0 -0.00000000000E+00 -0.00000000000E+00 -0.38258111785E+02  0.38258111785E+02  0.00000000000E+00 0. -1.
         13    1    1    2    0    0  0.18644188597E+02  0.47869924104E+01 -0.27858011272E+02  0.33861497616E+02  0.10566000000E+00 0. -1.
        996    1    1    2    0    0 -0.18644188597E+02 -0.47869924104E+01  0.89599843668E+02  0.10439661417E+03  0.50000000000E+02 0.  0.
<mgrwt>
<rscale>  0 0.53577244E+02</rscale>
<asrwt>0</asrwt>
<pdfrwt beam="1">  1       13 0.10000000E+01 0.53577244E+02</pdfrwt>
<pdfrwt beam="2">  1       22 0.38258129E+00 0.53577244E+02</pdfrwt>
<totfact> 0.13447645E-01</totfact>
</mgrwt>
</event>
<event>
 4    1  0.2489496E+000  0.5105752E+02  0.7957747E-01  0.1439720E+00
         13   -1    0    0    0    0  0.00000000000E+00  0.00000000000E+00  0.99999944183E+02  0.10000000000E+03  0.10566000000E+00 0. -1.
         22   -1    0    0    0    0 -0.00000000000E+00 -0.00000000000E+00 -0.97746548771E+01  0.97746548771E+01  0.00000000000E+00 0. -1.
         13    1    1    2    0    0  0.43471712398E+01 -0.93793649738E+01  0.83735745732E+01  0.13304070816E+02  0.10566000000E+00 0.  1.
        996    1    1    2    0    0 -0.43471712398E+01  0.93793649738E+01  0.81851714733E+02  0.96470584065E+02  0.50000000000E+02 0.  0.
<mgrwt>
<rscale>  0 0.51057520E+02</rscale>
<asrwt>0</asrwt>
<pdfrwt beam="1">  1       13 0.10000000E+01 0.51057520E+02</pdfrwt>
<pdfrwt beam="2">  1       22 0.97746801E-01 0.51057520E+02</pdfrwt>
<totfact> 0.14536208E+00</totfact>
</mgrwt>
</event>
<event>
 4    1  0.2489496E+000  0.5178673E+02  0.7957747E-01  0.1435936E+00
         13   -1    0    0    0    0  0.00000000000E+00  0.00000000000E+00  0.99999944182E+02  0.10000000000E+03  0.10566000000E+00 0.  1.
         22   -1    0    0    0    0 -0.00000000000E+00 -0.00000000000E+00 -0.21154056872E+02  0.21154056872E+02  0.00000000000E+00 0. -1.
         13    1    1    2    0    0 -0.12933837273E+02 -0.38185912395E+01 -0.11032342177E+02  0.17423820580E+02  0.10566000000E+00 0. -1.
        996    1    1    2    0    0  0.12933837273E+02  0.38185912395E+01  0.89878229488E+02  0.10373023629E+03  0.50000000000E+02 0.  0.
<mgrwt>
<rscale>  0 0.51786734E+02</rscale>
<asrwt>0</asrwt>
<pdfrwt beam="1">  1       13 0.10000000E+01 0.51786734E+02</pdfrwt>
<pdfrwt beam="2">  1       22 0.21154079E+00 0.51786734E+02</pdfrwt>
<totfact> 0.40749946E-01</totfact>
</mgrwt>
</event>
<event>
 4    1  0.2489496E+000  0.5118858E+02  0.7957747E-01  0.1439034E+00
         13   -1    0    0    0    0  0.00000000000E+00  0.00000000000E+00  0.99999944186E+02  0.10000000001E+03  0.10566000000E+00 0.  1.
         22   -1    0    0    0    0 -0.00000000000E+00 -0.00000000000E+00 -0.10964349916E+02  0.10964349916E+02  0.00000000000E+00 0.  1.
         13    1    1    2    0    0  0.86875161869E+01 -0.66930967354E+01  0.39292931469E+01  0.11649935196E+02  0.10566000000E+00 0. -1.
        996    1    1    2    0    0 -0.86875161869E+01  0.66930967354E+01  0.85106301123E+02  0.99314414725E+02  0.50000000000E+02 0.  0.
<mgrwt>
<rscale>  0 0.51188578E+02</rscale>
<asrwt>0</asrwt>
<pdfrwt beam="1">  1       13 0.10000000E+01 0.51188578E+02</pdfrwt>
<pdfrwt beam="2">  1       22 0.10964375E+00 0.51188578E+02</pdfrwt>
<totfact> 0.12293274E+00</totfact>
</mgrwt>
</event>
<event>
 4    1  0.2489496E+000  0.5224503E+02  0.7957747E-01  0.1433595E+00
         13   -1    0    0    0    0  0.00000000000E+00  0.00000000000E+00  0.99999944175E+02  0.99999999995E+02  0.10566000000E+00 0.  1.
         22   -1    0    0    0    0 -0.00000000000E+00 -0.00000000000E+00 -0.22469874901E+02  0.22469874901E+02  0.00000000000E+00 0. -1.
         13    1    1    2    0    0  0.11906331541E+02  0.93692088393E+01 -0.11650591009E+02  0.19112567591E+02  0.10566000000E+00 0. -1.
        996    1    1    2    0    0 -0.11906331541E+02 -0.93692088393E+01  0.89180660282E+02  0.10335730731E+03  0.50000000000E+02 0.  0.
<mgrwt>
<rscale>  0 0.52245027E+02</rscale>
<asrwt>0</asrwt>
<pdfrwt beam="1">  1       13 0.10000000E+01 0.52245027E+02</pdfrwt>
<pdfrwt beam="2">  1       22 0.22469897E+00 0.52245027E+02</pdfrwt>
<totfact> 0.36326001E-01</totfact>
</mgrwt>
</event>
<event>
 4    1  0.2489496E+000  0.5173650E+02  0.7957747E-01  0.1436194E+00
         13   -1    0    0    0    0  0.00000000000E+00  0.00000000000E+00  0.99999944177E+02  0.99999999997E+02  0.10566000000E+00 0. -1.
         22   -1    0    0    0    0 -0.00000000000E+00 -0.00000000000E+00 -0.11619008461E+02  0.11619008461E+02  0.00000000000E+00 0. -1.
         13    1    1    2    0    0 -0.97411849000E+01  0.90429189327E+01  0.65829777478E+01  0.14832795628E+02  0.10566000000E+00 0.  1.
        996    1    1    2    0    0  0.97411849000E+01 -0.90429189327E+01  0.81797957968E+02  0.96786212829E+02  0.50000000000E+02 0.  0.
<mgrwt>
<rscale>  0 0.51736496E+02</rscale>
<asrwt>0</asrwt>
<pdfrwt beam="1">  1       13 0.10000000E+01 0.51736496E+02</pdfrwt>
<pdfrwt beam="2">  1       22 0.11619033E+00 0.51736496E+02</pdfrwt>
<totfact> 0.11283829E+00</totfact>
</mgrwt>
</event>
<event>
 4    1  0.2489496E+000  0.5250560E+02  0.7957747E-01  0.1432277E+00
         13   -1    0    0    0    0  0.00000000000E+00  0.00000000000E+00  0.99999944191E+02  0.10000000001E+03  0.10566000000E+00 0.  1.
         22   -1    0    0    0    0 -0.00000000000E+00 -0.00000000000E+00 -0.19286616491E+02  0.19286616491E+02  0.00000000000E+00 0. -1.
         13    1    1    2    0    0 -0.14832124587E+02 -0.60700714501E+01 -0.66563190222E+01  0.17353830532E+02  0.10566000000E+00 0. -1.
        996    1    1    2    0    0  0.14832124587E+02  0.60700714501E+01  0.87369646722E+02  0.10193278597E+03  0.50000000000E+02 0.  0.
<mgrwt>
<rscale>  0 0.52505597E+02</rscale>
<asrwt>0</asrwt>
<pdfrwt beam="1">  1       13 0.10000000E+01 0.52505597E+02</pdfrwt>
<pdfrwt beam="2">  1       22 0.19286639E+00 0.52505597E+02</pdfrwt>
<totfact> 0.48507299E-01</totfact>
</mgrwt>
</event>
<event>
 4    1  0.2489496E+000  0.5171778E+02  0.7957747E-01  0.1436291E+00
         13   -1    0    0    0    0  0.00000000000E+00  0.00000000000E+00  0.99999944183E+02  0.10000000000E+03  0.10566000000E+00 0. -1.
         22   -1    0    0    0    0 -0.00000000000E+00 -0.00000000000E+00 -0.16531329843E+02  0.16531329843E+02  0.00000000000E+00 0. -1.
         13    1    1    2    0    0  0.56479063580E+01  0.11951141989E+02 -0.49357531621E+01  0.14110331831E+02  0.10566000000E+00 0.  1.
        996    1    1    2    0    0 -0.56479063580E+01 -0.11951141989E+02  0.88404367501E+02  0.10242099801E+03  0.50000000000E+02 0.  0.
<mgrwt>
<rscale>  0 0.51717779E+02</rscale>
<asrwt>0</asrwt>
<pdfrwt beam="1">  1       13 0.10000000E+01 0.51717779E+02</pdfrwt>
<pdfrwt beam="2">  1       22 0.16531353E+00 0.51717779E+02</pdfrwt>
<totfact> 0.63797688E-01</totfact>
</mgrwt>
</event>
<event>
 4    1  0.2489496E+000  0.5121337E+02  0.7957747E-01  0.1438905E+00
         13   -1    0    0    0    0  0.00000000000E+00  0.00000000000E+00  0.99999944175E+02  0.99999999995E+02  0.10566000000E+00 0.  1.
         22   -1    0    0    0    0 -0.00000000000E+00 -0.00000000000E+00 -0.14997698811E+02  0.14997698811E+02  0.00000000000E+00 0. -1.
         13    1    1    2    0    0 -0.10862998408E+02 -0.21919618535E+01 -0.44338095379E+01  0.11936467746E+02  0.10566000000E+00 0. -1.
        996    1    1    2    0    0  0.10862998408E+02  0.21919618535E+01  0.89436054902E+02  0.10306123106E+03  0.50000000000E+02 0.  0.
<mgrwt>
<rscale>  0 0.51213372E+02</rscale>
<asrwt>0</asrwt>
<pdfrwt beam="1">  1       13 0.10000000E+01 0.51213372E+02</pdfrwt>
<pdfrwt beam="2">  1       22 0.14997723E+00 0.51213372E+02</pdfrwt>
<totfact> 0.75189746E-01</totfact>
</mgrwt>
</event>
<event>
 4    1  0.2489496E+000  0.5126229E+02  0.7957747E-01  0.1438650E+00
         13   -1    0    0    0    0  0.00000000000E+00  0.00000000000E+00  0.99999944176E+02  0.99999999996E+02  0.10566000000E+00 0.  1.
         22   -1    0    0    0    0 -0.00000000000E+00 -0.00000000000E+00 -0.12686586017E+02  0.12686586017E+02  0.00000000000E+00 0. -1.
         13    1    1    2    0    0 -0.37835153401E+01  0.10653983486E+02 -0.15050356900E+00  0.11307350167E+02  0.10566000000E+00 0. -1.
        996    1    1    2    0    0  0.37835153401E+01 -0.10653983486E+02  0.87463861727E+02  0.10137923585E+03  0.50000000000E+02 0.  0.
<mgrwt>
<rscale>  0 0.51262290E+02</rscale>
<asrwt>0</asrwt>
<pdfrwt beam="1">  1       13 0.10000000E+01 0.51262290E+02</pdfrwt>
<pdfrwt beam="2">  1       22 0.12686610E+00 0.51262290E+02</pdfrwt>
<totfact> 0.98470535E-01</totfact>
</mgrwt>
</event>
<event>
 4    1  0.2489496E+000  0.5125549E+02  0.7957747E-01  0.1438685E+00
         13   -1    0    0    0    0  0.00000000000E+00  0.00000000000E+00  0.99999944179E+02  0.10000000000E+03  0.10566000000E+00 0. -1.
         22   -1    0    0    0    0 -0.00000000000E+00 -0.00000000000E+00 -0.13296815303E+02  0.13296815303E+02  0.00000000000E+00 0. -1.
         13    1    1    2    0    0  0.11264283393E+02  0.49153670115E+00 -0.14069680892E+01  0.11362940285E+02  0.10566000000E+00 0.  1.
        996    1    1    2    0    0 -0.11264283393E+02 -0.49153670115E+00  0.88110096966E+02  0.10193387502E+03  0.50000000000E+02 0.  0.
<mgrwt>
<rscale>  0 0.51255494E+02</rscale>
<asrwt>0</asrwt>
<pdfrwt beam="1">  1       13 0.10000000E+01 0.51255494E+02</pdfrwt>
<pdfrwt beam="2">  1       22 0.13296840E+00 0.51255494E+02</pdfrwt>
<totfact> 0.91448746E-01</totfact>
</mgrwt>
</event>
<event>
 4    1  0.2489496E+000  0.5106735E+02  0.7957747E-01  0.1439668E+00
         13   -1    0    0    0    0  0.00000000000E+00  0.00000000000E+00  0.99999944175E+02  0.99999999995E+02  0.10566000000E+00 0. -1.
         22   -1    0    0    0    0 -0.00000000000E+00 -0.00000000000E+00 -0.10977299744E+02  0.10977299744E+02  0.00000000000E+00 0. -1.
         13    1    1    2    0    0 -0.81279966692E+01 -0.64660567590E+01  0.35552079534E+02  0.37038301028E+02  0.10566000000E+00 0.  1.
        996    1    1    2    0    0  0.81279966692E+01  0.64660567590E+01  0.53470564898E+02  0.73938998711E+02  0.50000000000E+02 0.  0.
<mgrwt>
<rscale>  0 0.51067350E+02</rscale>
<asrwt>0</asrwt>
<pdfrwt beam="1">  1       13 0.10000000E+01 0.51067350E+02</pdfrwt>
<pdfrwt beam="2">  1       22 0.10977325E+00 0.51067350E+02</pdfrwt>
<totfact> 0.12268226E+00</totfact>
</mgrwt>
</event>
<event>
 4    1  0.2489496E+000  0.6024827E+02  0.7957747E-01  0.1396793E+00
         13   -1    0    0    0    0  0.00000000000E+00  0.00000000000E+00  0.99999944183E+02  0.10000000000E+03  0.10566000000E+00 0.  1.
         22   -1    0    0    0    0 -0.00000000000E+00 -0.00000000000E+00 -0.39512283417E+02  0.39512283417E+02  0.00000000000E+00 0. -1.
         13    1    1    2    0    0  0.10390887884E+02  0.31966913008E+02 -0.19892924176E+02  0.39058848865E+02  0.10566000000E+00 0. -1.
        996    1    1    2    0    0 -0.10390887884E+02 -0.31966913008E+02  0.80380584943E+02  0.10045343456E+03  0.50000000000E+02 0.  0.
<mgrwt>
<rscale>  0 0.60248270E+02</rscale>
<asrwt>0</asrwt>
<pdfrwt beam="1">  1       13 0.10000000E+01 0.60248270E+02</pdfrwt>
<pdfrwt beam="2">  1       22 0.39512300E+00 0.60248270E+02</pdfrwt>
<totfact> 0.12735306E-01</totfact>
</mgrwt>
</event>
<event>
 4    1  0.2489496E+000  0.5162213E+02  0.7957747E-01  0.1436784E+00
         13   -1    0    0    0    0  0.00000000000E+00  0.00000000000E+00  0.99999944181E+02  0.10000000000E+03  0.10566000000E+00 0.  1.
         22   -1    0    0    0    0 -0.00000000000E+00 -0.00000000000E+00 -0.11580163756E+02  0.11580163756E+02  0.00000000000E+00 0.  1.
         13    1    1    2    0    0  0.11897397460E+02 -0.48266217960E+01  0.56409112603E+01  0.14024100262E+02  0.10566000000E+00 0. -1.
        996    1    1    2    0    0 -0.11897397460E+02  0.48266217960E+01  0.82778869165E+02  0.97556063495E+02  0.50000000000E+02 0.  0.
<mgrwt>
<rscale>  0 0.51622130E+02</rscale>
<asrwt>0</asrwt>
<pdfrwt beam="1">  1       13 0.10000000E+01 0.51622130E+02</pdfrwt>
<pdfrwt beam="2">  1       22 0.11580188E+00 0.51622130E+02</pdfrwt>
<totfact> 0.11338168E+00</totfact>
</mgrwt>
</event>
<event>
 4    1  0.2489496E+000  0.5434011E+02  0.7957747E-01  0.1423246E+00
         13   -1    0    0    0    0  0.00000000000E+00  0.00000000000E+00  0.99999944183E+02  0.10000000000E+03  0.10566000000E+00 0.  1.
         22   -1    0    0    0    0 -0.00000000000E+00 -0.00000000000E+00 -0.14900232577E+02  0.14900232577E+02  0.00000000000E+00 0.  1.
         13    1    1    2    0    0  0.20617080022E+02 -0.52710617654E+01  0.14248988343E+02  0.25610406353E+02  0.10566000000E+00 0. -1.
        996    1    1    2    0    0 -0.20617080022E+02  0.52710617654E+01  0.70850723263E+02  0.89289826227E+02  0.50000000000E+02 0.  0.
<mgrwt>
<rscale>  0 0.54340115E+02</rscale>
<asrwt>0</asrwt>
<pdfrwt beam="1">  1       13 0.10000000E+01 0.54340115E+02</pdfrwt>
<pdfrwt beam="2">  1       22 0.14900256E+00 0.54340115E+02</pdfrwt>
<totfact> 0.76489892E-01</totfact>
</mgrwt>
</event>
<event>
 4    1  0.2489496E+000  0.5160947E+02  0.7957747E-01  0.1436849E+00
         13   -1    0    0    0    0  0.00000000000E+00  0.00000000000E+00  0.99999944178E+02  0.99999999998E+02  0.10566000000E+00 0. -1.
         22   -1    0    0    0    0 -0.00000000000E+00 -0.00000000000E+00 -0.11287636079E+02  0.11287636079E+02  0.00000000000E+00 0. -1.
         13    1    1    2    0    0 -0.11749205641E+02 -0.50491182129E+01  0.68307275135E+01  0.14498532006E+02  0.10566000000E+00 0.  1.
        996    1    1    2    0    0  0.11749205641E+02  0.50491182129E+01  0.81881580585E+02  0.96789104072E+02  0.50000000000E+02 0.  0.
<mgrwt>
<rscale>  0 0.51609470E+02</rscale>
<asrwt>0</asrwt>
<pdfrwt beam="1">  1       13 0.10000000E+01 0.51609470E+02</pdfrwt>
<pdfrwt beam="2">  1       22 0.11287661E+00 0.51609470E+02</pdfrwt>
<totfact> 0.11783044E+00</totfact>
</mgrwt>
</event>
<event>
 4    1  0.2489496E+000  0.7544018E+02  0.7957747E-01  0.1342513E+00
         13   -1    0    0    0    0  0.00000000000E+00  0.00000000000E+00  0.99999944188E+02  0.10000000001E+03  0.10566000000E+00 0. -1.
         22   -1    0    0    0    0 -0.00000000000E+00 -0.00000000000E+00 -0.44253985783E+02  0.44253985783E+02  0.00000000000E+00 0.  1.
         13    1    1    2    0    0 -0.38549075859E+02  0.41293942575E+02  0.14708316792E+02  0.58374366719E+02  0.10566000000E+00 0.  1.
        996    1    1    2    0    0  0.38549075859E+02 -0.41293942575E+02  0.41037641613E+02  0.85879619073E+02  0.50000000000E+02 0.  0.
<mgrwt>
<rscale>  0 0.75440181E+02</rscale>
<asrwt>0</asrwt>
<pdfrwt beam="1">  1       13 0.10000000E+01 0.75440181E+02</pdfrwt>
<pdfrwt beam="2">  1       22 0.44254001E+00 0.75440181E+02</pdfrwt>
<totfact> 0.10161155E-01</totfact>
</mgrwt>
</event>
<event>
 4    1  0.2489496E+000  0.5451537E+02  0.7957747E-01  0.1422405E+00
         13   -1    0    0    0    0  0.00000000000E+00  0.00000000000E+00  0.99999944177E+02  0.99999999997E+02  0.10566000000E+00 0.  1.
         22   -1    0    0    0    0 -0.00000000000E+00 -0.00000000000E+00 -0.19070374646E+02  0.19070374646E+02  0.00000000000E+00 0.  1.
         13    1    1    2    0    0 -0.21507101040E+02 -0.30610851821E+01  0.54124286987E+02  0.58321310372E+02  0.10566000000E+00 0. -1.
        996    1    1    2    0    0  0.21507101040E+02  0.30610851821E+01  0.26805282544E+02  0.60749064272E+02  0.50000000000E+02 0.  0.
<mgrwt>
<rscale>  0 0.54515371E+02</rscale>
<asrwt>0</asrwt>
<pdfrwt beam="1">  1       13 0.10000000E+01 0.54515371E+02</pdfrwt>
<pdfrwt beam="2">  1       22 0.19070397E+00 0.54515371E+02</pdfrwt>
<totfact> 0.49700609E-01</totfact>
</mgrwt>
</event>
<event>
 4    1  0.2489496E+000  0.5134815E+02  0.7957747E-01  0.1438203E+00
         13   -1    0    0    0    0  0.00000000000E+00  0.00000000000E+00  0.99999944174E+02  0.99999999994E+02  0.10566000000E+00 0. -1.
         22   -1    0    0    0    0 -0.00000000000E+00 -0.00000000000E+00 -0.31045418900E+02  0.31045418900E+02  0.00000000000E+00 0.  1.
         13    1    1    2    0    0 -0.11012526406E+02 -0.39187961664E+01 -0.22957780571E+02  0.25762444644E+02  0.10566000000E+00 0.  1.
        996    1    1    2    0    0  0.11012526406E+02  0.39187961664E+01  0.91912305845E+02  0.10528297425E+03  0.50000000000E+02 0.  0.
<mgrwt>
<rscale>  0 0.51348152E+02</rscale>
<asrwt>0</asrwt>
<pdfrwt beam="1">  1       13 0.10000000E+01 0.51348152E+02</pdfrwt>
<pdfrwt beam="2">  1       22 0.31045438E+00 0.51348152E+02</pdfrwt>
<totfact> 0.19418085E-01</totfact>
</mgrwt>
</event>
<event>
 4    1  0.2489496E+000  0.5174556E+02  0.7957747E-01  0.1436148E+00
         13   -1    0    0    0    0  0.00000000000E+00  0.00000000000E+00  0.99999944181E+02  0.10000000000E+03  0.10566000000E+00 0. -1.
         22   -1    0    0    0    0 -0.00000000000E+00 -0.00000000000E+00 -0.48646057092E+02  0.48646057092E+02  0.00000000000E+00 0.  1.
         13    1    1    2    0    0 -0.30456600455E+01  0.12974088647E+02 -0.40820093966E+02  0.42940589851E+02  0.10566000000E+00 0.  1.
        996    1    1    2    0    0  0.30456600455E+01 -0.12974088647E+02  0.92173981055E+02  0.10570546724E+03  0.50000000000E+02 0.  0.
<mgrwt>
<rscale>  0 0.51745560E+02</rscale>
<asrwt>0</asrwt>
<pdfrwt beam="1">  1       13 0.10000000E+01 0.51745560E+02</pdfrwt>
<pdfrwt beam="2">  1       22 0.48646071E+00 0.51745560E+02</pdfrwt>
<totfact> 0.79360761E-02</totfact>
</mgrwt>
</event>
<event>
 4    1  0.2489496E+000  0.5108291E+02  0.7957747E-01  0.1439587E+00
         13   -1    0    0    0    0  0.00000000000E+00  0.00000000000E+00  0.99999944176E+02  0.99999999997E+02  0.10566000000E+00 0.  1.
         22   -1    0    0    0    0 -0.00000000000E+00 -0.00000000000E+00 -0.94703855968E+01  0.94703855968E+01  0.00000000000E+00 0.  1.
         13    1    1    2    0    0  0.10034715736E+02  0.29610540322E+01  0.15048604602E+02  0.18328530366E+02  0.10566000000E+00 0. -1.
        996    1    1    2    0    0 -0.10034715736E+02 -0.29610540322E+01  0.75480953978E+02  0.91141855228E+02  0.50000000000E+02 0.  0.
<mgrwt>
<rscale>  0 0.51082907E+02</rscale>
<asrwt>0</asrwt>
<pdfrwt beam="1">  1       13 0.10000000E+01 0.51082907E+02</pdfrwt>
<pdfrwt beam="2">  1       22 0.94704109E-01 0.51082907E+02</pdfrwt>
<totfact> 0.15211208E+00</totfact>
</mgrwt>
</event>
<event>
 4    1  0.2489496E+000  0.5300726E+02  0.7957747E-01  0.1429765E+00
         13   -1    0    0    0    0  0.00000000000E+00  0.00000000000E+00  0.99999944181E+02  0.10000000000E+03  0.10566000000E+00 0.  1.
         22   -1    0    0    0    0 -0.00000000000E+00 -0.00000000000E+00 -0.18054183531E+02  0.18054183531E+02  0.00000000000E+00 0. -1.
         13    1    1    2    0    0 -0.12970447538E+02  0.11896916300E+02 -0.30707846341E+01  0.17866449258E+02  0.10566000000E+00 0. -1.
        996    1    1    2    0    0  0.12970447538E+02 -0.11896916300E+02  0.85016545284E+02  0.10018773427E+03  0.50000000000E+02 0.  0.
<mgrwt>
<rscale>  0 0.53007255E+02</rscale>
<asrwt>0</asrwt>
<pdfrwt beam="1">  1       13 0.10000000E+01 0.53007255E+02</pdfrwt>
<pdfrwt beam="2">  1       22 0.18054206E+00 0.53007255E+02</pdfrwt>
<totfact> 0.54747811E-01</totfact>
</mgrwt>
</event>
<event>
 4    1  0.2489496E+000  0.5157871E+02  0.7957747E-01  0.1437008E+00
         13   -1    0    0    0    0  0.00000000000E+00  0.00000000000E+00  0.99999944177E+02  0.99999999997E+02  0.10566000000E+00 0.  1.
         22   -1    0    0    0    0 -0.00000000000E+00 -0.00000000000E+00 -0.10893218769E+02  0.10893218769E+02  0.00000000000E+00 0.  1.
         13    1    1    2    0    0 -0.12034951246E+02  0.39400179076E+01  0.86971718714E+01  0.15362804276E+02  0.10566000000E+00 0. -1.
        996    1    1    2    0    0  0.12034951246E+02 -0.39400179076E+01  0.80409553537E+02  0.95530414490E+02  0.50000000000E+02 0.  0.
<mgrwt>
<rscale>  0 0.51578715E+02</rscale>
<asrwt>0</asrwt>
<pdfrwt beam="1">  1       13 0.10000000E+01 0.51578715E+02</pdfrwt>
<pdfrwt beam="2">  1       22 0.10893244E+00 0.51578715E+02</pdfrwt>
<totfact> 0.12423997E+00</totfact>
</mgrwt>
</event>
<event>
 4    1  0.2489496E+000  0.5105372E+02  0.7957747E-01  0.1439740E+00
         13   -1    0    0    0    0  0.00000000000E+00  0.00000000000E+00  0.99999944173E+02  0.99999999993E+02  0.10566000000E+00 0. -1.
         22   -1    0    0    0    0 -0.00000000000E+00 -0.00000000000E+00 -0.10954876495E+02  0.10954876495E+02  0.00000000000E+00 0. -1.
         13    1    1    2    0    0 -0.44183089619E+01  0.93252811451E+01  0.27352175252E+01  0.10675902841E+02  0.10566000000E+00 0.  1.
        996    1    1    2    0    0  0.44183089619E+01 -0.93252811451E+01  0.86309850153E+02  0.10027897365E+03  0.50000000000E+02 0.  0.
<mgrwt>
<rscale>  0 0.51053720E+02</rscale>
<asrwt>0</asrwt>
<pdfrwt beam="1">  1       13 0.10000000E+01 0.51053720E+02</pdfrwt>
<pdfrwt beam="2">  1       22 0.10954901E+00 0.51053720E+02</pdfrwt>
<totfact> 0.12305159E+00</totfact>
</mgrwt>
</event>
<event>
 4    1  0.2489496E+000  0.5268953E+02  0.7957747E-01  0.1431352E+00
         13   -1    0    0    0    0  0.00000000000E+00  0.00000000000E+00  0.99999944179E+02  0.99999999999E+02  0.10566000000E+00 0. -1.
         22   -1    0    0    0    0 -0.00000000000E+00 -0.00000000000E+00 -0.19346015944E+02  0.19346015944E+02  0.00000000000E+00 0.  1.
         13    1    1    2    0    0 -0.15624193259E+02  0.56631635800E+01 -0.62179275153E+01  0.17744312422E+02  0.10566000000E+00 0.  1.
        996    1    1    2    0    0  0.15624193259E+02 -0.56631635800E+01  0.86871855750E+02  0.10160170352E+03  0.50000000000E+02 0.  0.
<mgrwt>
<rscale>  0 0.52689533E+02</rscale>
<asrwt>0</asrwt>
<pdfrwt beam="1">  1       13 0.10000000E+01 0.52689533E+02</pdfrwt>
<pdfrwt beam="2">  1       22 0.19346038E+00 0.52689533E+02</pdfrwt>
<totfact> 0.48249242E-01</totfact>
</mgrwt>
</event>
<event>
 4    1  0.2489496E+000  0.5417031E+02  0.7957747E-01  0.1424064E+00
         13   -1    0    0    0    0  0.00000000000E+00  0.00000000000E+00  0.99999944185E+02  0.10000000001E+03  0.10566000000E+00 0.  1.
         22   -1    0    0    0    0 -0.00000000000E+00 -0.00000000000E+00 -0.34823455269E+02  0.34823455269E+02  0.00000000000E+00 0. -1.
         13    1    1    2    0    0 -0.20559053670E+02 -0.34274773040E+01 -0.23186525025E+02  0.31177690666E+02  0.10566000000E+00 0. -1.
        996    1    1    2    0    0  0.20559053670E+02  0.34274773040E+01  0.88363013941E+02  0.10364576461E+03  0.50000000000E+02 0.  0.
<mgrwt>
<rscale>  0 0.54170308E+02</rscale>
<asrwt>0</asrwt>
<pdfrwt beam="1">  1       13 0.10000000E+01 0.54170308E+02</pdfrwt>
<pdfrwt beam="2">  1       22 0.34823473E+00 0.54170308E+02</pdfrwt>
<totfact> 0.15888782E-01</totfact>
</mgrwt>
</event>
<event>
 4    1  0.2489496E+000  0.5313672E+02  0.7957747E-01  0.1429122E+00
         13   -1    0    0    0    0  0.00000000000E+00  0.00000000000E+00  0.99999944189E+02  0.10000000001E+03  0.10566000000E+00 0.  1.
         22   -1    0    0    0    0 -0.00000000000E+00 -0.00000000000E+00 -0.68594967028E+02  0.68594967028E+02  0.00000000000E+00 0. -1.
         13    1    1    2    0    0  0.13603957316E+01  0.17934904387E+02 -0.60125681945E+02  0.62758427843E+02  0.10566000000E+00 0. -1.
        996    1    1    2    0    0 -0.13603957316E+01 -0.17934904387E+02  0.91530659106E+02  0.10583653919E+03  0.50000000000E+02 0.  0.
<mgrwt>
<rscale>  0 0.53136724E+02</rscale>
<asrwt>0</asrwt>
<pdfrwt beam="1">  1       13 0.10000000E+01 0.53136724E+02</pdfrwt>
<pdfrwt beam="2">  1       22 0.68594976E+00 0.53136724E+02</pdfrwt>
<totfact> 0.81199570E-02</totfact>
</mgrwt>
</event>
<event>
 4    1  0.2489496E+000  0.5160292E+02  0.7957747E-01  0.1436883E+00
         13   -1    0    0    0    0  0.00000000000E+00  0.00000000000E+00  0.99999944179E+02  0.99999999999E+02  0.10566000000E+00 0. -1.
         22   -1    0    0    0    0 -0.00000000000E+00 -0.00000000000E+00 -0.41415768616E+02  0.41415768616E+02  0.00000000000E+00 0.  1.
         13    1    1    2    0    0  0.12759960329E+02  0.21119348536E+00 -0.33505425877E+02  0.35853673697E+02  0.10566000000E+00 0.  1.
        996    1    1    2    0    0 -0.12759960329E+02 -0.21119348536E+00  0.92089601440E+02  0.10556209492E+03  0.50000000000E+02 0.  0.
<mgrwt>
<rscale>  0 0.51602918E+02</rscale>
<asrwt>0</asrwt>
<pdfrwt beam="1">  1       13 0.10000000E+01 0.51602918E+02</pdfrwt>
<pdfrwt beam="2">  1       22 0.41415785E+00 0.51602918E+02</pdfrwt>
<totfact> 0.11555023E-01</totfact>
</mgrwt>
</event>
<event>
 4    1  0.2489496E+000  0.5553043E+02  0.7957747E-01  0.1417607E+00
         13   -1    0    0    0    0  0.00000000000E+00  0.00000000000E+00  0.99999944179E+02  0.99999999999E+02  0.10566000000E+00 0. -1.
         22   -1    0    0    0    0 -0.00000000000E+00 -0.00000000000E+00 -0.15992070940E+02  0.15992070940E+02  0.00000000000E+00 0. -1.
         13    1    1    2    0    0 -0.44271996365E+01  0.23749296578E+02  0.21040257891E+02  0.32036429275E+02  0.10566000000E+00 0.  1.
        996    1    1    2    0    0  0.44271996365E+01 -0.23749296578E+02  0.62967615348E+02  0.83955641664E+02  0.50000000000E+02 0.  0.
<mgrwt>
<rscale>  0 0.55530435E+02</rscale>
<asrwt>0</asrwt>
<pdfrwt beam="1">  1       13 0.10000000E+01 0.55530435E+02</pdfrwt>
<pdfrwt beam="2">  1       22 0.15992094E+00 0.55530435E+02</pdfrwt>
<totfact> 0.68041459E-01</totfact>
</mgrwt>
</event>
<event>
 4    1  0.2489496E+000  0.5290278E+02  0.7957747E-01  0.1430285E+00
         13   -1    0    0    0    0  0.00000000000E+00  0.00000000000E+00  0.99999944179E+02  0.99999999999E+02  0.10566000000E+00 0. -1.
         22   -1    0    0    0    0 -0.00000000000E+00 -0.00000000000E+00 -0.34237868178E+02  0.34237868178E+02  0.00000000000E+00 0.  1.
         13    1    1    2    0    0  0.14766072340E+01 -0.17219853345E+02 -0.24280890248E+02  0.29803968082E+02  0.10566000000E+00 0.  1.
        996    1    1    2    0    0 -0.14766072340E+01  0.17219853345E+02  0.90042966249E+02  0.10443390009E+03  0.50000000000E+02 0.  0.
<mgrwt>
<rscale>  0 0.52902776E+02</rscale>
<asrwt>0</asrwt>
<pdfrwt beam="1">  1       13 0.10000000E+01 0.52902776E+02</pdfrwt>
<pdfrwt beam="2">  1       22 0.34237887E+00 0.52902776E+02</pdfrwt>
<totfact> 0.16345257E-01</totfact>
</mgrwt>
</event>
<event>
 4    1  0.2489496E+000  0.5102072E+02  0.7957747E-01  0.1439913E+00
         13   -1    0    0    0    0  0.00000000000E+00  0.00000000000E+00  0.99999944175E+02  0.99999999995E+02  0.10566000000E+00 0. -1.
         22   -1    0    0    0    0 -0.00000000000E+00 -0.00000000000E+00 -0.96409366634E+01  0.96409366634E+01  0.00000000000E+00 0. -1.
         13    1    1    2    0    0 -0.29886907890E+01 -0.97047428105E+01  0.87967163460E+01  0.13435314963E+02  0.10566000000E+00 0.  1.
        996    1    1    2    0    0  0.29886907890E+01  0.97047428105E+01  0.81562291166E+02  0.96205621696E+02  0.50000000000E+02 0.  0.
<mgrwt>
<rscale>  0 0.51020724E+02</rscale>
<asrwt>0</asrwt>
<pdfrwt beam="1">  1       13 0.10000000E+01 0.51020724E+02</pdfrwt>
<pdfrwt beam="2">  1       22 0.96409619E-01 0.51020724E+02</pdfrwt>
<totfact> 0.14825380E+00</totfact>
</mgrwt>
</event>
<event>
 4    1  0.2489496E+000  0.5123812E+02  0.7957747E-01  0.1438776E+00
         13   -1    0    0    0    0  0.00000000000E+00  0.00000000000E+00  0.99999944175E+02  0.99999999995E+02  0.10566000000E+00 0. -1.
         22   -1    0    0    0    0 -0.00000000000E+00 -0.00000000000E+00 -0.16032462072E+02  0.16032462072E+02  0.00000000000E+00 0.  1.
         13    1    1    2    0    0 -0.10932441320E+02  0.24138102789E+01 -0.58465165148E+01  0.12630822327E+02  0.10566000000E+00 0.  1.
        996    1    1    2    0    0  0.10932441320E+02 -0.24138102789E+01  0.89813998617E+02  0.10340163974E+03  0.50000000000E+02 0.  0.
<mgrwt>
<rscale>  0 0.51238118E+02</rscale>
<asrwt>0</asrwt>
<pdfrwt beam="1">  1       13 0.10000000E+01 0.51238118E+02</pdfrwt>
<pdfrwt beam="2">  1       22 0.16032486E+00 0.51238118E+02</pdfrwt>
<totfact> 0.67188508E-01</totfact>
</mgrwt>
</event>
<event>
 4    1  0.2489496E+000  0.5468609E+02  0.7957747E-01  0.1421589E+00
         13   -1    0    0    0    0  0.00000000000E+00  0.00000000000E+00  0.99999944176E+02  0.99999999996E+02  0.10566000000E+00 0.  1.
         22   -1    0    0    0    0 -0.00000000000E+00 -0.00000000000E+00 -0.17239324839E+02  0.17239324839E+02  0.00000000000E+00 0.  1.
         13    1    1    2    0    0  0.13487385625E+02 -0.17568680117E+02  0.46835111386E+02  0.51808367227E+02  0.10566000000E+00 0. -1.
        996    1    1    2    0    0 -0.13487385625E+02  0.17568680117E+02  0.35925507951E+02  0.65430957609E+02  0.50000000000E+02 0.  0.
<mgrwt>
<rscale>  0 0.54686087E+02</rscale>
<asrwt>0</asrwt>
<pdfrwt beam="1">  1       13 0.10000000E+01 0.54686087E+02</pdfrwt>
<pdfrwt beam="2">  1       22 0.17239348E+00 0.54686087E+02</pdfrwt>
<totfact> 0.59622498E-01</totfact>
</mgrwt>
</event>
<event>
 4    1  0.2489496E+000  0.5115932E+02  0.7957747E-01  0.1439187E+00
         13   -1    0    0    0    0  0.00000000000E+00  0.00000000000E+00  0.99999944182E+02  0.10000000000E+03  0.10566000000E+00 0. -1.
         22   -1    0    0    0    0 -0.00000000000E+00 -0.00000000000E+00 -0.96175125658E+01  0.96175125658E+01  0.00000000000E+00 0. -1.
         13    1    1    2    0    0  0.10826790261E+02  0.23793173063E+00  0.14423509969E+02  0.18036762535E+02  0.10566000000E+00 0.  1.
        996    1    1    2    0    0 -0.10826790261E+02 -0.23793173063E+00  0.75958921648E+02  0.91580750034E+02  0.50000000000E+02 0.  0.
<mgrwt>
<rscale>  0 0.51159320E+02</rscale>
<asrwt>0</asrwt>
<pdfrwt beam="1">  1       13 0.10000000E+01 0.51159320E+02</pdfrwt>
<pdfrwt beam="2">  1       22 0.96175378E-01 0.51159320E+02</pdfrwt>
<totfact> 0.14882279E+00</totfact>
</mgrwt>
</event>
<event>
 4    1  0.2489496E+000  0.6463283E+02  0.7957747E-01  0.1379358E+00
         13   -1    0    0    0    0  0.00000000000E+00  0.00000000000E+00  0.99999944182E+02  0.10000000000E+03  0.10566000000E+00 0.  1.
         22   -1    0    0    0    0 -0.00000000000E+00 -0.00000000000E+00 -0.27903397142E+02  0.27903397142E+02  0.00000000000E+00 0. -1.
         13    1    1    2    0    0 -0.36390695504E+02  0.18791483868E+02  0.25903726012E+02  0.48460466058E+02  0.10566000000E+00 0. -1.
        996    1    1    2    0    0  0.36390695504E+02 -0.18791483868E+02  0.46192821028E+02  0.79442931087E+02  0.50000000000E+02 0.  0.
<mgrwt>
<rscale>  0 0.64632829E+02</rscale>
<asrwt>0</asrwt>
<pdfrwt beam="1">  1       13 0.10000000E+01 0.64632829E+02</pdfrwt>
<pdfrwt beam="2">  1       22 0.27903417E+00 0.64632829E+02</pdfrwt>
<totfact> 0.24153760E-01</totfact>
</mgrwt>
</event>
<event>
 4    1  0.2489496E+000  0.5191588E+02  0.7957747E-01  0.1435274E+00
         13   -1    0    0    0    0  0.00000000000E+00  0.00000000000E+00  0.99999944182E+02  0.10000000000E+03  0.10566000000E+00 0.  1.
         22   -1    0    0    0    0 -0.00000000000E+00 -0.00000000000E+00 -0.12454512772E+02  0.12454512772E+02  0.00000000000E+00 0.  1.
         13    1    1    2    0    0  0.13730224073E+02 -0.25959829040E+01  0.48081889837E+01  0.14777957425E+02  0.10566000000E+00 0. -1.
        996    1    1    2    0    0 -0.13730224073E+02  0.25959829040E+01  0.82737242427E+02  0.97676555349E+02  0.50000000000E+02 0.  0.
<mgrwt>
<rscale>  0 0.51915876E+02</rscale>
<asrwt>0</asrwt>
<pdfrwt beam="1">  1       13 0.10000000E+01 0.51915876E+02</pdfrwt>
<pdfrwt beam="2">  1       22 0.12454537E+00 0.51915876E+02</pdfrwt>
<totfact> 0.10148754E+00</totfact>
</mgrwt>
</event>
<event>
 4    1  0.2489496E+000  0.5394096E+02  0.7957747E-01  0.1425175E+00
         13   -1    0    0    0    0  0.00000000000E+00  0.00000000000E+00  0.99999944180E+02  0.10000000000E+03  0.10566000000E+00 0.  1.
         22   -1    0    0    0    0 -0.00000000000E+00 -0.00000000000E+00 -0.14313342154E+02  0.14313342154E+02  0.00000000000E+00 0. -1.
         13    1    1    2    0    0  0.19167142906E+02 -0.64998581281E+01  0.14045128420E+02  0.24635428132E+02  0.10566000000E+00 0. -1.
        996    1    1    2    0    0 -0.19167142906E+02  0.64998581281E+01  0.71641473606E+02  0.89677914022E+02  0.50000000000E+02 0.  0.
<mgrwt>
<rscale>  0 0.53940963E+02</rscale>
<asrwt>0</asrwt>
<pdfrwt beam="1">  1       13 0.10000000E+01 0.53940963E+02</pdfrwt>
<pdfrwt beam="2">  1       22 0.14313366E+00 0.53940963E+02</pdfrwt>
<totfact> 0.81666734E-01</totfact>
</mgrwt>
</event>
<event>
 4    1  0.2489496E+000  0.5232419E+02  0.7957747E-01  0.1433194E+00
         13   -1    0    0    0    0  0.00000000000E+00  0.00000000000E+00  0.99999944177E+02  0.99999999998E+02  0.10566000000E+00 0. -1.
         22   -1    0    0    0    0 -0.00000000000E+00 -0.00000000000E+00 -0.15769833699E+02  0.15769833699E+02  0.00000000000E+00 0.  1.
         13    1    1    2    0    0 -0.13795693770E+02 -0.68919994438E+01 -0.13294086927E+01  0.15478995912E+02  0.10566000000E+00 0.  1.
        996    1    1    2    0    0  0.13795693770E+02  0.68919994438E+01  0.85559519171E+02  0.10029083779E+03  0.50000000000E+02 0.  0.
<mgrwt>
<rscale>  0 0.52324190E+02</rscale>
<asrwt>0</asrwt>
<pdfrwt beam="1">  1       13 0.10000000E+01 0.52324190E+02</pdfrwt>
<pdfrwt beam="2">  1       22 0.15769857E+00 0.52324190E+02</pdfrwt>
<totfact> 0.69258077E-01</totfact>
</mgrwt>
</event>
<event>
 4    1  0.2489496E+000  0.5533065E+02  0.7957747E-01  0.1418542E+00
         13   -1    0    0    0    0  0.00000000000E+00  0.00000000000E+00  0.99999944183E+02  0.10000000000E+03  0.10566000000E+00 0. -1.
         22   -1    0    0    0    0 -0.00000000000E+00 -0.00000000000E+00 -0.40388889418E+02  0.40388889418E+02  0.00000000000E+00 0.  1.
         13    1    1    2    0    0 -0.13600649614E+01 -0.23656530940E+02 -0.28054423401E+02  0.36722514473E+02  0.10566000000E+00 0.  1.
        996    1    1    2    0    0  0.13600649614E+01  0.23656530940E+02  0.87665478166E+02  0.10366637495E+03  0.50000000000E+02 0.  0.
<mgrwt>
<rscale>  0 0.55330654E+02</rscale>
<asrwt>0</asrwt>
<pdfrwt beam="1">  1       13 0.10000000E+01 0.55330654E+02</pdfrwt>
<pdfrwt beam="2">  1       22 0.40388906E+00 0.55330654E+02</pdfrwt>
<totfact> 0.12171350E-01</totfact>
</mgrwt>
</event>
<event>
 4    1  0.2489496E+000  0.5172990E+02  0.7957747E-01  0.1436228E+00
         13   -1    0    0    0    0  0.00000000000E+00  0.00000000000E+00  0.99999944182E+02  0.10000000000E+03  0.10566000000E+00 0.  1.
         22   -1    0    0    0    0 -0.00000000000E+00 -0.00000000000E+00 -0.10703541079E+02  0.10703541079E+02  0.00000000000E+00 0.  1.
         13    1    1    2    0    0  0.80565089456E+01  0.10539199159E+02  0.13414007054E+02  0.18866075495E+02  0.10566000000E+00 0. -1.
        996    1    1    2    0    0 -0.80565089456E+01 -0.10539199159E+02  0.75882396048E+02  0.91837465586E+02  0.50000000000E+02 0.  0.
<mgrwt>
<rscale>  0 0.51729895E+02</rscale>
<asrwt>0</asrwt>
<pdfrwt beam="1">  1       13 0.10000000E+01 0.51729895E+02</pdfrwt>
<pdfrwt beam="2">  1       22 0.10703566E+00 0.51729895E+02</pdfrwt>
<totfact> 0.12755647E+00</totfact>
</mgrwt>
</event>
<event>
 4    1  0.2489496E+000  0.5242271E+02  0.7957747E-01  0.1432696E+00
         13   -1    0    0    0    0  0.00000000000E+00  0.00000000000E+00  0.99999944175E+02  0.99999999995E+02  0.10566000000E+00 0. -1.
         22   -1    0    0    0    0 -0.00000000000E+00 -0.00000000000E+00 -0.15818831978E+02  0.15818831978E+02  0.00000000000E+00 0.  1.
         13    1    1    2    0    0 -0.14288513286E+01  0.15687523520E+02 -0.10158394140E+01  0.15785534646E+02  0.10566000000E+00 0.  1.
        996    1    1    2    0    0  0.14288513286E+01 -0.15687523520E+02  0.85196951611E+02  0.10003329733E+03  0.50000000000E+02 0.  0.
<mgrwt>
<rscale>  0 0.52422705E+02</rscale>
<asrwt>0</asrwt>
<pdfrwt beam="1">  1       13 0.10000000E+01 0.52422705E+02</pdfrwt>
<pdfrwt beam="2">  1       22 0.15818855E+00 0.52422705E+02</pdfrwt>
<totfact> 0.68907059E-01</totfact>
</mgrwt>
</event>
<event>
 4    1  0.2489496E+000  0.5893903E+02  0.7957747E-01  0.1402339E+00
         13   -1    0    0    0    0  0.00000000000E+00  0.00000000000E+00  0.99999944179E+02  0.99999999999E+02  0.10566000000E+00 0.  1.
         22   -1    0    0    0    0 -0.00000000000E+00 -0.00000000000E+00 -0.72079116106E+02  0.72079116106E+02  0.00000000000E+00 0. -1.
         13    1    1    2    0    0  0.25749884423E+02  0.17628173154E+02 -0.59184231460E+02  0.66907349776E+02  0.10566000000E+00 0. -1.
        996    1    1    2    0    0 -0.25749884423E+02 -0.17628173154E+02  0.87105059533E+02  0.10517176633E+03  0.50000000000E+02 0.  0.
<mgrwt>
<rscale>  0 0.58939028E+02</rscale>
<asrwt>0</asrwt>
<pdfrwt beam="1">  1       13 0.10000000E+01 0.58939028E+02</pdfrwt>
<pdfrwt beam="2">  1       22 0.72079124E+00 0.58939028E+02</pdfrwt>
<totfact> 0.63615916E-02</totfact>
</mgrwt>
</event>
<event>
 4    1  0.2489496E+000  0.5166643E+02  0.7957747E-01  0.1436555E+00
         13   -1    0    0    0    0  0.00000000000E+00  0.00000000000E+00  0.99999944178E+02  0.99999999999E+02  0.10566000000E+00 0. -1.
         22   -1    0    0    0    0 -0.00000000000E+00 -0.00000000000E+00 -0.11926010939E+02  0.11926010939E+02  0.00000000000E+00 0. -1.
         13    1    1    2    0    0 -0.12392837103E+02 -0.39796274742E+01  0.46959339362E+01  0.13837731239E+02  0.10566000000E+00 0.  1.
        996    1    1    2    0    0  0.12392837103E+02  0.39796274742E+01  0.83377999303E+02  0.98088279698E+02  0.50000000000E+02 0.  0.
<mgrwt>
<rscale>  0 0.51666429E+02</rscale>
<asrwt>0</asrwt>
<pdfrwt beam="1">  1       13 0.10000000E+01 0.51666429E+02</pdfrwt>
<pdfrwt beam="2">  1       22 0.11926036E+00 0.51666429E+02</pdfrwt>
<totfact> 0.10843477E+00</totfact>
</mgrwt>
</event>
<event>
 4    1  0.2489496E+000  0.5299051E+02  0.7957747E-01  0.1429848E+00
         13   -1    0    0    0    0  0.00000000000E+00  0.00000000000E+00  0.99999944177E+02  0.99999999997E+02  0.10566000000E+00 0. -1.
         22   -1    0    0    0    0 -0.00000000000E+00 -0.00000000000E+00 -0.42430063279E+02  0.42430063279E+02  0.00000000000E+00 0.  1.
         13    1    1    2    0    0 -0.17530514706E+02  0.82178386403E+00 -0.33069118679E+02  0.37437575360E+02  0.10566000000E+00 0.  1.
        996    1    1    2    0    0  0.17530514706E+02 -0.82178386403E+00  0.90638999577E+02  0.10499248792E+03  0.50000000000E+02 0.  0.
<mgrwt>
<rscale>  0 0.52990511E+02</rscale>
<asrwt>0</asrwt>
<pdfrwt beam="1">  1       13 0.10000000E+01 0.52990511E+02</pdfrwt>
<pdfrwt beam="2">  1       22 0.42430079E+00 0.52990511E+02</pdfrwt>
<totfact> 0.11008803E-01</totfact>
</mgrwt>
</event>
<event>
 4    1  0.2489496E+000  0.5323695E+02  0.7957747E-01  0.1428625E+00
         13   -1    0    0    0    0  0.00000000000E+00  0.00000000000E+00  0.99999944174E+02  0.99999999995E+02  0.10566000000E+00 0. -1.
         22   -1    0    0    0    0 -0.00000000000E+00 -0.00000000000E+00 -0.14721524385E+02  0.14721524385E+02  0.00000000000E+00 0.  1.
         13    1    1    2    0    0  0.48070688457E+01 -0.17637043383E+02  0.60258244234E+01  0.19248244964E+02  0.10566000000E+00 0.  1.
        996    1    1    2    0    0 -0.48070688457E+01  0.17637043383E+02  0.79252595366E+02  0.95473279416E+02  0.50000000000E+02 0.  0.
<mgrwt>
<rscale>  0 0.53236953E+02</rscale>
<asrwt>0</asrwt>
<pdfrwt beam="1">  1       13 0.10000000E+01 0.53236953E+02</pdfrwt>
<pdfrwt beam="2">  1       22 0.14721548E+00 0.53236953E+02</pdfrwt>
<totfact> 0.77865433E-01</totfact>
</mgrwt>
</event>
<event>
 4    1  0.2489496E+000  0.5186728E+02  0.7957747E-01  0.1435523E+00
         13   -1    0    0    0    0  0.00000000000E+00  0.00000000000E+00  0.99999944173E+02  0.99999999994E+02  0.10566000000E+00 0. -1.
         22   -1    0    0    0    0 -0.00000000000E+00 -0.00000000000E+00 -0.11200543337E+02  0.11200543337E+02  0.00000000000E+00 0. -1.
         13    1    1    2    0    0  0.13789491702E+02 -0.25421980560E+00  0.28507232295E+02  0.31668409595E+02  0.10566000000E+00 0.  1.
        996    1    1    2    0    0 -0.13789491702E+02  0.25421980560E+00  0.60292168542E+02  0.79532133736E+02  0.50000000000E+02 0.  0.
<mgrwt>
<rscale>  0 0.51867280E+02</rscale>
<asrwt>0</asrwt>
<pdfrwt beam="1">  1       13 0.10000000E+01 0.51867280E+02</pdfrwt>
<pdfrwt beam="2">  1       22 0.11200568E+00 0.51867280E+02</pdfrwt>
<totfact> 0.11927608E+00</totfact>
</mgrwt>
</event>
<event>
 4    1  0.2489496E+000  0.5419642E+02  0.7957747E-01  0.1423938E+00
         13   -1    0    0    0    0  0.00000000000E+00  0.00000000000E+00  0.99999944179E+02  0.99999999999E+02  0.10566000000E+00 0.  1.
         22   -1    0    0    0    0 -0.00000000000E+00 -0.00000000000E+00 -0.14103796981E+02  0.14103796981E+02  0.00000000000E+00 0.  1.
         13    1    1    2    0    0 -0.16697083880E+02 -0.12588060571E+02  0.23470252307E+02  0.31434309066E+02  0.10566000000E+00 0. -1.
        996    1    1    2    0    0  0.16697083880E+02  0.12588060571E+02  0.62425894891E+02  0.82669487914E+02  0.50000000000E+02 0.  0.
<mgrwt>
<rscale>  0 0.54196419E+02</rscale>
<asrwt>0</asrwt>
<pdfrwt beam="1">  1       13 0.10000000E+01 0.54196419E+02</pdfrwt>
<pdfrwt beam="2">  1       22 0.14103821E+00 0.54196419E+02</pdfrwt>
<totfact> 0.83698547E-01</totfact>
</mgrwt>
</event>
<event>
 4    1  0.2489496E+000  0.5183530E+02  0.7957747E-01  0.1435687E+00
         13   -1    0    0    0    0  0.00000000000E+00  0.00000000000E+00  0.99999944180E+02  0.10000000000E+03  0.10566000000E+00 0.  1.
         22   -1    0    0    0    0 -0.00000000000E+00 -0.00000000000E+00 -0.40491747153E+02  0.40491747153E+02  0.00000000000E+00 0. -1.
         13    1    1    2    0    0  0.41982698115E+01 -0.13010507217E+02 -0.32292625581E+02  0.35067415052E+02  0.10566000000E+00 0. -1.
        996    1    1    2    0    0 -0.41982698115E+01  0.13010507217E+02  0.91800822608E+02  0.10542433210E+03  0.50000000000E+02 0.  0.
<mgrwt>
<rscale>  0 0.51835304E+02</rscale>
<asrwt>0</asrwt>
<pdfrwt beam="1">  1       13 0.10000000E+01 0.51835304E+02</pdfrwt>
<pdfrwt beam="2">  1       22 0.40491764E+00 0.51835304E+02</pdfrwt>
<totfact> 0.12080283E-01</totfact>
</mgrwt>
</event>
<event>
 4    1  0.2489496E+000  0.5170535E+02  0.7957747E-01  0.1436355E+00
         13   -1    0    0    0    0  0.00000000000E+00  0.00000000000E+00  0.99999944180E+02  0.10000000000E+03  0.10566000000E+00 0.  1.
         22   -1    0    0    0    0 -0.00000000000E+00 -0.00000000000E+00 -0.15496680091E+02  0.15496680091E+02  0.00000000000E+00 0.  1.
         13    1    1    2    0    0  0.13169636601E+02  0.59976693768E-01 -0.33208431732E+01  0.13582418372E+02  0.10566000000E+00 0. -1.
        996    1    1    2    0    0 -0.13169636601E+02 -0.59976693768E-01  0.87824107263E+02  0.10191426172E+03  0.50000000000E+02 0.  0.
<mgrwt>
<rscale>  0 0.51705347E+02</rscale>
<asrwt>0</asrwt>
<pdfrwt beam="1">  1       13 0.10000000E+01 0.51705347E+02</pdfrwt>
<pdfrwt beam="2">  1       22 0.15496704E+00 0.51705347E+02</pdfrwt>
<totfact> 0.71249468E-01</totfact>
</mgrwt>
</event>
<event>
 4    1  0.2489496E+000  0.5189708E+02  0.7957747E-01  0.1435370E+00
         13   -1    0    0    0    0  0.00000000000E+00  0.00000000000E+00  0.99999944177E+02  0.99999999998E+02  0.10566000000E+00 0.  1.
         22   -1    0    0    0    0 -0.00000000000E+00 -0.00000000000E+00 -0.11116849655E+02  0.11116849655E+02  0.00000000000E+00 0. -1.
         13    1    1    2    0    0 -0.10917156896E+02  0.86094335235E+01  0.12050525611E+02  0.18399266068E+02  0.10566000000E+00 0. -1.
        996    1    1    2    0    0  0.10917156896E+02 -0.86094335235E+01  0.76832568911E+02  0.92717583585E+02  0.50000000000E+02 0.  0.
<mgrwt>
<rscale>  0 0.51897078E+02</rscale>
<asrwt>0</asrwt>
<pdfrwt beam="1">  1       13 0.10000000E+01 0.51897078E+02</pdfrwt>
<pdfrwt beam="2">  1       22 0.11116874E+00 0.51897078E+02</pdfrwt>
<totfact> 0.12062870E+00</totfact>
</mgrwt>
</event>
<event>
 4    1  0.2489496E+000  0.5193316E+02  0.7957747E-01  0.1435185E+00
         13   -1    0    0    0    0  0.00000000000E+00  0.00000000000E+00  0.99999944183E+02  0.10000000000E+03  0.10566000000E+00 0. -1.
         22   -1    0    0    0    0 -0.00000000000E+00 -0.00000000000E+00 -0.20830151363E+02  0.20830151363E+02  0.00000000000E+00 0.  1.
         13    1    1    2    0    0  0.38221646698E+01  0.13507204196E+02 -0.10278598173E+02  0.17398685364E+02  0.10566000000E+00 0.  1.
        996    1    1    2    0    0 -0.38221646698E+01 -0.13507204196E+02  0.89448390993E+02  0.10343146600E+03  0.50000000000E+02 0.  0.
<mgrwt>
<rscale>  0 0.51933164E+02</rscale>
<asrwt>0</asrwt>
<pdfrwt beam="1">  1       13 0.10000000E+01 0.51933164E+02</pdfrwt>
<pdfrwt beam="2">  1       22 0.20830173E+00 0.51933164E+02</pdfrwt>
<totfact> 0.41970420E-01</totfact>
</mgrwt>
</event>
<event>
 4    1  0.2489496E+000  0.5657876E+02  0.7957747E-01  0.1412777E+00
         13   -1    0    0    0    0  0.00000000000E+00  0.00000000000E+00  0.99999944181E+02  0.10000000000E+03  0.10566000000E+00 0.  1.
         22   -1    0    0    0    0 -0.00000000000E+00 -0.00000000000E+00 -0.45188171280E+02  0.45188171280E+02  0.00000000000E+00 0. -1.
         13    1    1    2    0    0  0.24659846560E+02 -0.96461166235E+01 -0.32019540374E+02  0.41550183249E+02  0.10566000000E+00 0. -1.
        996    1    1    2    0    0 -0.24659846560E+02  0.96461166235E+01  0.86831313275E+02  0.10363798803E+03  0.50000000000E+02 0.  0.
<mgrwt>
<rscale>  0 0.56578756E+02</rscale>
<asrwt>0</asrwt>
<pdfrwt beam="1">  1       13 0.10000000E+01 0.56578756E+02</pdfrwt>
<pdfrwt beam="2">  1       22 0.45188187E+00 0.56578756E+02</pdfrwt>
<totfact> 0.95924120E-02</totfact>
</mgrwt>
</event>
<event>
 4    1  0.2489496E+000  0.5491803E+02  0.7957747E-01  0.1420487E+00
         13   -1    0    0    0    0  0.00000000000E+00  0.00000000000E+00  0.99999944175E+02  0.99999999995E+02  0.10566000000E+00 0.  1.
         22   -1    0    0    0    0 -0.00000000000E+00 -0.00000000000E+00 -0.15464917017E+02  0.15464917017E+02  0.00000000000E+00 0.  1.
         13    1    1    2    0    0 -0.19502493701E+02  0.11646565517E+02  0.33629721339E+02  0.40582743503E+02  0.10566000000E+00 0. -1.
        996    1    1    2    0    0  0.19502493701E+02 -0.11646565517E+02  0.50905305819E+02  0.74882173509E+02  0.50000000000E+02 0.  0.
<mgrwt>
<rscale>  0 0.54918028E+02</rscale>
<asrwt>0</asrwt>
<pdfrwt beam="1">  1       13 0.10000000E+01 0.54918028E+02</pdfrwt>
<pdfrwt beam="2">  1       22 0.15464941E+00 0.54918028E+02</pdfrwt>
<totfact> 0.71949062E-01</totfact>
</mgrwt>
</event>
<event>
 4    1  0.2489496E+000  0.5124707E+02  0.7957747E-01  0.1438729E+00
         13   -1    0    0    0    0  0.00000000000E+00  0.00000000000E+00  0.99999944178E+02  0.99999999998E+02  0.10566000000E+00 0. -1.
         22   -1    0    0    0    0 -0.00000000000E+00 -0.00000000000E+00 -0.66823389409E+02  0.66823389409E+02  0.00000000000E+00 0.  1.
         13    1    1    2    0    0  0.79864377170E+01  0.79043782682E+01 -0.59698971502E+02  0.60747351759E+02  0.10566000000E+00 0.  1.
        996    1    1    2    0    0 -0.79864377170E+01 -0.79043782682E+01  0.92875526271E+02  0.10607603765E+03  0.50000000000E+02 0.  0.
<mgrwt>
<rscale>  0 0.51247072E+02</rscale>
<asrwt>0</asrwt>
<pdfrwt beam="1">  1       13 0.10000000E+01 0.51247072E+02</pdfrwt>
<pdfrwt beam="2">  1       22 0.66823399E+00 0.51247072E+02</pdfrwt>
<totfact> 0.86585889E-02</totfact>
</mgrwt>
</event>
<event>
 4    1  0.2489496E+000  0.6271033E+02  0.7957747E-01  0.1386797E+00
         13   -1    0    0    0    0  0.00000000000E+00  0.00000000000E+00  0.99999944192E+02  0.10000000001E+03  0.10566000000E+00 0. -1.
         22   -1    0    0    0    0 -0.00000000000E+00 -0.00000000000E+00 -0.25308268299E+02  0.25308268299E+02  0.00000000000E+00 0.  1.
         13    1    1    2    0    0  0.36521869846E+02 -0.99367204670E+01  0.26121447186E+02  0.45988330670E+02  0.10566000000E+00 0.  1.
        996    1    1    2    0    0 -0.36521869846E+02  0.99367204670E+01  0.48570228707E+02  0.79319937641E+02  0.50000000000E+02 0.  0.
<mgrwt>
<rscale>  0 0.62710329E+02</rscale>
<asrwt>0</asrwt>
<pdfrwt beam="1">  1       13 0.10000000E+01 0.62710329E+02</pdfrwt>
<pdfrwt beam="2">  1       22 0.25308289E+00 0.62710329E+02</pdfrwt>
<totfact> 0.29213106E-01</totfact>
</mgrwt>
</event>
<event>
 4    1  0.2489496E+000  0.5345436E+02  0.7957747E-01  0.1427553E+00
         13   -1    0    0    0    0  0.00000000000E+00  0.00000000000E+00  0.99999944182E+02  0.10000000000E+03  0.10566000000E+00 0. -1.
         22   -1    0    0    0    0 -0.00000000000E+00 -0.00000000000E+00 -0.14273670847E+02  0.14273670847E+02  0.00000000000E+00 0. -1.
         13    1    1    2    0    0 -0.48942923905E+01 -0.18259639060E+02  0.94586637249E+01  0.21138732226E+02  0.10566000000E+00 0.  1.
        996    1    1    2    0    0  0.48942923905E+01  0.18259639060E+02  0.76267609611E+02  0.93134938623E+02  0.50000000000E+02 0.  0.
<mgrwt>
<rscale>  0 0.53454359E+02</rscale>
<asrwt>0</asrwt>
<pdfrwt beam="1">  1       13 0.10000000E+01 0.53454359E+02</pdfrwt>
<pdfrwt beam="2">  1       22 0.14273695E+00 0.53454359E+02</pdfrwt>
<totfact> 0.81957896E-01</totfact>
</mgrwt>
</event>
<event>
 4    1  0.2489496E+000  0.5185465E+02  0.7957747E-01  0.1435587E+00
         13   -1    0    0    0    0  0.00000000000E+00  0.00000000000E+00  0.99999944174E+02  0.99999999994E+02  0.10566000000E+00 0.  1.
         22   -1    0    0    0    0 -0.00000000000E+00 -0.00000000000E+00 -0.15561121546E+02  0.15561121546E+02  0.00000000000E+00 0.  1.
         13    1    1    2    0    0 -0.11302386299E+02  0.78205644402E+01 -0.28448692758E+01  0.14036011166E+02  0.10566000000E+00 0. -1.
        996    1    1    2    0    0  0.11302386299E+02 -0.78205644402E+01  0.87283691903E+02  0.10152511037E+03  0.50000000000E+02 0.  0.
<mgrwt>
<rscale>  0 0.51854654E+02</rscale>
<asrwt>0</asrwt>
<pdfrwt beam="1">  1       13 0.10000000E+01 0.51854654E+02</pdfrwt>
<pdfrwt beam="2">  1       22 0.15561145E+00 0.51854654E+02</pdfrwt>
<totfact> 0.70773306E-01</totfact>
</mgrwt>
</event>
<event>
 4    1  0.2489496E+000  0.5113995E+02  0.7957747E-01  0.1439288E+00
         13   -1    0    0    0    0  0.00000000000E+00  0.00000000000E+00  0.99999944181E+02  0.10000000000E+03  0.10566000000E+00 0. -1.
         22   -1    0    0    0    0 -0.00000000000E+00 -0.00000000000E+00 -0.13843110804E+02  0.13843110804E+02  0.00000000000E+00 0.  1.
         13    1    1    2    0    0 -0.10141438420E+02  0.35278289511E+01 -0.29218171953E+01  0.11128455872E+02  0.10566000000E+00 0.  1.
        996    1    1    2    0    0  0.10141438420E+02 -0.35278289511E+01  0.89078650572E+02  0.10271465493E+03  0.50000000000E+02 0.  0.
<mgrwt>
<rscale>  0 0.51139949E+02</rscale>
<asrwt>0</asrwt>
<pdfrwt beam="1">  1       13 0.10000000E+01 0.51139949E+02</pdfrwt>
<pdfrwt beam="2">  1       22 0.13843135E+00 0.51139949E+02</pdfrwt>
<totfact> 0.85721287E-01</totfact>
</mgrwt>
</event>
<event>
 4    1  0.2489496E+000  0.5695278E+02  0.7957747E-01  0.1411083E+00
         13   -1    0    0    0    0  0.00000000000E+00  0.00000000000E+00  0.99999944170E+02  0.99999999990E+02  0.10566000000E+00 0. -1.
         22   -1    0    0    0    0 -0.00000000000E+00 -0.00000000000E+00 -0.17820099974E+02  0.17820099974E+02  0.00000000000E+00 0. -1.
         13    1    1    2    0    0 -0.66633691414E+01  0.26442747588E+02  0.22834054769E+02  0.35567184448E+02  0.10566000000E+00 0.  1.
        996    1    1    2    0    0  0.66633691414E+01 -0.26442747588E+02  0.59345789426E+02  0.82252915516E+02  0.50000000000E+02 0.  0.
<mgrwt>
<rscale>  0 0.56952782E+02</rscale>
<asrwt>0</asrwt>
<pdfrwt beam="1">  1       13 0.10000000E+01 0.56952782E+02</pdfrwt>
<pdfrwt beam="2">  1       22 0.17820123E+00 0.56952782E+02</pdfrwt>
<totfact> 0.56439086E-01</totfact>
</mgrwt>
</event>
<event>
 4    1  0.2489496E+000  0.5286421E+02  0.7957747E-01  0.1430478E+00
         13   -1    0    0    0    0  0.00000000000E+00  0.00000000000E+00  0.99999944178E+02  0.99999999999E+02  0.10566000000E+00 0.  1.
         22   -1    0    0    0    0 -0.00000000000E+00 -0.00000000000E+00 -0.16403208555E+02  0.16403208555E+02  0.00000000000E+00 0. -1.
         13    1    1    2    0    0 -0.19551541969E+01 -0.17052930354E+02 -0.38392119813E+00  0.17169263849E+02  0.10566000000E+00 0. -1.
        996    1    1    2    0    0  0.19551541969E+01  0.17052930354E+02  0.83980656821E+02  0.99233944705E+02  0.50000000000E+02 0.  0.
<mgrwt>
<rscale>  0 0.52864213E+02</rscale>
<asrwt>0</asrwt>
<pdfrwt beam="1">  1       13 0.10000000E+01 0.52864213E+02</pdfrwt>
<pdfrwt beam="2">  1       22 0.16403232E+00 0.52864213E+02</pdfrwt>
<totfact> 0.64807157E-01</totfact>
</mgrwt>
</event>
<event>
 4    1  0.2489496E+000  0.5445867E+02  0.7957747E-01  0.1422676E+00
         13   -1    0    0    0    0  0.00000000000E+00  0.00000000000E+00  0.99999944176E+02  0.99999999996E+02  0.10566000000E+00 0. -1.
         22   -1    0    0    0    0 -0.00000000000E+00 -0.00000000000E+00 -0.16301209170E+02  0.16301209170E+02  0.00000000000E+00 0. -1.
         13    1    1    2    0    0 -0.19115578501E+02 -0.10017045966E+02  0.79309414042E+01  0.22992554163E+02  0.10566000000E+00 0.  1.
        996    1    1    2    0    0  0.19115578501E+02  0.10017045966E+02  0.75767793601E+02  0.93308655003E+02  0.50000000000E+02 0.  0.
<mgrwt>
<rscale>  0 0.54458668E+02</rscale>
<asrwt>0</asrwt>
<pdfrwt beam="1">  1       13 0.10000000E+01 0.54458668E+02</pdfrwt>
<pdfrwt beam="2">  1       22 0.16301233E+00 0.54458668E+02</pdfrwt>
<totfact> 0.65707944E-01</totfact>
</mgrwt>
</event>
<event>
 4    1  0.2489496E+000  0.5322292E+02  0.7957747E-01  0.1428695E+00
         13   -1    0    0    0    0  0.00000000000E+00  0.00000000000E+00  0.99999944183E+02  0.10000000000E+03  0.10566000000E+00 0. -1.
         22   -1    0    0    0    0 -0.00000000000E+00 -0.00000000000E+00 -0.15156849758E+02  0.15156849758E+02  0.00000000000E+00 0. -1.
         13    1    1    2    0    0  0.15361230014E+02  0.98342248041E+01  0.45042678016E+01  0.18787734230E+02  0.10566000000E+00 0.  1.
        996    1    1    2    0    0 -0.15361230014E+02 -0.98342248041E+01  0.80338826624E+02  0.96369115532E+02  0.50000000000E+02 0.  0.
<mgrwt>
<rscale>  0 0.53222921E+02</rscale>
<asrwt>0</asrwt>
<pdfrwt beam="1">  1       13 0.10000000E+01 0.53222921E+02</pdfrwt>
<pdfrwt beam="2">  1       22 0.15156873E+00 0.53222921E+02</pdfrwt>
<totfact> 0.74178976E-01</totfact>
</mgrwt>
</event>
<event>
 4    1  0.2489496E+000  0.5288758E+02  0.7957747E-01  0.1430361E+00
         13   -1    0    0    0    0  0.00000000000E+00  0.00000000000E+00  0.99999944174E+02  0.99999999995E+02  0.10566000000E+00 0.  1.
         22   -1    0    0    0    0 -0.00000000000E+00 -0.00000000000E+00 -0.18501190383E+02  0.18501190383E+02  0.00000000000E+00 0. -1.
         13    1    1    2    0    0  0.83052401369E+01  0.15103628559E+02 -0.42511163230E+01  0.17753302887E+02  0.10566000000E+00 0. -1.
        996    1    1    2    0    0 -0.83052401369E+01 -0.15103628559E+02  0.85749870114E+02  0.10074788749E+03  0.50000000000E+02 0.  0.
<mgrwt>
<rscale>  0 0.52887585E+02</rscale>
<asrwt>0</asrwt>
<pdfrwt beam="1">  1       13 0.10000000E+01 0.52887585E+02</pdfrwt>
<pdfrwt beam="2">  1       22 0.18501213E+00 0.52887585E+02</pdfrwt>
<totfact> 0.52372647E-01</totfact>
</mgrwt>
</event>
<event>
 4    1  0.2489496E+000  0.5973741E+02  0.7957747E-01  0.1398937E+00
         13   -1    0    0    0    0  0.00000000000E+00  0.00000000000E+00  0.99999944183E+02  0.10000000000E+03  0.10566000000E+00 0.  1.
         22   -1    0    0    0    0 -0.00000000000E+00 -0.00000000000E+00 -0.22029045138E+02  0.22029045138E+02  0.00000000000E+00 0. -1.
         13    1    1    2    0    0  0.10712411940E+02 -0.30883696193E+02  0.17716490712E+02  0.37181227350E+02  0.10566000000E+00 0. -1.
        996    1    1    2    0    0 -0.10712411940E+02  0.30883696193E+02  0.60254408334E+02  0.84847817790E+02  0.50000000000E+02 0.  0.
<mgrwt>
<rscale>  0 0.59737413E+02</rscale>
<asrwt>0</asrwt>
<pdfrwt beam="1">  1       13 0.10000000E+01 0.59737413E+02</pdfrwt>
<pdfrwt beam="2">  1       22 0.22029067E+00 0.59737413E+02</pdfrwt>
<totfact> 0.38189290E-01</totfact>
</mgrwt>
</event>
<event>
 4    1  0.2489496E+000  0.5870511E+02  0.7957747E-01  0.1403348E+00
         13   -1    0    0    0    0  0.00000000000E+00  0.00000000000E+00  0.99999944172E+02  0.99999999992E+02  0.10566000000E+00 0. -1.
         22   -1    0    0    0    0 -0.00000000000E+00 -0.00000000000E+00 -0.21097760746E+02  0.21097760746E+02  0.00000000000E+00 0.  1.
         13    1    1    2    0    0  0.20411126238E+02 -0.23014687190E+02  0.14672519452E+02  0.34082017133E+02  0.10566000000E+00 0.  1.
        996    1    1    2    0    0 -0.20411126238E+02  0.23014687190E+02  0.64229663975E+02  0.87015743605E+02  0.50000000000E+02 0.  0.
<mgrwt>
<rscale>  0 0.58705110E+02</rscale>
<asrwt>0</asrwt>
<pdfrwt beam="1">  1       13 0.10000000E+01 0.58705110E+02</pdfrwt>
<pdfrwt beam="2">  1       22 0.21097783E+00 0.58705110E+02</pdfrwt>
<totfact> 0.41423507E-01</totfact>
</mgrwt>
</event>
<event>
 4    1  0.2489496E+000  0.5472129E+02  0.7957747E-01  0.1421422E+00
         13   -1    0    0    0    0  0.00000000000E+00  0.00000000000E+00  0.99999944180E+02  0.10000000000E+03  0.10566000000E+00 0.  1.
         22   -1    0    0    0    0 -0.00000000000E+00 -0.00000000000E+00 -0.17123797947E+02  0.17123797947E+02  0.00000000000E+00 0.  1.
         13    1    1    2    0    0 -0.20846850647E+02  0.77348506664E+01  0.64973487146E+01  0.23165616786E+02  0.10566000000E+00 0. -1.
        996    1    1    2    0    0  0.20846850647E+02 -0.77348506664E+01  0.76378797518E+02  0.93958181161E+02  0.50000000000E+02 0.  0.
<mgrwt>
<rscale>  0 0.54721286E+02</rscale>
<asrwt>0</asrwt>
<pdfrwt beam="1">  1       13 0.10000000E+01 0.54721286E+02</pdfrwt>
<pdfrwt beam="2">  1       22 0.17123821E+00 0.54721286E+02</pdfrwt>
<totfact> 0.60336938E-01</totfact>
</mgrwt>
</event>
<event>
 4    1  0.2489496E+000  0.5206301E+02  0.7957747E-01  0.1434522E+00
         13   -1    0    0    0    0  0.00000000000E+00  0.00000000000E+00  0.99999944181E+02  0.10000000000E+03  0.10566000000E+00 0. -1.
         22   -1    0    0    0    0 -0.00000000000E+00 -0.00000000000E+00 -0.11105166736E+02  0.11105166736E+02  0.00000000000E+00 0.  1.
         13    1    1    2    0    0  0.10151731915E+01  0.14475038452E+02  0.21607974001E+02  0.26028311878E+02  0.10566000000E+00 0.  1.
        996    1    1    2    0    0 -0.10151731915E+01 -0.14475038452E+02  0.67286803445E+02  0.85076854858E+02  0.50000000000E+02 0.  0.
<mgrwt>
<rscale>  0 0.52063013E+02</rscale>
<asrwt>0</asrwt>
<pdfrwt beam="1">  1       13 0.10000000E+01 0.52063013E+02</pdfrwt>
<pdfrwt beam="2">  1       22 0.11105192E+00 0.52063013E+02</pdfrwt>
<totfact> 0.12086435E+00</totfact>
</mgrwt>
</event>
<event>
 4    1  0.2489496E+000  0.5545793E+02  0.7957747E-01  0.1417946E+00
         13   -1    0    0    0    0  0.00000000000E+00  0.00000000000E+00  0.99999944170E+02  0.99999999991E+02  0.10566000000E+00 0. -1.
         22   -1    0    0    0    0 -0.00000000000E+00 -0.00000000000E+00 -0.31929295166E+02  0.31929295166E+02  0.00000000000E+00 0.  1.
         13    1    1    2    0    0 -0.70012408492E+00 -0.23981070881E+02 -0.17684007168E+02  0.29804650777E+02  0.10566000000E+00 0.  1.
        996    1    1    2    0    0  0.70012408492E+00  0.23981070881E+02  0.85754656173E+02  0.10212464438E+03  0.50000000000E+02 0.  0.
<mgrwt>
<rscale>  0 0.55457929E+02</rscale>
<asrwt>0</asrwt>
<pdfrwt beam="1">  1       13 0.10000000E+01 0.55457929E+02</pdfrwt>
<pdfrwt beam="2">  1       22 0.31929314E+00 0.55457929E+02</pdfrwt>
<totfact> 0.18546208E-01</totfact>
</mgrwt>
</event>
<event>
 4    1  0.2489496E+000  0.5136314E+02  0.7957747E-01  0.1438125E+00
         13   -1    0    0    0    0  0.00000000000E+00  0.00000000000E+00  0.99999944185E+02  0.10000000001E+03  0.10566000000E+00 0. -1.
         22   -1    0    0    0    0 -0.00000000000E+00 -0.00000000000E+00 -0.61374592710E+02  0.61374592710E+02  0.00000000000E+00 0.  1.
         13    1    1    2    0    0  0.75847603534E+01 -0.89801793934E+01 -0.54106177995E+02  0.55368419454E+02  0.10566000000E+00 0.  1.
        996    1    1    2    0    0 -0.75847603534E+01  0.89801793934E+01  0.92731529471E+02  0.10600617326E+03  0.50000000000E+02 0.  0.
<mgrwt>
<rscale>  0 0.51363141E+02</rscale>
<asrwt>0</asrwt>
<pdfrwt beam="1">  1       13 0.10000000E+01 0.51363141E+02</pdfrwt>
<pdfrwt beam="2">  1       22 0.61374604E+00 0.51363141E+02</pdfrwt>
<totfact> 0.69350550E-02</totfact>
</mgrwt>
</event>
<event>
 4    1  0.2489496E+000  0.5642362E+02  0.7957747E-01  0.1413484E+00
         13   -1    0    0    0    0  0.00000000000E+00  0.00000000000E+00  0.99999944187E+02  0.10000000001E+03  0.10566000000E+00 0. -1.
         22   -1    0    0    0    0 -0.00000000000E+00 -0.00000000000E+00 -0.22308447730E+02  0.22308447730E+02  0.00000000000E+00 0.  1.
         13    1    1    2    0    0 -0.33463030686E+01 -0.25931207645E+02 -0.17628728984E+00  0.26147036455E+02  0.10566000000E+00 0.  1.
        996    1    1    2    0    0  0.33463030686E+01  0.25931207645E+02  0.77867783747E+02  0.96161411282E+02  0.50000000000E+02 0.  0.
<mgrwt>
<rscale>  0 0.56423623E+02</rscale>
<asrwt>0</asrwt>
<pdfrwt beam="1">  1       13 0.10000000E+01 0.56423623E+02</pdfrwt>
<pdfrwt beam="2">  1       22 0.22308469E+00 0.56423623E+02</pdfrwt>
<totfact> 0.37084885E-01</totfact>
</mgrwt>
</event>
<event>
 4    1  0.2489496E+000  0.5181021E+02  0.7957747E-01  0.1435815E+00
         13   -1    0    0    0    0  0.00000000000E+00  0.00000000000E+00  0.99999944175E+02  0.99999999996E+02  0.10566000000E+00 0.  1.
         22   -1    0    0    0    0 -0.00000000000E+00 -0.00000000000E+00 -0.11266656317E+02  0.11266656317E+02  0.00000000000E+00 0.  1.
         13    1    1    2    0    0 -0.13525710552E+02 -0.11631163927E+01  0.30115071602E+02  0.33033715917E+02  0.10566000000E+00 0. -1.
        996    1    1    2    0    0  0.13525710552E+02  0.11631163927E+01  0.58618216257E+02  0.78232940395E+02  0.50000000000E+02 0.  0.
<mgrwt>
<rscale>  0 0.51810208E+02</rscale>
<asrwt>0</asrwt>
<pdfrwt beam="1">  1       13 0.10000000E+01 0.51810208E+02</pdfrwt>
<pdfrwt beam="2">  1       22 0.11266681E+00 0.51810208E+02</pdfrwt>
<totfact> 0.11821409E+00</totfact>
</mgrwt>
</event>
<event>
 4    1  0.2489496E+000  0.5157519E+02  0.7957747E-01  0.1437026E+00
         13   -1    0    0    0    0  0.00000000000E+00  0.00000000000E+00  0.99999944174E+02  0.99999999994E+02  0.10566000000E+00 0.  1.
         22   -1    0    0    0    0 -0.00000000000E+00 -0.00000000000E+00 -0.18534747252E+02  0.18534747252E+02  0.00000000000E+00 0. -1.
         13    1    1    2    0    0 -0.11255958607E+02  0.57709206560E+01 -0.82140475527E+01  0.15082502133E+02  0.10566000000E+00 0. -1.
        996    1    1    2    0    0  0.11255958607E+02 -0.57709206560E+01  0.89679244474E+02  0.10345224511E+03  0.50000000000E+02 0.  0.
<mgrwt>
<rscale>  0 0.51575189E+02</rscale>
<asrwt>0</asrwt>
<pdfrwt beam="1">  1       13 0.10000000E+01 0.51575189E+02</pdfrwt>
<pdfrwt beam="2">  1       22 0.18534770E+00 0.51575189E+02</pdfrwt>
<totfact> 0.52073890E-01</totfact>
</mgrwt>
</event>
<event>
 4    1  0.2489496E+000  0.5425705E+02  0.7957747E-01  0.1423645E+00
         13   -1    0    0    0    0  0.00000000000E+00  0.00000000000E+00  0.99999944178E+02  0.99999999998E+02  0.10566000000E+00 0. -1.
         22   -1    0    0    0    0 -0.00000000000E+00 -0.00000000000E+00 -0.14281743557E+02  0.14281743557E+02  0.00000000000E+00 0. -1.
         13    1    1    2    0    0 -0.14595591071E+02 -0.15191995432E+02  0.28340505941E+02  0.35313219125E+02  0.10566000000E+00 0.  1.
        996    1    1    2    0    0  0.14595591071E+02  0.15191995432E+02  0.57377694680E+02  0.78968524431E+02  0.50000000000E+02 0.  0.
<mgrwt>
<rscale>  0 0.54257055E+02</rscale>
<asrwt>0</asrwt>
<pdfrwt beam="1">  1       13 0.10000000E+01 0.54257055E+02</pdfrwt>
<pdfrwt beam="2">  1       22 0.14281767E+00 0.54257055E+02</pdfrwt>
<totfact> 0.82014205E-01</totfact>
</mgrwt>
</event>
<event>
 4    1  0.2489496E+000  0.5842089E+02  0.7957747E-01  0.1404581E+00
         13   -1    0    0    0    0  0.00000000000E+00  0.00000000000E+00  0.99999944183E+02  0.10000000000E+03  0.10566000000E+00 0. -1.
         22   -1    0    0    0    0 -0.00000000000E+00 -0.00000000000E+00 -0.53429185539E+02  0.53429185539E+02  0.00000000000E+00 0. -1.
         13    1    1    2    0    0  0.46110476795E+01  0.29861985661E+02 -0.39297862066E+02  0.49571494584E+02  0.10566000000E+00 0.  1.
        996    1    1    2    0    0 -0.46110476795E+01 -0.29861985661E+02  0.85868620710E+02  0.10385769096E+03  0.50000000000E+02 0.  0.
<mgrwt>
<rscale>  0 0.58420886E+02</rscale>
<asrwt>0</asrwt>
<pdfrwt beam="1">  1       13 0.10000000E+01 0.58420886E+02</pdfrwt>
<pdfrwt beam="2">  1       22 0.53429199E+00 0.58420886E+02</pdfrwt>
<totfact> 0.62094215E-02</totfact>
</mgrwt>
</event>
<event>
 4    1  0.2489496E+000  0.5225775E+02  0.7957747E-01  0.1433531E+00
         13   -1    0    0    0    0  0.00000000000E+00  0.00000000000E+00  0.99999944184E+02  0.10000000000E+03  0.10566000000E+00 0. -1.
         22   -1    0    0    0    0 -0.00000000000E+00 -0.00000000000E+00 -0.19662698596E+02  0.19662698596E+02  0.00000000000E+00 0.  1.
         13    1    1    2    0    0  0.13700378863E+02 -0.65705450582E+01 -0.78894033165E+01  0.17120931402E+02  0.10566000000E+00 0.  1.
        996    1    1    2    0    0 -0.13700378863E+02  0.65705450582E+01  0.88226648904E+02  0.10254176720E+03  0.50000000000E+02 0.  0.
<mgrwt>
<rscale>  0 0.52257750E+02</rscale>
<asrwt>0</asrwt>
<pdfrwt beam="1">  1       13 0.10000000E+01 0.52257750E+02</pdfrwt>
<pdfrwt beam="2">  1       22 0.19662721E+00 0.52257750E+02</pdfrwt>
<totfact> 0.46785788E-01</totfact>
</mgrwt>
</event>
<event>
 4    1  0.2489496E+000  0.5155641E+02  0.7957747E-01  0.1437123E+00
         13   -1    0    0    0    0  0.00000000000E+00  0.00000000000E+00  0.99999944176E+02  0.99999999996E+02  0.10566000000E+00 0. -1.
         22   -1    0    0    0    0 -0.00000000000E+00 -0.00000000000E+00 -0.17013467741E+02  0.17013467741E+02  0.00000000000E+00 0.  1.
         13    1    1    2    0    0 -0.28312751976E+01 -0.12249395318E+02 -0.61840248861E+01  0.14011321591E+02  0.10566000000E+00 0.  1.
        996    1    1    2    0    0  0.28312751976E+01  0.12249395318E+02  0.89170501320E+02  0.10300214615E+03  0.50000000000E+02 0.  0.
<mgrwt>
<rscale>  0 0.51556414E+02</rscale>
<asrwt>0</asrwt>
<pdfrwt beam="1">  1       13 0.10000000E+01 0.51556414E+02</pdfrwt>
<pdfrwt beam="2">  1       22 0.17013491E+00 0.51556414E+02</pdfrwt>
<totfact> 0.60661765E-01</totfact>
</mgrwt>
</event>
<event>
 4    1  0.2489496E+000  0.5739711E+02  0.7957747E-01  0.1409091E+00
         13   -1    0    0    0    0  0.00000000000E+00  0.00000000000E+00  0.99999944176E+02  0.99999999996E+02  0.10566000000E+00 0.  1.
         22   -1    0    0    0    0 -0.00000000000E+00 -0.00000000000E+00 -0.26294720292E+02  0.26294720292E+02  0.00000000000E+00 0. -1.
         13    1    1    2    0    0 -0.27953650505E+02  0.36084831747E+01 -0.52609455947E+01  0.28672572957E+02  0.10566000000E+00 0. -1.
        996    1    1    2    0    0  0.27953650505E+02 -0.36084831747E+01  0.78966169479E+02  0.97622147331E+02  0.50000000000E+02 0.  0.
<mgrwt>
<rscale>  0 0.57397106E+02</rscale>
<asrwt>0</asrwt>
<pdfrwt beam="1">  1       13 0.10000000E+01 0.57397106E+02</pdfrwt>
<pdfrwt beam="2">  1       22 0.26294741E+00 0.57397106E+02</pdfrwt>
<totfact> 0.26898796E-01</totfact>
</mgrwt>
</event>
<event>
 4    1  0.2489496E+000  0.6790054E+02  0.7957747E-01  0.1367381E+00
         13   -1    0    0    0    0  0.00000000000E+00  0.00000000000E+00  0.99999944182E+02  0.10000000000E+03  0.10566000000E+00 0.  1.
         22   -1    0    0    0    0 -0.00000000000E+00 -0.00000000000E+00 -0.36604707538E+02  0.36604707538E+02  0.00000000000E+00 0. -1.
         13    1    1    2    0    0  0.58836510758E+01  0.45561669232E+02  0.35186574248E+01  0.46074669476E+02  0.10566000000E+00 0. -1.
        996    1    1    2    0    0 -0.58836510758E+01 -0.45561669232E+02  0.59876579219E+02  0.90530038066E+02  0.50000000000E+02 0.  0.
<mgrwt>
<rscale>  0 0.67900538E+02</rscale>
<asrwt>0</asrwt>
<pdfrwt beam="1">  1       13 0.10000000E+01 0.67900538E+02</pdfrwt>
<pdfrwt beam="2">  1       22 0.36604725E+00 0.67900538E+02</pdfrwt>
<totfact> 0.14721387E-01</totfact>
</mgrwt>
</event>
<event>
 4    1  0.2489496E+000  0.5101747E+02  0.7957747E-01  0.1439930E+00
         13   -1    0    0    0    0  0.00000000000E+00  0.00000000000E+00  0.99999944182E+02  0.10000000000E+03  0.10566000000E+00 0.  1.
         22   -1    0    0    0    0 -0.00000000000E+00 -0.00000000000E+00 -0.96745560449E+01  0.96745560449E+01  0.00000000000E+00 0.  1.
         13    1    1    2    0    0 -0.41339559802E+00  0.10129706003E+02  0.84176983007E+01  0.13177657165E+02  0.10566000000E+00 0. -1.
        996    1    1    2    0    0  0.41339559802E+00 -0.10129706003E+02  0.81907689836E+02  0.96496898883E+02  0.50000000000E+02 0.  0.
<mgrwt>
<rscale>  0 0.51017466E+02</rscale>
<asrwt>0</asrwt>
<pdfrwt beam="1">  1       13 0.10000000E+01 0.51017466E+02</pdfrwt>
<pdfrwt beam="2">  1       22 0.96745813E-01 0.51017466E+02</pdfrwt>
<totfact> 0.14751404E+00</totfact>
</mgrwt>
</event>
<event>
 4    1  0.2489496E+000  0.5365671E+02  0.7957747E-01  0.1426560E+00
         13   -1    0    0    0    0  0.00000000000E+00  0.00000000000E+00  0.99999944165E+02  0.99999999986E+02  0.10566000000E+00 0.  1.
         22   -1    0    0    0    0 -0.00000000000E+00 -0.00000000000E+00 -0.36350473982E+02  0.36350473982E+02  0.00000000000E+00 0. -1.
         13    1    1    2    0    0  0.11896352312E+02 -0.15411670056E+02 -0.25630962264E+02  0.32186956409E+02  0.10566000000E+00 0. -1.
        996    1    1    2    0    0 -0.11896352312E+02  0.15411670056E+02  0.89280432447E+02  0.10416351756E+03  0.50000000000E+02 0.  0.
<mgrwt>
<rscale>  0 0.53656712E+02</rscale>
<asrwt>0</asrwt>
<pdfrwt beam="1">  1       13 0.10000000E+01 0.53656712E+02</pdfrwt>
<pdfrwt beam="2">  1       22 0.36350492E+00 0.53656712E+02</pdfrwt>
<totfact> 0.14731584E-01</totfact>
</mgrwt>
</event>
<event>
 4    1  0.2489496E+000  0.5148384E+02  0.7957747E-01  0.1437499E+00
         13   -1    0    0    0    0  0.00000000000E+00  0.00000000000E+00  0.99999944179E+02  0.10000000000E+03  0.10566000000E+00 0.  1.
         22   -1    0    0    0    0 -0.00000000000E+00 -0.00000000000E+00 -0.10551667394E+02  0.10551667394E+02  0.00000000000E+00 0.  1.
         13    1    1    2    0    0 -0.92689851527E+01 -0.80418578612E+01  0.97630275727E+01  0.15681627308E+02  0.10566000000E+00 0. -1.
        996    1    1    2    0    0  0.92689851527E+01  0.80418578612E+01  0.79685249213E+02  0.94870040085E+02  0.50000000000E+02 0.  0.
<mgrwt>
<rscale>  0 0.51483838E+02</rscale>
<asrwt>0</asrwt>
<pdfrwt beam="1">  1       13 0.10000000E+01 0.51483838E+02</pdfrwt>
<pdfrwt beam="2">  1       22 0.10551692E+00 0.51483838E+02</pdfrwt>
<totfact> 0.13019400E+00</totfact>
</mgrwt>
</event>
<event>
 4    1  0.2489496E+000  0.5115207E+02  0.7957747E-01  0.1439225E+00
         13   -1    0    0    0    0  0.00000000000E+00  0.00000000000E+00  0.99999944177E+02  0.99999999998E+02  0.10566000000E+00 0.  1.
         22   -1    0    0    0    0 -0.00000000000E+00 -0.00000000000E+00 -0.48517898239E+02  0.48517898239E+02  0.00000000000E+00 0. -1.
         13    1    1    2    0    0  0.92935370901E+01  0.54922597311E+01 -0.41235945270E+02  0.42625685859E+02  0.10566000000E+00 0. -1.
        996    1    1    2    0    0 -0.92935370901E+01 -0.54922597311E+01  0.92717991208E+02  0.10589221238E+03  0.50000000000E+02 0.  0.
<mgrwt>
<rscale>  0 0.51152075E+02</rscale>
<asrwt>0</asrwt>
<pdfrwt beam="1">  1       13 0.10000000E+01 0.51152075E+02</pdfrwt>
<pdfrwt beam="2">  1       22 0.48517913E+00 0.51152075E+02</pdfrwt>
<totfact> 0.79904669E-02</totfact>
</mgrwt>
</event>
<event>
 4    1  0.2489496E+000  0.5173185E+02  0.7957747E-01  0.1436218E+00
         13   -1    0    0    0    0  0.00000000000E+00  0.00000000000E+00  0.99999944176E+02  0.99999999996E+02  0.10566000000E+00 0.  1.
         22   -1    0    0    0    0 -0.00000000000E+00 -0.00000000000E+00 -0.14779496466E+02  0.14779496466E+02  0.00000000000E+00 0.  1.
         13    1    1    2    0    0  0.12181688280E+02  0.52717400396E+01 -0.19481148117E+01  0.13416075721E+02  0.10566000000E+00 0. -1.
        996    1    1    2    0    0 -0.12181688280E+02 -0.52717400396E+01  0.87168562522E+02  0.10136342074E+03  0.50000000000E+02 0.  0.
<mgrwt>
<rscale>  0 0.51731855E+02</rscale>
<asrwt>0</asrwt>
<pdfrwt beam="1">  1       13 0.10000000E+01 0.51731855E+02</pdfrwt>
<pdfrwt beam="2">  1       22 0.14779520E+00 0.51731855E+02</pdfrwt>
<totfact> 0.77123873E-01</totfact>
</mgrwt>
</event>
<event>
 4    1  0.2489496E+000  0.6197034E+02  0.7957747E-01  0.1389744E+00
         13   -1    0    0    0    0  0.00000000000E+00  0.00000000000E+00  0.99999944178E+02  0.99999999998E+02  0.10566000000E+00 0. -1.
         22   -1    0    0    0    0 -0.00000000000E+00 -0.00000000000E+00 -0.50629702412E+02  0.50629702412E+02  0.00000000000E+00 0.  1.
         13    1    1    2    0    0  0.36578850476E+02  0.15201422626E+01 -0.31810015923E+02  0.48499602180E+02  0.10566000000E+00 0.  1.
        996    1    1    2    0    0 -0.36578850476E+02 -0.15201422626E+01  0.81180257688E+02  0.10213010023E+03  0.50000000000E+02 0.  0.
<mgrwt>
<rscale>  0 0.61970341E+02</rscale>
<asrwt>0</asrwt>
<pdfrwt beam="1">  1       13 0.10000000E+01 0.61970341E+02</pdfrwt>
<pdfrwt beam="2">  1       22 0.50629716E+00 0.61970341E+02</pdfrwt>
<totfact> 0.71419106E-02</totfact>
</mgrwt>
</event>
<event>
 4    1  0.2489496E+000  0.5333767E+02  0.7957747E-01  0.1428128E+00
         13   -1    0    0    0    0  0.00000000000E+00  0.00000000000E+00  0.99999944175E+02  0.99999999996E+02  0.10566000000E+00 0.  1.
         22   -1    0    0    0    0 -0.00000000000E+00 -0.00000000000E+00 -0.12951744124E+02  0.12951744124E+02  0.00000000000E+00 0.  1.
         13    1    1    2    0    0  0.73930901380E+01  0.17036696601E+02  0.24662284245E+02  0.30873066596E+02  0.10566000000E+00 0. -1.
        996    1    1    2    0    0 -0.73930901380E+01 -0.17036696601E+02  0.62385915807E+02  0.82078677523E+02  0.50000000000E+02 0.  0.
<mgrwt>
<rscale>  0 0.53337668E+02</rscale>
<asrwt>0</asrwt>
<pdfrwt beam="1">  1       13 0.10000000E+01 0.53337668E+02</pdfrwt>
<pdfrwt beam="2">  1       22 0.12951768E+00 0.53337668E+02</pdfrwt>
<totfact> 0.95757527E-01</totfact>
</mgrwt>
</event>
<event>
 4    1  0.2489496E+000  0.5246103E+02  0.7957747E-01  0.1432502E+00
         13   -1    0    0    0    0  0.00000000000E+00  0.00000000000E+00  0.99999944185E+02  0.10000000000E+03  0.10566000000E+00 0.  1.
         22   -1    0    0    0    0 -0.00000000000E+00 -0.00000000000E+00 -0.27039391447E+02  0.27039391447E+02  0.00000000000E+00 0. -1.
         13    1    1    2    0    0 -0.15600391131E+02  0.29643137122E+01 -0.16771801523E+02  0.23096836354E+02  0.10566000000E+00 0. -1.
        996    1    1    2    0    0  0.15600391131E+02 -0.29643137122E+01  0.89732354260E+02  0.10394255510E+03  0.50000000000E+02 0.  0.
<mgrwt>
<rscale>  0 0.52461027E+02</rscale>
<asrwt>0</asrwt>
<pdfrwt beam="1">  1       13 0.10000000E+01 0.52461027E+02</pdfrwt>
<pdfrwt beam="2">  1       22 0.27039412E+00 0.52461027E+02</pdfrwt>
<totfact> 0.25287409E-01</totfact>
</mgrwt>
</event>
<event>
 4    1  0.2489496E+000  0.5166360E+02  0.7957747E-01  0.1436570E+00
         13   -1    0    0    0    0  0.00000000000E+00  0.00000000000E+00  0.99999944184E+02  0.10000000000E+03  0.10566000000E+00 0. -1.
         22   -1    0    0    0    0 -0.00000000000E+00 -0.00000000000E+00 -0.11790695386E+02  0.11790695386E+02  0.00000000000E+00 0. -1.
         13    1    1    2    0    0  0.12973127380E+02 -0.90859666883E+00  0.51774609362E+01  0.13998030137E+02  0.10566000000E+00 0.  1.
        996    1    1    2    0    0 -0.12973127380E+02  0.90859666883E+00  0.83031787862E+02  0.97792665254E+02  0.50000000000E+02 0.  0.
<mgrwt>
<rscale>  0 0.51663600E+02</rscale>
<asrwt>0</asrwt>
<pdfrwt beam="1">  1       13 0.10000000E+01 0.51663600E+02</pdfrwt>
<pdfrwt beam="2">  1       22 0.11790720E+00 0.51663600E+02</pdfrwt>
<totfact> 0.11033719E+00</totfact>
</mgrwt>
</event>
<event>
 4    1  0.2489496E+000  0.5216408E+02  0.7957747E-01  0.1434007E+00
         13   -1    0    0    0    0  0.00000000000E+00  0.00000000000E+00  0.99999944179E+02  0.99999999999E+02  0.10566000000E+00 0. -1.
         22   -1    0    0    0    0 -0.00000000000E+00 -0.00000000000E+00 -0.49466040600E+02  0.49466040600E+02  0.00000000000E+00 0.  1.
         13    1    1    2    0    0  0.11581206435E+02  0.93255811894E+01 -0.41275511338E+02  0.43872198569E+02  0.10566000000E+00 0.  1.
        996    1    1    2    0    0 -0.11581206435E+02 -0.93255811894E+01  0.91809414918E+02  0.10559384203E+03  0.50000000000E+02 0.  0.
<mgrwt>
<rscale>  0 0.52164076E+02</rscale>
<asrwt>0</asrwt>
<pdfrwt beam="1">  1       13 0.10000000E+01 0.52164076E+02</pdfrwt>
<pdfrwt beam="2">  1       22 0.49466055E+00 0.52164076E+02</pdfrwt>
<totfact> 0.75827293E-02</totfact>
</mgrwt>
</event>
<event>
 4    1  0.2489496E+000  0.5103749E+02  0.7957747E-01  0.1439825E+00
         13   -1    0    0    0    0  0.00000000000E+00  0.00000000000E+00  0.99999944179E+02  0.99999999999E+02  0.10566000000E+00 0. -1.
         22   -1    0    0    0    0 -0.00000000000E+00 -0.00000000000E+00 -0.10667294442E+02  0.10667294442E+02  0.00000000000E+00 0. -1.
         13    1    1    2    0    0 -0.92536227289E+01 -0.43813413019E+01  0.35254638696E+01  0.10828930914E+02  0.10566000000E+00 0.  1.
        996    1    1    2    0    0  0.92536227289E+01  0.43813413019E+01  0.85807185868E+02  0.99838363527E+02  0.50000000000E+02 0.  0.
<mgrwt>
<rscale>  0 0.51037493E+02</rscale>
<asrwt>0</asrwt>
<pdfrwt beam="1">  1       13 0.10000000E+01 0.51037493E+02</pdfrwt>
<pdfrwt beam="2">  1       22 0.10667319E+00 0.51037493E+02</pdfrwt>
<totfact> 0.12798641E+00</totfact>
</mgrwt>
</event>
<event>
 4    1  0.2489496E+000  0.5102295E+02  0.7957747E-01  0.1439901E+00
         13   -1    0    0    0    0  0.00000000000E+00  0.00000000000E+00  0.99999944175E+02  0.99999999996E+02  0.10566000000E+00 0.  1.
         22   -1    0    0    0    0 -0.00000000000E+00 -0.00000000000E+00 -0.10823890142E+02  0.10823890142E+02  0.00000000000E+00 0.  1.
         13    1    1    2    0    0  0.88097002661E+01 -0.50725302243E+01  0.28695655456E+01  0.10563472540E+02  0.10566000000E+00 0. -1.
        996    1    1    2    0    0 -0.88097002661E+01  0.50725302243E+01  0.86306488488E+02  0.10026041760E+03  0.50000000000E+02 0.  0.
<mgrwt>
<rscale>  0 0.51022950E+02</rscale>
<asrwt>0</asrwt>
<pdfrwt beam="1">  1       13 0.10000000E+01 0.51022950E+02</pdfrwt>
<pdfrwt beam="2">  1       22 0.10823915E+00 0.51022950E+02</pdfrwt>
<totfact> 0.12525678E+00</totfact>
</mgrwt>
</event>
<event>
 4    1  0.2489496E+000  0.5958425E+02  0.7957747E-01  0.1399585E+00
         13   -1    0    0    0    0  0.00000000000E+00  0.00000000000E+00  0.99999944179E+02  0.99999999999E+02  0.10566000000E+00 0. -1.
         22   -1    0    0    0    0 -0.00000000000E+00 -0.00000000000E+00 -0.26544692847E+02  0.26544692847E+02  0.00000000000E+00 0.  1.
         13    1    1    2    0    0  0.91413455301E+01  0.31092101473E+02  0.58274529462E+00  0.32413480656E+02  0.10566000000E+00 0.  1.
        996    1    1    2    0    0 -0.91413455301E+01 -0.31092101473E+02  0.72872506038E+02  0.94131212190E+02  0.50000000000E+02 0.  0.
<mgrwt>
<rscale>  0 0.59584251E+02</rscale>
<asrwt>0</asrwt>
<pdfrwt beam="1">  1       13 0.10000000E+01 0.59584251E+02</pdfrwt>
<pdfrwt beam="2">  1       22 0.26544713E+00 0.59584251E+02</pdfrwt>
<totfact> 0.26478398E-01</totfact>
</mgrwt>
</event>
<event>
 4    1  0.2489496E+000  0.5249239E+02  0.7957747E-01  0.1432344E+00
         13   -1    0    0    0    0  0.00000000000E+00  0.00000000000E+00  0.99999944176E+02  0.99999999996E+02  0.10566000000E+00 0.  1.
         22   -1    0    0    0    0 -0.00000000000E+00 -0.00000000000E+00 -0.14113143030E+02  0.14113143030E+02  0.00000000000E+00 0.  1.
         13    1    1    2    0    0  0.15953344292E+02 -0.97053102242E+00  0.34007698749E+01  0.16340976847E+02  0.10566000000E+00 0. -1.
        996    1    1    2    0    0 -0.15953344292E+02  0.97053102242E+00  0.82486031271E+02  0.97772166179E+02  0.50000000000E+02 0.  0.
<mgrwt>
<rscale>  0 0.52492391E+02</rscale>
<asrwt>0</asrwt>
<pdfrwt beam="1">  1       13 0.10000000E+01 0.52492391E+02</pdfrwt>
<pdfrwt beam="2">  1       22 0.14113167E+00 0.52492391E+02</pdfrwt>
<totfact> 0.83318512E-01</totfact>
</mgrwt>
</event>
<event>
 4    1  0.2489496E+000  0.5415193E+02  0.7957747E-01  0.1424153E+00
         13   -1    0    0    0    0  0.00000000000E+00  0.00000000000E+00  0.99999944177E+02  0.99999999997E+02  0.10566000000E+00 0.  1.
         22   -1    0    0    0    0 -0.00000000000E+00 -0.00000000000E+00 -0.15285413213E+02  0.15285413213E+02  0.00000000000E+00 0. -1.
         13    1    1    2    0    0 -0.16759571626E+02  0.12310475592E+02  0.10172631498E+02  0.23150046350E+02  0.10566000000E+00 0. -1.
        996    1    1    2    0    0  0.16759571626E+02 -0.12310475592E+02  0.74541899467E+02  0.92135366860E+02  0.50000000000E+02 0.  0.
<mgrwt>
<rscale>  0 0.54151926E+02</rscale>
<asrwt>0</asrwt>
<pdfrwt beam="1">  1       13 0.10000000E+01 0.54151926E+02</pdfrwt>
<pdfrwt beam="2">  1       22 0.15285437E+00 0.54151926E+02</pdfrwt>
<totfact> 0.73269541E-01</totfact>
</mgrwt>
</event>
<event>
 4    1  0.2489496E+000  0.5213484E+02  0.7957747E-01  0.1434156E+00
         13   -1    0    0    0    0  0.00000000000E+00  0.00000000000E+00  0.99999944174E+02  0.99999999994E+02  0.10566000000E+00 0.  1.
         22   -1    0    0    0    0 -0.00000000000E+00 -0.00000000000E+00 -0.11861911012E+02  0.11861911012E+02  0.00000000000E+00 0. -1.
         13    1    1    2    0    0  0.32299075334E+01 -0.14408641989E+02  0.96624937391E+01  0.17646988863E+02  0.10566000000E+00 0. -1.
        996    1    1    2    0    0 -0.32299075334E+01  0.14408641989E+02  0.78475539423E+02  0.94214922143E+02  0.50000000000E+02 0.  0.
<mgrwt>
<rscale>  0 0.52134837E+02</rscale>
<asrwt>0</asrwt>
<pdfrwt beam="1">  1       13 0.10000000E+01 0.52134837E+02</pdfrwt>
<pdfrwt beam="2">  1       22 0.11861936E+00 0.52134837E+02</pdfrwt>
<totfact> 0.10944606E+00</totfact>
</mgrwt>
</event>
<event>
 4    1  0.2489496E+000  0.5230284E+02  0.7957747E-01  0.1433302E+00
         13   -1    0    0    0    0  0.00000000000E+00  0.00000000000E+00  0.99999944174E+02  0.99999999995E+02  0.10566000000E+00 0. -1.
         22   -1    0    0    0    0 -0.00000000000E+00 -0.00000000000E+00 -0.12634695290E+02  0.12634695290E+02  0.00000000000E+00 0. -1.
         13    1    1    2    0    0  0.92695271359E+01 -0.12233695448E+02  0.72924355264E+01  0.16993475735E+02  0.10566000000E+00 0.  1.
        996    1    1    2    0    0 -0.92695271359E+01  0.12233695448E+02  0.80072813358E+02  0.95641219549E+02  0.50000000000E+02 0.  0.
<mgrwt>
<rscale>  0 0.52302843E+02</rscale>
<asrwt>0</asrwt>
<pdfrwt beam="1">  1       13 0.10000000E+01 0.52302843E+02</pdfrwt>
<pdfrwt beam="2">  1       22 0.12634720E+00 0.52302843E+02</pdfrwt>
<totfact> 0.99329247E-01</totfact>
</mgrwt>
</event>
<event>
 4    1  0.2489496E+000  0.5156976E+02  0.7957747E-01  0.1437054E+00
         13   -1    0    0    0    0  0.00000000000E+00  0.00000000000E+00  0.99999944183E+02  0.10000000000E+03  0.10566000000E+00 0.  1.
         22   -1    0    0    0    0 -0.00000000000E+00 -0.00000000000E+00 -0.25133329739E+02  0.25133329739E+02  0.00000000000E+00 0. -1.
         13    1    1    2    0    0 -0.12201613699E+02  0.32497054783E+01 -0.16163112662E+02  0.20510907769E+02  0.10566000000E+00 0. -1.
        996    1    1    2    0    0  0.12201613699E+02 -0.32497054783E+01  0.91029727106E+02  0.10462242197E+03  0.50000000000E+02 0.  0.
<mgrwt>
<rscale>  0 0.51569758E+02</rscale>
<asrwt>0</asrwt>
<pdfrwt beam="1">  1       13 0.10000000E+01 0.51569758E+02</pdfrwt>
<pdfrwt beam="2">  1       22 0.25133351E+00 0.51569758E+02</pdfrwt>
<totfact> 0.29152720E-01</totfact>
</mgrwt>
</event>
<event>
 4    1  0.2489496E+000  0.5112900E+02  0.7957747E-01  0.1439345E+00
         13   -1    0    0    0    0  0.00000000000E+00  0.00000000000E+00  0.99999944181E+02  0.10000000000E+03  0.10566000000E+00 0. -1.
         22   -1    0    0    0    0 -0.00000000000E+00 -0.00000000000E+00 -0.21382631605E+02  0.21382631605E+02  0.00000000000E+00 0.  1.
         13    1    1    2    0    0  0.39578715412E+01 -0.99252357575E+01 -0.12778379493E+02  0.16657526781E+02  0.10566000000E+00 0.  1.
        996    1    1    2    0    0 -0.39578715412E+01  0.99252357575E+01  0.91395692068E+02  0.10472510482E+03  0.50000000000E+02 0.  0.
<mgrwt>
<rscale>  0 0.51129004E+02</rscale>
<asrwt>0</asrwt>
<pdfrwt beam="1">  1       13 0.10000000E+01 0.51129004E+02</pdfrwt>
<pdfrwt beam="2">  1       22 0.21382654E+00 0.51129004E+02</pdfrwt>
<totfact> 0.39878787E-01</totfact>
</mgrwt>
</event>
<event>
 4    1  0.2489496E+000  0.5464873E+02  0.7957747E-01  0.1421767E+00
         13   -1    0    0    0    0  0.00000000000E+00  0.00000000000E+00  0.99999944180E+02  0.10000000000E+03  0.10566000000E+00 0. -1.
         22   -1    0    0    0    0 -0.00000000000E+00 -0.00000000000E+00 -0.28292706042E+02  0.28292706042E+02  0.00000000000E+00 0.  1.
         13    1    1    2    0    0 -0.21898166097E+02  0.26370974517E+01 -0.14375964290E+02  0.26327997924E+02  0.10566000000E+00 0.  1.
        996    1    1    2    0    0  0.21898166097E+02 -0.26370974517E+01  0.86083202428E+02  0.10196470812E+03  0.50000000000E+02 0.  0.
<mgrwt>
<rscale>  0 0.54648732E+02</rscale>
<asrwt>0</asrwt>
<pdfrwt beam="1">  1       13 0.10000000E+01 0.54648732E+02</pdfrwt>
<pdfrwt beam="2">  1       22 0.28292726E+00 0.54648732E+02</pdfrwt>
<totfact> 0.23225481E-01</totfact>
</mgrwt>
</event>
<event>
 4    1  0.2489496E+000  0.5334995E+02  0.7957747E-01  0.1428067E+00
         13   -1    0    0    0    0  0.00000000000E+00  0.00000000000E+00  0.99999944183E+02  0.10000000000E+03  0.10566000000E+00 0.  1.
         22   -1    0    0    0    0 -0.00000000000E+00 -0.00000000000E+00 -0.13540749650E+02  0.13540749650E+02  0.00000000000E+00 0.  1.
         13    1    1    2    0    0 -0.11631924960E+02  0.14522944318E+02  0.12774988397E+02  0.22570535716E+02  0.10566000000E+00 0. -1.
        996    1    1    2    0    0  0.11631924960E+02 -0.14522944318E+02  0.73684206136E+02  0.90970213937E+02  0.50000000000E+02 0.  0.
<mgrwt>
<rscale>  0 0.53349954E+02</rscale>
<asrwt>0</asrwt>
<pdfrwt beam="1">  1       13 0.10000000E+01 0.53349954E+02</pdfrwt>
<pdfrwt beam="2">  1       22 0.13540774E+00 0.53349954E+02</pdfrwt>
<totfact> 0.89232795E-01</totfact>
</mgrwt>
</event>
<event>
 4    1  0.2489496E+000  0.5102887E+02  0.7957747E-01  0.1439870E+00
         13   -1    0    0    0    0  0.00000000000E+00  0.00000000000E+00  0.99999944186E+02  0.10000000001E+03  0.10566000000E+00 0.  1.
         22   -1    0    0    0    0 -0.00000000000E+00 -0.00000000000E+00 -0.28706755421E+02  0.28706755421E+02  0.00000000000E+00 0. -1.
         13    1    1    2    0    0  0.43839811310E+01  0.92046656321E+01 -0.20944583701E+02  0.23294460938E+02  0.10566000000E+00 0. -1.
        996    1    1    2    0    0 -0.43839811310E+01 -0.92046656321E+01  0.92237772466E+02  0.10541229449E+03  0.50000000000E+02 0.  0.
<mgrwt>
<rscale>  0 0.51028866E+02</rscale>
<asrwt>0</asrwt>
<pdfrwt beam="1">  1       13 0.10000000E+01 0.51028866E+02</pdfrwt>
<pdfrwt beam="2">  1       22 0.28706775E+00 0.51028866E+02</pdfrwt>
<totfact> 0.22473784E-01</totfact>
</mgrwt>
</event>
<event>
 4    1  0.2489496E+000  0.5232340E+02  0.7957747E-01  0.1433198E+00
         13   -1    0    0    0    0  0.00000000000E+00  0.00000000000E+00  0.99999944176E+02  0.99999999996E+02  0.10566000000E+00 0. -1.
         22   -1    0    0    0    0 -0.00000000000E+00 -0.00000000000E+00 -0.12477880230E+02  0.12477880230E+02  0.00000000000E+00 0. -1.
         13    1    1    2    0    0 -0.10419422883E+02  0.11365488712E+02  0.82300766665E+01  0.17478101524E+02  0.10566000000E+00 0.  1.
        996    1    1    2    0    0  0.10419422883E+02 -0.11365488712E+02  0.79291987279E+02  0.94999778702E+02  0.50000000000E+02 0.  0.
<mgrwt>
<rscale>  0 0.52323405E+02</rscale>
<asrwt>0</asrwt>
<pdfrwt beam="1">  1       13 0.10000000E+01 0.52323405E+02</pdfrwt>
<pdfrwt beam="2">  1       22 0.12477905E+00 0.52323405E+02</pdfrwt>
<totfact> 0.10128333E+00</totfact>
</mgrwt>
</event>
<event>
 4    1  0.2489496E+000  0.5477339E+02  0.7957747E-01  0.1421174E+00
         13   -1    0    0    0    0  0.00000000000E+00  0.00000000000E+00  0.99999944181E+02  0.10000000000E+03  0.10566000000E+00 0. -1.
         22   -1    0    0    0    0 -0.00000000000E+00 -0.00000000000E+00 -0.16161964372E+02  0.16161964372E+02  0.00000000000E+00 0. -1.
         13    1    1    2    0    0  0.22965693407E+01 -0.22245235985E+02  0.10711200967E+02  0.24796486545E+02  0.10566000000E+00 0.  1.
        996    1    1    2    0    0 -0.22965693407E+01  0.22245235985E+02  0.73126778842E+02  0.91365477827E+02  0.50000000000E+02 0.  0.
<mgrwt>
<rscale>  0 0.54773395E+02</rscale>
<asrwt>0</asrwt>
<pdfrwt beam="1">  1       13 0.10000000E+01 0.54773395E+02</pdfrwt>
<pdfrwt beam="2">  1       22 0.16161988E+00 0.54773395E+02</pdfrwt>
<totfact> 0.66725006E-01</totfact>
</mgrwt>
</event>
<event>
 4    1  0.2489496E+000  0.5373161E+02  0.7957747E-01  0.1426194E+00
         13   -1    0    0    0    0  0.00000000000E+00  0.00000000000E+00  0.99999944176E+02  0.99999999996E+02  0.10566000000E+00 0.  1.
         22   -1    0    0    0    0 -0.00000000000E+00 -0.00000000000E+00 -0.22347738033E+02  0.22347738033E+02  0.00000000000E+00 0. -1.
         13    1    1    2    0    0  0.17736399794E+02 -0.85150420442E+01 -0.79983100888E+01  0.21238407355E+02  0.10566000000E+00 0. -1.
        996    1    1    2    0    0 -0.17736399794E+02  0.85150420442E+01  0.85650516231E+02  0.10110933067E+03  0.50000000000E+02 0.  0.
<mgrwt>
<rscale>  0 0.53731609E+02</rscale>
<asrwt>0</asrwt>
<pdfrwt beam="1">  1       13 0.10000000E+01 0.53731609E+02</pdfrwt>
<pdfrwt beam="2">  1       22 0.22347760E+00 0.53731609E+02</pdfrwt>
<totfact> 0.36801108E-01</totfact>
</mgrwt>
</event>
<event>
 4    1  0.2489496E+000  0.5108964E+02  0.7957747E-01  0.1439551E+00
         13   -1    0    0    0    0  0.00000000000E+00  0.00000000000E+00  0.99999944182E+02  0.10000000000E+03  0.10566000000E+00 0.  1.
         22   -1    0    0    0    0 -0.00000000000E+00 -0.00000000000E+00 -0.37178461380E+02  0.37178461380E+02  0.00000000000E+00 0. -1.
         13    1    1    2    0    0 -0.10481068704E+02  0.54594659268E+00 -0.29693637512E+02  0.31494033270E+02  0.10566000000E+00 0. -1.
        996    1    1    2    0    0  0.10481068704E+02 -0.54594659268E+00  0.92515120313E+02  0.10568442811E+03  0.50000000000E+02 0.  0.
<mgrwt>
<rscale>  0 0.51089636E+02</rscale>
<asrwt>0</asrwt>
<pdfrwt beam="1">  1       13 0.10000000E+01 0.51089636E+02</pdfrwt>
<pdfrwt beam="2">  1       22 0.37178479E+00 0.51089636E+02</pdfrwt>
<totfact> 0.14123654E-01</totfact>
</mgrwt>
</event>
<event>
 4    1  0.2489496E+000  0.5202451E+02  0.7957747E-01  0.1434718E+00
         13   -1    0    0    0    0  0.00000000000E+00  0.00000000000E+00  0.99999944177E+02  0.99999999998E+02  0.10566000000E+00 0. -1.
         22   -1    0    0    0    0 -0.00000000000E+00 -0.00000000000E+00 -0.22816033236E+02  0.22816033236E+02  0.00000000000E+00 0.  1.
         13    1    1    2    0    0 -0.10576360440E+02  0.97309025378E+01 -0.12557427681E+02  0.19085335165E+02  0.10566000000E+00 0.  1.
        996    1    1    2    0    0  0.10576360440E+02 -0.97309025378E+01  0.89741338622E+02  0.10373069807E+03  0.50000000000E+02 0.  0.
<mgrwt>
<rscale>  0 0.52024512E+02</rscale>
<asrwt>0</asrwt>
<pdfrwt beam="1">  1       13 0.10000000E+01 0.52024512E+02</pdfrwt>
<pdfrwt beam="2">  1       22 0.22816055E+00 0.52024512E+02</pdfrwt>
<totfact> 0.35253101E-01</totfact>
</mgrwt>
</event>
<event>
 4    1  0.2489496E+000  0.5146046E+02  0.7957747E-01  0.1437620E+00
         13   -1    0    0    0    0  0.00000000000E+00  0.00000000000E+00  0.99999944178E+02  0.99999999999E+02  0.10566000000E+00 0.  1.
         22   -1    0    0    0    0 -0.00000000000E+00 -0.00000000000E+00 -0.38574383044E+02  0.38574383044E+02  0.00000000000E+00 0. -1.
         13    1    1    2    0    0  0.12143337572E+02  0.84744647597E+00 -0.30713878384E+02  0.33038345938E+02  0.10566000000E+00 0. -1.
        996    1    1    2    0    0 -0.12143337572E+02 -0.84744647597E+00  0.92139439519E+02  0.10553603710E+03  0.50000000000E+02 0.  0.
<mgrwt>
<rscale>  0 0.51460459E+02</rscale>
<asrwt>0</asrwt>
<pdfrwt beam="1">  1       13 0.10000000E+01 0.51460459E+02</pdfrwt>
<pdfrwt beam="2">  1       22 0.38574400E+00 0.51460459E+02</pdfrwt>
<totfact> 0.13224135E-01</totfact>
</mgrwt>
</event>
<event>
 4    1  0.2489496E+000  0.5180196E+02  0.7957747E-01  0.1435858E+00
         13   -1    0    0    0    0  0.00000000000E+00  0.00000000000E+00  0.99999944179E+02  0.99999999999E+02  0.10566000000E+00 0.  1.
         22   -1    0    0    0    0 -0.00000000000E+00 -0.00000000000E+00 -0.10676323529E+02  0.10676323529E+02  0.00000000000E+00 0. -1.
         13    1    1    2    0    0 -0.25372374503E+01  0.13304339140E+02  0.18937733002E+02  0.23282867287E+02  0.10566000000E+00 0. -1.
        996    1    1    2    0    0  0.25372374503E+01 -0.13304339140E+02  0.70385887648E+02  0.87393456241E+02  0.50000000000E+02 0.  0.
<mgrwt>
<rscale>  0 0.51801960E+02</rscale>
<asrwt>0</asrwt>
<pdfrwt beam="1">  1       13 0.10000000E+01 0.51801960E+02</pdfrwt>
<pdfrwt beam="2">  1       22 0.10676348E+00 0.51801960E+02</pdfrwt>
<totfact> 0.12805818E+00</totfact>
</mgrwt>
</event>
<event>
 4    1  0.2489496E+000  0.5292849E+02  0.7957747E-01  0.1430157E+00
         13   -1    0    0    0    0  0.00000000000E+00  0.00000000000E+00  0.99999944180E+02  0.10000000000E+03  0.10566000000E+00 0. -1.
         22   -1    0    0    0    0 -0.00000000000E+00 -0.00000000000E+00 -0.12950867118E+02  0.12950867118E+02  0.00000000000E+00 0. -1.
         13    1    1    2    0    0 -0.47329775380E+01 -0.16704013532E+02  0.11960530040E+02  0.21082945414E+02  0.10566000000E+00 0.  1.
        996    1    1    2    0    0  0.47329775380E+01  0.16704013532E+02  0.75088547021E+02  0.91867921704E+02  0.50000000000E+02 0.  0.
<mgrwt>
<rscale>  0 0.52928491E+02</rscale>
<asrwt>0</asrwt>
<pdfrwt beam="1">  1       13 0.10000000E+01 0.52928491E+02</pdfrwt>
<pdfrwt beam="2">  1       22 0.12950891E+00 0.52928491E+02</pdfrwt>
<totfact> 0.95684760E-01</totfact>
</mgrwt>
</event>
<event>
 4    1  0.2489496E+000  0.5166455E+02  0.7957747E-01  0.1436565E+00
         13   -1    0    0    0    0  0.00000000000E+00  0.00000000000E+00  0.99999944172E+02  0.99999999992E+02  0.10566000000E+00 0. -1.
         22   -1    0    0    0    0 -0.00000000000E+00 -0.00000000000E+00 -0.10813959318E+02  0.10813959318E+02  0.00000000000E+00 0. -1.
         13    1    1    2    0    0  0.12678741043E+02  0.29112743044E+01  0.26968272026E+02  0.29942024859E+02  0.10566000000E+00 0.  1.
        996    1    1    2    0    0 -0.12678741043E+02 -0.29112743044E+01  0.62217712827E+02  0.80871934452E+02  0.50000000000E+02 0.  0.
<mgrwt>
<rscale>  0 0.51664553E+02</rscale>
<asrwt>0</asrwt>
<pdfrwt beam="1">  1       13 0.10000000E+01 0.51664553E+02</pdfrwt>
<pdfrwt beam="2">  1       22 0.10813984E+00 0.51664553E+02</pdfrwt>
<totfact> 0.12561686E+00</totfact>
</mgrwt>
</event>
<event>
 4    1  0.2489496E+000  0.5247970E+02  0.7957747E-01  0.1432408E+00
         13   -1    0    0    0    0  0.00000000000E+00  0.00000000000E+00  0.99999944182E+02  0.10000000000E+03  0.10566000000E+00 0. -1.
         22   -1    0    0    0    0 -0.00000000000E+00 -0.00000000000E+00 -0.18581697635E+02  0.18581697635E+02  0.00000000000E+00 0.  1.
         13    1    1    2    0    0 -0.15940645625E+02 -0.12167461680E+00 -0.56562246589E+01  0.16915171565E+02  0.10566000000E+00 0.  1.
        996    1    1    2    0    0  0.15940645625E+02  0.12167461680E+00  0.87074471206E+02  0.10166652607E+03  0.50000000000E+02 0.  0.
<mgrwt>
<rscale>  0 0.52479701E+02</rscale>
<asrwt>0</asrwt>
<pdfrwt beam="1">  1       13 0.10000000E+01 0.52479701E+02</pdfrwt>
<pdfrwt beam="2">  1       22 0.18581720E+00 0.52479701E+02</pdfrwt>
<totfact> 0.51922746E-01</totfact>
</mgrwt>
</event>
<event>
 4    1  0.2489496E+000  0.5102114E+02  0.7957747E-01  0.1439910E+00
         13   -1    0    0    0    0  0.00000000000E+00  0.00000000000E+00  0.99999944174E+02  0.99999999995E+02  0.10566000000E+00 0. -1.
         22   -1    0    0    0    0 -0.00000000000E+00 -0.00000000000E+00 -0.11713194847E+02  0.11713194847E+02  0.00000000000E+00 0. -1.
         13    1    1    2    0    0  0.58815736646E+01 -0.82803489899E+01  0.49121047444E+00  0.10169048133E+02  0.10566000000E+00 0.  1.
        996    1    1    2    0    0 -0.58815736646E+01  0.82803489899E+01  0.87795538853E+02  0.10154414671E+03  0.50000000000E+02 0.  0.
<mgrwt>
<rscale>  0 0.51021144E+02</rscale>
<asrwt>0</asrwt>
<pdfrwt beam="1">  1       13 0.10000000E+01 0.51021144E+02</pdfrwt>
<pdfrwt beam="2">  1       22 0.11713219E+00 0.51021144E+02</pdfrwt>
<totfact> 0.11128433E+00</totfact>
</mgrwt>
</event>
<event>
 4    1  0.2489496E+000  0.5505132E+02  0.7957747E-01  0.1419856E+00
         13   -1    0    0    0    0  0.00000000000E+00  0.00000000000E+00  0.99999944183E+02  0.10000000000E+03  0.10566000000E+00 0. -1.
         22   -1    0    0    0    0 -0.00000000000E+00 -0.00000000000E+00 -0.33744517827E+02  0.33744517827E+02  0.00000000000E+00 0.  1.
         13    1    1    2    0    0 -0.12738566693E+02 -0.19193140743E+02 -0.20605748472E+02  0.30907212218E+02  0.10566000000E+00 0.  1.
        996    1    1    2    0    0  0.12738566693E+02  0.19193140743E+02  0.86861174828E+02  0.10283730561E+03  0.50000000000E+02 0.  0.
<mgrwt>
<rscale>  0 0.55051319E+02</rscale>
<asrwt>0</asrwt>
<pdfrwt beam="1">  1       13 0.10000000E+01 0.55051319E+02</pdfrwt>
<pdfrwt beam="2">  1       22 0.33744536E+00 0.55051319E+02</pdfrwt>
<totfact> 0.16804271E-01</totfact>
</mgrwt>
</event>
<event>
 4    1  0.2489496E+000  0.5430733E+02  0.7957747E-01  0.1423403E+00
         13   -1    0    0    0    0  0.00000000000E+00  0.00000000000E+00  0.99999944183E+02  0.10000000000E+03  0.10566000000E+00 0. -1.
         22   -1    0    0    0    0 -0.00000000000E+00 -0.00000000000E+00 -0.24202153566E+02  0.24202153566E+02  0.00000000000E+00 0.  1.
         13    1    1    2    0    0  0.19242787860E+02  0.88882882882E+01 -0.93842235981E+01  0.23181056272E+02  0.10566000000E+00 0.  1.
        996    1    1    2    0    0 -0.19242787860E+02 -0.88882882882E+01  0.85182014215E+02  0.10102109730E+03  0.50000000000E+02 0.  0.
<mgrwt>
<rscale>  0 0.54307334E+02</rscale>
<asrwt>0</asrwt>
<pdfrwt beam="1">  1       13 0.10000000E+01 0.54307334E+02</pdfrwt>
<pdfrwt beam="2">  1       22 0.24202175E+00 0.54307334E+02</pdfrwt>
<totfact> 0.31532796E-01</totfact>
</mgrwt>
</event>
<event>
 4    1  0.2489496E+000  0.5491858E+02  0.7957747E-01  0.1420484E+00
         13   -1    0    0    0    0  0.00000000000E+00  0.00000000000E+00  0.99999944181E+02  0.10000000000E+03  0.10566000000E+00 0.  1.
         22   -1    0    0    0    0 -0.00000000000E+00 -0.00000000000E+00 -0.68984351900E+02  0.68984351900E+02  0.00000000000E+00 0. -1.
         13    1    1    2    0    0  0.40271781207E+01  0.22356934861E+02 -0.59176825200E+02  0.63387368654E+02  0.10566000000E+00 0. -1.
        996    1    1    2    0    0 -0.40271781207E+01 -0.22356934861E+02  0.90192417481E+02  0.10559698325E+03  0.50000000000E+02 0.  0.
<mgrwt>
<rscale>  0 0.54918582E+02</rscale>
<asrwt>0</asrwt>
<pdfrwt beam="1">  1       13 0.10000000E+01 0.54918582E+02</pdfrwt>
<pdfrwt beam="2">  1       22 0.68984361E+00 0.54918582E+02</pdfrwt>
<totfact> 0.79524492E-02</totfact>
</mgrwt>
</event>
<event>
 4    1  0.2489496E+000  0.5333589E+02  0.7957747E-01  0.1428137E+00
         13   -1    0    0    0    0  0.00000000000E+00  0.00000000000E+00  0.99999944177E+02  0.99999999998E+02  0.10566000000E+00 0.  1.
         22   -1    0    0    0    0 -0.00000000000E+00 -0.00000000000E+00 -0.13375626139E+02  0.13375626139E+02  0.00000000000E+00 0.  1.
         13    1    1    2    0    0  0.12620038794E+02 -0.13618064696E+02  0.13919488180E+02  0.23205180035E+02  0.10566000000E+00 0. -1.
        996    1    1    2    0    0 -0.12620038794E+02  0.13618064696E+02  0.72704829859E+02  0.90170446101E+02  0.50000000000E+02 0.  0.
<mgrwt>
<rscale>  0 0.53335889E+02</rscale>
<asrwt>0</asrwt>
<pdfrwt beam="1">  1       13 0.10000000E+01 0.53335889E+02</pdfrwt>
<pdfrwt beam="2">  1       22 0.13375650E+00 0.53335889E+02</pdfrwt>
<totfact> 0.90995674E-01</totfact>
</mgrwt>
</event>
<event>
 4    1  0.2489496E+000  0.6058518E+02  0.7957747E-01  0.1395392E+00
         13   -1    0    0    0    0  0.00000000000E+00  0.00000000000E+00  0.99999944174E+02  0.99999999994E+02  0.10566000000E+00 0. -1.
         22   -1    0    0    0    0 -0.00000000000E+00 -0.00000000000E+00 -0.28775385927E+02  0.28775385927E+02  0.00000000000E+00 0. -1.
         13    1    1    2    0    0 -0.20791892168E+02 -0.27170954691E+02  0.57099815339E+02  0.66565483808E+02  0.10566000000E+00 0.  1.
        996    1    1    2    0    0  0.20791892168E+02  0.27170954691E+02  0.14124742907E+02  0.62209902113E+02  0.50000000000E+02 0.  0.
<mgrwt>
<rscale>  0 0.60585176E+02</rscale>
<asrwt>0</asrwt>
<pdfrwt beam="1">  1       13 0.10000000E+01 0.60585176E+02</pdfrwt>
<pdfrwt beam="2">  1       22 0.28775406E+00 0.60585176E+02</pdfrwt>
<totfact> 0.22648263E-01</totfact>
</mgrwt>
</event>
<event>
 4    1  0.2489496E+000  0.5397753E+02  0.7957747E-01  0.1424997E+00
         13   -1    0    0    0    0  0.00000000000E+00  0.00000000000E+00  0.99999944176E+02  0.99999999996E+02  0.10566000000E+00 0. -1.
         22   -1    0    0    0    0 -0.00000000000E+00 -0.00000000000E+00 -0.23100505799E+02  0.23100505799E+02  0.00000000000E+00 0.  1.
         13    1    1    2    0    0 -0.13465253768E+02 -0.15240097105E+02 -0.85251247528E+01  0.22051361293E+02  0.10566000000E+00 0.  1.
        996    1    1    2    0    0  0.13465253768E+02  0.15240097105E+02  0.85424563129E+02  0.10104914450E+03  0.50000000000E+02 0.  0.
<mgrwt>
<rscale>  0 0.53977529E+02</rscale>
<asrwt>0</asrwt>
<pdfrwt beam="1">  1       13 0.10000000E+01 0.53977529E+02</pdfrwt>
<pdfrwt beam="2">  1       22 0.23100527E+00 0.53977529E+02</pdfrwt>
<totfact> 0.34523777E-01</totfact>
</mgrwt>
</event>
<event>
 4    1  0.2489496E+000  0.5104037E+02  0.7957747E-01  0.1439810E+00
         13   -1    0    0    0    0  0.00000000000E+00  0.00000000000E+00  0.99999944177E+02  0.99999999997E+02  0.10566000000E+00 0.  1.
         22   -1    0    0    0    0 -0.00000000000E+00 -0.00000000000E+00 -0.95929552607E+01  0.95929552607E+01  0.00000000000E+00 0.  1.
         13    1    1    2    0    0  0.86599618500E+01  0.54886046331E+01  0.21717807960E+02  0.24016537359E+02  0.10566000000E+00 0. -1.
        996    1    1    2    0    0 -0.86599618500E+01 -0.54886046331E+01  0.68689180956E+02  0.85576417899E+02  0.50000000000E+02 0.  0.
<mgrwt>
<rscale>  0 0.51040373E+02</rscale>
<asrwt>0</asrwt>
<pdfrwt beam="1">  1       13 0.10000000E+01 0.51040373E+02</pdfrwt>
<pdfrwt beam="2">  1       22 0.95929805E-01 0.51040373E+02</pdfrwt>
<totfact> 0.14932493E+00</totfact>
</mgrwt>
</event>
<event>
 4    1  0.2489496E+000  0.5126814E+02  0.7957747E-01  0.1438619E+00
         13   -1    0    0    0    0  0.00000000000E+00  0.00000000000E+00  0.99999944187E+02  0.10000000001E+03  0.10566000000E+00 0.  1.
         22   -1    0    0    0    0 -0.00000000000E+00 -0.00000000000E+00 -0.98867695601E+01  0.98867695601E+01  0.00000000000E+00 0.  1.
         13    1    1    2    0    0  0.11303636597E+02  0.80647022416E+00  0.12533909956E+02  0.16897711601E+02  0.10566000000E+00 0. -1.
        996    1    1    2    0    0 -0.11303636597E+02 -0.80647022416E+00  0.77579264670E+02  0.92989057966E+02  0.50000000000E+02 0.  0.
<mgrwt>
<rscale>  0 0.51268144E+02</rscale>
<asrwt>0</asrwt>
<pdfrwt beam="1">  1       13 0.10000000E+01 0.51268144E+02</pdfrwt>
<pdfrwt beam="2">  1       22 0.98867947E-01 0.51268144E+02</pdfrwt>
<totfact> 0.14306580E+00</totfact>
</mgrwt>
</event>
<event>
 4    1  0.2489496E+000  0.5235698E+02  0.7957747E-01  0.1433028E+00
         13   -1    0    0    0    0  0.00000000000E+00  0.00000000000E+00  0.99999944179E+02  0.10000000000E+03  0.10566000000E+00 0. -1.
         22   -1    0    0    0    0 -0.00000000000E+00 -0.00000000000E+00 -0.26416759432E+02  0.26416759432E+02  0.00000000000E+00 0.  1.
         13    1    1    2    0    0  0.13554709682E+02 -0.75843949883E+01 -0.16224851991E+02  0.22461304238E+02  0.10566000000E+00 0.  1.
        996    1    1    2    0    0 -0.13554709682E+02  0.75843949883E+01  0.89808036738E+02  0.10395545519E+03  0.50000000000E+02 0.  0.
<mgrwt>
<rscale>  0 0.52356979E+02</rscale>
<asrwt>0</asrwt>
<pdfrwt beam="1">  1       13 0.10000000E+01 0.52356979E+02</pdfrwt>
<pdfrwt beam="2">  1       22 0.26416780E+00 0.52356979E+02</pdfrwt>
<totfact> 0.26464415E-01</totfact>
</mgrwt>
</event>
<event>
 4    1  0.2489496E+000  0.5293366E+02  0.7957747E-01  0.1430131E+00
         13   -1    0    0    0    0  0.00000000000E+00  0.00000000000E+00  0.99999944175E+02  0.99999999995E+02  0.10566000000E+00 0.  1.
         22   -1    0    0    0    0 -0.00000000000E+00 -0.00000000000E+00 -0.30922272935E+02  0.30922272935E+02  0.00000000000E+00 0. -1.
         13    1    1    2    0    0  0.17132511864E+02 -0.29067247764E+01 -0.20499495216E+02  0.26874011235E+02  0.10566000000E+00 0. -1.
        996    1    1    2    0    0 -0.17132511864E+02  0.29067247764E+01  0.89577166455E+02  0.10404826170E+03  0.50000000000E+02 0.  0.
<mgrwt>
<rscale>  0 0.52933657E+02</rscale>
<asrwt>0</asrwt>
<pdfrwt beam="1">  1       13 0.10000000E+01 0.52933657E+02</pdfrwt>
<pdfrwt beam="2">  1       22 0.30922292E+00 0.52933657E+02</pdfrwt>
<totfact> 0.19598828E-01</totfact>
</mgrwt>
</event>
<event>
 4    1  0.2489496E+000  0.5998148E+02  0.7957747E-01  0.1397909E+00
         13   -1    0    0    0    0  0.00000000000E+00  0.00000000000E+00  0.99999944176E+02  0.99999999996E+02  0.10566000000E+00 0. -1.
         22   -1    0    0    0    0 -0.00000000000E+00 -0.00000000000E+00 -0.70254155078E+02  0.70254155078E+02  0.00000000000E+00 0.  1.
         13    1    1    2    0    0 -0.29327326581E+02 -0.15417080841E+02 -0.56323435858E+02  0.65346147989E+02  0.10566000000E+00 0.  1.
        996    1    1    2    0    0  0.29327326581E+02  0.15417080841E+02  0.86069224956E+02  0.10490800709E+03  0.50000000000E+02 0.  0.
<mgrwt>
<rscale>  0 0.59981484E+02</rscale>
<asrwt>0</asrwt>
<pdfrwt beam="1">  1       13 0.10000000E+01 0.59981484E+02</pdfrwt>
<pdfrwt beam="2">  1       22 0.70254163E+00 0.59981484E+02</pdfrwt>
<totfact> 0.73332481E-02</totfact>
</mgrwt>
</event>
<event>
 4    1  0.2489496E+000  0.5684888E+02  0.7957747E-01  0.1411552E+00
         13   -1    0    0    0    0  0.00000000000E+00  0.00000000000E+00  0.99999944173E+02  0.99999999994E+02  0.10566000000E+00 0.  1.
         22   -1    0    0    0    0 -0.00000000000E+00 -0.00000000000E+00 -0.23807367493E+02  0.23807367493E+02  0.00000000000E+00 0. -1.
         13    1    1    2    0    0  0.13833053292E+02  0.23247410652E+02 -0.20085511620E+01  0.27126387655E+02  0.10566000000E+00 0. -1.
        996    1    1    2    0    0 -0.13833053292E+02 -0.23247410652E+02  0.78201127843E+02  0.96680979832E+02  0.50000000000E+02 0.  0.
<mgrwt>
<rscale>  0 0.56848883E+02</rscale>
<asrwt>0</asrwt>
<pdfrwt beam="1">  1       13 0.10000000E+01 0.56848883E+02</pdfrwt>
<pdfrwt beam="2">  1       22 0.23807389E+00 0.56848883E+02</pdfrwt>
<totfact> 0.32691986E-01</totfact>
</mgrwt>
</event>
<event>
 4    1  0.2489496E+000  0.5103835E+02  0.7957747E-01  0.1439820E+00
         13   -1    0    0    0    0  0.00000000000E+00  0.00000000000E+00  0.99999944188E+02  0.10000000001E+03  0.10566000000E+00 0. -1.
         22   -1    0    0    0    0 -0.00000000000E+00 -0.00000000000E+00 -0.17914339729E+02  0.17914339729E+02  0.00000000000E+00 0.  1.
         13    1    1    2    0    0 -0.73379217186E+01 -0.71462237772E+01 -0.89141895533E+01  0.13578937692E+02  0.10566000000E+00 0.  1.
        996    1    1    2    0    0  0.73379217186E+01  0.71462237772E+01  0.90999794013E+02  0.10433540204E+03  0.50000000000E+02 0.  0.
<mgrwt>
<rscale>  0 0.51038354E+02</rscale>
<asrwt>0</asrwt>
<pdfrwt beam="1">  1       13 0.10000000E+01 0.51038354E+02</pdfrwt>
<pdfrwt beam="2">  1       22 0.17914363E+00 0.51038354E+02</pdfrwt>
<totfact> 0.55310089E-01</totfact>
</mgrwt>
</event>
<event>
 4    1  0.2489496E+000  0.5211481E+02  0.7957747E-01  0.1434258E+00
         13   -1    0    0    0    0  0.00000000000E+00  0.00000000000E+00  0.99999944178E+02  0.99999999998E+02  0.10566000000E+00 0.  1.
         22   -1    0    0    0    0 -0.00000000000E+00 -0.00000000000E+00 -0.14132618283E+02  0.14132618283E+02  0.00000000000E+00 0. -1.
         13    1    1    2    0    0 -0.11185619140E+02  0.95307816084E+01  0.12428191114E+01  0.14748207925E+02  0.10566000000E+00 0. -1.
        996    1    1    2    0    0  0.11185619140E+02 -0.95307816084E+01  0.84624506783E+02  0.99384410356E+02  0.50000000000E+02 0.  0.
<mgrwt>
<rscale>  0 0.52114814E+02</rscale>
<asrwt>0</asrwt>
<pdfrwt beam="1">  1       13 0.10000000E+01 0.52114814E+02</pdfrwt>
<pdfrwt beam="2">  1       22 0.14132642E+00 0.52114814E+02</pdfrwt>
<totfact> 0.83066526E-01</totfact>
</mgrwt>
</event>
<event>
 4    1  0.2489496E+000  0.5824914E+02  0.7957747E-01  0.1405330E+00
         13   -1    0    0    0    0  0.00000000000E+00  0.00000000000E+00  0.99999944181E+02  0.10000000000E+03  0.10566000000E+00 0.  1.
         22   -1    0    0    0    0 -0.00000000000E+00 -0.00000000000E+00 -0.76753809681E+02  0.76753809681E+02  0.00000000000E+00 0. -1.
         13    1    1    2    0    0  0.27581039208E+02 -0.11499953823E+02 -0.64699634032E+02  0.71267218759E+02  0.10566000000E+00 0. -1.
        996    1    1    2    0    0 -0.27581039208E+02  0.11499953823E+02  0.87945768532E+02  0.10548659092E+03  0.50000000000E+02 0.  0.
<mgrwt>
<rscale>  0 0.58249143E+02</rscale>
<asrwt>0</asrwt>
<pdfrwt beam="1">  1       13 0.10000000E+01 0.58249143E+02</pdfrwt>
<pdfrwt beam="2">  1       22 0.76753816E+00 0.58249143E+02</pdfrwt>
<totfact> 0.41658353E-02</totfact>
</mgrwt>
</event>
<event>
 4    1  0.2489496E+000  0.5320278E+02  0.7957747E-01  0.1428794E+00
         13   -1    0    0    0    0  0.00000000000E+00  0.00000000000E+00  0.99999944167E+02  0.99999999987E+02  0.10566000000E+00 0.  1.
         22   -1    0    0    0    0 -0.00000000000E+00 -0.00000000000E+00 -0.18950802148E+02  0.18950802148E+02  0.00000000000E+00 0. -1.
         13    1    1    2    0    0 -0.13211813929E+01  0.18132564587E+02 -0.40151347068E+01  0.18619019564E+02  0.10566000000E+00 0. -1.
        996    1    1    2    0    0  0.13211813929E+01 -0.18132564587E+02  0.85064276726E+02  0.10033178257E+03  0.50000000000E+02 0.  0.
<mgrwt>
<rscale>  0 0.53202776E+02</rscale>
<asrwt>0</asrwt>
<pdfrwt beam="1">  1       13 0.10000000E+01 0.53202776E+02</pdfrwt>
<pdfrwt beam="2">  1       22 0.18950825E+00 0.53202776E+02</pdfrwt>
<totfact> 0.50160033E-01</totfact>
</mgrwt>
</event>
<event>
 4    1  0.2489496E+000  0.5359357E+02  0.7957747E-01  0.1426869E+00
         13   -1    0    0    0    0  0.00000000000E+00  0.00000000000E+00  0.99999944175E+02  0.99999999996E+02  0.10566000000E+00 0.  1.
         22   -1    0    0    0    0 -0.00000000000E+00 -0.00000000000E+00 -0.14656587702E+02  0.14656587702E+02  0.00000000000E+00 0. -1.
         13    1    1    2    0    0  0.26640032948E+01 -0.19109536020E+02  0.87770969676E+01  0.21197166690E+02  0.10566000000E+00 0. -1.
        996    1    1    2    0    0 -0.26640032948E+01  0.19109536020E+02  0.76566259506E+02  0.93459421008E+02  0.50000000000E+02 0.  0.
<mgrwt>
<rscale>  0 0.53593575E+02</rscale>
<asrwt>0</asrwt>
<pdfrwt beam="1">  1       13 0.10000000E+01 0.53593575E+02</pdfrwt>
<pdfrwt beam="2">  1       22 0.14656612E+00 0.53593575E+02</pdfrwt>
<totfact> 0.78492353E-01</totfact>
</mgrwt>
</event>
<event>
 4    1  0.2489496E+000  0.5142870E+02  0.7957747E-01  0.1437784E+00
         13   -1    0    0    0    0  0.00000000000E+00  0.00000000000E+00  0.99999944180E+02  0.10000000000E+03  0.10566000000E+00 0.  1.
         22   -1    0    0    0    0 -0.00000000000E+00 -0.00000000000E+00 -0.10115400698E+02  0.10115400698E+02  0.00000000000E+00 0.  1.
         13    1    1    2    0    0 -0.11796310554E+02  0.23997222507E+01  0.20065303429E+02  0.23399555023E+02  0.10566000000E+00 0. -1.
        996    1    1    2    0    0  0.11796310554E+02 -0.23997222507E+01  0.69819240053E+02  0.86715845675E+02  0.50000000000E+02 0.  0.
<mgrwt>
<rscale>  0 0.51428704E+02</rscale>
<asrwt>0</asrwt>
<pdfrwt beam="1">  1       13 0.10000000E+01 0.51428704E+02</pdfrwt>
<pdfrwt beam="2">  1       22 0.10115426E+00 0.51428704E+02</pdfrwt>
<totfact> 0.13846074E+00</totfact>
</mgrwt>
</event>
<event>
 4    1  0.2489496E+000  0.5129953E+02  0.7957747E-01  0.1438456E+00
         13   -1    0    0    0    0  0.00000000000E+00  0.00000000000E+00  0.99999944175E+02  0.99999999996E+02  0.10566000000E+00 0.  1.
         22   -1    0    0    0    0 -0.00000000000E+00 -0.00000000000E+00 -0.12353383638E+02  0.12353383638E+02  0.00000000000E+00 0.  1.
         13    1    1    2    0    0 -0.31825918834E+01  0.11023298583E+02  0.81843827167E+00  0.11503173822E+02  0.10566000000E+00 0. -1.
        996    1    1    2    0    0  0.31825918834E+01 -0.11023298583E+02  0.86828122266E+02  0.10085020981E+03  0.50000000000E+02 0.  0.
<mgrwt>
<rscale>  0 0.51299532E+02</rscale>
<asrwt>0</asrwt>
<pdfrwt beam="1">  1       13 0.10000000E+01 0.51299532E+02</pdfrwt>
<pdfrwt beam="2">  1       22 0.12353408E+00 0.51299532E+02</pdfrwt>
<totfact> 0.10263667E+00</totfact>
</mgrwt>
</event>
<event>
 4    1  0.2489496E+000  0.5331524E+02  0.7957747E-01  0.1428238E+00
         13   -1    0    0    0    0  0.00000000000E+00  0.00000000000E+00  0.99999944175E+02  0.99999999995E+02  0.10566000000E+00 0. -1.
         22   -1    0    0    0    0 -0.00000000000E+00 -0.00000000000E+00 -0.22906679831E+02  0.22906679831E+02  0.00000000000E+00 0.  1.
         13    1    1    2    0    0  0.17731468645E+02 -0.53018822631E+01 -0.98142889305E+01  0.20948660269E+02  0.10566000000E+00 0.  1.
        996    1    1    2    0    0 -0.17731468645E+02  0.53018822631E+01  0.86907553274E+02  0.10195801956E+03  0.50000000000E+02 0.  0.
<mgrwt>
<rscale>  0 0.53315241E+02</rscale>
<asrwt>0</asrwt>
<pdfrwt beam="1">  1       13 0.10000000E+01 0.53315241E+02</pdfrwt>
<pdfrwt beam="2">  1       22 0.22906701E+00 0.53315241E+02</pdfrwt>
<totfact> 0.35057076E-01</totfact>
</mgrwt>
</event>
<event>
 4    1  0.2489496E+000  0.5137711E+02  0.7957747E-01  0.1438052E+00
         13   -1    0    0    0    0  0.00000000000E+00  0.00000000000E+00  0.99999944176E+02  0.99999999996E+02  0.10566000000E+00 0.  1.
         22   -1    0    0    0    0 -0.00000000000E+00 -0.00000000000E+00 -0.27256828228E+02  0.27256828228E+02  0.00000000000E+00 0. -1.
         13    1    1    2    0    0 -0.67430942604E+00  0.11796305785E+02 -0.18844739029E+02  0.22242816289E+02  0.10566000000E+00 0. -1.
        996    1    1    2    0    0  0.67430942604E+00 -0.11796305785E+02  0.91587854977E+02  0.10501401193E+03  0.50000000000E+02 0.  0.
<mgrwt>
<rscale>  0 0.51377111E+02</rscale>
<asrwt>0</asrwt>
<pdfrwt beam="1">  1       13 0.10000000E+01 0.51377111E+02</pdfrwt>
<pdfrwt beam="2">  1       22 0.27256849E+00 0.51377111E+02</pdfrwt>
<totfact> 0.24855386E-01</totfact>
</mgrwt>
</event>
<event>
 4    1  0.2489496E+000  0.5100618E+02  0.7957747E-01  0.1439989E+00
         13   -1    0    0    0    0  0.00000000000E+00  0.00000000000E+00  0.99999944173E+02  0.99999999993E+02  0.10566000000E+00 0. -1.
         22   -1    0    0    0    0 -0.00000000000E+00 -0.00000000000E+00 -0.14500949509E+02  0.14500949509E+02  0.00000000000E+00 0.  1.
         13    1    1    2    0    0 -0.92375243260E+01 -0.40370928226E+01 -0.45099449286E+01  0.11044489188E+02  0.10566000000E+00 0.  1.
        996    1    1    2    0    0  0.92375243260E+01  0.40370928226E+01  0.90008939593E+02  0.10345646031E+03  0.50000000000E+02 0.  0.
<mgrwt>
<rscale>  0 0.51006176E+02</rscale>
<asrwt>0</asrwt>
<pdfrwt beam="1">  1       13 0.10000000E+01 0.51006176E+02</pdfrwt>
<pdfrwt beam="2">  1       22 0.14500973E+00 0.51006176E+02</pdfrwt>
<totfact> 0.79460704E-01</totfact>
</mgrwt>
</event>
<event>
 4    1  0.2489496E+000  0.5109355E+02  0.7957747E-01  0.1439531E+00
         13   -1    0    0    0    0  0.00000000000E+00  0.00000000000E+00  0.99999944177E+02  0.99999999997E+02  0.10566000000E+00 0. -1.
         22   -1    0    0    0    0 -0.00000000000E+00 -0.00000000000E+00 -0.95133286166E+01  0.95133286166E+01  0.00000000000E+00 0. -1.
         13    1    1    2    0    0  0.79034412895E+01 -0.69344243648E+01  0.13432468434E+02  0.17058516869E+02  0.10566000000E+00 0.  1.
        996    1    1    2    0    0 -0.79034412895E+01  0.69344243648E+01  0.77054147126E+02  0.92454811745E+02  0.50000000000E+02 0.  0.
<mgrwt>
<rscale>  0 0.51093548E+02</rscale>
<asrwt>0</asrwt>
<pdfrwt beam="1">  1       13 0.10000000E+01 0.51093548E+02</pdfrwt>
<pdfrwt beam="2">  1       22 0.95133539E-01 0.51093548E+02</pdfrwt>
<totfact> 0.15113627E+00</totfact>
</mgrwt>
</event>
<event>
 4    1  0.2489496E+000  0.5265600E+02  0.7957747E-01  0.1431521E+00
         13   -1    0    0    0    0  0.00000000000E+00  0.00000000000E+00  0.99999944178E+02  0.99999999999E+02  0.10566000000E+00 0. -1.
         22   -1    0    0    0    0 -0.00000000000E+00 -0.00000000000E+00 -0.12908186434E+02  0.12908186434E+02  0.00000000000E+00 0. -1.
         13    1    1    2    0    0 -0.37624651453E+01  0.16077881021E+02  0.92423899185E+01  0.18923195754E+02  0.10566000000E+00 0.  1.
        996    1    1    2    0    0  0.37624651453E+01 -0.16077881021E+02  0.77849367825E+02  0.93984990679E+02  0.50000000000E+02 0.  0.
<mgrwt>
<rscale>  0 0.52656001E+02</rscale>
<asrwt>0</asrwt>
<pdfrwt beam="1">  1       13 0.10000000E+01 0.52656001E+02</pdfrwt>
<pdfrwt beam="2">  1       22 0.12908211E+00 0.52656001E+02</pdfrwt>
<totfact> 0.96126978E-01</totfact>
</mgrwt>
</event>
<event>
 4    1  0.2489496E+000  0.5110390E+02  0.7957747E-01  0.1439477E+00
         13   -1    0    0    0    0  0.00000000000E+00  0.00000000000E+00  0.99999944175E+02  0.99999999996E+02  0.10566000000E+00 0.  1.
         22   -1    0    0    0    0 -0.00000000000E+00 -0.00000000000E+00 -0.19581870964E+02  0.19581870964E+02  0.00000000000E+00 0. -1.
         13    1    1    2    0    0  0.10407298220E+02  0.18155628420E+01 -0.10746898896E+02  0.15070339233E+02  0.10566000000E+00 0. -1.
        996    1    1    2    0    0 -0.10407298220E+02 -0.18155628420E+01  0.91164972107E+02  0.10451153173E+03  0.50000000000E+02 0.  0.
<mgrwt>
<rscale>  0 0.51103895E+02</rscale>
<asrwt>0</asrwt>
<pdfrwt beam="1">  1       13 0.10000000E+01 0.51103895E+02</pdfrwt>
<pdfrwt beam="2">  1       22 0.19581893E+00 0.51103895E+02</pdfrwt>
<totfact> 0.47045003E-01</totfact>
</mgrwt>
</event>
<event>
 4    1  0.2489496E+000  0.5167715E+02  0.7957747E-01  0.1436500E+00
         13   -1    0    0    0    0  0.00000000000E+00  0.00000000000E+00  0.99999944182E+02  0.10000000000E+03  0.10566000000E+00 0. -1.
         22   -1    0    0    0    0 -0.00000000000E+00 -0.00000000000E+00 -0.10519907915E+02  0.10519907915E+02  0.00000000000E+00 0. -1.
         13    1    1    2    0    0  0.10325572270E+02  0.79943895214E+01  0.20998087598E+02  0.24727687990E+02  0.10566000000E+00 0.  1.
        996    1    1    2    0    0 -0.10325572270E+02 -0.79943895214E+01  0.68481948669E+02  0.85792219927E+02  0.50000000000E+02 0.  0.
<mgrwt>
<rscale>  0 0.51677149E+02</rscale>
<asrwt>0</asrwt>
<pdfrwt beam="1">  1       13 0.10000000E+01 0.51677149E+02</pdfrwt>
<pdfrwt beam="2">  1       22 0.10519933E+00 0.51677149E+02</pdfrwt>
<totfact> 0.13083174E+00</totfact>
</mgrwt>
</event>
<event>
 4    1  0.2489496E+000  0.5317802E+02  0.7957747E-01  0.1428917E+00
         13   -1    0    0    0    0  0.00000000000E+00  0.00000000000E+00  0.99999944176E+02  0.99999999996E+02  0.10566000000E+00 0.  1.
         22   -1    0    0    0    0 -0.00000000000E+00 -0.00000000000E+00 -0.48589651396E+02  0.48589651396E+02  0.00000000000E+00 0. -1.
         13    1    1    2    0    0 -0.18105637388E+02  0.29692760522E+00 -0.39395767269E+02  0.43358273882E+02  0.10566000000E+00 0. -1.
        996    1    1    2    0    0  0.18105637388E+02 -0.29692760522E+00  0.90806060049E+02  0.10523137751E+03  0.50000000000E+02 0.  0.
<mgrwt>
<rscale>  0 0.53178024E+02</rscale>
<asrwt>0</asrwt>
<pdfrwt beam="1">  1       13 0.10000000E+01 0.53178024E+02</pdfrwt>
<pdfrwt beam="2">  1       22 0.48589666E+00 0.53178024E+02</pdfrwt>
<totfact> 0.79665949E-02</totfact>
</mgrwt>
</event>
<event>
 4    1  0.2489496E+000  0.5187688E+02  0.7957747E-01  0.1435473E+00
         13   -1    0    0    0    0  0.00000000000E+00  0.00000000000E+00  0.99999944181E+02  0.10000000000E+03  0.10566000000E+00 0.  1.
         22   -1    0    0    0    0 -0.00000000000E+00 -0.00000000000E+00 -0.17637565366E+02  0.17637565366E+02  0.00000000000E+00 0. -1.
         13    1    1    2    0    0 -0.81912591211E+01 -0.11140648963E+02 -0.60779813028E+01  0.15105092057E+02  0.10566000000E+00 0. -1.
        996    1    1    2    0    0  0.81912591211E+01  0.11140648963E+02  0.88440360117E+02  0.10253247331E+03  0.50000000000E+02 0.  0.
<mgrwt>
<rscale>  0 0.51876881E+02</rscale>
<asrwt>0</asrwt>
<pdfrwt beam="1">  1       13 0.10000000E+01 0.51876881E+02</pdfrwt>
<pdfrwt beam="2">  1       22 0.17637588E+00 0.51876881E+02</pdfrwt>
<totfact> 0.56959191E-01</totfact>
</mgrwt>
</event>
<event>
 4    1  0.2489496E+000  0.6253301E+02  0.7957747E-01  0.1387499E+00
         13   -1    0    0    0    0  0.00000000000E+00  0.00000000000E+00  0.99999944178E+02  0.99999999999E+02  0.10566000000E+00 0. -1.
         22   -1    0    0    0    0 -0.00000000000E+00 -0.00000000000E+00 -0.61227026953E+02  0.61227026953E+02  0.00000000000E+00 0.  1.
         13    1    1    2    0    0 -0.37526025508E+02 -0.14745255140E+01 -0.43769006725E+02  0.57672471160E+02  0.10566000000E+00 0.  1.
        996    1    1    2    0    0  0.37526025508E+02  0.14745255140E+01  0.82541923950E+02  0.10355455579E+03  0.50000000000E+02 0.  0.
<mgrwt>
<rscale>  0 0.62533006E+02</rscale>
<asrwt>0</asrwt>
<pdfrwt beam="1">  1       13 0.10000000E+01 0.62533006E+02</pdfrwt>
<pdfrwt beam="2">  1       22 0.61227038E+00 0.62533006E+02</pdfrwt>
<totfact> 0.68710073E-02</totfact>
</mgrwt>
</event>
<event>
 4    1  0.2489496E+000  0.5517299E+02  0.7957747E-01  0.1419283E+00
         13   -1    0    0    0    0  0.00000000000E+00  0.00000000000E+00  0.99999944172E+02  0.99999999993E+02  0.10566000000E+00 0. -1.
         22   -1    0    0    0    0 -0.00000000000E+00 -0.00000000000E+00 -0.18883947124E+02  0.18883947124E+02  0.00000000000E+00 0.  1.
         13    1    1    2    0    0  0.89692275857E+01  0.21531653180E+02  0.33955620585E+01  0.23571171754E+02  0.10566000000E+00 0.  1.
        996    1    1    2    0    0 -0.89692275857E+01 -0.21531653180E+02  0.77720434990E+02  0.95312775362E+02  0.50000000000E+02 0.  0.
<mgrwt>
<rscale>  0 0.55172993E+02</rscale>
<asrwt>0</asrwt>
<pdfrwt beam="1">  1       13 0.10000000E+01 0.55172993E+02</pdfrwt>
<pdfrwt beam="2">  1       22 0.18883970E+00 0.55172993E+02</pdfrwt>
<totfact> 0.50661290E-01</totfact>
</mgrwt>
</event>
<event>
 4    1  0.2489496E+000  0.5489263E+02  0.7957747E-01  0.1420607E+00
         13   -1    0    0    0    0  0.00000000000E+00  0.00000000000E+00  0.99999944179E+02  0.10000000000E+03  0.10566000000E+00 0.  1.
         22   -1    0    0    0    0 -0.00000000000E+00 -0.00000000000E+00 -0.19154013995E+02  0.19154013995E+02  0.00000000000E+00 0. -1.
         13    1    1    2    0    0  0.19869053636E+02 -0.10882165202E+02  0.15434482934E+01  0.22706699640E+02  0.10566000000E+00 0. -1.
        996    1    1    2    0    0 -0.19869053636E+02  0.10882165202E+02  0.79302481892E+02  0.96447314354E+02  0.50000000000E+02 0.  0.
<mgrwt>
<rscale>  0 0.54892630E+02</rscale>
<asrwt>0</asrwt>
<pdfrwt beam="1">  1       13 0.10000000E+01 0.54892630E+02</pdfrwt>
<pdfrwt beam="2">  1       22 0.19154037E+00 0.54892630E+02</pdfrwt>
<totfact> 0.49334955E-01</totfact>
</mgrwt>
</event>
<event>
 4    1  0.2489496E+000  0.5194199E+02  0.7957747E-01  0.1435140E+00
         13   -1    0    0    0    0  0.00000000000E+00  0.00000000000E+00  0.99999944174E+02  0.99999999994E+02  0.10566000000E+00 0.  1.
         22   -1    0    0    0    0 -0.00000000000E+00 -0.00000000000E+00 -0.77913167581E+02  0.77913167581E+02  0.00000000000E+00 0. -1.
         13    1    1    2    0    0 -0.14020956884E+02  0.11761173236E+01 -0.70425065810E+02  0.71816930749E+02  0.10566000000E+00 0. -1.
        996    1    1    2    0    0  0.14020956884E+02 -0.11761173236E+01  0.92511842403E+02  0.10609623683E+03  0.50000000000E+02 0.  0.
<mgrwt>
<rscale>  0 0.51941992E+02</rscale>
<asrwt>0</asrwt>
<pdfrwt beam="1">  1       13 0.10000000E+01 0.51941992E+02</pdfrwt>
<pdfrwt beam="2">  1       22 0.77913174E+00 0.51941992E+02</pdfrwt>
<totfact> 0.37409621E-02</totfact>
</mgrwt>
</event>
<event>
 4    1  0.2489496E+000  0.5161891E+02  0.7957747E-01  0.1436800E+00
         13   -1    0    0    0    0  0.00000000000E+00  0.00000000000E+00  0.99999944180E+02  0.10000000000E+03  0.10566000000E+00 0.  1.
         22   -1    0    0    0    0 -0.00000000000E+00 -0.00000000000E+00 -0.24807912679E+02  0.24807912679E+02  0.00000000000E+00 0. -1.
         13    1    1    2    0    0  0.67397791636E+01 -0.10912711185E+02 -0.15704594627E+02  0.20277015190E+02  0.10566000000E+00 0. -1.
        996    1    1    2    0    0 -0.67397791636E+01  0.10912711185E+02  0.90896626127E+02  0.10453089749E+03  0.50000000000E+02 0.  0.
<mgrwt>
<rscale>  0 0.51618910E+02</rscale>
<asrwt>0</asrwt>
<pdfrwt beam="1">  1       13 0.10000000E+01 0.51618910E+02</pdfrwt>
<pdfrwt beam="2">  1       22 0.24807934E+00 0.51618910E+02</pdfrwt>
<totfact> 0.29911848E-01</totfact>
</mgrwt>
</event>
<event>
 4    1  0.2489496E+000  0.5314411E+02  0.7957747E-01  0.1429085E+00
         13   -1    0    0    0    0  0.00000000000E+00  0.00000000000E+00  0.99999944161E+02  0.99999999981E+02  0.10566000000E+00 0. -1.
         22   -1    0    0    0    0 -0.00000000000E+00 -0.00000000000E+00 -0.77995821631E+02  0.77995821631E+02  0.00000000000E+00 0.  1.
         13    1    1    2    0    0 -0.54947792857E+01 -0.17149462384E+02 -0.69709083051E+02  0.71997667207E+02  0.10566000000E+00 0.  1.
        996    1    1    2    0    0  0.54947792857E+01  0.17149462384E+02  0.91713205581E+02  0.10599815441E+03  0.50000000000E+02 0.  0.
<mgrwt>
<rscale>  0 0.53144112E+02</rscale>
<asrwt>0</asrwt>
<pdfrwt beam="1">  1       13 0.10000000E+01 0.53144112E+02</pdfrwt>
<pdfrwt beam="2">  1       22 0.77995828E+00 0.53144112E+02</pdfrwt>
<totfact> 0.37123330E-02</totfact>
</mgrwt>
</event>
<event>
 4    1  0.2489496E+000  0.5166755E+02  0.7957747E-01  0.1436549E+00
         13   -1    0    0    0    0  0.00000000000E+00  0.00000000000E+00  0.99999944173E+02  0.99999999993E+02  0.10566000000E+00 0. -1.
         22   -1    0    0    0    0 -0.00000000000E+00 -0.00000000000E+00 -0.26981685706E+02  0.26981685706E+02  0.00000000000E+00 0.  1.
         13    1    1    2    0    0  0.12637534018E+02  0.31350381618E+01 -0.18062534239E+02  0.22266612618E+02  0.10566000000E+00 0.  1.
        996    1    1    2    0    0 -0.12637534018E+02 -0.31350381618E+01  0.91080792706E+02  0.10471507308E+03  0.50000000000E+02 0.  0.
<mgrwt>
<rscale>  0 0.51667550E+02</rscale>
<asrwt>0</asrwt>
<pdfrwt beam="1">  1       13 0.10000000E+01 0.51667550E+02</pdfrwt>
<pdfrwt beam="2">  1       22 0.26981706E+00 0.51667550E+02</pdfrwt>
<totfact> 0.25363602E-01</totfact>
</mgrwt>
</event>
<event>
 4    1  0.2489496E+000  0.7332151E+02  0.7957747E-01  0.1349149E+00
         13   -1    0    0    0    0  0.00000000000E+00  0.00000000000E+00  0.99999944187E+02  0.10000000001E+03  0.10566000000E+00 0. -1.
         22   -1    0    0    0    0 -0.00000000000E+00 -0.00000000000E+00 -0.64359746487E+02  0.64359746487E+02  0.00000000000E+00 0.  1.
         13    1    1    2    0    0  0.35157616291E+02 -0.40496747316E+02 -0.33786126583E+02  0.63384209705E+02  0.10566000000E+00 0.  1.
        996    1    1    2    0    0 -0.35157616291E+02  0.40496747316E+02  0.69426324283E+02  0.10097553679E+03  0.50000000000E+02 0.  0.
<mgrwt>
<rscale>  0 0.73321515E+02</rscale>
<asrwt>0</asrwt>
<pdfrwt beam="1">  1       13 0.10000000E+01 0.73321515E+02</pdfrwt>
<pdfrwt beam="2">  1       22 0.64359756E+00 0.73321515E+02</pdfrwt>
<totfact> 0.84676557E-02</totfact>
</mgrwt>
</event>
<event>
 4    1  0.2489496E+000  0.5174046E+02  0.7957747E-01  0.1436174E+00
         13   -1    0    0    0    0  0.00000000000E+00  0.00000000000E+00  0.99999944181E+02  0.10000000000E+03  0.10566000000E+00 0.  1.
         22   -1    0    0    0    0 -0.00000000000E+00 -0.00000000000E+00 -0.10578180139E+02  0.10578180139E+02  0.00000000000E+00 0.  1.
         13    1    1    2    0    0 -0.55570021045E+01 -0.12091100377E+02  0.18464734771E+02  0.22760328972E+02  0.10566000000E+00 0. -1.
        996    1    1    2    0    0  0.55570021045E+01  0.12091100377E+02  0.70957029271E+02  0.87817851167E+02  0.50000000000E+02 0.  0.
<mgrwt>
<rscale>  0 0.51740458E+02</rscale>
<asrwt>0</asrwt>
<pdfrwt beam="1">  1       13 0.10000000E+01 0.51740458E+02</pdfrwt>
<pdfrwt beam="2">  1       22 0.10578205E+00 0.51740458E+02</pdfrwt>
<totfact> 0.12979322E+00</totfact>
</mgrwt>
</event>
<event>
 4    1  0.2489496E+000  0.5276691E+02  0.7957747E-01  0.1430964E+00
         13   -1    0    0    0    0  0.00000000000E+00  0.00000000000E+00  0.99999944183E+02  0.10000000000E+03  0.10566000000E+00 0.  1.
         22   -1    0    0    0    0 -0.00000000000E+00 -0.00000000000E+00 -0.14032915333E+02  0.14032915333E+02  0.00000000000E+00 0.  1.
         13    1    1    2    0    0  0.15910566367E+02 -0.55857356584E+01  0.53668655676E+01  0.17696354851E+02  0.10566000000E+00 0. -1.
        996    1    1    2    0    0 -0.15910566367E+02  0.55857356584E+01  0.80600163282E+02  0.96336560485E+02  0.50000000000E+02 0.  0.
<mgrwt>
<rscale>  0 0.52766908E+02</rscale>
<asrwt>0</asrwt>
<pdfrwt beam="1">  1       13 0.10000000E+01 0.52766908E+02</pdfrwt>
<pdfrwt beam="2">  1       22 0.14032939E+00 0.52766908E+02</pdfrwt>
<totfact> 0.84141488E-01</totfact>
</mgrwt>
</event>
<event>
 4    1  0.2489496E+000  0.5108705E+02  0.7957747E-01  0.1439565E+00
         13   -1    0    0    0    0  0.00000000000E+00  0.00000000000E+00  0.99999944183E+02  0.10000000000E+03  0.10566000000E+00 0. -1.
         22   -1    0    0    0    0 -0.00000000000E+00 -0.00000000000E+00 -0.45114259151E+02  0.45114259151E+02  0.00000000000E+00 0.  1.
         13    1    1    2    0    0  0.19026173800E+01 -0.10308575989E+02 -0.37829892940E+02  0.39255555731E+02  0.10566000000E+00 0.  1.
        996    1    1    2    0    0 -0.19026173800E+01  0.10308575989E+02  0.92715577972E+02  0.10585870342E+03  0.50000000000E+02 0.  0.
<mgrwt>
<rscale>  0 0.51087050E+02</rscale>
<asrwt>0</asrwt>
<pdfrwt beam="1">  1       13 0.10000000E+01 0.51087050E+02</pdfrwt>
<pdfrwt beam="2">  1       22 0.45114274E+00 0.51087050E+02</pdfrwt>
<totfact> 0.95994747E-02</totfact>
</mgrwt>
</event>
<event>
 4    1  0.2489496E+000  0.5136486E+02  0.7957747E-01  0.1438116E+00
         13   -1    0    0    0    0  0.00000000000E+00  0.00000000000E+00  0.99999944176E+02  0.99999999997E+02  0.10566000000E+00 0. -1.
         22   -1    0    0    0    0 -0.00000000000E+00 -0.00000000000E+00 -0.13851666874E+02  0.13851666874E+02  0.00000000000E+00 0. -1.
         13    1    1    2    0    0 -0.70223511839E+01  0.94358800179E+01 -0.19009989867E+01  0.11915293074E+02  0.10566000000E+00 0.  1.
        996    1    1    2    0    0  0.70223511839E+01 -0.94358800179E+01  0.88049276289E+02  0.10193637380E+03  0.50000000000E+02 0.  0.
<mgrwt>
<rscale>  0 0.51364864E+02</rscale>
<asrwt>0</asrwt>
<pdfrwt beam="1">  1       13 0.10000000E+01 0.51364864E+02</pdfrwt>
<pdfrwt beam="2">  1       22 0.13851691E+00 0.51364864E+02</pdfrwt>
<totfact> 0.85677187E-01</totfact>
</mgrwt>
</event>
<event>
 4    1  0.2489496E+000  0.5352218E+02  0.7957747E-01  0.1427220E+00
         13   -1    0    0    0    0  0.00000000000E+00  0.00000000000E+00  0.99999944181E+02  0.10000000000E+03  0.10566000000E+00 0. -1.
         22   -1    0    0    0    0 -0.00000000000E+00 -0.00000000000E+00 -0.18414455731E+02  0.18414455731E+02  0.00000000000E+00 0.  1.
         13    1    1    2    0    0  0.18379035219E+02 -0.51802459422E+01 -0.19593590784E+01  0.19195680129E+02  0.10566000000E+00 0.  1.
        996    1    1    2    0    0 -0.18379035219E+02  0.51802459422E+01  0.83544847528E+02  0.99218775603E+02  0.50000000000E+02 0.  0.
<mgrwt>
<rscale>  0 0.53522181E+02</rscale>
<asrwt>0</asrwt>
<pdfrwt beam="1">  1       13 0.10000000E+01 0.53522181E+02</pdfrwt>
<pdfrwt beam="2">  1       22 0.18414479E+00 0.53522181E+02</pdfrwt>
<totfact> 0.52881492E-01</totfact>
</mgrwt>
</event>
<event>
 4    1  0.2489496E+000  0.5473211E+02  0.7957747E-01  0.1421370E+00
         13   -1    0    0    0    0  0.00000000000E+00  0.00000000000E+00  0.99999944178E+02  0.99999999998E+02  0.10566000000E+00 0.  1.
         22   -1    0    0    0    0 -0.00000000000E+00 -0.00000000000E+00 -0.40544244329E+02  0.40544244329E+02  0.00000000000E+00 0. -1.
         13    1    1    2    0    0  0.16506891860E+02 -0.14937408577E+02 -0.28978826772E+02  0.36542950332E+02  0.10566000000E+00 0. -1.
        996    1    1    2    0    0 -0.16506891860E+02  0.14937408577E+02  0.88434526621E+02  0.10400129399E+03  0.50000000000E+02 0.  0.
<mgrwt>
<rscale>  0 0.54732108E+02</rscale>
<asrwt>0</asrwt>
<pdfrwt beam="1">  1       13 0.10000000E+01 0.54732108E+02</pdfrwt>
<pdfrwt beam="2">  1       22 0.40544261E+00 0.54732108E+02</pdfrwt>
<totfact> 0.12076120E-01</totfact>
</mgrwt>
</event>
<event>
 4    1  0.2489496E+000  0.5400488E+02  0.7957747E-01  0.1424864E+00
         13   -1    0    0    0    0  0.00000000000E+00  0.00000000000E+00  0.99999944183E+02  0.10000000000E+03  0.10566000000E+00 0. -1.
         22   -1    0    0    0    0 -0.00000000000E+00 -0.00000000000E+00 -0.14300738721E+02  0.14300738721E+02  0.00000000000E+00 0. -1.
         13    1    1    2    0    0  0.17695084830E+02  0.10169135864E+02  0.14968579257E+02  0.25310015417E+02  0.10566000000E+00 0.  1.
        996    1    1    2    0    0 -0.17695084830E+02 -0.10169135864E+02  0.70730626205E+02  0.88990723307E+02  0.50000000000E+02 0.  0.
<mgrwt>
<rscale>  0 0.54004883E+02</rscale>
<asrwt>0</asrwt>
<pdfrwt beam="1">  1       13 0.10000000E+01 0.54004883E+02</pdfrwt>
<pdfrwt beam="2">  1       22 0.14300763E+00 0.54004883E+02</pdfrwt>
<totfact> 0.81794971E-01</totfact>
</mgrwt>
</event>
<event>
 4    1  0.2489496E+000  0.6377820E+02  0.7957747E-01  0.1382627E+00
         13   -1    0    0    0    0  0.00000000000E+00  0.00000000000E+00  0.99999944179E+02  0.99999999999E+02  0.10566000000E+00 0. -1.
         22   -1    0    0    0    0 -0.00000000000E+00 -0.00000000000E+00 -0.45494697835E+02  0.45494697835E+02  0.00000000000E+00 0.  1.
         13    1    1    2    0    0 -0.38123042019E+02 -0.10690749360E+02 -0.22473937952E+02  0.45527436846E+02  0.10566000000E+00 0.  1.
        996    1    1    2    0    0  0.38123042019E+02  0.10690749360E+02  0.76979184296E+02  0.99967260988E+02  0.50000000000E+02 0.  0.
<mgrwt>
<rscale>  0 0.63778197E+02</rscale>
<asrwt>0</asrwt>
<pdfrwt beam="1">  1       13 0.10000000E+01 0.63778197E+02</pdfrwt>
<pdfrwt beam="2">  1       22 0.45494713E+00 0.63778197E+02</pdfrwt>
<totfact> 0.94730546E-02</totfact>
</mgrwt>
</event>
<event>
 4    1  0.2489496E+000  0.5188558E+02  0.7957747E-01  0.1435429E+00
         13   -1    0    0    0    0  0.00000000000E+00  0.00000000000E+00  0.99999944185E+02  0.10000000001E+03  0.10566000000E+00 0. -1.
         22   -1    0    0    0    0 -0.00000000000E+00 -0.00000000000E+00 -0.27639739774E+02  0.27639739774E+02  0.00000000000E+00 0.  1.
         13    1    1    2    0    0  0.12222552232E+02  0.65362588408E+01 -0.18435246488E+02  0.23064755359E+02  0.10566000000E+00 0.  1.
        996    1    1    2    0    0 -0.12222552232E+02 -0.65362588408E+01  0.90795450899E+02  0.10457498442E+03  0.50000000000E+02 0.  0.
<mgrwt>
<rscale>  0 0.51885580E+02</rscale>
<asrwt>0</asrwt>
<pdfrwt beam="1">  1       13 0.10000000E+01 0.51885580E+02</pdfrwt>
<pdfrwt beam="2">  1       22 0.27639760E+00 0.51885580E+02</pdfrwt>
<totfact> 0.24207388E-01</totfact>
</mgrwt>
</event>
<event>
 4    1  0.2489496E+000  0.7547481E+02  0.7957747E-01  0.1342407E+00
         13   -1    0    0    0    0  0.00000000000E+00  0.00000000000E+00  0.99999944182E+02  0.10000000000E+03  0.10566000000E+00 0.  1.
         22   -1    0    0    0    0 -0.00000000000E+00 -0.00000000000E+00 -0.80610154789E+02  0.80610154789E+02  0.00000000000E+00 0. -1.
         13    1    1    2    0    0 -0.45305390201E+02  0.33821126052E+02 -0.51931508064E+02  0.76768090002E+02  0.10566000000E+00 0. -1.
        996    1    1    2    0    0  0.45305390201E+02 -0.33821126052E+02  0.71321297457E+02  0.10384206479E+03  0.50000000000E+02 0.  0.
<mgrwt>
<rscale>  0 0.75474810E+02</rscale>
<asrwt>0</asrwt>
<pdfrwt beam="1">  1       13 0.10000000E+01 0.75474810E+02</pdfrwt>
<pdfrwt beam="2">  1       22 0.80610160E+00 0.75474810E+02</pdfrwt>
<totfact> 0.29164814E-02</totfact>
</mgrwt>
</event>
<event>
 4    1  0.2489496E+000  0.5263641E+02  0.7957747E-01  0.1431619E+00
         13   -1    0    0    0    0  0.00000000000E+00  0.00000000000E+00  0.99999944175E+02  0.99999999996E+02  0.10566000000E+00 0. -1.
         22   -1    0    0    0    0 -0.00000000000E+00 -0.00000000000E+00 -0.12247018153E+02  0.12247018153E+02  0.00000000000E+00 0. -1.
         13    1    1    2    0    0 -0.14828438473E+02 -0.71210574323E+01  0.13784276145E+02  0.21461814447E+02  0.10566000000E+00 0.  1.
        996    1    1    2    0    0  0.14828438473E+02  0.71210574323E+01  0.73968649877E+02  0.90785203702E+02  0.50000000000E+02 0.  0.
<mgrwt>
<rscale>  0 0.52636414E+02</rscale>
<asrwt>0</asrwt>
<pdfrwt beam="1">  1       13 0.10000000E+01 0.52636414E+02</pdfrwt>
<pdfrwt beam="2">  1       22 0.12247043E+00 0.52636414E+02</pdfrwt>
<totfact> 0.10432545E+00</totfact>
</mgrwt>
</event>
<event>
 4    1  0.2489496E+000  0.5583079E+02  0.7957747E-01  0.1416210E+00
         13   -1    0    0    0    0  0.00000000000E+00  0.00000000000E+00  0.99999944175E+02  0.99999999995E+02  0.10566000000E+00 0. -1.
         22   -1    0    0    0    0 -0.00000000000E+00 -0.00000000000E+00 -0.21874316434E+02  0.21874316434E+02  0.00000000000E+00 0.  1.
         13    1    1    2    0    0  0.12357621823E+02 -0.21549165811E+02  0.57004393335E+02  0.62181905630E+02  0.10566000000E+00 0.  1.
        996    1    1    2    0    0 -0.12357621823E+02  0.21549165811E+02  0.21121234406E+02  0.59692410800E+02  0.50000000000E+02 0.  0.
<mgrwt>
<rscale>  0 0.55830792E+02</rscale>
<asrwt>0</asrwt>
<pdfrwt beam="1">  1       13 0.10000000E+01 0.55830792E+02</pdfrwt>
<pdfrwt beam="2">  1       22 0.21874338E+00 0.55830792E+02</pdfrwt>
<totfact> 0.38481626E-01</totfact>
</mgrwt>
</event>
<event>
 4    1  0.2489496E+000  0.5282895E+02  0.7957747E-01  0.1430654E+00
         13   -1    0    0    0    0  0.00000000000E+00  0.00000000000E+00  0.99999944170E+02  0.99999999991E+02  0.10566000000E+00 0.  1.
         22   -1    0    0    0    0 -0.00000000000E+00 -0.00000000000E+00 -0.16893176292E+02  0.16893176292E+02  0.00000000000E+00 0. -1.
         13    1    1    2    0    0  0.15591457221E+02  0.69140708055E+01 -0.15273261681E+01  0.17124304442E+02  0.10566000000E+00 0. -1.
        996    1    1    2    0    0 -0.15591457221E+02 -0.69140708055E+01  0.84634094046E+02  0.99768871841E+02  0.50000000000E+02 0.  0.
<mgrwt>
<rscale>  0 0.52828950E+02</rscale>
<asrwt>0</asrwt>
<pdfrwt beam="1">  1       13 0.10000000E+01 0.52828950E+02</pdfrwt>
<pdfrwt beam="2">  1       22 0.16893199E+00 0.52828950E+02</pdfrwt>
<totfact> 0.61571112E-01</totfact>
</mgrwt>
</event>
<event>
 4    1  0.2489496E+000  0.5195265E+02  0.7957747E-01  0.1435085E+00
         13   -1    0    0    0    0  0.00000000000E+00  0.00000000000E+00  0.99999944181E+02  0.10000000000E+03  0.10566000000E+00 0.  1.
         22   -1    0    0    0    0 -0.00000000000E+00 -0.00000000000E+00 -0.16407859001E+02  0.16407859001E+02  0.00000000000E+00 0.  1.
         13    1    1    2    0    0 -0.14359706790E+01 -0.14036226650E+02 -0.39129450309E+01  0.14642403259E+02  0.10566000000E+00 0. -1.
        996    1    1    2    0    0  0.14359706790E+01  0.14036226650E+02  0.87505030211E+02  0.10176545574E+03  0.50000000000E+02 0.  0.
<mgrwt>
<rscale>  0 0.51952648E+02</rscale>
<asrwt>0</asrwt>
<pdfrwt beam="1">  1       13 0.10000000E+01 0.51952648E+02</pdfrwt>
<pdfrwt beam="2">  1       22 0.16407882E+00 0.51952648E+02</pdfrwt>
<totfact> 0.64660281E-01</totfact>
</mgrwt>
</event>
<event>
 4    1  0.2489496E+000  0.5192280E+02  0.7957747E-01  0.1435238E+00
         13   -1    0    0    0    0  0.00000000000E+00  0.00000000000E+00  0.99999944177E+02  0.99999999997E+02  0.10566000000E+00 0.  1.
         22   -1    0    0    0    0 -0.00000000000E+00 -0.00000000000E+00 -0.16543867257E+02  0.16543867257E+02  0.00000000000E+00 0. -1.
         13    1    1    2    0    0 -0.22176410873E+01  0.13822403722E+02 -0.42415130810E+01  0.14627999655E+02  0.10566000000E+00 0. -1.
        996    1    1    2    0    0  0.22176410873E+01 -0.13822403722E+02  0.87697590001E+02  0.10191586760E+03  0.50000000000E+02 0.  0.
<mgrwt>
<rscale>  0 0.51922796E+02</rscale>
<asrwt>0</asrwt>
<pdfrwt beam="1">  1       13 0.10000000E+01 0.51922796E+02</pdfrwt>
<pdfrwt beam="2">  1       22 0.16543891E+00 0.51922796E+02</pdfrwt>
<totfact> 0.63739664E-01</totfact>
</mgrwt>
</event>
<event>
 4    1  0.2489496E+000  0.5225491E+02  0.7957747E-01  0.1433545E+00
         13   -1    0    0    0    0  0.00000000000E+00  0.00000000000E+00  0.99999944180E+02  0.10000000000E+03  0.10566000000E+00 0.  1.
         22   -1    0    0    0    0 -0.00000000000E+00 -0.00000000000E+00 -0.11826255014E+02  0.11826255014E+02  0.00000000000E+00 0.  1.
         13    1    1    2    0    0 -0.94161183279E+01  0.11912691103E+02  0.11540707445E+02  0.19072875662E+02  0.10566000000E+00 0. -1.
        996    1    1    2    0    0  0.94161183279E+01 -0.11912691103E+02  0.76632981721E+02  0.92753379351E+02  0.50000000000E+02 0.  0.
<mgrwt>
<rscale>  0 0.52254909E+02</rscale>
<asrwt>0</asrwt>
<pdfrwt beam="1">  1       13 0.10000000E+01 0.52254909E+02</pdfrwt>
<pdfrwt beam="2">  1       22 0.11826280E+00 0.52254909E+02</pdfrwt>
<totfact> 0.10997911E+00</totfact>
</mgrwt>
</event>
<event>
 4    1  0.2489496E+000  0.5235069E+02  0.7957747E-01  0.1433060E+00
         13   -1    0    0    0    0  0.00000000000E+00  0.00000000000E+00  0.99999944177E+02  0.99999999997E+02  0.10566000000E+00 0. -1.
         22   -1    0    0    0    0 -0.00000000000E+00 -0.00000000000E+00 -0.18356655011E+02  0.18356655011E+02  0.00000000000E+00 0. -1.
         13    1    1    2    0    0 -0.15312717897E+02  0.24729097272E+01  0.59546347112E+02  0.61533513067E+02  0.10566000000E+00 0.  1.
        996    1    1    2    0    0  0.15312717897E+02 -0.24729097272E+01  0.22096942054E+02  0.56823141941E+02  0.50000000000E+02 0.  0.
<mgrwt>
<rscale>  0 0.52350689E+02</rscale>
<asrwt>0</asrwt>
<pdfrwt beam="1">  1       13 0.10000000E+01 0.52350689E+02</pdfrwt>
<pdfrwt beam="2">  1       22 0.18356678E+00 0.52350689E+02</pdfrwt>
<totfact> 0.53068834E-01</totfact>
</mgrwt>
</event>
<event>
 4    1  0.2489496E+000  0.5348214E+02  0.7957747E-01  0.1427416E+00
         13   -1    0    0    0    0  0.00000000000E+00  0.00000000000E+00  0.99999944180E+02  0.10000000000E+03  0.10566000000E+00 0.  1.
         22   -1    0    0    0    0 -0.00000000000E+00 -0.00000000000E+00 -0.13129036584E+02  0.13129036584E+02  0.00000000000E+00 0.  1.
         13    1    1    2    0    0 -0.18885510479E+02 -0.19175614564E+01  0.22302488441E+02  0.29287398360E+02  0.10566000000E+00 0. -1.
        996    1    1    2    0    0  0.18885510479E+02  0.19175614564E+01  0.64568419155E+02  0.83841638225E+02  0.50000000000E+02 0.  0.
<mgrwt>
<rscale>  0 0.53482142E+02</rscale>
<asrwt>0</asrwt>
<pdfrwt beam="1">  1       13 0.10000000E+01 0.53482142E+02</pdfrwt>
<pdfrwt beam="2">  1       22 0.13129061E+00 0.53482142E+02</pdfrwt>
<totfact> 0.93752877E-01</totfact>
</mgrwt>
</event>
<event>
 4    1  0.2489496E+000  0.5205046E+02  0.7957747E-01  0.1434586E+00
         13   -1    0    0    0    0  0.00000000000E+00  0.00000000000E+00  0.99999944173E+02  0.99999999993E+02  0.10566000000E+00 0.  1.
         22   -1    0    0    0    0 -0.00000000000E+00 -0.00000000000E+00 -0.13287145875E+02  0.13287145875E+02  0.00000000000E+00 0.  1.
         13    1    1    2    0    0 -0.12090945645E+02 -0.79410074662E+01  0.30961318437E+01  0.14793504068E+02  0.10566000000E+00 0. -1.
        996    1    1    2    0    0  0.12090945645E+02  0.79410074662E+01  0.83616666454E+02  0.98493641800E+02  0.50000000000E+02 0.  0.
<mgrwt>
<rscale>  0 0.52050462E+02</rscale>
<asrwt>0</asrwt>
<pdfrwt beam="1">  1       13 0.10000000E+01 0.52050462E+02</pdfrwt>
<pdfrwt beam="2">  1       22 0.13287170E+00 0.52050462E+02</pdfrwt>
<totfact> 0.91711910E-01</totfact>
</mgrwt>
</event>
<event>
 4    1  0.2489496E+000  0.5202776E+02  0.7957747E-01  0.1434701E+00
         13   -1    0    0    0    0  0.00000000000E+00  0.00000000000E+00  0.99999944181E+02  0.10000000000E+03  0.10566000000E+00 0.  1.
         22   -1    0    0    0    0 -0.00000000000E+00 -0.00000000000E+00 -0.30202656094E+02  0.30202656094E+02  0.00000000000E+00 0. -1.
         13    1    1    2    0    0  0.84416079734E+01  0.11645902347E+02 -0.21060008956E+02  0.25503390518E+02  0.10566000000E+00 0. -1.
        996    1    1    2    0    0 -0.84416079734E+01 -0.11645902347E+02  0.90857297043E+02  0.10469926558E+03  0.50000000000E+02 0.  0.
<mgrwt>
<rscale>  0 0.52027760E+02</rscale>
<asrwt>0</asrwt>
<pdfrwt beam="1">  1       13 0.10000000E+01 0.52027760E+02</pdfrwt>
<pdfrwt beam="2">  1       22 0.30202676E+00 0.52027760E+02</pdfrwt>
<totfact> 0.20445333E-01</totfact>
</mgrwt>
</event>
<event>
 4    1  0.2489496E+000  0.5204462E+02  0.7957747E-01  0.1434615E+00
         13   -1    0    0    0    0  0.00000000000E+00  0.00000000000E+00  0.99999944173E+02  0.99999999993E+02  0.10566000000E+00 0.  1.
         22   -1    0    0    0    0 -0.00000000000E+00 -0.00000000000E+00 -0.25708564036E+02  0.25708564036E+02  0.00000000000E+00 0. -1.
         13    1    1    2    0    0 -0.19327151337E+01  0.14314575970E+02 -0.15960062103E+02  0.21526198442E+02  0.10566000000E+00 0. -1.
        996    1    1    2    0    0  0.19327151337E+01 -0.14314575970E+02  0.90251442239E+02  0.10418236559E+03  0.50000000000E+02 0.  0.
<mgrwt>
<rscale>  0 0.52044620E+02</rscale>
<asrwt>0</asrwt>
<pdfrwt beam="1">  1       13 0.10000000E+01 0.52044620E+02</pdfrwt>
<pdfrwt beam="2">  1       22 0.25708585E+00 0.52044620E+02</pdfrwt>
<totfact> 0.27903707E-01</totfact>
</mgrwt>
</event>
<event>
 4    1  0.2489496E+000  0.5836012E+02  0.7957747E-01  0.1404845E+00
         13   -1    0    0    0    0  0.00000000000E+00  0.00000000000E+00  0.99999944175E+02  0.99999999995E+02  0.10566000000E+00 0. -1.
         22   -1    0    0    0    0 -0.00000000000E+00 -0.00000000000E+00 -0.30425912378E+02  0.30425912378E+02  0.00000000000E+00 0.  1.
         13    1    1    2    0    0 -0.29064620007E+02  0.78199660906E+01 -0.10025660605E+02  0.31724265798E+02  0.10566000000E+00 0.  1.
        996    1    1    2    0    0  0.29064620007E+02 -0.78199660906E+01  0.79599692403E+02  0.98701646574E+02  0.50000000000E+02 0.  0.
<mgrwt>
<rscale>  0 0.58360123E+02</rscale>
<asrwt>0</asrwt>
<pdfrwt beam="1">  1       13 0.10000000E+01 0.58360123E+02</pdfrwt>
<pdfrwt beam="2">  1       22 0.30425932E+00 0.58360123E+02</pdfrwt>
<totfact> 0.20324175E-01</totfact>
</mgrwt>
</event>
<event>
 4    1  0.2489496E+000  0.5214971E+02  0.7957747E-01  0.1434080E+00
         13   -1    0    0    0    0  0.00000000000E+00  0.00000000000E+00  0.99999944176E+02  0.99999999997E+02  0.10566000000E+00 0. -1.
         22   -1    0    0    0    0 -0.00000000000E+00 -0.00000000000E+00 -0.14023880236E+02  0.14023880236E+02  0.00000000000E+00 0.  1.
         13    1    1    2    0    0 -0.47929761283E+01  0.14022119818E+02  0.16980761420E+01  0.14916001173E+02  0.10566000000E+00 0.  1.
        996    1    1    2    0    0  0.47929761283E+01 -0.14022119818E+02  0.84277987799E+02  0.99107879060E+02  0.50000000000E+02 0.  0.
<mgrwt>
<rscale>  0 0.52149712E+02</rscale>
<asrwt>0</asrwt>
<pdfrwt beam="1">  1       13 0.10000000E+01 0.52149712E+02</pdfrwt>
<pdfrwt beam="2">  1       22 0.14023904E+00 0.52149712E+02</pdfrwt>
<totfact> 0.84121327E-01</totfact>
</mgrwt>
</event>
<event>
 4    1  0.2489496E+000  0.6171822E+02  0.7957747E-01  0.1390759E+00
         13   -1    0    0    0    0  0.00000000000E+00  0.00000000000E+00  0.99999944166E+02  0.99999999987E+02  0.10566000000E+00 0.  1.
         22   -1    0    0    0    0 -0.00000000000E+00 -0.00000000000E+00 -0.71525137858E+02  0.71525137858E+02  0.00000000000E+00 0. -1.
         13    1    1    2    0    0  0.35987529079E+02  0.37465571707E+01 -0.56142114128E+02  0.66791369822E+02  0.10566000000E+00 0. -1.
        996    1    1    2    0    0 -0.35987529079E+02 -0.37465571707E+01  0.84616920437E+02  0.10473376802E+03  0.50000000000E+02 0.  0.
<mgrwt>
<rscale>  0 0.61718222E+02</rscale>
<asrwt>0</asrwt>
<pdfrwt beam="1">  1       13 0.10000000E+01 0.61718222E+02</pdfrwt>
<pdfrwt beam="2">  1       22 0.71525146E+00 0.61718222E+02</pdfrwt>
<totfact> 0.66588984E-02</totfact>
</mgrwt>
</event>
<event>
 4    1  0.2489496E+000  0.5481318E+02  0.7957747E-01  0.1420984E+00
         13   -1    0    0    0    0  0.00000000000E+00  0.00000000000E+00  0.99999944176E+02  0.99999999996E+02  0.10566000000E+00 0. -1.
         22   -1    0    0    0    0 -0.00000000000E+00 -0.00000000000E+00 -0.15788920517E+02  0.15788920517E+02  0.00000000000E+00 0. -1.
         13    1    1    2    0    0 -0.10353683794E+02  0.19932025711E+02  0.13091820066E+02  0.25997910180E+02  0.10566000000E+00 0.  1.
        996    1    1    2    0    0  0.10353683794E+02 -0.19932025711E+02  0.71119203593E+02  0.89791010333E+02  0.50000000000E+02 0.  0.
<mgrwt>
<rscale>  0 0.54813177E+02</rscale>
<asrwt>0</asrwt>
<pdfrwt beam="1">  1       13 0.10000000E+01 0.54813177E+02</pdfrwt>
<pdfrwt beam="2">  1       22 0.15788944E+00 0.54813177E+02</pdfrwt>
<totfact> 0.69449816E-01</totfact>
</mgrwt>
</event>
<event>
 4    1  0.2489496E+000  0.5321425E+02  0.7957747E-01  0.1428738E+00
         13   -1    0    0    0    0  0.00000000000E+00  0.00000000000E+00  0.99999944180E+02  0.10000000000E+03  0.10566000000E+00 0.  1.
         22   -1    0    0    0    0 -0.00000000000E+00 -0.00000000000E+00 -0.52443417331E+02  0.52443417331E+02  0.00000000000E+00 0. -1.
         13    1    1    2    0    0 -0.79206762782E+01  0.16401809793E+02 -0.43398104324E+02  0.47065519227E+02  0.10566000000E+00 0. -1.
        996    1    1    2    0    0  0.79206762782E+01 -0.16401809793E+02  0.90954631172E+02  0.10537789810E+03  0.50000000000E+02 0.  0.
<mgrwt>
<rscale>  0 0.53214251E+02</rscale>
<asrwt>0</asrwt>
<pdfrwt beam="1">  1       13 0.10000000E+01 0.53214251E+02</pdfrwt>
<pdfrwt beam="2">  1       22 0.52443431E+00 0.53214251E+02</pdfrwt>
<totfact> 0.64888562E-02</totfact>
</mgrwt>
</event>
<event>
 4    1  0.2489496E+000  0.5286625E+02  0.7957747E-01  0.1430468E+00
         13   -1    0    0    0    0  0.00000000000E+00  0.00000000000E+00  0.99999944178E+02  0.99999999998E+02  0.10566000000E+00 0.  1.
         22   -1    0    0    0    0 -0.00000000000E+00 -0.00000000000E+00 -0.18694066592E+02  0.18694066592E+02  0.00000000000E+00 0. -1.
         13    1    1    2    0    0  0.63153266506E+01  0.15967366927E+02 -0.46430366707E+01  0.17787892254E+02  0.10566000000E+00 0. -1.
        996    1    1    2    0    0 -0.63153266506E+01 -0.15967366927E+02  0.85948914256E+02  0.10090617434E+03  0.50000000000E+02 0.  0.
<mgrwt>
<rscale>  0 0.52866248E+02</rscale>
<asrwt>0</asrwt>
<pdfrwt beam="1">  1       13 0.10000000E+01 0.52866248E+02</pdfrwt>
<pdfrwt beam="2">  1       22 0.18694089E+00 0.52866248E+02</pdfrwt>
<totfact> 0.51393140E-01</totfact>
</mgrwt>
</event>
<event>
 4    1  0.2489496E+000  0.5174233E+02  0.7957747E-01  0.1436164E+00
         13   -1    0    0    0    0  0.00000000000E+00  0.00000000000E+00  0.99999944173E+02  0.99999999993E+02  0.10566000000E+00 0.  1.
         22   -1    0    0    0    0 -0.00000000000E+00 -0.00000000000E+00 -0.11932765832E+02  0.11932765832E+02  0.00000000000E+00 0.  1.
         13    1    1    2    0    0  0.56559500410E+01  0.12053152667E+02  0.53162387127E+01  0.14336729689E+02  0.10566000000E+00 0. -1.
        996    1    1    2    0    0 -0.56559500410E+01 -0.12053152667E+02  0.82750939628E+02  0.97596036136E+02  0.50000000000E+02 0.  0.
<mgrwt>
<rscale>  0 0.51742326E+02</rscale>
<asrwt>0</asrwt>
<pdfrwt beam="1">  1       13 0.10000000E+01 0.51742326E+02</pdfrwt>
<pdfrwt beam="2">  1       22 0.11932790E+00 0.51742326E+02</pdfrwt>
<totfact> 0.10835948E+00</totfact>
</mgrwt>
</event>
<event>
 4    1  0.2489496E+000  0.5794795E+02  0.7957747E-01  0.1406651E+00
         13   -1    0    0    0    0  0.00000000000E+00  0.00000000000E+00  0.99999944173E+02  0.99999999994E+02  0.10566000000E+00 0. -1.
         22   -1    0    0    0    0 -0.00000000000E+00 -0.00000000000E+00 -0.20292059660E+02  0.20292059660E+02  0.00000000000E+00 0. -1.
         13    1    1    2    0    0 -0.23755331490E+02 -0.17136205897E+02  0.41818385130E+02  0.51056378893E+02  0.10566000000E+00 0.  1.
        996    1    1    2    0    0  0.23755331490E+02  0.17136205897E+02  0.37889499384E+02  0.69235680760E+02  0.50000000000E+02 0.  0.
<mgrwt>
<rscale>  0 0.57947954E+02</rscale>
<asrwt>0</asrwt>
<pdfrwt beam="1">  1       13 0.10000000E+01 0.57947954E+02</pdfrwt>
<pdfrwt beam="2">  1       22 0.20292082E+00 0.57947954E+02</pdfrwt>
<totfact> 0.44538844E-01</totfact>
</mgrwt>
</event>
<event>
 4    1  0.2489496E+000  0.5139959E+02  0.7957747E-01  0.1437935E+00
         13   -1    0    0    0    0  0.00000000000E+00  0.00000000000E+00  0.99999944181E+02  0.10000000000E+03  0.10566000000E+00 0.  1.
         22   -1    0    0    0    0 -0.00000000000E+00 -0.00000000000E+00 -0.22386311690E+02  0.22386311690E+02  0.00000000000E+00 0. -1.
         13    1    1    2    0    0 -0.25612592512E+01  0.11634359020E+02 -0.13357679584E+02  0.17898523030E+02  0.10566000000E+00 0. -1.
        996    1    1    2    0    0  0.25612592512E+01 -0.11634359020E+02  0.90971312075E+02  0.10448778866E+03  0.50000000000E+02 0.  0.
<mgrwt>
<rscale>  0 0.51399595E+02</rscale>
<asrwt>0</asrwt>
<pdfrwt beam="1">  1       13 0.10000000E+01 0.51399595E+02</pdfrwt>
<pdfrwt beam="2">  1       22 0.22386333E+00 0.51399595E+02</pdfrwt>
<totfact> 0.36536116E-01</totfact>
</mgrwt>
</event>
<event>
 4    1  0.2489496E+000  0.5445321E+02  0.7957747E-01  0.1422703E+00
         13   -1    0    0    0    0  0.00000000000E+00  0.00000000000E+00  0.99999944187E+02  0.10000000001E+03  0.10566000000E+00 0. -1.
         22   -1    0    0    0    0 -0.00000000000E+00 -0.00000000000E+00 -0.68881588413E+02  0.68881588413E+02  0.00000000000E+00 0.  1.
         13    1    1    2    0    0  0.21180450221E+02 -0.40669923544E+01 -0.59429158784E+02  0.63221736580E+02  0.10566000000E+00 0.  1.
        996    1    1    2    0    0 -0.21180450221E+02  0.40669923544E+01  0.90547514558E+02  0.10565985184E+03  0.50000000000E+02 0.  0.
<mgrwt>
<rscale>  0 0.54453208E+02</rscale>
<asrwt>0</asrwt>
<pdfrwt beam="1">  1       13 0.10000000E+01 0.54453208E+02</pdfrwt>
<pdfrwt beam="2">  1       22 0.68881597E+00 0.54453208E+02</pdfrwt>
<totfact> 0.79978183E-02</totfact>
</mgrwt>
</event>
<event>
 4    1  0.2489496E+000  0.5159738E+02  0.7957747E-01  0.1436911E+00
         13   -1    0    0    0    0  0.00000000000E+00  0.00000000000E+00  0.99999944181E+02  0.10000000000E+03  0.10566000000E+00 0. -1.
         22   -1    0    0    0    0 -0.00000000000E+00 -0.00000000000E+00 -0.10775806598E+02  0.10775806598E+02  0.00000000000E+00 0.  1.
         13    1    1    2    0    0  0.60921733639E+01  0.11188181521E+02  0.98430997904E+01  0.16099309288E+02  0.10566000000E+00 0.  1.
        996    1    1    2    0    0 -0.60921733639E+01 -0.11188181521E+02  0.79381037792E+02  0.94676497311E+02  0.50000000000E+02 0.  0.
<mgrwt>
<rscale>  0 0.51597383E+02</rscale>
<asrwt>0</asrwt>
<pdfrwt beam="1">  1       13 0.10000000E+01 0.51597383E+02</pdfrwt>
<pdfrwt beam="2">  1       22 0.10775832E+00 0.51597383E+02</pdfrwt>
<totfact> 0.12625553E+00</totfact>
</mgrwt>
</event>
<event>
 4    1  0.2489496E+000  0.5150049E+02  0.7957747E-01  0.1437412E+00
         13   -1    0    0    0    0  0.00000000000E+00  0.00000000000E+00  0.99999944182E+02  0.10000000000E+03  0.10566000000E+00 0. -1.
         22   -1    0    0    0    0 -0.00000000000E+00 -0.00000000000E+00 -0.10825442655E+02  0.10825442655E+02  0.00000000000E+00 0. -1.
         13    1    1    2    0    0 -0.10845031104E+02 -0.58894892139E+01  0.80513044874E+01  0.14735516646E+02  0.10566000000E+00 0.  1.
        996    1    1    2    0    0  0.10845031104E+02  0.58894892139E+01  0.81123197040E+02  0.96089926011E+02  0.50000000000E+02 0.  0.
<mgrwt>
<rscale>  0 0.51500493E+02</rscale>
<asrwt>0</asrwt>
<pdfrwt beam="1">  1       13 0.10000000E+01 0.51500493E+02</pdfrwt>
<pdfrwt beam="2">  1       22 0.10825468E+00 0.51500493E+02</pdfrwt>
<totfact> 0.12537142E+00</totfact>
</mgrwt>
</event>
<event>
 4    1  0.2489496E+000  0.5949069E+02  0.7957747E-01  0.1399982E+00
         13   -1    0    0    0    0  0.00000000000E+00  0.00000000000E+00  0.99999944175E+02  0.99999999995E+02  0.10566000000E+00 0. -1.
         22   -1    0    0    0    0 -0.00000000000E+00 -0.00000000000E+00 -0.46085461499E+02  0.46085461499E+02  0.00000000000E+00 0.  1.
         13    1    1    2    0    0 -0.25072921338E+02 -0.20260585843E+02 -0.29455194095E+02  0.43666489971E+02  0.10566000000E+00 0.  1.
        996    1    1    2    0    0  0.25072921338E+02  0.20260585843E+02  0.83369676771E+02  0.10241897152E+03  0.50000000000E+02 0.  0.
<mgrwt>
<rscale>  0 0.59490694E+02</rscale>
<asrwt>0</asrwt>
<pdfrwt beam="1">  1       13 0.10000000E+01 0.59490694E+02</pdfrwt>
<pdfrwt beam="2">  1       22 0.46085477E+00 0.59490694E+02</pdfrwt>
<totfact> 0.91612680E-02</totfact>
</mgrwt>
</event>
<event>
 4    1  0.2489496E+000  0.5105022E+02  0.7957747E-01  0.1439758E+00
         13   -1    0    0    0    0  0.00000000000E+00  0.00000000000E+00  0.99999944173E+02  0.99999999993E+02  0.10566000000E+00 0.  1.
         22   -1    0    0    0    0 -0.00000000000E+00 -0.00000000000E+00 -0.52686533359E+02  0.52686533359E+02  0.00000000000E+00 0. -1.
         13    1    1    2    0    0 -0.98305327167E+01  0.30799142521E+01 -0.45558397768E+02  0.46708714567E+02  0.10566000000E+00 0. -1.
        996    1    1    2    0    0  0.98305327167E+01 -0.30799142521E+01  0.92871808581E+02  0.10597781879E+03  0.50000000000E+02 0.  0.
<mgrwt>
<rscale>  0 0.51050223E+02</rscale>
<asrwt>0</asrwt>
<pdfrwt beam="1">  1       13 0.10000000E+01 0.51050223E+02</pdfrwt>
<pdfrwt beam="2">  1       22 0.52686547E+00 0.51050223E+02</pdfrwt>
<totfact> 0.64065987E-02</totfact>
</mgrwt>
</event>
<event>
 4    1  0.2489496E+000  0.5156422E+02  0.7957747E-01  0.1437083E+00
         13   -1    0    0    0    0  0.00000000000E+00  0.00000000000E+00  0.99999944179E+02  0.99999999999E+02  0.10566000000E+00 0.  1.
         22   -1    0    0    0    0 -0.00000000000E+00 -0.00000000000E+00 -0.11509864848E+02  0.11509864848E+02  0.00000000000E+00 0.  1.
         13    1    1    2    0    0  0.12296917055E+02 -0.27667487553E+01  0.53838665333E+01  0.13706430995E+02  0.10566000000E+00 0. -1.
        996    1    1    2    0    0 -0.12296917055E+02  0.27667487553E+01  0.83106212797E+02  0.97803433852E+02  0.50000000000E+02 0.  0.
<mgrwt>
<rscale>  0 0.51564223E+02</rscale>
<asrwt>0</asrwt>
<pdfrwt beam="1">  1       13 0.10000000E+01 0.51564223E+02</pdfrwt>
<pdfrwt beam="2">  1       22 0.11509890E+00 0.51564223E+02</pdfrwt>
<totfact> 0.11441384E+00</totfact>
</mgrwt>
</event>
<event>
 4    1  0.2489496E+000  0.5654884E+02  0.7957747E-01  0.1412913E+00
         13   -1    0    0    0    0  0.00000000000E+00  0.00000000000E+00  0.99999944181E+02  0.10000000000E+03  0.10566000000E+00 0.  1.
         22   -1    0    0    0    0 -0.00000000000E+00 -0.00000000000E+00 -0.28220273292E+02  0.28220273292E+02  0.00000000000E+00 0. -1.
         13    1    1    2    0    0  0.17584076834E+02  0.19712224736E+02 -0.10463037874E+02  0.28412284100E+02  0.10566000000E+00 0. -1.
        996    1    1    2    0    0 -0.17584076834E+02 -0.19712224736E+02  0.82242708763E+02  0.99807989194E+02  0.50000000000E+02 0.  0.
<mgrwt>
<rscale>  0 0.56548842E+02</rscale>
<asrwt>0</asrwt>
<pdfrwt beam="1">  1       13 0.10000000E+01 0.56548842E+02</pdfrwt>
<pdfrwt beam="2">  1       22 0.28220293E+00 0.56548842E+02</pdfrwt>
<totfact> 0.23399256E-01</totfact>
</mgrwt>
</event>
<event>
 4    1  0.2489496E+000  0.6738993E+02  0.7957747E-01  0.1369201E+00
         13   -1    0    0    0    0  0.00000000000E+00  0.00000000000E+00  0.99999944182E+02  0.10000000000E+03  0.10566000000E+00 0.  1.
         22   -1    0    0    0    0 -0.00000000000E+00 -0.00000000000E+00 -0.40776509850E+02  0.40776509850E+02  0.00000000000E+00 0. -1.
         13    1    1    2    0    0 -0.44634294415E+02  0.70130572548E+01 -0.76639998360E+01  0.45827407384E+02  0.10566000000E+00 0. -1.
        996    1    1    2    0    0  0.44634294415E+02 -0.70130572548E+01  0.66887434168E+02  0.94949102468E+02  0.50000000000E+02 0.  0.
<mgrwt>
<rscale>  0 0.67389934E+02</rscale>
<asrwt>0</asrwt>
<pdfrwt beam="1">  1       13 0.10000000E+01 0.67389934E+02</pdfrwt>
<pdfrwt beam="2">  1       22 0.40776526E+00 0.67389934E+02</pdfrwt>
<totfact> 0.12039857E-01</totfact>
</mgrwt>
</event>
<event>
 4    1  0.2489496E+000  0.5145616E+02  0.7957747E-01  0.1437642E+00
         13   -1    0    0    0    0  0.00000000000E+00  0.00000000000E+00  0.99999944178E+02  0.99999999998E+02  0.10566000000E+00 0.  1.
         22   -1    0    0    0    0 -0.00000000000E+00 -0.00000000000E+00 -0.28069241208E+02  0.28069241208E+02  0.00000000000E+00 0. -1.
         13    1    1    2    0    0  0.86951926457E+01 -0.84929229758E+01 -0.19601883075E+02  0.23064715475E+02  0.10566000000E+00 0. -1.
        996    1    1    2    0    0 -0.86951926457E+01  0.84929229758E+01  0.91532586045E+02  0.10500452573E+03  0.50000000000E+02 0.  0.
<mgrwt>
<rscale>  0 0.51456157E+02</rscale>
<asrwt>0</asrwt>
<pdfrwt beam="1">  1       13 0.10000000E+01 0.51456157E+02</pdfrwt>
<pdfrwt beam="2">  1       22 0.28069261E+00 0.51456157E+02</pdfrwt>
<totfact> 0.23480013E-01</totfact>
</mgrwt>
</event>
<event>
 4    1  0.2489496E+000  0.5185053E+02  0.7957747E-01  0.1435608E+00
         13   -1    0    0    0    0  0.00000000000E+00  0.00000000000E+00  0.99999944180E+02  0.10000000000E+03  0.10566000000E+00 0.  1.
         22   -1    0    0    0    0 -0.00000000000E+00 -0.00000000000E+00 -0.11079092167E+02  0.11079092167E+02  0.00000000000E+00 0. -1.
         13    1    1    2    0    0  0.35657407114E+01  0.13257542902E+02  0.11552277069E+02  0.17942776266E+02  0.10566000000E+00 0. -1.
        996    1    1    2    0    0 -0.35657407114E+01 -0.13257542902E+02  0.77368574944E+02  0.93136315901E+02  0.50000000000E+02 0.  0.
<mgrwt>
<rscale>  0 0.51850525E+02</rscale>
<asrwt>0</asrwt>
<pdfrwt beam="1">  1       13 0.10000000E+01 0.51850525E+02</pdfrwt>
<pdfrwt beam="2">  1       22 0.11079117E+00 0.51850525E+02</pdfrwt>
<totfact> 0.12122947E+00</totfact>
</mgrwt>
</event>
<event>
 4    1  0.2489496E+000  0.5269440E+02  0.7957747E-01  0.1431328E+00
         13   -1    0    0    0    0  0.00000000000E+00  0.00000000000E+00  0.99999944175E+02  0.99999999995E+02  0.10566000000E+00 0.  1.
         22   -1    0    0    0    0 -0.00000000000E+00 -0.00000000000E+00 -0.18130530685E+02  0.18130530685E+02  0.00000000000E+00 0. -1.
         13    1    1    2    0    0  0.14939132994E+02 -0.73159109636E+01 -0.42499139001E+01  0.17168959783E+02  0.10566000000E+00 0. -1.
        996    1    1    2    0    0 -0.14939132994E+02  0.73159109636E+01  0.86119327390E+02  0.10096157090E+03  0.50000000000E+02 0.  0.
<mgrwt>
<rscale>  0 0.52694404E+02</rscale>
<asrwt>0</asrwt>
<pdfrwt beam="1">  1       13 0.10000000E+01 0.52694404E+02</pdfrwt>
<pdfrwt beam="2">  1       22 0.18130554E+00 0.52694404E+02</pdfrwt>
<totfact> 0.54302703E-01</totfact>
</mgrwt>
</event>
<event>
 4    1  0.2489496E+000  0.5114752E+02  0.7957747E-01  0.1439249E+00
         13   -1    0    0    0    0  0.00000000000E+00  0.00000000000E+00  0.99999944184E+02  0.10000000000E+03  0.10566000000E+00 0.  1.
         22   -1    0    0    0    0 -0.00000000000E+00 -0.00000000000E+00 -0.16929401969E+02  0.16929401969E+02  0.00000000000E+00 0. -1.
         13    1    1    2    0    0  0.93129588701E+01  0.54163731082E+01 -0.73519608092E+01  0.13043419503E+02  0.10566000000E+00 0. -1.
        996    1    1    2    0    0 -0.93129588701E+01 -0.54163731082E+01  0.90422503024E+02  0.10388598247E+03  0.50000000000E+02 0.  0.
<mgrwt>
<rscale>  0 0.51147515E+02</rscale>
<asrwt>0</asrwt>
<pdfrwt beam="1">  1       13 0.10000000E+01 0.51147515E+02</pdfrwt>
<pdfrwt beam="2">  1       22 0.16929425E+00 0.51147515E+02</pdfrwt>
<totfact> 0.61140901E-01</totfact>
</mgrwt>
</event>
<event>
 4    1  0.2489496E+000  0.5671468E+02  0.7957747E-01  0.1412160E+00
         13   -1    0    0    0    0  0.00000000000E+00  0.00000000000E+00  0.99999944173E+02  0.99999999993E+02  0.10566000000E+00 0.  1.
         22   -1    0    0    0    0 -0.00000000000E+00 -0.00000000000E+00 -0.54767388092E+02  0.54767388092E+02  0.00000000000E+00 0. -1.
         13    1    1    2    0    0  0.24322535263E+02  0.11178977509E+02 -0.42542566408E+02  0.50263668592E+02  0.10566000000E+00 0. -1.
        996    1    1    2    0    0 -0.24322535263E+02 -0.11178977509E+02  0.87775122489E+02  0.10450371949E+03  0.50000000000E+02 0.  0.
<mgrwt>
<rscale>  0 0.56714683E+02</rscale>
<asrwt>0</asrwt>
<pdfrwt beam="1">  1       13 0.10000000E+01 0.56714683E+02</pdfrwt>
<pdfrwt beam="2">  1       22 0.54767401E+00 0.56714683E+02</pdfrwt>
<totfact> 0.59548339E-02</totfact>
</mgrwt>
</event>
<event>
 4    1  0.2489496E+000  0.5132543E+02  0.7957747E-01  0.1438321E+00
         13   -1    0    0    0    0  0.00000000000E+00  0.00000000000E+00  0.99999944184E+02  0.10000000000E+03  0.10566000000E+00 0.  1.
         22   -1    0    0    0    0 -0.00000000000E+00 -0.00000000000E+00 -0.13215567988E+02  0.13215567988E+02  0.00000000000E+00 0.  1.
         13    1    1    2    0    0  0.67522310535E+01 -0.94184605312E+01 -0.88933767105E+00  0.11623343259E+02  0.10566000000E+00 0. -1.
        996    1    1    2    0    0 -0.67522310535E+01  0.94184605312E+01  0.87673713867E+02  0.10159222473E+03  0.50000000000E+02 0.  0.
<mgrwt>
<rscale>  0 0.51325433E+02</rscale>
<asrwt>0</asrwt>
<pdfrwt beam="1">  1       13 0.10000000E+01 0.51325433E+02</pdfrwt>
<pdfrwt beam="2">  1       22 0.13215592E+00 0.51325433E+02</pdfrwt>
<totfact> 0.92356194E-01</totfact>
</mgrwt>
</event>
<event>
 4    1  0.2489496E+000  0.6102352E+02  0.7957747E-01  0.1393586E+00
         13   -1    0    0    0    0  0.00000000000E+00  0.00000000000E+00  0.99999944171E+02  0.99999999991E+02  0.10566000000E+00 0.  1.
         22   -1    0    0    0    0 -0.00000000000E+00 -0.00000000000E+00 -0.23055981795E+02  0.23055981795E+02  0.00000000000E+00 0. -1.
         13    1    1    2    0    0 -0.16647393264E+02  0.30769050789E+02  0.29415698246E+02  0.45707380764E+02  0.10566000000E+00 0. -1.
        996    1    1    2    0    0  0.16647393264E+02 -0.30769050789E+02  0.47528264129E+02  0.77348601022E+02  0.50000000000E+02 0.  0.
<mgrwt>
<rscale>  0 0.61023522E+02</rscale>
<asrwt>0</asrwt>
<pdfrwt beam="1">  1       13 0.10000000E+01 0.61023522E+02</pdfrwt>
<pdfrwt beam="2">  1       22 0.23056003E+00 0.61023522E+02</pdfrwt>
<totfact> 0.35019432E-01</totfact>
</mgrwt>
</event>
<event>
 4    1  0.2489496E+000  0.5406568E+02  0.7957747E-01  0.1424570E+00
         13   -1    0    0    0    0  0.00000000000E+00  0.00000000000E+00  0.99999944180E+02  0.10000000000E+03  0.10566000000E+00 0. -1.
         22   -1    0    0    0    0 -0.00000000000E+00 -0.00000000000E+00 -0.21259691369E+02  0.21259691369E+02  0.00000000000E+00 0.  1.
         13    1    1    2    0    0 -0.17292088508E+02  0.11139160786E+02 -0.53814506655E+01  0.21261900275E+02  0.10566000000E+00 0.  1.
        996    1    1    2    0    0  0.17292088508E+02 -0.11139160786E+02  0.84121703476E+02  0.99997791094E+02  0.50000000000E+02 0.  0.
<mgrwt>
<rscale>  0 0.54065675E+02</rscale>
<asrwt>0</asrwt>
<pdfrwt beam="1">  1       13 0.10000000E+01 0.54065675E+02</pdfrwt>
<pdfrwt beam="2">  1       22 0.21259713E+00 0.54065675E+02</pdfrwt>
<totfact> 0.40523068E-01</totfact>
</mgrwt>
</event>
<event>
 4    1  0.2489496E+000  0.5281233E+02  0.7957747E-01  0.1430737E+00
         13   -1    0    0    0    0  0.00000000000E+00  0.00000000000E+00  0.99999944176E+02  0.99999999996E+02  0.10566000000E+00 0. -1.
         22   -1    0    0    0    0 -0.00000000000E+00 -0.00000000000E+00 -0.26924273312E+02  0.26924273312E+02  0.00000000000E+00 0.  1.
         13    1    1    2    0    0  0.10405896750E+02  0.13448409963E+02 -0.16013488433E+02  0.23357769447E+02  0.10566000000E+00 0.  1.
        996    1    1    2    0    0 -0.10405896750E+02 -0.13448409963E+02  0.89089159297E+02  0.10356650386E+03  0.50000000000E+02 0.  0.
<mgrwt>
<rscale>  0 0.52812332E+02</rscale>
<asrwt>0</asrwt>
<pdfrwt beam="1">  1       13 0.10000000E+01 0.52812332E+02</pdfrwt>
<pdfrwt beam="2">  1       22 0.26924294E+00 0.52812332E+02</pdfrwt>
<totfact> 0.25512399E-01</totfact>
</mgrwt>
</event>
<event>
 4    1  0.2489496E+000  0.5240705E+02  0.7957747E-01  0.1432775E+00
         13   -1    0    0    0    0  0.00000000000E+00  0.00000000000E+00  0.99999944178E+02  0.99999999998E+02  0.10566000000E+00 0. -1.
         22   -1    0    0    0    0 -0.00000000000E+00 -0.00000000000E+00 -0.23177587021E+02  0.23177587021E+02  0.00000000000E+00 0.  1.
         13    1    1    2    0    0  0.99270316877E+01 -0.12163584405E+02 -0.12194122422E+02  0.19879802046E+02  0.10566000000E+00 0.  1.
        996    1    1    2    0    0 -0.99270316877E+01  0.12163584405E+02  0.89016479579E+02  0.10329778497E+03  0.50000000000E+02 0.  0.
<mgrwt>
<rscale>  0 0.52407049E+02</rscale>
<asrwt>0</asrwt>
<pdfrwt beam="1">  1       13 0.10000000E+01 0.52407049E+02</pdfrwt>
<pdfrwt beam="2">  1       22 0.23177608E+00 0.52407049E+02</pdfrwt>
<totfact> 0.34213604E-01</totfact>
</mgrwt>
</event>
<event>
 4    1  0.2489496E+000  0.6354647E+02  0.7957747E-01  0.1383524E+00
         13   -1    0    0    0    0  0.00000000000E+00  0.00000000000E+00  0.99999944179E+02  0.99999999999E+02  0.10566000000E+00 0. -1.
         22   -1    0    0    0    0 -0.00000000000E+00 -0.00000000000E+00 -0.40873206949E+02  0.40873206949E+02  0.00000000000E+00 0. -1.
         13    1    1    2    0    0  0.35879561282E+02  0.15836997359E+02 -0.16102895885E+02  0.42396554377E+02  0.10566000000E+00 0.  1.
        996    1    1    2    0    0 -0.35879561282E+02 -0.15836997359E+02  0.75229633115E+02  0.98476652571E+02  0.50000000000E+02 0.  0.
<mgrwt>
<rscale>  0 0.63546466E+02</rscale>
<asrwt>0</asrwt>
<pdfrwt beam="1">  1       13 0.10000000E+01 0.63546466E+02</pdfrwt>
<pdfrwt beam="2">  1       22 0.40873223E+00 0.63546466E+02</pdfrwt>
<totfact> 0.11956453E-01</totfact>
</mgrwt>
</event>
<event>
 4    1  0.2489496E+000  0.5500324E+02  0.7957747E-01  0.1420084E+00
         13   -1    0    0    0    0  0.00000000000E+00  0.00000000000E+00  0.99999944172E+02  0.99999999992E+02  0.10566000000E+00 0. -1.
         22   -1    0    0    0    0 -0.00000000000E+00 -0.00000000000E+00 -0.40680892273E+02  0.40680892273E+02  0.00000000000E+00 0.  1.
         13    1    1    2    0    0  0.22151774838E+02  0.58869141848E+01 -0.28797970063E+02  0.36806128985E+02  0.10566000000E+00 0.  1.
        996    1    1    2    0    0 -0.22151774838E+02 -0.58869141848E+01  0.88117021961E+02  0.10387476328E+03  0.50000000000E+02 0.  0.
<mgrwt>
<rscale>  0 0.55003244E+02</rscale>
<asrwt>0</asrwt>
<pdfrwt beam="1">  1       13 0.10000000E+01 0.55003244E+02</pdfrwt>
<pdfrwt beam="2">  1       22 0.40680909E+00 0.55003244E+02</pdfrwt>
<totfact> 0.11999778E-01</totfact>
</mgrwt>
</event>
<event>
 4    1  0.2489496E+000  0.5161195E+02  0.7957747E-01  0.1436836E+00
         13   -1    0    0    0    0  0.00000000000E+00  0.00000000000E+00  0.99999944182E+02  0.10000000000E+03  0.10566000000E+00 0. -1.
         22   -1    0    0    0    0 -0.00000000000E+00 -0.00000000000E+00 -0.10950801665E+02  0.10950801665E+02  0.00000000000E+00 0. -1.
         13    1    1    2    0    0  0.11672334115E+02 -0.52488015178E+01  0.87805472339E+01  0.15521033304E+02  0.10566000000E+00 0.  1.
        996    1    1    2    0    0 -0.11672334115E+02  0.52488015178E+01  0.80268595283E+02  0.95429768363E+02  0.50000000000E+02 0.  0.
<mgrwt>
<rscale>  0 0.51611949E+02</rscale>
<asrwt>0</asrwt>
<pdfrwt beam="1">  1       13 0.10000000E+01 0.51611949E+02</pdfrwt>
<pdfrwt beam="2">  1       22 0.10950827E+00 0.51611949E+02</pdfrwt>
<totfact> 0.12328097E+00</totfact>
</mgrwt>
</event>
<event>
 4    1  0.2489496E+000  0.5509902E+02  0.7957747E-01  0.1419631E+00
         13   -1    0    0    0    0  0.00000000000E+00  0.00000000000E+00  0.99999944176E+02  0.99999999996E+02  0.10566000000E+00 0. -1.
         22   -1    0    0    0    0 -0.00000000000E+00 -0.00000000000E+00 -0.18392789437E+02  0.18392789437E+02  0.00000000000E+00 0. -1.
         13    1    1    2    0    0 -0.17694950828E+02  0.14926160493E+02  0.49439680468E+02  0.54591159730E+02  0.10566000000E+00 0.  1.
        996    1    1    2    0    0  0.17694950828E+02 -0.14926160493E+02  0.32167474270E+02  0.63801629703E+02  0.50000000000E+02 0.  0.
<mgrwt>
<rscale>  0 0.55099016E+02</rscale>
<asrwt>0</asrwt>
<pdfrwt beam="1">  1       13 0.10000000E+01 0.55099016E+02</pdfrwt>
<pdfrwt beam="2">  1       22 0.18392812E+00 0.55099016E+02</pdfrwt>
<totfact> 0.53143561E-01</totfact>
</mgrwt>
</event>
<event>
 4    1  0.2489496E+000  0.5171967E+02  0.7957747E-01  0.1436281E+00
         13   -1    0    0    0    0  0.00000000000E+00  0.00000000000E+00  0.99999944177E+02  0.99999999997E+02  0.10566000000E+00 0. -1.
         22   -1    0    0    0    0 -0.00000000000E+00 -0.00000000000E+00 -0.27567241663E+02  0.27567241663E+02  0.00000000000E+00 0.  1.
         13    1    1    2    0    0  0.13089768667E+02 -0.18925901803E+01 -0.18626790506E+02  0.22844965089E+02  0.10566000000E+00 0.  1.
        996    1    1    2    0    0 -0.13089768667E+02  0.18925901803E+01  0.91059493019E+02  0.10472227657E+03  0.50000000000E+02 0.  0.
<mgrwt>
<rscale>  0 0.51719667E+02</rscale>
<asrwt>0</asrwt>
<pdfrwt beam="1">  1       13 0.10000000E+01 0.51719667E+02</pdfrwt>
<pdfrwt beam="2">  1       22 0.27567262E+00 0.51719667E+02</pdfrwt>
<totfact> 0.24325454E-01</totfact>
</mgrwt>
</event>
<event>
 4    1  0.2489496E+000  0.5148174E+02  0.7957747E-01  0.1437509E+00
         13   -1    0    0    0    0  0.00000000000E+00  0.00000000000E+00  0.99999944175E+02  0.99999999996E+02  0.10566000000E+00 0. -1.
         22   -1    0    0    0    0 -0.00000000000E+00 -0.00000000000E+00 -0.10158684068E+02  0.10158684068E+02  0.00000000000E+00 0. -1.
         13    1    1    2    0    0 -0.12262037923E+02  0.10744222778E+00  0.17496051782E+02  0.21365675975E+02  0.10566000000E+00 0.  1.
        996    1    1    2    0    0  0.12262037923E+02 -0.10744222778E+00  0.72345208325E+02  0.88793008089E+02  0.50000000000E+02 0.  0.
<mgrwt>
<rscale>  0 0.51481736E+02</rscale>
<asrwt>0</asrwt>
<pdfrwt beam="1">  1       13 0.10000000E+01 0.51481736E+02</pdfrwt>
<pdfrwt beam="2">  1       22 0.10158709E+00 0.51481736E+02</pdfrwt>
<totfact> 0.13762168E+00</totfact>
</mgrwt>
</event>
<event>
 4    1  0.2489496E+000  0.5470289E+02  0.7957747E-01  0.1421509E+00
         13   -1    0    0    0    0  0.00000000000E+00  0.00000000000E+00  0.99999944180E+02  0.10000000000E+03  0.10566000000E+00 0.  1.
         22   -1    0    0    0    0 -0.00000000000E+00 -0.00000000000E+00 -0.41424897839E+02  0.41424897839E+02  0.00000000000E+00 0. -1.
         13    1    1    2    0    0  0.21669841062E+02  0.47774471962E+01 -0.30002623076E+02  0.37317215449E+02  0.10566000000E+00 0. -1.
        996    1    1    2    0    0 -0.21669841062E+02 -0.47774471962E+01  0.88577669416E+02  0.10410768239E+03  0.50000000000E+02 0.  0.
<mgrwt>
<rscale>  0 0.54702889E+02</rscale>
<asrwt>0</asrwt>
<pdfrwt beam="1">  1       13 0.10000000E+01 0.54702889E+02</pdfrwt>
<pdfrwt beam="2">  1       22 0.41424914E+00 0.54702889E+02</pdfrwt>
<totfact> 0.11575393E-01</totfact>
</mgrwt>
</event>
<event>
 4    1  0.2489496E+000  0.5331431E+02  0.7957747E-01  0.1428243E+00
         13   -1    0    0    0    0  0.00000000000E+00  0.00000000000E+00  0.99999944180E+02  0.10000000000E+03  0.10566000000E+00 0.  1.
         22   -1    0    0    0    0 -0.00000000000E+00 -0.00000000000E+00 -0.13294625980E+02  0.13294625980E+02  0.00000000000E+00 0.  1.
         13    1    1    2    0    0 -0.92081504886E+01  0.16050722689E+02  0.14341187364E+02  0.23411462007E+02  0.10566000000E+00 0. -1.
        996    1    1    2    0    0  0.92081504886E+01 -0.16050722689E+02  0.72364130836E+02  0.89883163973E+02  0.50000000000E+02 0.  0.
<mgrwt>
<rscale>  0 0.53314311E+02</rscale>
<asrwt>0</asrwt>
<pdfrwt beam="1">  1       13 0.10000000E+01 0.53314311E+02</pdfrwt>
<pdfrwt beam="2">  1       22 0.13294650E+00 0.53314311E+02</pdfrwt>
<totfact> 0.91875406E-01</totfact>
</mgrwt>
</event>
<event>
 4    1  0.2489496E+000  0.5130284E+02  0.7957747E-01  0.1438438E+00
         13   -1    0    0    0    0  0.00000000000E+00  0.00000000000E+00  0.99999944183E+02  0.10000000000E+03  0.10566000000E+00 0.  1.
         22   -1    0    0    0    0 -0.00000000000E+00 -0.00000000000E+00 -0.45433483904E+02  0.45433483904E+02  0.00000000000E+00 0. -1.
         13    1    1    2    0    0 -0.11276096852E+02  0.21980482094E+01 -0.37946577408E+02  0.39647644031E+02  0.10566000000E+00 0. -1.
        996    1    1    2    0    0  0.11276096852E+02 -0.21980482094E+01  0.92513037687E+02  0.10578583988E+03  0.50000000000E+02 0.  0.
<mgrwt>
<rscale>  0 0.51302844E+02</rscale>
<asrwt>0</asrwt>
<pdfrwt beam="1">  1       13 0.10000000E+01 0.51302844E+02</pdfrwt>
<pdfrwt beam="2">  1       22 0.45433499E+00 0.51302844E+02</pdfrwt>
<totfact> 0.94417290E-02</totfact>
</mgrwt>
</event>
<event>
 4    1  0.2489496E+000  0.5244747E+02  0.7957747E-01  0.1432571E+00
         13   -1    0    0    0    0  0.00000000000E+00  0.00000000000E+00  0.99999944177E+02  0.99999999998E+02  0.10566000000E+00 0. -1.
         22   -1    0    0    0    0 -0.00000000000E+00 -0.00000000000E+00 -0.13759483667E+02  0.13759483667E+02  0.00000000000E+00 0.  1.
         13    1    1    2    0    0 -0.14729356154E+02  0.58123230683E+01  0.41921935056E+01  0.16380558067E+02  0.10566000000E+00 0.  1.
        996    1    1    2    0    0  0.14729356154E+02 -0.58123230683E+01  0.82048267005E+02  0.97378925598E+02  0.50000000000E+02 0.  0.
<mgrwt>
<rscale>  0 0.52447469E+02</rscale>
<asrwt>0</asrwt>
<pdfrwt beam="1">  1       13 0.10000000E+01 0.52447469E+02</pdfrwt>
<pdfrwt beam="2">  1       22 0.13759508E+00 0.52447469E+02</pdfrwt>
<totfact> 0.86803131E-01</totfact>
</mgrwt>
</event>
<event>
 4    1  0.2489496E+000  0.5276284E+02  0.7957747E-01  0.1430985E+00
         13   -1    0    0    0    0  0.00000000000E+00  0.00000000000E+00  0.99999944173E+02  0.99999999993E+02  0.10566000000E+00 0.  1.
         22   -1    0    0    0    0 -0.00000000000E+00 -0.00000000000E+00 -0.69740041334E+02  0.69740041334E+02  0.00000000000E+00 0. -1.
         13    1    1    2    0    0  0.11985711041E+01 -0.16807177298E+02 -0.61568497380E+02  0.63832662604E+02  0.10566000000E+00 0. -1.
        996    1    1    2    0    0 -0.11985711041E+01  0.16807177298E+02  0.91828400219E+02  0.10590737872E+03  0.50000000000E+02 0.  0.
<mgrwt>
<rscale>  0 0.52762845E+02</rscale>
<asrwt>0</asrwt>
<pdfrwt beam="1">  1       13 0.10000000E+01 0.52762845E+02</pdfrwt>
<pdfrwt beam="2">  1       22 0.69740050E+00 0.52762845E+02</pdfrwt>
<totfact> 0.75956222E-02</totfact>
</mgrwt>
</event>
<event>
 4    1  0.2489496E+000  0.6280741E+02  0.7957747E-01  0.1386414E+00
         13   -1    0    0    0    0  0.00000000000E+00  0.00000000000E+00  0.99999944185E+02  0.10000000001E+03  0.10566000000E+00 0. -1.
         22   -1    0    0    0    0 -0.00000000000E+00 -0.00000000000E+00 -0.68051450144E+02  0.68051450144E+02  0.00000000000E+00 0.  1.
         13    1    1    2    0    0 -0.30269725613E+01 -0.37889420940E+02 -0.51250380107E+02  0.63807393046E+02  0.10566000000E+00 0.  1.
        996    1    1    2    0    0  0.30269725613E+01  0.37889420940E+02  0.83198874148E+02  0.10424405710E+03  0.50000000000E+02 0.  0.
<mgrwt>
<rscale>  0 0.62807410E+02</rscale>
<asrwt>0</asrwt>
<pdfrwt beam="1">  1       13 0.10000000E+01 0.62807410E+02</pdfrwt>
<pdfrwt beam="2">  1       22 0.68051459E+00 0.62807410E+02</pdfrwt>
<totfact> 0.83286360E-02</totfact>
</mgrwt>
</event>
<event>
 4    1  0.2489496E+000  0.5455362E+02  0.7957747E-01  0.1422222E+00
         13   -1    0    0    0    0  0.00000000000E+00  0.00000000000E+00  0.99999944173E+02  0.99999999993E+02  0.10566000000E+00 0. -1.
         22   -1    0    0    0    0 -0.00000000000E+00 -0.00000000000E+00 -0.15268532052E+02  0.15268532052E+02  0.00000000000E+00 0. -1.
         13    1    1    2    0    0  0.16418649846E+02  0.14370983521E+02  0.36119190315E+02  0.42198392187E+02  0.10566000000E+00 0.  1.
        996    1    1    2    0    0 -0.16418649846E+02 -0.14370983521E+02  0.48612221806E+02  0.73070139859E+02  0.50000000000E+02 0.  0.
<mgrwt>
<rscale>  0 0.54553618E+02</rscale>
<asrwt>0</asrwt>
<pdfrwt beam="1">  1       13 0.10000000E+01 0.54553618E+02</pdfrwt>
<pdfrwt beam="2">  1       22 0.15268556E+00 0.54553618E+02</pdfrwt>
<totfact> 0.73462624E-01</totfact>
</mgrwt>
</event>
<event>
 4    1  0.2489496E+000  0.5154023E+02  0.7957747E-01  0.1437207E+00
         13   -1    0    0    0    0  0.00000000000E+00  0.00000000000E+00  0.99999944190E+02  0.10000000001E+03  0.10566000000E+00 0.  1.
         22   -1    0    0    0    0 -0.00000000000E+00 -0.00000000000E+00 -0.20704716762E+02  0.20704716762E+02  0.00000000000E+00 0. -1.
         13    1    1    2    0    0  0.21253930427E+01  0.12323880449E+02 -0.11052196557E+02  0.16690043070E+02  0.10566000000E+00 0. -1.
        996    1    1    2    0    0 -0.21253930427E+01 -0.12323880449E+02  0.90347423984E+02  0.10401467370E+03  0.50000000000E+02 0.  0.
<mgrwt>
<rscale>  0 0.51540230E+02</rscale>
<asrwt>0</asrwt>
<pdfrwt beam="1">  1       13 0.10000000E+01 0.51540230E+02</pdfrwt>
<pdfrwt beam="2">  1       22 0.20704739E+00 0.51540230E+02</pdfrwt>
<totfact> 0.42422563E-01</totfact>
</mgrwt>
</event>
<event>
 4    1  0.2489496E+000  0.5559372E+02  0.7957747E-01  0.1417312E+00
         13   -1    0    0    0    0  0.00000000000E+00  0.00000000000E+00  0.99999944173E+02  0.99999999993E+02  0.10566000000E+00 0. -1.
         22   -1    0    0    0    0 -0.00000000000E+00 -0.00000000000E+00 -0.16873562444E+02  0.16873562444E+02  0.00000000000E+00 0. -1.
         13    1    1    2    0    0 -0.18020479982E+02 -0.16307191181E+02  0.13588875717E+02  0.27844764145E+02  0.10566000000E+00 0.  1.
        996    1    1    2    0    0  0.18020479982E+02  0.16307191181E+02  0.69537506012E+02  0.89028798292E+02  0.50000000000E+02 0.  0.
<mgrwt>
<rscale>  0 0.55593724E+02</rscale>
<asrwt>0</asrwt>
<pdfrwt beam="1">  1       13 0.10000000E+01 0.55593724E+02</pdfrwt>
<pdfrwt beam="2">  1       22 0.16873586E+00 0.55593724E+02</pdfrwt>
<totfact> 0.62014048E-01</totfact>
</mgrwt>
</event>
<event>
 4    1  0.2489496E+000  0.5391818E+02  0.7957747E-01  0.1425285E+00
         13   -1    0    0    0    0  0.00000000000E+00  0.00000000000E+00  0.99999944185E+02  0.10000000001E+03  0.10566000000E+00 0.  1.
         22   -1    0    0    0    0 -0.00000000000E+00 -0.00000000000E+00 -0.19849235615E+02  0.19849235615E+02  0.00000000000E+00 0.  1.
         13    1    1    2    0    0  0.18971896505E+02  0.68729199278E+01 -0.33484602603E+01  0.20454662928E+02  0.10566000000E+00 0. -1.
        996    1    1    2    0    0 -0.18971896505E+02 -0.68729199278E+01  0.83499168831E+02  0.99394572693E+02  0.50000000000E+02 0.  0.
<mgrwt>
<rscale>  0 0.53918178E+02</rscale>
<asrwt>0</asrwt>
<pdfrwt beam="1">  1       13 0.10000000E+01 0.53918178E+02</pdfrwt>
<pdfrwt beam="2">  1       22 0.19849258E+00 0.53918178E+02</pdfrwt>
<totfact> 0.46107167E-01</totfact>
</mgrwt>
</event>
<event>
 4    1  0.2489496E+000  0.5225892E+02  0.7957747E-01  0.1433525E+00
         13   -1    0    0    0    0  0.00000000000E+00  0.00000000000E+00  0.99999944178E+02  0.99999999998E+02  0.10566000000E+00 0.  1.
         22   -1    0    0    0    0 -0.00000000000E+00 -0.00000000000E+00 -0.13078768024E+02  0.13078768024E+02  0.00000000000E+00 0. -1.
         13    1    1    2    0    0 -0.13321796768E+02  0.73160353450E+01  0.51746220218E+01  0.16055607102E+02  0.10566000000E+00 0. -1.
        996    1    1    2    0    0  0.13321796768E+02 -0.73160353450E+01  0.81746554132E+02  0.97023160920E+02  0.50000000000E+02 0.  0.
<mgrwt>
<rscale>  0 0.52258919E+02</rscale>
<asrwt>0</asrwt>
<pdfrwt beam="1">  1       13 0.10000000E+01 0.52258919E+02</pdfrwt>
<pdfrwt beam="2">  1       22 0.13078792E+00 0.52258919E+02</pdfrwt>
<totfact> 0.94078814E-01</totfact>
</mgrwt>
</event>
<event>
 4    1  0.2489496E+000  0.5113861E+02  0.7957747E-01  0.1439295E+00
         13   -1    0    0    0    0  0.00000000000E+00  0.00000000000E+00  0.99999944176E+02  0.99999999996E+02  0.10566000000E+00 0.  1.
         22   -1    0    0    0    0 -0.00000000000E+00 -0.00000000000E+00 -0.19694284794E+02  0.19694284794E+02  0.00000000000E+00 0. -1.
         13    1    1    2    0    0 -0.80344599592E+01 -0.71137301774E+01 -0.10795084860E+02  0.15221784555E+02  0.10566000000E+00 0. -1.
        996    1    1    2    0    0  0.80344599592E+01  0.71137301774E+01  0.91100744242E+02  0.10447250023E+03  0.50000000000E+02 0.  0.
<mgrwt>
<rscale>  0 0.51138613E+02</rscale>
<asrwt>0</asrwt>
<pdfrwt beam="1">  1       13 0.10000000E+01 0.51138613E+02</pdfrwt>
<pdfrwt beam="2">  1       22 0.19694307E+00 0.51138613E+02</pdfrwt>
<totfact> 0.46551750E-01</totfact>
</mgrwt>
</event>
<event>
 4    1  0.2489496E+000  0.6951848E+02  0.7957747E-01  0.1361738E+00
         13   -1    0    0    0    0  0.00000000000E+00  0.00000000000E+00  0.99999944178E+02  0.99999999998E+02  0.10566000000E+00 0. -1.
         22   -1    0    0    0    0 -0.00000000000E+00 -0.00000000000E+00 -0.38152219609E+02  0.38152219609E+02  0.00000000000E+00 0.  1.
         13    1    1    2    0    0  0.14012610625E+02 -0.46221921238E+02  0.53959238515E+01  0.48599860265E+02  0.10566000000E+00 0.  1.
        996    1    1    2    0    0 -0.14012610625E+02  0.46221921238E+02  0.56451800717E+02  0.89552359342E+02  0.50000000000E+02 0.  0.
<mgrwt>
<rscale>  0 0.69518481E+02</rscale>
<asrwt>0</asrwt>
<pdfrwt beam="1">  1       13 0.10000000E+01 0.69518481E+02</pdfrwt>
<pdfrwt beam="2">  1       22 0.38152237E+00 0.69518481E+02</pdfrwt>
<totfact> 0.13675173E-01</totfact>
</mgrwt>
</event>
<event>
 4    1  0.2489496E+000  0.5122243E+02  0.7957747E-01  0.1438857E+00
         13   -1    0    0    0    0  0.00000000000E+00  0.00000000000E+00  0.99999944173E+02  0.99999999993E+02  0.10566000000E+00 0.  1.
         22   -1    0    0    0    0 -0.00000000000E+00 -0.00000000000E+00 -0.37866075226E+02  0.37866075226E+02  0.00000000000E+00 0. -1.
         13    1    1    2    0    0  0.10607956914E+02 -0.33478747520E+01 -0.30250888401E+02  0.32231419894E+02  0.10566000000E+00 0. -1.
        996    1    1    2    0    0 -0.10607956914E+02  0.33478747520E+01  0.92384757349E+02  0.10563465532E+03  0.50000000000E+02 0.  0.
<mgrwt>
<rscale>  0 0.51222427E+02</rscale>
<asrwt>0</asrwt>
<pdfrwt beam="1">  1       13 0.10000000E+01 0.51222427E+02</pdfrwt>
<pdfrwt beam="2">  1       22 0.37866093E+00 0.51222427E+02</pdfrwt>
<totfact> 0.13671594E-01</totfact>
</mgrwt>
</event>
