<event>
 5    1  0.7732857E-009  0.3825108E+03  0.7957747E-01  0.3440298E+00
         13   -1    0    0    0    0  0.00000000000E+00  0.00000000000E+00  0.14999999963E+04  0.15000000000E+04  0.10566000000E+00 0.  1.
        994   -1    0    0    0    0 -0.00000000000E+00 -0.00000000000E+00  0.11368683772E-12  0.17120000000E+03  0.17120000000E+03 0.  0.
         13    1    1    2    0    0  0.96443418588E+01  0.24509551725E+02  0.11819062034E+03  0.12108990609E+03  0.10566000000E+00 0.  1.
        994    1    1    2    0    0 -0.13661758906E+02 -0.14262555905E+02  0.41653108941E+01  0.17238577079E+03  0.17120000000E+03 0.  0.
        998    1    1    2    0    0  0.40174170474E+01 -0.10246995820E+02  0.13776440650E+04  0.13777243231E+04  0.10000000000E+02 0.  1.
</event>
<event>
 5    1  0.7732857E-009  0.3775210E+03  0.7957747E-01  0.3462024E+00
         13   -1    0    0    0    0  0.00000000000E+00  0.00000000000E+00  0.14999999963E+04  0.15000000000E+04  0.10566000000E+00 0.  1.
        994   -1    0    0    0    0 -0.00000000000E+00 -0.00000000000E+00  0.11368683772E-12  0.17120000000E+03  0.17120000000E+03 0.  0.
         13    1    1    2    0    0  0.42267340895E+02 -0.16729612398E+02  0.23108846048E+03  0.23551708169E+03  0.10566000000E+00 0.  1.
        994    1    1    2    0    0 -0.13354175604E+02 -0.30735987157E+02  0.91843772527E+01  0.17469066288E+03  0.17120000000E+03 0.  0.
        998    1    1    2    0    0 -0.28913165292E+02  0.47465599555E+02  0.12597271586E+04  0.12609922554E+04  0.10000000000E+02 0.  1.
</event>
<event>
 5    1  0.7732857E-009  0.3824522E+03  0.7957747E-01  0.3440550E+00
         13   -1    0    0    0    0  0.00000000000E+00  0.00000000000E+00  0.14999999963E+04  0.15000000000E+04  0.10566000000E+00 0.  1.
        994   -1    0    0    0    0 -0.00000000000E+00 -0.00000000000E+00  0.11368683772E-12  0.17120000000E+03  0.17120000000E+03 0.  0.
         13    1    1    2    0    0  0.13950778704E+02  0.20700701312E+02  0.10404812013E+03  0.10700077443E+03  0.10566000000E+00 0.  1.
        994    1    1    2    0    0 -0.69928019247E+01 -0.18423590518E+02  0.41891432916E+01  0.17238131247E+03  0.17120000000E+03 0.  0.
        998    1    1    2    0    0 -0.69579767791E+01 -0.22771107948E+01  0.13917627329E+04  0.13918179131E+04  0.10000000000E+02 0.  1.
</event>
<event>
 5    1  0.7732857E-009  0.3837430E+03  0.7957747E-01  0.3435021E+00
         13   -1    0    0    0    0  0.00000000000E+00  0.00000000000E+00  0.14999999963E+04  0.15000000000E+04  0.10566000000E+00 0. -1.
        994   -1    0    0    0    0 -0.00000000000E+00 -0.00000000000E+00  0.11368683772E-12  0.17120000000E+03  0.17120000000E+03 0.  0.
         13    1    1    2    0    0  0.30205439272E+01 -0.12862562788E+02  0.36932482795E+02  0.39224847438E+02  0.10566000000E+00 0. -1.
        994    1    1    2    0    0 -0.24191961830E+01  0.16096072227E+02  0.31308310608E+01  0.17200051789E+03  0.17120000000E+03 0.  0.
        998    1    1    2    0    0 -0.60134774423E+00 -0.32335094390E+01  0.14599366824E+04  0.14599746347E+04  0.10000000000E+02 0. -1.
</event>
<event>
 5    1  0.7732857E-009  0.3844559E+03  0.7957747E-01  0.3431983E+00
         13   -1    0    0    0    0  0.00000000000E+00  0.00000000000E+00  0.14999999963E+04  0.15000000000E+04  0.10566000000E+00 0.  1.
        994   -1    0    0    0    0 -0.00000000000E+00 -0.00000000000E+00  0.11368683772E-12  0.17120000000E+03  0.17120000000E+03 0.  0.
         13    1    1    2    0    0  0.19263666107E+02 -0.12028991949E+02  0.10387093620E+03  0.10632482321E+03  0.10566000000E+00 0.  1.
        994    1    1    2    0    0 -0.47869771475E+02  0.20598228675E+02  0.10899393904E+02  0.17928758695E+03  0.17120000000E+03 0.  0.
        998    1    1    2    0    0  0.28606105368E+02 -0.85692367255E+01  0.13852296662E+04  0.13855875898E+04  0.10000000000E+02 0.  1.
</event>
<event>
 5    1  0.7732857E-009  0.3842947E+03  0.7957747E-01  0.3432669E+00
         13   -1    0    0    0    0  0.00000000000E+00  0.00000000000E+00  0.14999999963E+04  0.15000000000E+04  0.10566000000E+00 0.  1.
        994   -1    0    0    0    0 -0.00000000000E+00 -0.00000000000E+00  0.11368683772E-12  0.17120000000E+03  0.17120000000E+03 0.  0.
         13    1    1    2    0    0  0.47125424437E+01  0.88267017646E+01  0.24662526051E+02  0.26615222629E+02  0.10566000000E+00 0.  1.
        994    1    1    2    0    0 -0.64345456822E+01 -0.51559871967E+01  0.22048409721E+01  0.17141262761E+03  0.17120000000E+03 0.  0.
        998    1    1    2    0    0  0.17220032386E+01 -0.36707145680E+01  0.14731326293E+04  0.14731721498E+04  0.10000000000E+02 0.  1.
</event>
<event>
 5    1  0.7732857E-009  0.3721470E+03  0.7957747E-01  0.3486081E+00
         13   -1    0    0    0    0  0.00000000000E+00  0.00000000000E+00  0.14999999963E+04  0.15000000000E+04  0.10566000000E+00 0.  1.
        994   -1    0    0    0    0 -0.00000000000E+00 -0.00000000000E+00  0.11368683772E-12  0.17120000000E+03  0.17120000000E+03 0.  0.
         13    1    1    2    0    0 -0.34394681744E+01 -0.14122142326E+02  0.92554757598E+01  0.17231942455E+02  0.10566000000E+00 0.  1.
        994    1    1    2    0    0  0.16448201634E+01  0.12404585593E+02  0.86887287258E+01  0.17187644744E+03  0.17120000000E+03 0.  0.
        998    1    1    2    0    0  0.17946480110E+01  0.17175567328E+01  0.14820557918E+04  0.14820916101E+04  0.10000000000E+02 0.  1.
</event>
<event>
 5    1  0.7732857E-009  0.3693803E+03  0.7957747E-01  0.3498744E+00
         13   -1    0    0    0    0  0.00000000000E+00  0.00000000000E+00  0.14999999963E+04  0.15000000000E+04  0.10566000000E+00 0. -1.
        994   -1    0    0    0    0 -0.00000000000E+00 -0.00000000000E+00  0.11368683772E-12  0.17120000000E+03  0.17120000000E+03 0.  0.
         13    1    1    2    0    0  0.20103815463E+02 -0.11714340226E+03  0.52200466034E+03  0.53536493784E+03  0.10566000000E+00 0. -1.
        994    1    1    2    0    0  0.41683599726E+02  0.12262553697E+03  0.70186093292E+02  0.22585409559E+03  0.17120000000E+03 0.  0.
        998    1    1    2    0    0 -0.61787415189E+02 -0.54821347119E+01  0.90780924265E+03  0.90998096657E+03  0.10000000000E+02 0. -1.
</event>
<event>
 5    1  0.7732857E-009  0.3974480E+03  0.7957747E-01  0.3378535E+00
         13   -1    0    0    0    0  0.00000000000E+00  0.00000000000E+00  0.14999999963E+04  0.15000000000E+04  0.10566000000E+00 0.  1.
        994   -1    0    0    0    0 -0.00000000000E+00 -0.00000000000E+00  0.11368683772E-12  0.17120000000E+03  0.17120000000E+03 0.  0.
         13    1    1    2    0    0 -0.26950707374E+02  0.49043725687E+02  0.51296777923E+02  0.75914413957E+02  0.10566000000E+00 0.  1.
        994    1    1    2    0    0  0.18157967994E+02 -0.31532850684E+02  0.31408365134E+02  0.17782001539E+03  0.17120000000E+03 0.  0.
        998    1    1    2    0    0  0.87927393799E+01 -0.17510875003E+02  0.14172948532E+04  0.14174655706E+04  0.10000000000E+02 0.  1.
</event>
<event>
 5    1  0.7732857E-009  0.3841346E+03  0.7957747E-01  0.3433351E+00
         13   -1    0    0    0    0  0.00000000000E+00  0.00000000000E+00  0.14999999963E+04  0.15000000000E+04  0.10566000000E+00 0.  1.
        994   -1    0    0    0    0 -0.00000000000E+00 -0.00000000000E+00  0.11368683772E-12  0.17120000000E+03  0.17120000000E+03 0.  0.
         13    1    1    2    0    0  0.17063550120E+01  0.17265266012E+02  0.71965553250E+02  0.74027380587E+02  0.10566000000E+00 0.  1.
        994    1    1    2    0    0 -0.67137941302E+01 -0.12297497691E+02  0.27080605735E+01  0.17179370499E+03  0.17120000000E+03 0.  0.
        998    1    1    2    0    0  0.50074391182E+01 -0.49677683212E+01  0.14253263825E+04  0.14253789144E+04  0.10000000000E+02 0.  1.
</event>
<event>
 5    1  0.7732857E-009  0.3739100E+03  0.7957747E-01  0.3478112E+00
         13   -1    0    0    0    0  0.00000000000E+00  0.00000000000E+00  0.14999999963E+04  0.15000000000E+04  0.10566000000E+00 0.  1.
        994   -1    0    0    0    0 -0.00000000000E+00 -0.00000000000E+00  0.11368683772E-12  0.17120000000E+03  0.17120000000E+03 0.  0.
         13    1    1    2    0    0 -0.88047064027E+01  0.26946353336E+02  0.55199226469E+02  0.62053159306E+02  0.10566000000E+00 0.  1.
        994    1    1    2    0    0  0.22048383967E+02  0.28786550609E+01  0.89281727851E+01  0.17286865002E+03  0.17120000000E+03 0.  0.
        998    1    1    2    0    0 -0.13243677565E+02 -0.29825008397E+02  0.14358725970E+04  0.14362781907E+04  0.10000000000E+02 0.  1.
</event>
<event>
 5    1  0.7732857E-009  0.3812042E+03  0.7957747E-01  0.3445932E+00
         13   -1    0    0    0    0  0.00000000000E+00  0.00000000000E+00  0.14999999963E+04  0.15000000000E+04  0.10566000000E+00 0. -1.
        994   -1    0    0    0    0 -0.00000000000E+00 -0.00000000000E+00  0.11368683772E-12  0.17120000000E+03  0.17120000000E+03 0.  0.
         13    1    1    2    0    0 -0.10795671412E+02 -0.15071613188E+02  0.51931633194E+02  0.55141687819E+02  0.10566000000E+00 0. -1.
        994    1    1    2    0    0 -0.20878137474E+02  0.30601304560E+01  0.50104950713E+01  0.17256826500E+03  0.17120000000E+03 0.  0.
        998    1    1    2    0    0  0.31673808886E+02  0.12011482732E+02  0.14430578680E+04  0.14434900472E+04  0.10000000000E+02 0. -1.
</event>
<event>
 5    1  0.7732857E-009  0.3815265E+03  0.7957747E-01  0.3444539E+00
         13   -1    0    0    0    0  0.00000000000E+00  0.00000000000E+00  0.14999999963E+04  0.15000000000E+04  0.10566000000E+00 0. -1.
        994   -1    0    0    0    0 -0.00000000000E+00 -0.00000000000E+00  0.11368683772E-12  0.17120000000E+03  0.17120000000E+03 0.  0.
         13    1    1    2    0    0 -0.13513929211E+02 -0.24655876541E+02  0.11506435435E+03  0.11844980091E+03  0.10566000000E+00 0. -1.
        994    1    1    2    0    0  0.66118629358E+01  0.17887133512E+02  0.45750952861E+01  0.17231958035E+03  0.17120000000E+03 0.  0.
        998    1    1    2    0    0  0.69020662748E+01  0.67687430284E+01  0.13803605466E+04  0.13804306187E+04  0.10000000000E+02 0. -1.
</event>
<event>
 5    1  0.7732857E-009  0.3857079E+03  0.7957747E-01  0.3426676E+00
         13   -1    0    0    0    0  0.00000000000E+00  0.00000000000E+00  0.14999999963E+04  0.15000000000E+04  0.10566000000E+00 0.  1.
        994   -1    0    0    0    0 -0.00000000000E+00 -0.00000000000E+00  0.11368683772E-12  0.17120000000E+03  0.17120000000E+03 0.  0.
         13    1    1    2    0    0  0.31618713685E+01 -0.12066793574E+02  0.59579226092E+02  0.60871177772E+02  0.10566000000E+00 0.  1.
        994    1    1    2    0    0 -0.38313582336E+01  0.11899002745E+02  0.17919983356E+01  0.17166512992E+03  0.17120000000E+03 0.  0.
        998    1    1    2    0    0  0.66948686501E+00  0.16779082892E+00  0.14386287719E+04  0.14386636923E+04  0.10000000000E+02 0.  1.
</event>
<event>
 5    1  0.7732857E-009  0.3823683E+03  0.7957747E-01  0.3440911E+00
         13   -1    0    0    0    0  0.00000000000E+00  0.00000000000E+00  0.14999999963E+04  0.15000000000E+04  0.10566000000E+00 0.  1.
        994   -1    0    0    0    0 -0.00000000000E+00 -0.00000000000E+00  0.11368683772E-12  0.17120000000E+03  0.17120000000E+03 0.  0.
         13    1    1    2    0    0 -0.46503752471E+01  0.45349833083E+02  0.27516212615E+03  0.27891296166E+03  0.10566000000E+00 0.  1.
        994    1    1    2    0    0  0.32137559929E+02 -0.49557256119E+02  0.14601953848E+02  0.18169039999E+03  0.17120000000E+03 0.  0.
        998    1    1    2    0    0 -0.27487184682E+02  0.42074230366E+01  0.12102359163E+04  0.12105966384E+04  0.10000000000E+02 0.  1.
</event>
<event>
 5    1  0.7732857E-009  0.3848540E+03  0.7957747E-01  0.3430292E+00
         13   -1    0    0    0    0  0.00000000000E+00  0.00000000000E+00  0.14999999963E+04  0.15000000000E+04  0.10566000000E+00 0. -1.
        994   -1    0    0    0    0 -0.00000000000E+00 -0.00000000000E+00  0.11368683772E-12  0.17120000000E+03  0.17120000000E+03 0.  0.
         13    1    1    2    0    0 -0.18741411548E+02  0.12191732435E+01  0.10558656911E+03  0.10724393517E+03  0.10566000000E+00 0. -1.
        994    1    1    2    0    0  0.97239850310E+01  0.32085114095E+01  0.20476827849E+01  0.17151817232E+03  0.17120000000E+03 0.  0.
        998    1    1    2    0    0  0.90174265171E+01 -0.44276846530E+01  0.13923657444E+04  0.13924378925E+04  0.10000000000E+02 0. -1.
</event>
<event>
 5    1  0.7732857E-009  0.3737172E+03  0.7957747E-01  0.3478980E+00
         13   -1    0    0    0    0  0.00000000000E+00  0.00000000000E+00  0.14999999963E+04  0.15000000000E+04  0.10566000000E+00 0. -1.
        994   -1    0    0    0    0 -0.00000000000E+00 -0.00000000000E+00  0.11368683772E-12  0.17120000000E+03  0.17120000000E+03 0.  0.
         13    1    1    2    0    0 -0.27052916018E+01 -0.45772981481E+02  0.12230671742E+03  0.13061940410E+03  0.10566000000E+00 0. -1.
        994    1    1    2    0    0  0.13439427811E+02  0.58482013529E+02  0.19733178356E+02  0.18248178664E+03  0.17120000000E+03 0.  0.
        998    1    1    2    0    0 -0.10734136209E+02 -0.12709032048E+02  0.13579601005E+04  0.13580988093E+04  0.10000000000E+02 0. -1.
</event>
<event>
 5    1  0.7732857E-009  0.3723091E+03  0.7957747E-01  0.3485346E+00
         13   -1    0    0    0    0  0.00000000000E+00  0.00000000000E+00  0.14999999963E+04  0.15000000000E+04  0.10566000000E+00 0. -1.
        994   -1    0    0    0    0 -0.00000000000E+00 -0.00000000000E+00  0.11368683772E-12  0.17120000000E+03  0.17120000000E+03 0.  0.
         13    1    1    2    0    0 -0.62803409524E+02  0.10497389939E+02  0.23145877546E+03  0.24005757506E+03  0.10566000000E+00 0. -1.
        994    1    1    2    0    0  0.49384873771E+02 -0.18861640165E+01  0.16492360359E+02  0.17895212020E+03  0.17120000000E+03 0.  0.
        998    1    1    2    0    0  0.13418535752E+02 -0.86112259223E+01  0.12520488605E+04  0.12521903047E+04  0.10000000000E+02 0. -1.
</event>
<event>
 5    1  0.7732857E-009  0.3807453E+03  0.7957747E-01  0.3447920E+00
         13   -1    0    0    0    0  0.00000000000E+00  0.00000000000E+00  0.14999999963E+04  0.15000000000E+04  0.10566000000E+00 0. -1.
        994   -1    0    0    0    0 -0.00000000000E+00 -0.00000000000E+00  0.11368683772E-12  0.17120000000E+03  0.17120000000E+03 0.  0.
         13    1    1    2    0    0  0.11390634930E+02  0.71487334456E+01  0.22427417505E+02  0.26150548253E+02  0.10566000000E+00 0. -1.
        994    1    1    2    0    0 -0.79192261663E+01 -0.83908650299E+01  0.42014521271E+01  0.17163977674E+03  0.17120000000E+03 0.  0.
        998    1    1    2    0    0 -0.34714087637E+01  0.12421315843E+01  0.14733711266E+04  0.14734096750E+04  0.10000000000E+02 0. -1.
</event>
<event>
 5    1  0.7732857E-009  0.3793267E+03  0.7957747E-01  0.3454095E+00
         13   -1    0    0    0    0  0.00000000000E+00  0.00000000000E+00  0.14999999963E+04  0.15000000000E+04  0.10566000000E+00 0.  1.
        994   -1    0    0    0    0 -0.00000000000E+00 -0.00000000000E+00  0.11368683772E-12  0.17120000000E+03  0.17120000000E+03 0.  0.
         13    1    1    2    0    0  0.26761017303E+02 -0.18186416467E+02  0.12519591695E+03  0.12930942184E+03  0.10566000000E+00 0.  1.
        994    1    1    2    0    0 -0.96935480865E+01 -0.52449595693E+01  0.48804766735E+01  0.17162381399E+03  0.17120000000E+03 0.  0.
        998    1    1    2    0    0 -0.17067469216E+02  0.23431376036E+02  0.13699236027E+04  0.13702667642E+04  0.10000000000E+02 0.  1.
</event>
<event>
 5    1  0.7732857E-009  0.3833327E+03  0.7957747E-01  0.3436774E+00
         13   -1    0    0    0    0  0.00000000000E+00  0.00000000000E+00  0.14999999963E+04  0.15000000000E+04  0.10566000000E+00 0. -1.
        994   -1    0    0    0    0 -0.00000000000E+00 -0.00000000000E+00  0.11368683772E-12  0.17120000000E+03  0.17120000000E+03 0.  0.
         13    1    1    2    0    0  0.78034289076E+01 -0.28915275077E+02  0.17543947286E+03  0.17797754475E+03  0.10566000000E+00 0. -1.
        994    1    1    2    0    0 -0.12246518580E+02  0.19237760249E+02  0.41817036512E+01  0.17276282957E+03  0.17120000000E+03 0.  0.
        998    1    1    2    0    0  0.44430896728E+01  0.96775148288E+01  0.13203788198E+04  0.13204596257E+04  0.10000000000E+02 0. -1.
</event>
<event>
 5    1  0.7732857E-009  0.3800313E+03  0.7957747E-01  0.3451022E+00
         13   -1    0    0    0    0  0.00000000000E+00  0.00000000000E+00  0.14999999963E+04  0.15000000000E+04  0.10566000000E+00 0.  1.
        994   -1    0    0    0    0 -0.00000000000E+00 -0.00000000000E+00  0.11368683772E-12  0.17120000000E+03  0.17120000000E+03 0.  0.
         13    1    1    2    0    0  0.27609460051E+02  0.16126092646E+01  0.90876750799E+02  0.94991988045E+02  0.10566000000E+00 0.  1.
        994    1    1    2    0    0 -0.19577943050E+02  0.17657339665E+02  0.64441750230E+01  0.17333794994E+03  0.17120000000E+03 0.  0.
        998    1    1    2    0    0 -0.80315170004E+01 -0.19269948929E+02  0.14026790705E+04  0.14028700620E+04  0.10000000000E+02 0.  1.
</event>
<event>
 5    1  0.7732857E-009  0.3806466E+03  0.7957747E-01  0.3448348E+00
         13   -1    0    0    0    0  0.00000000000E+00  0.00000000000E+00  0.14999999963E+04  0.15000000000E+04  0.10566000000E+00 0. -1.
        994   -1    0    0    0    0 -0.00000000000E+00 -0.00000000000E+00  0.11368683772E-12  0.17120000000E+03  0.17120000000E+03 0.  0.
         13    1    1    2    0    0  0.14197647520E+02  0.45776957141E+01  0.27415535823E+02  0.31211396342E+02  0.10566000000E+00 0. -1.
        994    1    1    2    0    0 -0.15524546033E+02  0.30541554030E+01  0.46426032191E+01  0.17199224738E+03  0.17120000000E+03 0.  0.
        998    1    1    2    0    0  0.13268985130E+01 -0.76318511172E+01  0.14679418572E+04  0.14679963563E+04  0.10000000000E+02 0. -1.
</event>
<event>
 5    1  0.7732857E-009  0.3837984E+03  0.7957747E-01  0.3434784E+00
         13   -1    0    0    0    0  0.00000000000E+00  0.00000000000E+00  0.14999999963E+04  0.15000000000E+04  0.10566000000E+00 0. -1.
        994   -1    0    0    0    0 -0.00000000000E+00 -0.00000000000E+00  0.11368683772E-12  0.17120000000E+03  0.17120000000E+03 0.  0.
         13    1    1    2    0    0  0.65404418196E+01  0.85371877256E+01  0.25244936481E+02  0.27440461648E+02  0.10566000000E+00 0. -1.
        994    1    1    2    0    0 -0.28112373454E+00 -0.93549796234E+01  0.25171262461E+01  0.17147411058E+03  0.17120000000E+03 0.  0.
        998    1    1    2    0    0 -0.62593180851E+01  0.81779189783E+00  0.14722379336E+04  0.14722854278E+04  0.10000000000E+02 0. -1.
</event>
<event>
 5    1  0.7732857E-009  0.3770617E+03  0.7957747E-01  0.3464053E+00
         13   -1    0    0    0    0  0.00000000000E+00  0.00000000000E+00  0.14999999963E+04  0.15000000000E+04  0.10566000000E+00 0. -1.
        994   -1    0    0    0    0 -0.00000000000E+00 -0.00000000000E+00  0.11368683772E-12  0.17120000000E+03  0.17120000000E+03 0.  0.
         13    1    1    2    0    0 -0.80818365192E+01  0.72771314244E+01  0.81806814149E+01  0.13609093862E+02  0.10566000000E+00 0. -1.
        994    1    1    2    0    0  0.40008219562E+00  0.65703100381E+01  0.57700568749E+01  0.17142363488E+03  0.17120000000E+03 0.  0.
        998    1    1    2    0    0  0.76817543236E+01 -0.13847441462E+02  0.14860492580E+04  0.14861672713E+04  0.10000000000E+02 0. -1.
</event>
<event>
 5    1  0.7732857E-009  0.3813519E+03  0.7957747E-01  0.3445293E+00
         13   -1    0    0    0    0  0.00000000000E+00  0.00000000000E+00  0.14999999963E+04  0.15000000000E+04  0.10566000000E+00 0. -1.
        994   -1    0    0    0    0 -0.00000000000E+00 -0.00000000000E+00  0.11368683772E-12  0.17120000000E+03  0.17120000000E+03 0.  0.
         13    1    1    2    0    0  0.17526180108E+02  0.50968714675E+01  0.45791022505E+02  0.49294766396E+02  0.10566000000E+00 0. -1.
        994    1    1    2    0    0 -0.17392990551E+02 -0.76020384794E+01  0.46523043564E+01  0.17231190047E+03  0.17120000000E+03 0.  0.
        998    1    1    2    0    0 -0.13318955679E+00  0.25051670119E+01  0.14495566694E+04  0.14495933331E+04  0.10000000000E+02 0. -1.
</event>
<event>
 5    1  0.7732857E-009  0.3855060E+03  0.7957747E-01  0.3427529E+00
         13   -1    0    0    0    0  0.00000000000E+00  0.00000000000E+00  0.14999999963E+04  0.15000000000E+04  0.10566000000E+00 0. -1.
        994   -1    0    0    0    0 -0.00000000000E+00 -0.00000000000E+00  0.11368683772E-12  0.17120000000E+03  0.17120000000E+03 0.  0.
         13    1    1    2    0    0 -0.43586206270E+02  0.27052576520E+02  0.60921842736E+02  0.79643464012E+02  0.10566000000E+00 0. -1.
        994    1    1    2    0    0  0.55950141418E+02  0.22384593958E+02  0.32941909464E+02  0.18446164309E+03  0.17120000000E+03 0.  0.
        998    1    1    2    0    0 -0.12363935148E+02 -0.49437170478E+02  0.14061362441E+04  0.14070948929E+04  0.10000000000E+02 0. -1.
</event>
<event>
 5    1  0.7732857E-009  0.3781457E+03  0.7957747E-01  0.3459273E+00
         13   -1    0    0    0    0  0.00000000000E+00  0.00000000000E+00  0.14999999963E+04  0.15000000000E+04  0.10566000000E+00 0.  1.
        994   -1    0    0    0    0 -0.00000000000E+00 -0.00000000000E+00  0.11368683772E-12  0.17120000000E+03  0.17120000000E+03 0.  0.
         13    1    1    2    0    0  0.58064487880E+02  0.60728628552E+02  0.45205604660E+03  0.45979792465E+03  0.10566000000E+00 0.  1.
        994    1    1    2    0    0 -0.53158542118E+02 -0.73451900372E+02  0.33241850370E+02  0.19655908243E+03  0.17120000000E+03 0.  0.
        998    1    1    2    0    0 -0.49059457622E+01  0.12723271820E+02  0.10147020993E+04  0.10148429929E+04  0.10000000000E+02 0.  1.
</event>
<event>
 5    1  0.7732857E-009  0.3744423E+03  0.7957747E-01  0.3475721E+00
         13   -1    0    0    0    0  0.00000000000E+00  0.00000000000E+00  0.14999999963E+04  0.15000000000E+04  0.10566000000E+00 0. -1.
        994   -1    0    0    0    0 -0.00000000000E+00 -0.00000000000E+00  0.11368683772E-12  0.17120000000E+03  0.17120000000E+03 0.  0.
         13    1    1    2    0    0  0.74003871749E+01  0.33124499171E+02  0.84133633590E+02  0.90721979920E+02  0.10566000000E+00 0. -1.
        994    1    1    2    0    0  0.48789263527E+01 -0.10008138697E+02  0.73876961858E+01  0.17172065926E+03  0.17120000000E+03 0.  0.
        998    1    1    2    0    0 -0.12279313528E+02 -0.23116360474E+02  0.14084786665E+04  0.14087573608E+04  0.10000000000E+02 0. -1.
</event>
<event>
 5    1  0.7732857E-009  0.3705232E+03  0.7957747E-01  0.3493490E+00
         13   -1    0    0    0    0  0.00000000000E+00  0.00000000000E+00  0.14999999963E+04  0.15000000000E+04  0.10566000000E+00 0.  1.
        994   -1    0    0    0    0 -0.00000000000E+00 -0.00000000000E+00  0.11368683772E-12  0.17120000000E+03  0.17120000000E+03 0.  0.
         13    1    1    2    0    0  0.52528624849E+01  0.14993055607E+02  0.91346620888E+01  0.18325869590E+02  0.10566000000E+00 0.  1.
        994    1    1    2    0    0 -0.23116104894E+02 -0.42356193823E+02  0.17075376500E+02  0.17868802406E+03  0.17120000000E+03 0.  0.
        998    1    1    2    0    0  0.17863242409E+02  0.27363138217E+02  0.14737899577E+04  0.14741861063E+04  0.10000000000E+02 0.  1.
</event>
<event>
 5    1  0.7732857E-009  0.3844809E+03  0.7957747E-01  0.3431877E+00
         13   -1    0    0    0    0  0.00000000000E+00  0.00000000000E+00  0.14999999963E+04  0.15000000000E+04  0.10566000000E+00 0.  1.
        994   -1    0    0    0    0 -0.00000000000E+00 -0.00000000000E+00  0.11368683772E-12  0.17120000000E+03  0.17120000000E+03 0.  0.
         13    1    1    2    0    0 -0.46456801294E+01 -0.19888128340E+02  0.10467942154E+03  0.10665323460E+03  0.10566000000E+00 0.  1.
        994    1    1    2    0    0  0.31509667532E-01  0.20344083187E+02  0.32526607315E+01  0.17243521252E+03  0.17120000000E+03 0.  0.
        998    1    1    2    0    0  0.46141704619E+01 -0.45595484701E+00  0.13920679140E+04  0.13921115529E+04  0.10000000000E+02 0.  1.
</event>
<event>
 5    1  0.7732857E-009  0.3761931E+03  0.7957747E-01  0.3467904E+00
         13   -1    0    0    0    0  0.00000000000E+00  0.00000000000E+00  0.14999999963E+04  0.15000000000E+04  0.10566000000E+00 0.  1.
        994   -1    0    0    0    0 -0.00000000000E+00 -0.00000000000E+00  0.11368683772E-12  0.17120000000E+03  0.17120000000E+03 0.  0.
         13    1    1    2    0    0 -0.30337940763E+01  0.36069770427E+02  0.11113212352E+03  0.11687853647E+03  0.10566000000E+00 0.  1.
        994    1    1    2    0    0 -0.13650775733E+02 -0.12717774620E+02  0.72466508296E+01  0.17236600424E+03  0.17120000000E+03 0.  0.
        998    1    1    2    0    0  0.16684569809E+02 -0.23351995807E+02  0.13816212219E+04  0.13819554593E+04  0.10000000000E+02 0.  1.
</event>
<event>
 5    1  0.7732857E-009  0.3857932E+03  0.7957747E-01  0.3426315E+00
         13   -1    0    0    0    0  0.00000000000E+00  0.00000000000E+00  0.14999999963E+04  0.15000000000E+04  0.10566000000E+00 0. -1.
        994   -1    0    0    0    0 -0.00000000000E+00 -0.00000000000E+00  0.11368683772E-12  0.17120000000E+03  0.17120000000E+03 0.  0.
         13    1    1    2    0    0 -0.50951915346E+00  0.14659197288E+02  0.88495798391E+02  0.89703228324E+02  0.10566000000E+00 0. -1.
        994    1    1    2    0    0 -0.25776966765E+01 -0.85836798843E+01  0.15003512623E+01  0.17144099607E+03  0.17120000000E+03 0.  0.
        998    1    1    2    0    0  0.30872158299E+01 -0.60755174035E+01  0.14100038466E+04  0.14100557756E+04  0.10000000000E+02 0. -1.
</event>
<event>
 5    1  0.7732857E-009  0.4022562E+03  0.7957747E-01  0.3359629E+00
         13   -1    0    0    0    0  0.00000000000E+00  0.00000000000E+00  0.14999999963E+04  0.15000000000E+04  0.10566000000E+00 0. -1.
        994   -1    0    0    0    0 -0.00000000000E+00 -0.00000000000E+00  0.11368683772E-12  0.17120000000E+03  0.17120000000E+03 0.  0.
         13    1    1    2    0    0 -0.17466715751E+02 -0.13962174532E+02 -0.40551051402E+01  0.22726273749E+02  0.10566000000E+00 0. -1.
        994    1    1    2    0    0  0.29479671157E+02 -0.11098111846E+02  0.33063852681E+02  0.17718599677E+03  0.17120000000E+03 0.  0.
        998    1    1    2    0    0 -0.12012955406E+02  0.25060286377E+02  0.14709912487E+04  0.14712877295E+04  0.10000000000E+02 0. -1.
</event>
<event>
 5    1  0.7732857E-009  0.3821672E+03  0.7957747E-01  0.3441776E+00
         13   -1    0    0    0    0  0.00000000000E+00  0.00000000000E+00  0.14999999963E+04  0.15000000000E+04  0.10566000000E+00 0. -1.
        994   -1    0    0    0    0 -0.00000000000E+00 -0.00000000000E+00  0.11368683772E-12  0.17120000000E+03  0.17120000000E+03 0.  0.
         13    1    1    2    0    0  0.41763523319E+02  0.41593365857E+01  0.19076816092E+03  0.19533047470E+03  0.10566000000E+00 0. -1.
        994    1    1    2    0    0 -0.85224755737E+02  0.37628122068E+02  0.32406366843E+02  0.19758225419E+03  0.17120000000E+03 0.  0.
        998    1    1    2    0    0  0.43461232418E+02 -0.41787458654E+02  0.12768254685E+04  0.12782872711E+04  0.10000000000E+02 0. -1.
</event>
<event>
 5    1  0.7732857E-009  0.3961194E+03  0.7957747E-01  0.3383840E+00
         13   -1    0    0    0    0  0.00000000000E+00  0.00000000000E+00  0.14999999963E+04  0.15000000000E+04  0.10566000000E+00 0.  1.
        994   -1    0    0    0    0 -0.00000000000E+00 -0.00000000000E+00  0.11368683772E-12  0.17120000000E+03  0.17120000000E+03 0.  0.
         13    1    1    2    0    0  0.51459078717E+02  0.42709907528E+02  0.75732748831E+02  0.10103283324E+03  0.10566000000E+00 0.  1.
        994    1    1    2    0    0 -0.47611238144E+02 -0.45976858449E+02  0.42565027299E+02  0.18841954001E+03  0.17120000000E+03 0.  0.
        998    1    1    2    0    0 -0.38478405735E+01  0.32669509204E+01  0.13817022201E+04  0.13817476267E+04  0.10000000000E+02 0.  1.
</event>
<event>
 5    1  0.7732857E-009  0.3770344E+03  0.7957747E-01  0.3464174E+00
         13   -1    0    0    0    0  0.00000000000E+00  0.00000000000E+00  0.14999999963E+04  0.15000000000E+04  0.10566000000E+00 0.  1.
        994   -1    0    0    0    0 -0.00000000000E+00 -0.00000000000E+00  0.11368683772E-12  0.17120000000E+03  0.17120000000E+03 0.  0.
         13    1    1    2    0    0  0.29372394503E+02 -0.12082174278E+02  0.28394413021E+02  0.42602468813E+02  0.10566000000E+00 0.  1.
        994    1    1    2    0    0 -0.23333315905E+02  0.33029580656E+01  0.16700886353E+02  0.17361944813E+03  0.17120000000E+03 0.  0.
        998    1    1    2    0    0 -0.60390785982E+01  0.87792162124E+01  0.14549046969E+04  0.14549780831E+04  0.10000000000E+02 0.  1.
</event>
<event>
 5    1  0.7732857E-009  0.3796920E+03  0.7957747E-01  0.3452501E+00
         13   -1    0    0    0    0  0.00000000000E+00  0.00000000000E+00  0.14999999963E+04  0.15000000000E+04  0.10566000000E+00 0. -1.
        994   -1    0    0    0    0 -0.00000000000E+00 -0.00000000000E+00  0.11368683772E-12  0.17120000000E+03  0.17120000000E+03 0.  0.
         13    1    1    2    0    0 -0.34275053588E+00 -0.27744766755E+02  0.99238717103E+02  0.10304476550E+03  0.10566000000E+00 0. -1.
        994    1    1    2    0    0 -0.93513815174E+01 -0.57048120456E+01  0.46903574681E+01  0.17161419717E+03  0.17120000000E+03 0.  0.
        998    1    1    2    0    0  0.96941320532E+01  0.33449578801E+02  0.13960709217E+04  0.13965410373E+04  0.10000000000E+02 0. -1.
</event>
<event>
 5    1  0.7732857E-009  0.3692666E+03  0.7957747E-01  0.3499268E+00
         13   -1    0    0    0    0  0.00000000000E+00  0.00000000000E+00  0.14999999963E+04  0.15000000000E+04  0.10566000000E+00 0. -1.
        994   -1    0    0    0    0 -0.00000000000E+00 -0.00000000000E+00  0.11368683772E-12  0.17120000000E+03  0.17120000000E+03 0.  0.
         13    1    1    2    0    0 -0.26458545690E+02  0.82744306743E+01  0.34737407250E+02  0.44443441243E+02  0.10566000000E+00 0. -1.
        994    1    1    2    0    0  0.31104995509E+02 -0.79580562965E+01  0.13234644630E+02  0.17468671164E+03  0.17120000000E+03 0.  0.
        998    1    1    2    0    0 -0.46464498185E+01 -0.31637437771E+00  0.14520279444E+04  0.14520698471E+04  0.10000000000E+02 0. -1.
</event>
<event>
 5    1  0.7732857E-009  0.3740616E+03  0.7957747E-01  0.3477430E+00
         13   -1    0    0    0    0  0.00000000000E+00  0.00000000000E+00  0.14999999963E+04  0.15000000000E+04  0.10566000000E+00 0.  1.
        994   -1    0    0    0    0 -0.00000000000E+00 -0.00000000000E+00  0.11368683772E-12  0.17120000000E+03  0.17120000000E+03 0.  0.
         13    1    1    2    0    0  0.13194403887E+02 -0.58377150968E+02  0.25351395902E+03  0.26048286437E+03  0.10566000000E+00 0.  1.
        994    1    1    2    0    0  0.35768385075E+02  0.42267848288E+02  0.17689214478E+02  0.18079905055E+03  0.17120000000E+03 0.  0.
        998    1    1    2    0    0 -0.48962788962E+02  0.16109302680E+02  0.12287968228E+04  0.12299180851E+04  0.10000000000E+02 0.  1.
</event>
<event>
 5    1  0.7732857E-009  0.3796986E+03  0.7957747E-01  0.3452472E+00
         13   -1    0    0    0    0  0.00000000000E+00  0.00000000000E+00  0.14999999963E+04  0.15000000000E+04  0.10566000000E+00 0.  1.
        994   -1    0    0    0    0 -0.00000000000E+00 -0.00000000000E+00  0.11368683772E-12  0.17120000000E+03  0.17120000000E+03 0.  0.
         13    1    1    2    0    0 -0.18961379923E+02  0.32134848431E+02  0.15428399461E+03  0.15873167475E+03  0.10566000000E+00 0.  1.
        994    1    1    2    0    0  0.12046535822E+02 -0.26143509759E+02  0.70630292871E+01  0.17374673669E+03  0.17120000000E+03 0.  0.
        998    1    1    2    0    0  0.69148441017E+01 -0.59913386726E+01  0.13386529724E+04  0.13387215886E+04  0.10000000000E+02 0.  1.
</event>
<event>
 5    1  0.7732857E-009  0.3753852E+03  0.7957747E-01  0.3471502E+00
         13   -1    0    0    0    0  0.00000000000E+00  0.00000000000E+00  0.14999999963E+04  0.15000000000E+04  0.10566000000E+00 0. -1.
        994   -1    0    0    0    0 -0.00000000000E+00 -0.00000000000E+00  0.11368683772E-12  0.17120000000E+03  0.17120000000E+03 0.  0.
         13    1    1    2    0    0 -0.23370731788E+02 -0.26065835776E+02  0.89223101771E+02  0.95845667365E+02  0.10566000000E+00 0. -1.
        994    1    1    2    0    0  0.15968709738E+02  0.25722314614E+02  0.95991188088E+01  0.17412128027E+03  0.17120000000E+03 0.  0.
        998    1    1    2    0    0  0.74020220496E+01  0.34352116188E+00  0.14011777757E+04  0.14012330524E+04  0.10000000000E+02 0. -1.
</event>
<event>
 5    1  0.7732857E-009  0.3895682E+03  0.7957747E-01  0.3410526E+00
         13   -1    0    0    0    0  0.00000000000E+00  0.00000000000E+00  0.14999999963E+04  0.15000000000E+04  0.10566000000E+00 0. -1.
        994   -1    0    0    0    0 -0.00000000000E+00 -0.00000000000E+00  0.11368683772E-12  0.17120000000E+03  0.17120000000E+03 0.  0.
         13    1    1    2    0    0  0.65591648771E+02 -0.23535223506E+02  0.97778624232E+02  0.12007015306E+03  0.10566000000E+00 0. -1.
        994    1    1    2    0    0 -0.72168636600E+02  0.11200836288E+02  0.42008772564E+02  0.19080866808E+03  0.17120000000E+03 0.  0.
        998    1    1    2    0    0  0.65769878294E+01  0.12334387218E+02  0.13602125995E+04  0.13603211789E+04  0.10000000000E+02 0. -1.
</event>
<event>
 5    1  0.7732857E-009  0.3715947E+03  0.7957747E-01  0.3488594E+00
         13   -1    0    0    0    0  0.00000000000E+00  0.00000000000E+00  0.14999999963E+04  0.15000000000E+04  0.10566000000E+00 0.  1.
        994   -1    0    0    0    0 -0.00000000000E+00 -0.00000000000E+00  0.11368683772E-12  0.17120000000E+03  0.17120000000E+03 0.  0.
         13    1    1    2    0    0  0.26722283881E+02 -0.45678081957E+02  0.16914548651E+03  0.17723085058E+03  0.10566000000E+00 0.  1.
        994    1    1    2    0    0 -0.27538019177E+01  0.26486831780E+02  0.10880296020E+02  0.17359998999E+03  0.17120000000E+03 0.  0.
        998    1    1    2    0    0 -0.23968481964E+02  0.19191250178E+02  0.13199742138E+04  0.13203691594E+04  0.10000000000E+02 0.  1.
</event>
<event>
 5    1  0.7732857E-009  0.3840488E+03  0.7957747E-01  0.3433716E+00
         13   -1    0    0    0    0  0.00000000000E+00  0.00000000000E+00  0.14999999963E+04  0.15000000000E+04  0.10566000000E+00 0. -1.
        994   -1    0    0    0    0 -0.00000000000E+00 -0.00000000000E+00  0.11368683772E-12  0.17120000000E+03  0.17120000000E+03 0.  0.
         13    1    1    2    0    0 -0.20531565186E+02 -0.14797831841E+02  0.15020759231E+03  0.15232482709E+03  0.10566000000E+00 0. -1.
        994    1    1    2    0    0  0.16016646094E+02  0.61466489515E+01  0.30745960447E+01  0.17208488425E+03  0.17120000000E+03 0.  0.
        998    1    1    2    0    0  0.45149190926E+01  0.86511828891E+01  0.13467178079E+04  0.13467902887E+04  0.10000000000E+02 0. -1.
</event>
<event>
 5    1  0.7732857E-009  0.3748725E+03  0.7957747E-01  0.3473793E+00
         13   -1    0    0    0    0  0.00000000000E+00  0.00000000000E+00  0.14999999963E+04  0.15000000000E+04  0.10566000000E+00 0.  1.
        994   -1    0    0    0    0 -0.00000000000E+00 -0.00000000000E+00  0.11368683772E-12  0.17120000000E+03  0.17120000000E+03 0.  0.
         13    1    1    2    0    0  0.25361349339E+02  0.10102805421E+03  0.34487532810E+03  0.36026222237E+03  0.10566000000E+00 0.  1.
        994    1    1    2    0    0 -0.38415878647E+01 -0.85816455025E+02  0.40274301196E+02  0.19573114491E+03  0.17120000000E+03 0.  0.
        998    1    1    2    0    0 -0.21519761474E+02 -0.15211599182E+02  0.11148503670E+04  0.11152066327E+04  0.10000000000E+02 0.  1.
</event>
<event>
 5    1  0.7732857E-009  0.3779475E+03  0.7957747E-01  0.3460145E+00
         13   -1    0    0    0    0  0.00000000000E+00  0.00000000000E+00  0.14999999963E+04  0.15000000000E+04  0.10566000000E+00 0. -1.
        994   -1    0    0    0    0 -0.00000000000E+00 -0.00000000000E+00  0.11368683772E-12  0.17120000000E+03  0.17120000000E+03 0.  0.
         13    1    1    2    0    0 -0.18131931029E+02  0.73978268035E+02  0.39917761374E+03  0.40637953878E+03  0.10566000000E+00 0. -1.
        994    1    1    2    0    0  0.15304782141E+02 -0.77136507284E+02  0.26278457217E+02  0.19022164552E+03  0.17120000000E+03 0.  0.
        998    1    1    2    0    0  0.28271488881E+01  0.31582392497E+01  0.10745439253E+04  0.10745988157E+04  0.10000000000E+02 0. -1.
</event>
<event>
 5    1  0.7732857E-009  0.3845670E+03  0.7957747E-01  0.3431511E+00
         13   -1    0    0    0    0  0.00000000000E+00  0.00000000000E+00  0.14999999963E+04  0.15000000000E+04  0.10566000000E+00 0. -1.
        994   -1    0    0    0    0 -0.00000000000E+00 -0.00000000000E+00  0.11368683772E-12  0.17120000000E+03  0.17120000000E+03 0.  0.
         13    1    1    2    0    0  0.17692845966E+02 -0.19187267168E+02  0.14945617771E+03  0.15171798918E+03  0.10566000000E+00 0. -1.
        994    1    1    2    0    0 -0.28458077886E+02  0.27693771757E+02  0.70554843005E+01  0.17588640382E+03  0.17120000000E+03 0.  0.
        998    1    1    2    0    0  0.10765231920E+02 -0.85065045884E+01  0.13434883343E+04  0.13435956070E+04  0.10000000000E+02 0. -1.
</event>
<event>
 5    1  0.7732857E-009  0.3837718E+03  0.7957747E-01  0.3434898E+00
         13   -1    0    0    0    0  0.00000000000E+00  0.00000000000E+00  0.14999999963E+04  0.15000000000E+04  0.10566000000E+00 0.  1.
        994   -1    0    0    0    0 -0.00000000000E+00 -0.00000000000E+00  0.11368683772E-12  0.17120000000E+03  0.17120000000E+03 0.  0.
         13    1    1    2    0    0 -0.17600890595E+02  0.43821620981E+01  0.74918938100E+02  0.77083416793E+02  0.10566000000E+00 0.  1.
        994    1    1    2    0    0  0.62205398495E+01 -0.40774227866E+01  0.24237999902E+01  0.17137863140E+03  0.17120000000E+03 0.  0.
        998    1    1    2    0    0  0.11380350745E+02 -0.30473931153E+00  0.14226572582E+04  0.14227379518E+04  0.10000000000E+02 0.  1.
</event>
<event>
 5    1  0.7732857E-009  0.3802210E+03  0.7957747E-01  0.3450197E+00
         13   -1    0    0    0    0  0.00000000000E+00  0.00000000000E+00  0.14999999963E+04  0.15000000000E+04  0.10566000000E+00 0.  1.
        994   -1    0    0    0    0 -0.00000000000E+00 -0.00000000000E+00  0.11368683772E-12  0.17120000000E+03  0.17120000000E+03 0.  0.
         13    1    1    2    0    0  0.13262914512E+02  0.31674273383E+02  0.17502383629E+03  0.17836064288E+03  0.10566000000E+00 0.  1.
        994    1    1    2    0    0  0.34534963800E+02 -0.10101480231E+02  0.83586608293E+01  0.17513997499E+03  0.17120000000E+03 0.  0.
        998    1    1    2    0    0 -0.47797878312E+02 -0.21572793152E+02  0.13166174992E+04  0.13176993821E+04  0.10000000000E+02 0.  1.
</event>
<event>
 5    1  0.7732857E-009  0.3796021E+03  0.7957747E-01  0.3452893E+00
         13   -1    0    0    0    0  0.00000000000E+00  0.00000000000E+00  0.14999999963E+04  0.15000000000E+04  0.10566000000E+00 0.  1.
        994   -1    0    0    0    0 -0.00000000000E+00 -0.00000000000E+00  0.11368683772E-12  0.17120000000E+03  0.17120000000E+03 0.  0.
         13    1    1    2    0    0  0.11149072497E+02  0.24086474555E+02  0.75320023865E+02  0.79859734743E+02  0.10566000000E+00 0.  1.
        994    1    1    2    0    0 -0.20720914501E+01 -0.31603599069E+02  0.76990633718E+01  0.17427506022E+03  0.17120000000E+03 0.  0.
        998    1    1    2    0    0 -0.90769810471E+01  0.75171245133E+01  0.14169809090E+04  0.14170652050E+04  0.10000000000E+02 0.  1.
</event>
<event>
 5    1  0.7732857E-009  0.3722702E+03  0.7957747E-01  0.3485522E+00
         13   -1    0    0    0    0  0.00000000000E+00  0.00000000000E+00  0.14999999963E+04  0.15000000000E+04  0.10566000000E+00 0. -1.
        994   -1    0    0    0    0 -0.00000000000E+00 -0.00000000000E+00  0.11368683772E-12  0.17120000000E+03  0.17120000000E+03 0.  0.
         13    1    1    2    0    0  0.75655151317E+02 -0.18700119985E+02  0.28704447972E+03  0.29743560801E+03  0.10566000000E+00 0. -1.
        994    1    1    2    0    0 -0.85156173502E+02  0.85689032736E+01  0.33652455967E+02  0.19433714977E+03  0.17120000000E+03 0.  0.
        998    1    1    2    0    0  0.95010221852E+01  0.10131216712E+02  0.11793030606E+04  0.11794272422E+04  0.10000000000E+02 0. -1.
</event>
<event>
 5    1  0.7732857E-009  0.3852399E+03  0.7957747E-01  0.3428655E+00
         13   -1    0    0    0    0  0.00000000000E+00  0.00000000000E+00  0.14999999963E+04  0.15000000000E+04  0.10566000000E+00 0.  1.
        994   -1    0    0    0    0 -0.00000000000E+00 -0.00000000000E+00  0.11368683772E-12  0.17120000000E+03  0.17120000000E+03 0.  0.
         13    1    1    2    0    0  0.71042365383E+01 -0.15074424315E+02  0.93967197131E+02  0.95433504316E+02  0.10566000000E+00 0.  1.
        994    1    1    2    0    0 -0.13357062995E+02  0.30235449851E+01  0.21276252227E+01  0.17176006447E+03  0.17120000000E+03 0.  0.
        998    1    1    2    0    0  0.62528264565E+01  0.12050879330E+02  0.14039051739E+04  0.14040064312E+04  0.10000000000E+02 0.  1.
</event>
<event>
 5    1  0.7732857E-009  0.3685692E+03  0.7957747E-01  0.3502493E+00
         13   -1    0    0    0    0  0.00000000000E+00  0.00000000000E+00  0.14999999963E+04  0.15000000000E+04  0.10566000000E+00 0. -1.
        994   -1    0    0    0    0 -0.00000000000E+00 -0.00000000000E+00  0.11368683772E-12  0.17120000000E+03  0.17120000000E+03 0.  0.
         13    1    1    2    0    0  0.12555759604E+02 -0.10440356479E+02  0.84199381075E+01  0.18372660787E+02  0.10566000000E+00 0. -1.
        994    1    1    2    0    0 -0.12405850972E+02  0.11934301378E+02  0.11215687968E+02  0.17242843253E+03  0.17120000000E+03 0.  0.
        998    1    1    2    0    0 -0.14990863210E+00 -0.14939448992E+01  0.14803643702E+04  0.14803989067E+04  0.10000000000E+02 0. -1.
</event>
<event>
 5    1  0.7732857E-009  0.3810717E+03  0.7957747E-01  0.3446505E+00
         13   -1    0    0    0    0  0.00000000000E+00  0.00000000000E+00  0.14999999963E+04  0.15000000000E+04  0.10566000000E+00 0. -1.
        994   -1    0    0    0    0 -0.00000000000E+00 -0.00000000000E+00  0.11368683772E-12  0.17120000000E+03  0.17120000000E+03 0.  0.
         13    1    1    2    0    0 -0.12133081107E+01  0.30060191481E+02  0.15875639285E+03  0.16158183890E+03  0.10566000000E+00 0. -1.
        994    1    1    2    0    0  0.34239239295E+01  0.15528945045E+02  0.44359401479E+01  0.17199415384E+03  0.17120000000E+03 0.  0.
        998    1    1    2    0    0 -0.22106158188E+01 -0.45589136525E+02  0.13368076633E+04  0.13376240073E+04  0.10000000000E+02 0. -1.
</event>
<event>
 5    1  0.7732857E-009  0.3843455E+03  0.7957747E-01  0.3432453E+00
         13   -1    0    0    0    0  0.00000000000E+00  0.00000000000E+00  0.14999999963E+04  0.15000000000E+04  0.10566000000E+00 0. -1.
        994   -1    0    0    0    0 -0.00000000000E+00 -0.00000000000E+00  0.11368683772E-12  0.17120000000E+03  0.17120000000E+03 0.  0.
         13    1    1    2    0    0 -0.12445980212E+02  0.11102038915E+01  0.37654505999E+02  0.39673769195E+02  0.10566000000E+00 0. -1.
        994    1    1    2    0    0  0.18858675140E+02 -0.48773860824E+01  0.32069305238E+01  0.17233445078E+03  0.17120000000E+03 0.  0.
        998    1    1    2    0    0 -0.64126949277E+01  0.37671821908E+01  0.14591385598E+04  0.14591917800E+04  0.10000000000E+02 0. -1.
</event>
<event>
 5    1  0.7732857E-009  0.2271320E+03  0.7957747E-01  0.4609257E+00
         13   -1    0    0    0    0  0.00000000000E+00  0.00000000000E+00  0.14999999963E+04  0.15000000000E+04  0.10566000000E+00 0.  1.
        994   -1    0    0    0    0 -0.00000000000E+00 -0.00000000000E+00  0.11368683772E-12  0.17120000000E+03  0.17120000000E+03 0.  0.
         13    1    1    2    0    0  0.62158938035E+00  0.59424368255E+02 -0.17093114514E+02  0.61837105719E+02  0.10566000000E+00 0.  1.
        994    1    1    2    0    0  0.37315219377E+01 -0.10665134811E+03  0.17695503496E+03  0.26834857687E+03  0.17120000000E+03 0.  0.
        998    1    1    2    0    0 -0.43531113181E+01  0.47226979858E+02  0.13401380758E+04  0.13410143174E+04  0.10000000000E+02 0.  1.
</event>
<event>
 5    1  0.7732857E-009  0.3724845E+03  0.7957747E-01  0.3484550E+00
         13   -1    0    0    0    0  0.00000000000E+00  0.00000000000E+00  0.14999999963E+04  0.15000000000E+04  0.10566000000E+00 0.  1.
        994   -1    0    0    0    0 -0.00000000000E+00 -0.00000000000E+00  0.11368683772E-12  0.17120000000E+03  0.17120000000E+03 0.  0.
         13    1    1    2    0    0  0.62146017717E+02 -0.36135483672E+02  0.34950594212E+03  0.35682252653E+03  0.10566000000E+00 0.  1.
        994    1    1    2    0    0 -0.26598906131E+02  0.14727335620E+02  0.11151892741E+02  0.17423604947E+03  0.17120000000E+03 0.  0.
        998    1    1    2    0    0 -0.35547111586E+02  0.21408148052E+02  0.11393421614E+04  0.11401414240E+04  0.10000000000E+02 0. -1.
</event>
<event>
 5    1  0.7732857E-009  0.3815545E+03  0.7957747E-01  0.3444418E+00
         13   -1    0    0    0    0  0.00000000000E+00  0.00000000000E+00  0.14999999963E+04  0.15000000000E+04  0.10566000000E+00 0. -1.
        994   -1    0    0    0    0 -0.00000000000E+00 -0.00000000000E+00  0.11368683772E-12  0.17120000000E+03  0.17120000000E+03 0.  0.
         13    1    1    2    0    0  0.93685747536E+01  0.11479072091E+02  0.31401047222E+02  0.34721408665E+02  0.10566000000E+00 0. -1.
        994    1    1    2    0    0 -0.64273419273E+01 -0.90167312059E+01  0.37583991424E+01  0.17159888616E+03  0.17120000000E+03 0.  0.
        998    1    1    2    0    0 -0.29412328263E+01 -0.24623408850E+01  0.14648405499E+04  0.14648797052E+04  0.10000000000E+02 0. -1.
</event>
<event>
 5    1  0.7732857E-009  0.3778881E+03  0.7957747E-01  0.3460406E+00
         13   -1    0    0    0    0  0.00000000000E+00  0.00000000000E+00  0.14999999963E+04  0.15000000000E+04  0.10566000000E+00 0.  1.
        994   -1    0    0    0    0 -0.00000000000E+00 -0.00000000000E+00  0.11368683772E-12  0.17120000000E+03  0.17120000000E+03 0.  0.
         13    1    1    2    0    0 -0.25803725882E+01  0.21684650614E+02  0.89326256340E+01  0.23594180632E+02  0.10566000000E+00 0.  1.
        994    1    1    2    0    0 -0.13841733504E+00 -0.23141306116E+02  0.17099929322E+02  0.17360122923E+03  0.17120000000E+03 0.  0.
        998    1    1    2    0    0  0.27187899233E+01  0.14566555020E+01  0.14739674413E+04  0.14740045901E+04  0.10000000000E+02 0.  1.
</event>
<event>
 5    1  0.7732857E-009  0.3713931E+03  0.7957747E-01  0.3489513E+00
         13   -1    0    0    0    0  0.00000000000E+00  0.00000000000E+00  0.14999999963E+04  0.15000000000E+04  0.10566000000E+00 0.  1.
        994   -1    0    0    0    0 -0.00000000000E+00 -0.00000000000E+00  0.11368683772E-12  0.17120000000E+03  0.17120000000E+03 0.  0.
         13    1    1    2    0    0  0.93544851252E+02 -0.69541507538E+02  0.57769026797E+03  0.58933243364E+03  0.10566000000E+00 0.  1.
        994    1    1    2    0    0 -0.66008012814E+02  0.79451472630E+02  0.46204572106E+02  0.20521670678E+03  0.17120000000E+03 0.  0.
        998    1    1    2    0    0 -0.27536838438E+02 -0.99099650915E+01  0.87610515620E+03  0.87665085958E+03  0.10000000000E+02 0.  1.
</event>
<event>
 5    1  0.7732857E-009  0.3776891E+03  0.7957747E-01  0.3461283E+00
         13   -1    0    0    0    0  0.00000000000E+00  0.00000000000E+00  0.14999999963E+04  0.15000000000E+04  0.10566000000E+00 0. -1.
        994   -1    0    0    0    0 -0.00000000000E+00 -0.00000000000E+00  0.11368683772E-12  0.17120000000E+03  0.17120000000E+03 0.  0.
         13    1    1    2    0    0  0.28357322192E+02  0.10580789123E+00  0.68967537561E+02  0.74569975985E+02  0.10566000000E+00 0. -1.
        994    1    1    2    0    0 -0.35359738969E+02 -0.18203946885E+01  0.95388847820E+01  0.17508299546E+03  0.17120000000E+03 0.  0.
        998    1    1    2    0    0  0.70024167774E+01  0.17145867973E+01  0.14214935739E+04  0.14215470286E+04  0.10000000000E+02 0. -1.
</event>
<event>
 5    1  0.7732857E-009  0.3794520E+03  0.7957747E-01  0.3453548E+00
         13   -1    0    0    0    0  0.00000000000E+00  0.00000000000E+00  0.14999999963E+04  0.15000000000E+04  0.10566000000E+00 0. -1.
        994   -1    0    0    0    0 -0.00000000000E+00 -0.00000000000E+00  0.11368683772E-12  0.17120000000E+03  0.17120000000E+03 0.  0.
         13    1    1    2    0    0  0.22073703247E+02 -0.38811521065E+02  0.26266110716E+03  0.26642907296E+03  0.10566000000E+00 0. -1.
        994    1    1    2    0    0 -0.88920003392E+01  0.35021900313E+01  0.47159615365E+01  0.17153137701E+03  0.17120000000E+03 0.  0.
        998    1    1    2    0    0 -0.13181702908E+02  0.35309331034E+02  0.12326229276E+04  0.12332395500E+04  0.10000000000E+02 0. -1.
</event>
<event>
 5    1  0.7732857E-009  0.3842986E+03  0.7957747E-01  0.3432652E+00
         13   -1    0    0    0    0  0.00000000000E+00  0.00000000000E+00  0.14999999963E+04  0.15000000000E+04  0.10566000000E+00 0.  1.
        994   -1    0    0    0    0 -0.00000000000E+00 -0.00000000000E+00  0.11368683772E-12  0.17120000000E+03  0.17120000000E+03 0.  0.
         13    1    1    2    0    0 -0.18083072543E+02  0.17115032086E+02  0.14611311626E+03  0.14821935010E+03  0.10566000000E+00 0.  1.
        994    1    1    2    0    0  0.19071757059E+02 -0.13209532214E+02  0.37548360881E+01  0.17280556256E+03  0.17120000000E+03 0.  0.
        998    1    1    2    0    0 -0.98868451631E+00 -0.39054998715E+01  0.13501320439E+04  0.13501750873E+04  0.10000000000E+02 0.  1.
</event>
<event>
 5    1  0.7732857E-009  0.3807996E+03  0.7957747E-01  0.3447684E+00
         13   -1    0    0    0    0  0.00000000000E+00  0.00000000000E+00  0.14999999963E+04  0.15000000000E+04  0.10566000000E+00 0.  1.
        994   -1    0    0    0    0 -0.00000000000E+00 -0.00000000000E+00  0.11368683772E-12  0.17120000000E+03  0.17120000000E+03 0.  0.
         13    1    1    2    0    0 -0.14763902081E+02  0.38648073179E+01  0.29421969806E+02  0.33144728262E+02  0.10566000000E+00 0.  1.
        994    1    1    2    0    0  0.13721849439E+02 -0.32357199825E+01  0.43930325332E+01  0.17183567083E+03  0.17120000000E+03 0.  0.
        998    1    1    2    0    0  0.10420526423E+01 -0.62908733537E+00  0.14661849939E+04  0.14662196009E+04  0.10000000000E+02 0.  1.
</event>
<event>
 5    1  0.7732857E-009  0.3765393E+03  0.7957747E-01  0.3466367E+00
         13   -1    0    0    0    0  0.00000000000E+00  0.00000000000E+00  0.14999999963E+04  0.15000000000E+04  0.10566000000E+00 0. -1.
        994   -1    0    0    0    0 -0.00000000000E+00 -0.00000000000E+00  0.11368683772E-12  0.17120000000E+03  0.17120000000E+03 0.  0.
         13    1    1    2    0    0  0.82417985492E+01 -0.43540113555E+02  0.16407292131E+03  0.16995176787E+03  0.10566000000E+00 0. -1.
        994    1    1    2    0    0  0.26313008811E+02  0.33024295829E+02  0.11943647552E+02  0.17673445975E+03  0.17120000000E+03 0.  0.
        998    1    1    2    0    0 -0.34554807360E+02  0.10515817726E+02  0.13239834274E+04  0.13245137724E+04  0.10000000000E+02 0. -1.
</event>
<event>
 5    1  0.7732857E-009  0.3772911E+03  0.7957747E-01  0.3463039E+00
         13   -1    0    0    0    0  0.00000000000E+00  0.00000000000E+00  0.14999999963E+04  0.15000000000E+04  0.10566000000E+00 0.  1.
        994   -1    0    0    0    0 -0.00000000000E+00 -0.00000000000E+00  0.11368683772E-12  0.17120000000E+03  0.17120000000E+03 0.  0.
         13    1    1    2    0    0 -0.52826054087E+02  0.19420818219E+02  0.28459102812E+03  0.29010312757E+03  0.10566000000E+00 0.  1.
        994    1    1    2    0    0  0.28244738607E+02 -0.17850113169E+02  0.92818249196E+01  0.17467679890E+03  0.17120000000E+03 0.  0.
        998    1    1    2    0    0  0.24581315481E+02 -0.15707050507E+01  0.12061271432E+04  0.12064200735E+04  0.10000000000E+02 0.  0.
</event>
<event>
 5    1  0.7732857E-009  0.3823445E+03  0.7957747E-01  0.3441013E+00
         13   -1    0    0    0    0  0.00000000000E+00  0.00000000000E+00  0.14999999963E+04  0.15000000000E+04  0.10566000000E+00 0. -1.
        994   -1    0    0    0    0 -0.00000000000E+00 -0.00000000000E+00  0.11368683772E-12  0.17120000000E+03  0.17120000000E+03 0.  0.
         13    1    1    2    0    0  0.15063121730E+01  0.28932857998E+02  0.16093486753E+03  0.16352193125E+03  0.10566000000E+00 0. -1.
        994    1    1    2    0    0 -0.24754423729E+02 -0.15650117845E+00  0.49897787351E+01  0.17305243101E+03  0.17120000000E+03 0.  0.
        998    1    1    2    0    0  0.23248111556E+02 -0.28776356819E+02  0.13340753500E+04  0.13346256377E+04  0.10000000000E+02 0. -1.
</event>
<event>
 5    1  0.7732857E-009  0.3777363E+03  0.7957747E-01  0.3461075E+00
         13   -1    0    0    0    0  0.00000000000E+00  0.00000000000E+00  0.14999999963E+04  0.15000000000E+04  0.10566000000E+00 0.  1.
        994   -1    0    0    0    0 -0.00000000000E+00 -0.00000000000E+00  0.11368683772E-12  0.17120000000E+03  0.17120000000E+03 0.  0.
         13    1    1    2    0    0  0.49522073773E+02  0.25016269545E+02  0.22393285149E+03  0.23070366853E+03  0.10566000000E+00 0.  1.
        994    1    1    2    0    0 -0.66987432622E+02 -0.22147892360E+02  0.22233951854E+02  0.18649834820E+03  0.17120000000E+03 0.  0.
        998    1    1    2    0    0  0.17465358849E+02 -0.28683771847E+01  0.12538331929E+04  0.12539979833E+04  0.10000000000E+02 0.  1.
</event>
<event>
 5    1  0.7732857E-009  0.3765843E+03  0.7957747E-01  0.3466168E+00
         13   -1    0    0    0    0  0.00000000000E+00  0.00000000000E+00  0.14999999963E+04  0.15000000000E+04  0.10566000000E+00 0.  1.
        994   -1    0    0    0    0 -0.00000000000E+00 -0.00000000000E+00  0.11368683772E-12  0.17120000000E+03  0.17120000000E+03 0.  0.
         13    1    1    2    0    0 -0.14156523351E+01 -0.98430082059E+02  0.57546956473E+03  0.58382849898E+03  0.10566000000E+00 0.  1.
        994    1    1    2    0    0  0.32586301070E+01  0.87694609223E+02  0.32365948245E+02  0.19508448878E+03  0.17120000000E+03 0.  0.
        998    1    1    2    0    0 -0.18429777720E+01  0.10735472835E+02  0.89216448331E+03  0.89228701224E+03  0.10000000000E+02 0.  0.
</event>
<event>
 5    1  0.7732857E-009  0.3784553E+03  0.7957747E-01  0.3457912E+00
         13   -1    0    0    0    0  0.00000000000E+00  0.00000000000E+00  0.14999999963E+04  0.15000000000E+04  0.10566000000E+00 0.  1.
        994   -1    0    0    0    0 -0.00000000000E+00 -0.00000000000E+00  0.11368683772E-12  0.17120000000E+03  0.17120000000E+03 0.  0.
         13    1    1    2    0    0 -0.49512787025E+02 -0.15811948703E+02  0.25183325750E+03  0.25714107907E+03  0.10566000000E+00 0.  1.
        994    1    1    2    0    0  0.42028791935E+02  0.13449001737E+01  0.10879410912E+02  0.17662397824E+03  0.17120000000E+03 0.  0.
        998    1    1    2    0    0  0.74839950899E+01  0.14467048530E+02  0.12372873279E+04  0.12374349427E+04  0.10000000000E+02 0.  1.
</event>
<event>
 5    1  0.7732857E-009  0.3839474E+03  0.7957747E-01  0.3434149E+00
         13   -1    0    0    0    0  0.00000000000E+00  0.00000000000E+00  0.14999999963E+04  0.15000000000E+04  0.10566000000E+00 0. -1.
        994   -1    0    0    0    0 -0.00000000000E+00 -0.00000000000E+00  0.11368683772E-12  0.17120000000E+03  0.17120000000E+03 0.  0.
         13    1    1    2    0    0  0.14223682525E+02 -0.14954085921E+02  0.12267990640E+03  0.12440381195E+03  0.10566000000E+00 0. -1.
        994    1    1    2    0    0  0.13904177345E+02 -0.68830743308E+01  0.29483395540E+01  0.17192683201E+03  0.17120000000E+03 0.  0.
        998    1    1    2    0    0 -0.28127859870E+02  0.21837160252E+02  0.13743717503E+04  0.13748693560E+04  0.10000000000E+02 0. -1.
</event>
<event>
 5    1  0.7732857E-009  0.3777340E+03  0.7957747E-01  0.3461085E+00
         13   -1    0    0    0    0  0.00000000000E+00  0.00000000000E+00  0.14999999963E+04  0.15000000000E+04  0.10566000000E+00 0.  1.
        994   -1    0    0    0    0 -0.00000000000E+00 -0.00000000000E+00  0.11368683772E-12  0.17120000000E+03  0.17120000000E+03 0.  0.
         13    1    1    2    0    0  0.10321570967E+03  0.38837295804E+02  0.51373888767E+03  0.52544217011E+03  0.10566000000E+00 0.  1.
        994    1    1    2    0    0 -0.13876305589E+03 -0.30037137764E+02  0.76492684878E+02  0.23519775969E+03  0.17120000000E+03 0.  0.
        998    1    1    2    0    0  0.35547346221E+02 -0.88001580402E+01  0.90976842374E+03  0.91056007019E+03  0.10000000000E+02 0.  1.
</event>
<event>
 5    1  0.7732857E-009  0.3692665E+03  0.7957747E-01  0.3499269E+00
         13   -1    0    0    0    0  0.00000000000E+00  0.00000000000E+00  0.14999999963E+04  0.15000000000E+04  0.10566000000E+00 0.  1.
        994   -1    0    0    0    0 -0.00000000000E+00 -0.00000000000E+00  0.11368683772E-12  0.17120000000E+03  0.17120000000E+03 0.  0.
         13    1    1    2    0    0 -0.89760201570E+01  0.73484548490E+02  0.23506203155E+03  0.24644414711E+03  0.10566000000E+00 0.  1.
        994    1    1    2    0    0  0.23446208964E+02 -0.57372233789E+02  0.24068771043E+02  0.18365740841E+03  0.17120000000E+03 0.  0.
        998    1    1    2    0    0 -0.14470188807E+02 -0.16112314700E+02  0.12408691937E+04  0.12410984445E+04  0.10000000000E+02 0.  1.
</event>
<event>
 5    1  0.7732857E-009  0.3809752E+03  0.7957747E-01  0.3446923E+00
         13   -1    0    0    0    0  0.00000000000E+00  0.00000000000E+00  0.14999999963E+04  0.15000000000E+04  0.10566000000E+00 0.  1.
        994   -1    0    0    0    0 -0.00000000000E+00 -0.00000000000E+00  0.11368683772E-12  0.17120000000E+03  0.17120000000E+03 0.  0.
         13    1    1    2    0    0 -0.15173308262E+01 -0.22795852016E+02  0.69458028493E+02  0.73118958199E+02  0.10566000000E+00 0.  1.
        994    1    1    2    0    0 -0.18843546204E+01  0.17569761546E+02  0.46828429057E+01  0.17217321607E+03  0.17120000000E+03 0.  0.
        998    1    1    2    0    0  0.34016854466E+01  0.52260904705E+01  0.14258591249E+04  0.14259078257E+04  0.10000000000E+02 0.  0.
</event>
<event>
 5    1  0.7732857E-009  0.3848159E+03  0.7957747E-01  0.3430453E+00
         13   -1    0    0    0    0  0.00000000000E+00  0.00000000000E+00  0.14999999963E+04  0.15000000000E+04  0.10566000000E+00 0.  1.
        994   -1    0    0    0    0 -0.00000000000E+00 -0.00000000000E+00  0.11368683772E-12  0.17120000000E+03  0.17120000000E+03 0.  0.
         13    1    1    2    0    0 -0.50466494759E+00 -0.14034586767E+02  0.52496192577E+02  0.54342301309E+02  0.10566000000E+00 0.  1.
        994    1    1    2    0    0 -0.39099340179E+01  0.25011843986E+02  0.38332754105E+01  0.17310405519E+03  0.17120000000E+03 0.  0.
        998    1    1    2    0    0  0.44145989655E+01 -0.10977257219E+02  0.14436705283E+04  0.14437536435E+04  0.10000000000E+02 0.  1.
</event>
<event>
 5    1  0.7732857E-009  0.3853663E+03  0.7957747E-01  0.3428120E+00
         13   -1    0    0    0    0  0.00000000000E+00  0.00000000000E+00  0.14999999963E+04  0.15000000000E+04  0.10566000000E+00 0.  1.
        994   -1    0    0    0    0 -0.00000000000E+00 -0.00000000000E+00  0.11368683772E-12  0.17120000000E+03  0.17120000000E+03 0.  0.
         13    1    1    2    0    0 -0.89394883250E+01  0.95167270290E+01  0.59321334275E+02  0.60741373124E+02  0.10566000000E+00 0.  1.
        994    1    1    2    0    0  0.36893672300E+01 -0.74967724394E+01  0.16777588154E+01  0.17141198296E+03  0.17120000000E+03 0.  0.
        998    1    1    2    0    0  0.52501210950E+01 -0.20199545897E+01  0.14390009032E+04  0.14390466439E+04  0.10000000000E+02 0.  1.
</event>
<event>
 5    1  0.7732857E-009  0.3689443E+03  0.7957747E-01  0.3500757E+00
         13   -1    0    0    0    0  0.00000000000E+00  0.00000000000E+00  0.14999999963E+04  0.15000000000E+04  0.10566000000E+00 0.  1.
        994   -1    0    0    0    0 -0.00000000000E+00 -0.00000000000E+00  0.11368683772E-12  0.17120000000E+03  0.17120000000E+03 0.  0.
         13    1    1    2    0    0  0.35067458984E+02  0.19214361526E+02  0.72959055452E+02  0.83198277055E+02  0.10566000000E+00 0.  1.
        994    1    1    2    0    0 -0.18981561970E+02 -0.21985337737E+02  0.13325847122E+02  0.17415703538E+03  0.17120000000E+03 0.  0.
        998    1    1    2    0    0 -0.16085897014E+02  0.27709762113E+01  0.14137150937E+04  0.14138446876E+04  0.10000000000E+02 0.  1.
</event>
<event>
 5    1  0.7732857E-009  0.3711813E+03  0.7957747E-01  0.3490479E+00
         13   -1    0    0    0    0  0.00000000000E+00  0.00000000000E+00  0.14999999963E+04  0.15000000000E+04  0.10566000000E+00 0. -1.
        994   -1    0    0    0    0 -0.00000000000E+00 -0.00000000000E+00  0.11368683772E-12  0.17120000000E+03  0.17120000000E+03 0.  0.
         13    1    1    2    0    0 -0.16713455193E+02  0.23105526096E+02  0.31160942501E+02  0.42240033407E+02  0.10566000000E+00 0. -1.
        994    1    1    2    0    0  0.41929576519E+02  0.18774867642E+02  0.19011000205E+02  0.17827350664E+03  0.17120000000E+03 0.  0.
        998    1    1    2    0    0 -0.25216121326E+02 -0.41880393738E+02  0.14498280536E+04  0.14506864599E+04  0.10000000000E+02 0. -1.
</event>
<event>
 5    1  0.7732857E-009  0.3799344E+03  0.7957747E-01  0.3451444E+00
         13   -1    0    0    0    0  0.00000000000E+00  0.00000000000E+00  0.14999999963E+04  0.15000000000E+04  0.10566000000E+00 0.  1.
        994   -1    0    0    0    0 -0.00000000000E+00 -0.00000000000E+00  0.11368683772E-12  0.17120000000E+03  0.17120000000E+03 0.  0.
         13    1    1    2    0    0 -0.49566882803E+02  0.26573990588E+01  0.23407144781E+03  0.23927680933E+03  0.10566000000E+00 0.  1.
        994    1    1    2    0    0  0.57880523609E+02 -0.21080633454E+01  0.15465551877E+02  0.18139245364E+03  0.17120000000E+03 0.  0.
        998    1    1    2    0    0 -0.83136408059E+01 -0.54933571346E+00  0.12504629966E+04  0.12505307370E+04  0.10000000000E+02 0.  1.
</event>
<event>
 5    1  0.7732857E-009  0.3695060E+03  0.7957747E-01  0.3498164E+00
         13   -1    0    0    0    0  0.00000000000E+00  0.00000000000E+00  0.14999999963E+04  0.15000000000E+04  0.10566000000E+00 0.  1.
        994   -1    0    0    0    0 -0.00000000000E+00 -0.00000000000E+00  0.11368683772E-12  0.17120000000E+03  0.17120000000E+03 0.  0.
         13    1    1    2    0    0 -0.14722437180E+01 -0.11351310187E+02  0.14682326239E+01  0.11540650571E+02  0.10566000000E+00 0.  1.
        994    1    1    2    0    0  0.52081278141E+02 -0.45577952387E+02  0.27586324148E+02  0.18670901038E+03  0.17120000000E+03 0.  0.
        998    1    1    2    0    0 -0.50609034423E+02  0.56929262574E+02  0.14709454395E+04  0.14729503391E+04  0.10000000000E+02 0.  1.
</event>
<event>
 5    1  0.7732857E-009  0.3775939E+03  0.7957747E-01  0.3461703E+00
         13   -1    0    0    0    0  0.00000000000E+00  0.00000000000E+00  0.14999999963E+04  0.15000000000E+04  0.10566000000E+00 0. -1.
        994   -1    0    0    0    0 -0.00000000000E+00 -0.00000000000E+00  0.11368683772E-12  0.17120000000E+03  0.17120000000E+03 0.  0.
         13    1    1    2    0    0 -0.93724150410E+01  0.41208295736E+02  0.16010623232E+03  0.16558980220E+03  0.10566000000E+00 0. -1.
        994    1    1    2    0    0 -0.10858265040E+02 -0.33464975170E+02  0.95351002063E+01  0.17503760916E+03  0.17120000000E+03 0.  0.
        998    1    1    2    0    0  0.20230680081E+02 -0.77433205660E+01  0.13303586637E+04  0.13305725886E+04  0.10000000000E+02 0. -1.
</event>
<event>
 5    1  0.7732857E-009  0.3845556E+03  0.7957747E-01  0.3431559E+00
         13   -1    0    0    0    0  0.00000000000E+00  0.00000000000E+00  0.14999999963E+04  0.15000000000E+04  0.10566000000E+00 0.  1.
        994   -1    0    0    0    0 -0.00000000000E+00 -0.00000000000E+00  0.11368683772E-12  0.17120000000E+03  0.17120000000E+03 0.  0.
         13    1    1    2    0    0  0.94654601710E+01  0.72573849626E+01  0.36983984830E+02  0.38859887683E+02  0.10566000000E+00 0.  1.
        994    1    1    2    0    0 -0.11314126818E+02 -0.91783627173E+01  0.25502692715E+01  0.17183770157E+03  0.17120000000E+03 0.  0.
        998    1    1    2    0    0  0.18486666469E+01  0.19209777547E+01  0.14604657422E+04  0.14605024107E+04  0.10000000000E+02 0.  1.
</event>
<event>
 5    1  0.7732857E-009  0.3992066E+03  0.7957747E-01  0.3371568E+00
         13   -1    0    0    0    0  0.00000000000E+00  0.00000000000E+00  0.14999999963E+04  0.15000000000E+04  0.10566000000E+00 0. -1.
        994   -1    0    0    0    0 -0.00000000000E+00 -0.00000000000E+00  0.11368683772E-12  0.17120000000E+03  0.17120000000E+03 0.  0.
         13    1    1    2    0    0 -0.38724888677E+02 -0.80651693235E+02  0.12696458793E+03  0.15532009006E+03  0.10566000000E+00 0. -1.
        994    1    1    2    0    0  0.35116686941E+02  0.82006204507E+02  0.59087806713E+02  0.20188860340E+03  0.17120000000E+03 0.  0.
        998    1    1    2    0    0  0.36082017361E+01 -0.13545112720E+01  0.13139476016E+04  0.13139913065E+04  0.10000000000E+02 0. -1.
</event>
<event>
 5    1  0.7732857E-009  0.3765288E+03  0.7957747E-01  0.3466413E+00
         13   -1    0    0    0    0  0.00000000000E+00  0.00000000000E+00  0.14999999963E+04  0.15000000000E+04  0.10566000000E+00 0.  1.
        994   -1    0    0    0    0 -0.00000000000E+00 -0.00000000000E+00  0.11368683772E-12  0.17120000000E+03  0.17120000000E+03 0.  0.
         13    1    1    2    0    0  0.17402124522E+01 -0.31825846319E+02  0.82787586089E+02  0.88711376992E+02  0.10566000000E+00 0.  1.
        994    1    1    2    0    0 -0.12306767478E+02  0.22828774143E+02  0.81736784347E+01  0.17334606564E+03  0.17120000000E+03 0.  0.
        998    1    1    2    0    0  0.10566555026E+02  0.89970721763E+01  0.14090387318E+04  0.14091425574E+04  0.10000000000E+02 0.  1.
</event>
<event>
 5    1  0.7732857E-009  0.3841792E+03  0.7957747E-01  0.3433161E+00
         13   -1    0    0    0    0  0.00000000000E+00  0.00000000000E+00  0.14999999963E+04  0.15000000000E+04  0.10566000000E+00 0.  1.
        994   -1    0    0    0    0 -0.00000000000E+00 -0.00000000000E+00  0.11368683772E-12  0.17120000000E+03  0.17120000000E+03 0.  0.
         13    1    1    2    0    0 -0.15140586567E+02  0.16813271454E+01  0.56649740970E+02  0.58662326400E+02  0.10566000000E+00 0.  1.
        994    1    1    2    0    0  0.97772120484E+01  0.10210990319E+00  0.23535047320E+01  0.17149514071E+03  0.17120000000E+03 0.  0.
        998    1    1    2    0    0  0.53633745188E+01 -0.17834370486E+01  0.14409967506E+04  0.14410425329E+04  0.10000000000E+02 0.  1.
</event>
<event>
 5    1  0.7732857E-009  0.2022006E+03  0.7957747E-01  0.4999120E+00
         13   -1    0    0    0    0  0.00000000000E+00  0.00000000000E+00  0.14999999963E+04  0.15000000000E+04  0.10566000000E+00 0. -1.
        994   -1    0    0    0    0 -0.00000000000E+00 -0.00000000000E+00  0.11368683772E-12  0.17120000000E+03  0.17120000000E+03 0.  0.
         13    1    1    2    0    0  0.55626223459E+02  0.13553154617E+03  0.14706049322E+03  0.20758101207E+03  0.10566000000E+00 0. -1.
        994    1    1    2    0    0 -0.41446821408E+02 -0.89727707269E+02  0.12325524637E+03  0.23295964504E+03  0.17120000000E+03 0.  0.
        998    1    1    2    0    0 -0.14179402051E+02 -0.45803838901E+02  0.12296842567E+04  0.12306593429E+04  0.10000000000E+02 0. -1.
</event>
<event>
 5    1  0.7732857E-009  0.3770277E+03  0.7957747E-01  0.3464204E+00
         13   -1    0    0    0    0  0.00000000000E+00  0.00000000000E+00  0.14999999963E+04  0.15000000000E+04  0.10566000000E+00 0. -1.
        994   -1    0    0    0    0 -0.00000000000E+00 -0.00000000000E+00  0.11368683772E-12  0.17120000000E+03  0.17120000000E+03 0.  0.
         13    1    1    2    0    0  0.52165206897E+02  0.35074285646E+02  0.24936175240E+03  0.25716280650E+03  0.10566000000E+00 0. -1.
        994    1    1    2    0    0 -0.59478950731E+02 -0.62759413418E+02  0.31314324196E+02  0.19433609148E+03  0.17120000000E+03 0.  0.
        998    1    1    2    0    0  0.73137438334E+01  0.27685127772E+02  0.12193239197E+04  0.12197011020E+04  0.10000000000E+02 0. -1.
</event>
<event>
 5    1  0.7732857E-009  0.3930495E+03  0.7957747E-01  0.3396235E+00
         13   -1    0    0    0    0  0.00000000000E+00  0.00000000000E+00  0.14999999963E+04  0.15000000000E+04  0.10566000000E+00 0. -1.
        994   -1    0    0    0    0 -0.00000000000E+00 -0.00000000000E+00  0.11368683772E-12  0.17120000000E+03  0.17120000000E+03 0.  0.
         13    1    1    2    0    0  0.40987761005E+02  0.60629704206E+02  0.10283861705E+03  0.12622103591E+03  0.10566000000E+00 0. -1.
        994    1    1    2    0    0 -0.33715815741E+02 -0.49786040425E+02  0.37585783571E+02  0.18530390492E+03  0.17120000000E+03 0.  0.
        998    1    1    2    0    0 -0.72719452640E+01 -0.10843663781E+02  0.13595755957E+04  0.13596750592E+04  0.10000000000E+02 0. -1.
</event>
<event>
 5    1  0.7732857E-009  0.3834626E+03  0.7957747E-01  0.3436219E+00
         13   -1    0    0    0    0  0.00000000000E+00  0.00000000000E+00  0.14999999963E+04  0.15000000000E+04  0.10566000000E+00 0. -1.
        994   -1    0    0    0    0 -0.00000000000E+00 -0.00000000000E+00  0.11368683772E-12  0.17120000000E+03  0.17120000000E+03 0.  0.
         13    1    1    2    0    0 -0.10905056358E+02 -0.72729218456E+01  0.35721274278E+02  0.38050443446E+02  0.10566000000E+00 0. -1.
        994    1    1    2    0    0  0.73392075894E+01 -0.22162019744E+01  0.25896585132E+01  0.17139113702E+03  0.17120000000E+03 0.  0.
        998    1    1    2    0    0  0.35658487683E+01  0.94891238200E+01  0.14616890635E+04  0.14617584195E+04  0.10000000000E+02 0. -1.
</event>
<event>
 5    1  0.7732857E-009  0.3780139E+03  0.7957747E-01  0.3459852E+00
         13   -1    0    0    0    0  0.00000000000E+00  0.00000000000E+00  0.14999999963E+04  0.15000000000E+04  0.10566000000E+00 0.  1.
        994   -1    0    0    0    0 -0.00000000000E+00 -0.00000000000E+00  0.11368683772E-12  0.17120000000E+03  0.17120000000E+03 0.  0.
         13    1    1    2    0    0 -0.30798878254E+02  0.27775843034E+02  0.17974146630E+03  0.18446428985E+03  0.10566000000E+00 0.  1.
        994    1    1    2    0    0  0.53318194276E+00 -0.16584169205E+02  0.60660974100E+01  0.17210914121E+03  0.17120000000E+03 0.  0.
        998    1    1    2    0    0  0.30265696312E+02 -0.11191673829E+02  0.13141924326E+04  0.13146265689E+04  0.10000000000E+02 0.  1.
</event>
<event>
 5    1  0.7732857E-009  0.3711441E+03  0.7957747E-01  0.3490649E+00
         13   -1    0    0    0    0  0.00000000000E+00  0.00000000000E+00  0.14999999963E+04  0.15000000000E+04  0.10566000000E+00 0.  1.
        994   -1    0    0    0    0 -0.00000000000E+00 -0.00000000000E+00  0.11368683772E-12  0.17120000000E+03  0.17120000000E+03 0.  0.
         13    1    1    2    0    0  0.12644509651E+02  0.13598770870E+02  0.16102237064E+02  0.24578514927E+02  0.10566000000E+00 0.  1.
        994    1    1    2    0    0 -0.60276841221E+00 -0.17862188251E+02  0.97731220410E+01  0.17240758398E+03  0.17120000000E+03 0.  0.
        998    1    1    2    0    0 -0.12041741238E+02  0.42634173804E+01  0.14741246372E+04  0.14742139011E+04  0.10000000000E+02 0.  1.
</event>
<event>
 5    1  0.7732857E-009  0.3829086E+03  0.7957747E-01  0.3438591E+00
         13   -1    0    0    0    0  0.00000000000E+00  0.00000000000E+00  0.14999999963E+04  0.15000000000E+04  0.10566000000E+00 0.  1.
        994   -1    0    0    0    0 -0.00000000000E+00 -0.00000000000E+00  0.11368683772E-12  0.17120000000E+03  0.17120000000E+03 0.  0.
         13    1    1    2    0    0 -0.30723203940E+01  0.10637593630E+02  0.22003283445E+02  0.24632360773E+02  0.10566000000E+00 0.  1.
        994    1    1    2    0    0  0.77186681428E+00 -0.71665972277E+01  0.28441202904E+01  0.17137527510E+03  0.17120000000E+03 0.  0.
        998    1    1    2    0    0  0.23004535797E+01 -0.34709964021E+01  0.14751525925E+04  0.14751923641E+04  0.10000000000E+02 0.  1.
</event>
<event>
 5    1  0.7732857E-009  0.3841935E+03  0.7957747E-01  0.3433100E+00
         13   -1    0    0    0    0  0.00000000000E+00  0.00000000000E+00  0.14999999963E+04  0.15000000000E+04  0.10566000000E+00 0. -1.
        994   -1    0    0    0    0 -0.00000000000E+00 -0.00000000000E+00  0.11368683772E-12  0.17120000000E+03  0.17120000000E+03 0.  0.
         13    1    1    2    0    0  0.10426004390E+02  0.77042722616E+01  0.40869358261E+02  0.42876252020E+02  0.10566000000E+00 0. -1.
        994    1    1    2    0    0 -0.52604793524E+01 -0.80750872102E+01  0.23373929725E+01  0.17148697642E+03  0.17120000000E+03 0.  0.
        998    1    1    2    0    0 -0.51655250379E+01  0.37081494856E+00  0.14567932450E+04  0.14568367716E+04  0.10000000000E+02 0. -1.
</event>
<event>
 5    1  0.7732857E-009  0.3850111E+03  0.7957747E-01  0.3429625E+00
         13   -1    0    0    0    0  0.00000000000E+00  0.00000000000E+00  0.14999999963E+04  0.15000000000E+04  0.10566000000E+00 0.  1.
        994   -1    0    0    0    0 -0.00000000000E+00 -0.00000000000E+00  0.11368683772E-12  0.17120000000E+03  0.17120000000E+03 0.  0.
         13    1    1    2    0    0  0.88874048160E+01  0.12430861405E+02  0.82763187491E+02  0.84162156860E+02  0.10566000000E+00 0.  1.
        994    1    1    2    0    0  0.56347810468E+00  0.10782031701E+02  0.20080641713E+01  0.17155186399E+03  0.17120000000E+03 0.  0.
        998    1    1    2    0    0 -0.94508829206E+01 -0.23212893106E+02  0.14152287446E+04  0.14154859792E+04  0.10000000000E+02 0.  1.
</event>
<event>
 5    1  0.7732857E-009  0.3850876E+03  0.7957747E-01  0.3429301E+00
         13   -1    0    0    0    0  0.00000000000E+00  0.00000000000E+00  0.14999999963E+04  0.15000000000E+04  0.10566000000E+00 0. -1.
        994   -1    0    0    0    0 -0.00000000000E+00 -0.00000000000E+00  0.11368683772E-12  0.17120000000E+03  0.17120000000E+03 0.  0.
         13    1    1    2    0    0  0.23724991848E+01 -0.99848009968E+01  0.32768377057E+02  0.34338064918E+02  0.10566000000E+00 0. -1.
        994    1    1    2    0    0 -0.15940323368E+01  0.85414229422E+01  0.18348932271E+01  0.17143017143E+03  0.17120000000E+03 0.  0.
        998    1    1    2    0    0 -0.77846684804E+00  0.14433780546E+01  0.14653967260E+04  0.14654317636E+04  0.10000000000E+02 0. -1.
</event>
<event>
 5    1  0.7732857E-009  0.3818270E+03  0.7957747E-01  0.3443242E+00
         13   -1    0    0    0    0  0.00000000000E+00  0.00000000000E+00  0.14999999963E+04  0.15000000000E+04  0.10566000000E+00 0.  1.
        994   -1    0    0    0    0 -0.00000000000E+00 -0.00000000000E+00  0.11368683772E-12  0.17120000000E+03  0.17120000000E+03 0.  0.
         13    1    1    2    0    0  0.24393663965E+02 -0.12370992296E+02  0.11296809066E+03  0.11623206512E+03  0.10566000000E+00 0.  1.
        994    1    1    2    0    0 -0.15348395878E+02  0.14009196974E+02  0.46499558280E+01  0.17251925384E+03  0.17120000000E+03 0.  0.
        998    1    1    2    0    0 -0.90452680869E+01 -0.16382046773E+01  0.13823819498E+04  0.13824486810E+04  0.10000000000E+02 0.  1.
</event>
<event>
 5    1  0.7732857E-009  0.3812622E+03  0.7957747E-01  0.3445681E+00
         13   -1    0    0    0    0  0.00000000000E+00  0.00000000000E+00  0.14999999963E+04  0.15000000000E+04  0.10566000000E+00 0.  1.
        994   -1    0    0    0    0 -0.00000000000E+00 -0.00000000000E+00  0.11368683772E-12  0.17120000000E+03  0.17120000000E+03 0.  0.
         13    1    1    2    0    0  0.35176389594E+02  0.37680447209E+01  0.15118688584E+03  0.15527093147E+03  0.10566000000E+00 0.  1.
        994    1    1    2    0    0 -0.44723818417E+02 -0.52677323690E+01  0.10278165443E+02  0.17732188140E+03  0.17120000000E+03 0.  0.
        998    1    1    2    0    0  0.95474288238E+01  0.14996876481E+01  0.13385349450E+04  0.13386071871E+04  0.10000000000E+02 0.  1.
</event>
<event>
 5    1  0.7732857E-009  0.3808316E+03  0.7957747E-01  0.3447546E+00
         13   -1    0    0    0    0  0.00000000000E+00  0.00000000000E+00  0.14999999963E+04  0.15000000000E+04  0.10566000000E+00 0.  1.
        994   -1    0    0    0    0 -0.00000000000E+00 -0.00000000000E+00  0.11368683772E-12  0.17120000000E+03  0.17120000000E+03 0.  0.
         13    1    1    2    0    0  0.46698453495E+01  0.37607006637E+02  0.17640284101E+03  0.18042745879E+03  0.10566000000E+00 0.  1.
        994    1    1    2    0    0 -0.25740906506E+01 -0.33903146883E+02  0.75775544399E+01  0.17470806691E+03  0.17120000000E+03 0.  0.
        998    1    1    2    0    0 -0.20957546989E+01 -0.37038597540E+01  0.13160196008E+04  0.13160644743E+04  0.10000000000E+02 0. -1.
</event>
<event>
 5    1  0.7732857E-009  0.3846630E+03  0.7957747E-01  0.3431103E+00
         13   -1    0    0    0    0  0.00000000000E+00  0.00000000000E+00  0.14999999963E+04  0.15000000000E+04  0.10566000000E+00 0.  1.
        994   -1    0    0    0    0 -0.00000000000E+00 -0.00000000000E+00  0.11368683772E-12  0.17120000000E+03  0.17120000000E+03 0.  0.
         13    1    1    2    0    0  0.86866367744E+01 -0.15339305725E+02  0.88596858580E+02  0.90333639763E+02  0.10566000000E+00 0.  1.
        994    1    1    2    0    0 -0.90810931448E+01  0.36843329834E+01  0.21137934810E+01  0.17149329050E+03  0.17120000000E+03 0.  0.
        998    1    1    2    0    0  0.39445637040E+00  0.11654972742E+02  0.14092893442E+04  0.14093730697E+04  0.10000000000E+02 0.  1.
</event>
<event>
 5    1  0.7732857E-009  0.3850017E+03  0.7957747E-01  0.3429665E+00
         13   -1    0    0    0    0  0.00000000000E+00  0.00000000000E+00  0.14999999963E+04  0.15000000000E+04  0.10566000000E+00 0.  1.
        994   -1    0    0    0    0 -0.00000000000E+00 -0.00000000000E+00  0.11368683772E-12  0.17120000000E+03  0.17120000000E+03 0.  0.
         13    1    1    2    0    0  0.11741681649E+02  0.97447036954E+01  0.71245982993E+02  0.72861701838E+02  0.10566000000E+00 0.  1.
        994    1    1    2    0    0 -0.90707658234E+01 -0.55166998838E+01  0.20000522978E+01  0.17154052868E+03  0.17120000000E+03 0.  0.
        998    1    1    2    0    0 -0.26709158255E+01 -0.42280038116E+01  0.14267539610E+04  0.14267977695E+04  0.10000000000E+02 0.  1.
</event>
<event>
 5    1  0.7732857E-009  0.3772517E+03  0.7957747E-01  0.3463213E+00
         13   -1    0    0    0    0  0.00000000000E+00  0.00000000000E+00  0.14999999963E+04  0.15000000000E+04  0.10566000000E+00 0.  1.
        994   -1    0    0    0    0 -0.00000000000E+00 -0.00000000000E+00  0.11368683772E-12  0.17120000000E+03  0.17120000000E+03 0.  0.
         13    1    1    2    0    0  0.19416632719E+01 -0.13688301539E+03  0.80467217102E+03  0.81623406198E+03  0.10566000000E+00 0.  1.
        994    1    1    2    0    0 -0.20016771567E+02  0.13255606304E+03  0.68777776586E+02  0.22806052606E+03  0.17120000000E+03 0.  0.
        998    1    1    2    0    0  0.18075108295E+02  0.43269523514E+01  0.62655004867E+03  0.62690541196E+03  0.10000000000E+02 0. -1.
</event>
<event>
 5    1  0.7732857E-009  0.3807150E+03  0.7957747E-01  0.3448051E+00
         13   -1    0    0    0    0  0.00000000000E+00  0.00000000000E+00  0.14999999963E+04  0.15000000000E+04  0.10566000000E+00 0. -1.
        994   -1    0    0    0    0 -0.00000000000E+00 -0.00000000000E+00  0.11368683772E-12  0.17120000000E+03  0.17120000000E+03 0.  0.
         13    1    1    2    0    0 -0.94030323577E+01  0.32196497589E+02  0.28663015267E+02  0.44120415713E+02  0.10566000000E+00 0. -1.
        994    1    1    2    0    0  0.17617616042E+02  0.68426483575E+01  0.18019309589E+02  0.17318007319E+03  0.17120000000E+03 0.  0.
        998    1    1    2    0    0 -0.82145836843E+01 -0.39039145946E+02  0.14533176714E+04  0.14538995111E+04  0.10000000000E+02 0. -1.
</event>
<event>
 5    1  0.7732857E-009  0.3837034E+03  0.7957747E-01  0.3435190E+00
         13   -1    0    0    0    0  0.00000000000E+00  0.00000000000E+00  0.14999999963E+04  0.15000000000E+04  0.10566000000E+00 0. -1.
        994   -1    0    0    0    0 -0.00000000000E+00 -0.00000000000E+00  0.11368683772E-12  0.17120000000E+03  0.17120000000E+03 0.  0.
         13    1    1    2    0    0 -0.11761160013E+01 -0.31136944467E+02  0.18045591364E+03  0.18312629656E+03  0.10566000000E+00 0. -1.
        994    1    1    2    0    0  0.63690974657E+01  0.36680335687E+02  0.68661108215E+01  0.17533566638E+03  0.17120000000E+03 0.  0.
        998    1    1    2    0    0 -0.51929814644E+01 -0.55433912196E+01  0.13126779718E+04  0.13127380371E+04  0.10000000000E+02 0. -1.
</event>
<event>
 5    1  0.7732857E-009  0.3763968E+03  0.7957747E-01  0.3466999E+00
         13   -1    0    0    0    0  0.00000000000E+00  0.00000000000E+00  0.14999999963E+04  0.15000000000E+04  0.10566000000E+00 0.  1.
        994   -1    0    0    0    0 -0.00000000000E+00 -0.00000000000E+00  0.11368683772E-12  0.17120000000E+03  0.17120000000E+03 0.  0.
         13    1    1    2    0    0  0.14143104468E+02 -0.96533528534E+01  0.21709021112E+02  0.27649726707E+02  0.10566000000E+00 0.  1.
        994    1    1    2    0    0 -0.15539872617E+02  0.96376835929E+01  0.70952724442E+01  0.17231992188E+03  0.17120000000E+03 0.  0.
        998    1    1    2    0    0  0.13967681485E+01  0.15669260524E-01  0.14711957027E+04  0.14712303514E+04  0.10000000000E+02 0.  1.
</event>
<event>
 5    1  0.7732857E-009  0.3846278E+03  0.7957747E-01  0.3431252E+00
         13   -1    0    0    0    0  0.00000000000E+00  0.00000000000E+00  0.14999999963E+04  0.15000000000E+04  0.10566000000E+00 0.  1.
        994   -1    0    0    0    0 -0.00000000000E+00 -0.00000000000E+00  0.11368683772E-12  0.17120000000E+03  0.17120000000E+03 0.  0.
         13    1    1    2    0    0 -0.14221496807E+02  0.11893732381E+02  0.85912086898E+02  0.87889758679E+02  0.10566000000E+00 0.  1.
        994    1    1    2    0    0  0.24273376455E+02 -0.11487421892E+02  0.41931296481E+01  0.17334410865E+03  0.17120000000E+03 0.  0.
        998    1    1    2    0    0 -0.10051879647E+02 -0.40631048907E+00  0.14098947797E+04  0.14099661327E+04  0.10000000000E+02 0.  1.
</event>
<event>
 5    1  0.7732857E-009  0.3791849E+03  0.7957747E-01  0.3454715E+00
         13   -1    0    0    0    0  0.00000000000E+00  0.00000000000E+00  0.14999999963E+04  0.15000000000E+04  0.10566000000E+00 0. -1.
        994   -1    0    0    0    0 -0.00000000000E+00 -0.00000000000E+00  0.11368683772E-12  0.17120000000E+03  0.17120000000E+03 0.  0.
         13    1    1    2    0    0  0.43376966406E+02 -0.45936703599E+01  0.52301710865E+02  0.68103914318E+02  0.10566000000E+00 0. -1.
        994    1    1    2    0    0 -0.43500766654E+02 -0.13635158184E+01  0.22754756525E+02  0.17810501065E+03  0.17120000000E+03 0.  0.
        998    1    1    2    0    0  0.12380024800E+00  0.59571861782E+01  0.14249435289E+04  0.14249910750E+04  0.10000000000E+02 0. -1.
</event>
<event>
 5    1  0.7732857E-009  0.3827862E+03  0.7957747E-01  0.3439116E+00
         13   -1    0    0    0    0  0.00000000000E+00  0.00000000000E+00  0.14999999963E+04  0.15000000000E+04  0.10566000000E+00 0. -1.
        994   -1    0    0    0    0 -0.00000000000E+00 -0.00000000000E+00  0.11368683772E-12  0.17120000000E+03  0.17120000000E+03 0.  0.
         13    1    1    2    0    0  0.20401634039E+02 -0.49821770866E+02  0.72969692481E+02  0.90680883920E+02  0.10566000000E+00 0. -1.
        994    1    1    2    0    0 -0.11832703989E+02  0.45753507955E+02  0.26087789006E+02  0.17950879953E+03  0.17120000000E+03 0.  0.
        998    1    1    2    0    0 -0.85689300493E+01  0.40682629111E+01  0.14009425148E+04  0.14010103165E+04  0.10000000000E+02 0. -1.
</event>
<event>
 5    1  0.7732857E-009  0.3779877E+03  0.7957747E-01  0.3459968E+00
         13   -1    0    0    0    0  0.00000000000E+00  0.00000000000E+00  0.14999999963E+04  0.15000000000E+04  0.10566000000E+00 0.  1.
        994   -1    0    0    0    0 -0.00000000000E+00 -0.00000000000E+00  0.11368683772E-12  0.17120000000E+03  0.17120000000E+03 0.  0.
         13    1    1    2    0    0  0.54960881672E+01  0.21658152480E+02  0.53589319751E+02  0.58061251359E+02  0.10566000000E+00 0.  1.
        994    1    1    2    0    0  0.28413162896E+02  0.18821630092E+02  0.90713653378E+01  0.17479499780E+03  0.17120000000E+03 0.  0.
        998    1    1    2    0    0 -0.33909251063E+02 -0.40479782572E+02  0.14373393112E+04  0.14383437508E+04  0.10000000000E+02 0.  1.
</event>
<event>
 5    1  0.7732857E-009  0.3839767E+03  0.7957747E-01  0.3434024E+00
         13   -1    0    0    0    0  0.00000000000E+00  0.00000000000E+00  0.14999999963E+04  0.15000000000E+04  0.10566000000E+00 0.  1.
        994   -1    0    0    0    0 -0.00000000000E+00 -0.00000000000E+00  0.11368683772E-12  0.17120000000E+03  0.17120000000E+03 0.  0.
         13    1    1    2    0    0 -0.16650344350E+01 -0.14626544754E+02  0.49630210769E+02  0.51767529748E+02  0.10566000000E+00 0.  1.
        994    1    1    2    0    0  0.79188882496E+00  0.11989243631E+02  0.26155670182E+01  0.17164105057E+03  0.17120000000E+03 0.  0.
        998    1    1    2    0    0  0.87314561004E+00  0.26373011236E+01  0.14477542185E+04  0.14477914197E+04  0.10000000000E+02 0.  1.
</event>
<event>
 5    1  0.7732857E-009  0.3775290E+03  0.7957747E-01  0.3461989E+00
         13   -1    0    0    0    0  0.00000000000E+00  0.00000000000E+00  0.14999999963E+04  0.15000000000E+04  0.10566000000E+00 0.  1.
        994   -1    0    0    0    0 -0.00000000000E+00 -0.00000000000E+00  0.11368683772E-12  0.17120000000E+03  0.17120000000E+03 0.  0.
         13    1    1    2    0    0  0.60175357487E+02 -0.79751043316E+02  0.47416944709E+03  0.48458020830E+03  0.10566000000E+00 0.  1.
        994    1    1    2    0    0 -0.81876855239E+02  0.93034190911E+02  0.59037523560E+02  0.21944030917E+03  0.17120000000E+03 0.  0.
        998    1    1    2    0    0  0.21701497752E+02 -0.13283147596E+02  0.96679302563E+03  0.96717948253E+03  0.10000000000E+02 0.  1.
</event>
<event>
 5    1  0.7732857E-009  0.3795639E+03  0.7957747E-01  0.3453059E+00
         13   -1    0    0    0    0  0.00000000000E+00  0.00000000000E+00  0.14999999963E+04  0.15000000000E+04  0.10566000000E+00 0.  1.
        994   -1    0    0    0    0 -0.00000000000E+00 -0.00000000000E+00  0.11368683772E-12  0.17120000000E+03  0.17120000000E+03 0.  0.
         13    1    1    2    0    0  0.37231983245E+02  0.12836314720E+02  0.19083265662E+03  0.19485406218E+03  0.10566000000E+00 0.  1.
        994    1    1    2    0    0 -0.71078927876E+01 -0.16972562370E+02  0.54877569067E+01  0.17227346136E+03  0.17120000000E+03 0.  0.
        998    1    1    2    0    0 -0.30124090458E+02  0.41362476497E+01  0.13036795828E+04  0.13040724765E+04  0.10000000000E+02 0.  1.
</event>
<event>
 5    1  0.7732857E-009  0.3855344E+03  0.7957747E-01  0.3427409E+00
         13   -1    0    0    0    0  0.00000000000E+00  0.00000000000E+00  0.14999999963E+04  0.15000000000E+04  0.10566000000E+00 0.  1.
        994   -1    0    0    0    0 -0.00000000000E+00 -0.00000000000E+00  0.11368683772E-12  0.17120000000E+03  0.17120000000E+03 0.  0.
         13    1    1    2    0    0  0.57106738808E+01  0.10077912883E+02  0.50909175076E+02  0.52210452931E+02  0.10566000000E+00 0.  1.
        994    1    1    2    0    0  0.12441667683E+02 -0.10644475682E+02  0.22456873865E+01  0.17199588097E+03  0.17120000000E+03 0.  0.
        998    1    1    2    0    0 -0.18152341563E+02  0.56656279863E+00  0.14468451338E+04  0.14469936661E+04  0.10000000000E+02 0.  1.
</event>
<event>
 5    1  0.7732857E-009  0.3754595E+03  0.7957747E-01  0.3471170E+00
         13   -1    0    0    0    0  0.00000000000E+00  0.00000000000E+00  0.14999999963E+04  0.15000000000E+04  0.10566000000E+00 0. -1.
        994   -1    0    0    0    0 -0.00000000000E+00 -0.00000000000E+00  0.11368683772E-12  0.17120000000E+03  0.17120000000E+03 0.  0.
         13    1    1    2    0    0 -0.13479825338E+02  0.20009982972E+02  0.41198122885E+02  0.47743079110E+02  0.10566000000E+00 0. -1.
        994    1    1    2    0    0  0.11551380478E+02 -0.25244948567E+02  0.90632115876E+01  0.17367303655E+03  0.17120000000E+03 0.  0.
        998    1    1    2    0    0  0.19284448604E+01  0.52349655958E+01  0.14497386618E+04  0.14497838843E+04  0.10000000000E+02 0. -1.
</event>
<event>
 5    1  0.7732857E-009  0.3832343E+03  0.7957747E-01  0.3437196E+00
         13   -1    0    0    0    0  0.00000000000E+00  0.00000000000E+00  0.14999999963E+04  0.15000000000E+04  0.10566000000E+00 0.  1.
        994   -1    0    0    0    0 -0.00000000000E+00 -0.00000000000E+00  0.11368683772E-12  0.17120000000E+03  0.17120000000E+03 0.  0.
         13    1    1    2    0    0 -0.26233242049E+02 -0.79767338956E+01  0.14209987546E+03  0.14472110089E+03  0.10566000000E+00 0.  1.
        994    1    1    2    0    0  0.33194264658E+02 -0.24894282738E+02  0.82245690336E+01  0.17634814446E+03  0.17120000000E+03 0.  0.
        998    1    1    2    0    0 -0.69610226092E+01  0.32871016634E+02  0.13496755518E+04  0.13501307547E+04  0.10000000000E+02 0.  1.
</event>
<event>
 5    1  0.7732857E-009  0.3793920E+03  0.7957747E-01  0.3453810E+00
         13   -1    0    0    0    0  0.00000000000E+00  0.00000000000E+00  0.14999999963E+04  0.15000000000E+04  0.10566000000E+00 0.  1.
        994   -1    0    0    0    0 -0.00000000000E+00 -0.00000000000E+00  0.11368683772E-12  0.17120000000E+03  0.17120000000E+03 0.  0.
         13    1    1    2    0    0  0.63493907956E+02  0.42574056509E+02  0.35551304959E+03  0.36363933537E+03  0.10566000000E+00 0.  1.
        994    1    1    2    0    0 -0.92070626462E+02 -0.61443163077E+02  0.46639562787E+02  0.20913381210E+03  0.17120000000E+03 0.  0.
        998    1    1    2    0    0  0.28576718507E+02  0.18869106568E+02  0.10978473839E+04  0.10984268525E+04  0.10000000000E+02 0.  1.
</event>
<event>
 5    1  0.7732857E-009  0.3807423E+03  0.7957747E-01  0.3447933E+00
         13   -1    0    0    0    0  0.00000000000E+00  0.00000000000E+00  0.14999999963E+04  0.15000000000E+04  0.10566000000E+00 0. -1.
        994   -1    0    0    0    0 -0.00000000000E+00 -0.00000000000E+00  0.11368683772E-12  0.17120000000E+03  0.17120000000E+03 0.  0.
         13    1    1    2    0    0  0.31398087150E+02 -0.23219947607E+02  0.17884011025E+03  0.18305409594E+03  0.10566000000E+00 0. -1.
        994    1    1    2    0    0 -0.18560541470E+02  0.42572501861E+02  0.10985345547E+02  0.17772740203E+03  0.17120000000E+03 0.  0.
        998    1    1    2    0    0 -0.12837545681E+02 -0.19352554254E+02  0.13101745405E+04  0.13104185020E+04  0.10000000000E+02 0. -1.
</event>
<event>
 5    1  0.7732857E-009  0.3806659E+03  0.7957747E-01  0.3448264E+00
         13   -1    0    0    0    0  0.00000000000E+00  0.00000000000E+00  0.14999999963E+04  0.15000000000E+04  0.10566000000E+00 0. -1.
        994   -1    0    0    0    0 -0.00000000000E+00 -0.00000000000E+00  0.11368683772E-12  0.17120000000E+03  0.17120000000E+03 0.  0.
         13    1    1    2    0    0  0.13095480186E+02  0.69561114050E+01  0.27406979920E+02  0.31161399191E+02  0.10566000000E+00 0. -1.
        994    1    1    2    0    0 -0.97687565827E+01 -0.43895048053E+01  0.41800507450E+01  0.17158557393E+03  0.17120000000E+03 0.  0.
        998    1    1    2    0    0 -0.33267236032E+01 -0.25666065997E+01  0.14684129656E+04  0.14684530269E+04  0.10000000000E+02 0. -1.
</event>
<event>
 5    1  0.7732857E-009  0.3765107E+03  0.7957747E-01  0.3466494E+00
         13   -1    0    0    0    0  0.00000000000E+00  0.00000000000E+00  0.14999999963E+04  0.15000000000E+04  0.10566000000E+00 0.  1.
        994   -1    0    0    0    0 -0.00000000000E+00 -0.00000000000E+00  0.11368683772E-12  0.17120000000E+03  0.17120000000E+03 0.  0.
         13    1    1    2    0    0 -0.76711143611E+02  0.27598160121E+02  0.24696617675E+03  0.26007414638E+03  0.10566000000E+00 0.  1.
        994    1    1    2    0    0  0.28029884148E+02 -0.14205651597E+02  0.17964701695E+02  0.17498470062E+03  0.17120000000E+03 0.  0.
        998    1    1    2    0    0  0.48681259463E+02 -0.13392508524E+02  0.12350691178E+04  0.12361411530E+04  0.10000000000E+02 0.  1.
</event>
<event>
 5    1  0.7732857E-009  0.3786214E+03  0.7957747E-01  0.3457183E+00
         13   -1    0    0    0    0  0.00000000000E+00  0.00000000000E+00  0.14999999963E+04  0.15000000000E+04  0.10566000000E+00 0.  1.
        994   -1    0    0    0    0 -0.00000000000E+00 -0.00000000000E+00  0.11368683772E-12  0.17120000000E+03  0.17120000000E+03 0.  0.
         13    1    1    2    0    0  0.40163157057E+01 -0.24311652068E+02  0.59334532268E+02  0.64247841222E+02  0.10566000000E+00 0.  1.
        994    1    1    2    0    0 -0.10048143781E+02  0.21923208624E+02  0.67862164351E+01  0.17302336548E+03  0.17120000000E+03 0.  0.
        998    1    1    2    0    0  0.60318280754E+01  0.23884434445E+01  0.14338792476E+04  0.14339287933E+04  0.10000000000E+02 0.  1.
</event>
<event>
 5    1  0.7732857E-009  0.3818915E+03  0.7957747E-01  0.3442964E+00
         13   -1    0    0    0    0  0.00000000000E+00  0.00000000000E+00  0.14999999963E+04  0.15000000000E+04  0.10566000000E+00 0.  1.
        994   -1    0    0    0    0 -0.00000000000E+00 -0.00000000000E+00  0.11368683772E-12  0.17120000000E+03  0.17120000000E+03 0.  0.
         13    1    1    2    0    0  0.33269902964E+02 -0.27432017720E+02  0.24448005991E+03  0.24825372685E+03  0.10566000000E+00 0.  1.
        994    1    1    2    0    0 -0.34074580472E+02  0.27874103214E+02  0.96467353452E+01  0.17703260199E+03  0.17120000000E+03 0.  0.
        998    1    1    2    0    0  0.80467750784E+00 -0.44208549379E+00  0.12458732010E+04  0.12459136712E+04  0.10000000000E+02 0.  0.
</event>
<event>
 5    1  0.7732857E-009  0.3711401E+03  0.7957747E-01  0.3490667E+00
         13   -1    0    0    0    0  0.00000000000E+00  0.00000000000E+00  0.14999999963E+04  0.15000000000E+04  0.10566000000E+00 0.  1.
        994   -1    0    0    0    0 -0.00000000000E+00 -0.00000000000E+00  0.11368683772E-12  0.17120000000E+03  0.17120000000E+03 0.  0.
         13    1    1    2    0    0 -0.12401998669E+03 -0.85727089474E+02  0.54092284088E+03  0.56154040097E+03  0.10566000000E+00 0.  1.
        994    1    1    2    0    0  0.12570046541E+03  0.95646561455E+02  0.10507020978E+03  0.25553485223E+03  0.17120000000E+03 0.  0.
        998    1    1    2    0    0 -0.16804787170E+01 -0.99194719808E+01  0.85400694562E+03  0.85412474680E+03  0.10000000000E+02 0.  1.
</event>
<event>
 5    1  0.7732857E-009  0.3819175E+03  0.7957747E-01  0.3442852E+00
         13   -1    0    0    0    0  0.00000000000E+00  0.00000000000E+00  0.14999999963E+04  0.15000000000E+04  0.10566000000E+00 0.  1.
        994   -1    0    0    0    0 -0.00000000000E+00 -0.00000000000E+00  0.11368683772E-12  0.17120000000E+03  0.17120000000E+03 0.  0.
         13    1    1    2    0    0  0.42627716320E+02 -0.60067263507E+01  0.19612680012E+03  0.20079575655E+03  0.10566000000E+00 0.  1.
        994    1    1    2    0    0 -0.74505898529E+02  0.16933532958E+02  0.22809801529E+02  0.18885867865E+03  0.17120000000E+03 0.  0.
        998    1    1    2    0    0  0.31878182209E+02 -0.10926806608E+02  0.12810633946E+04  0.12815455648E+04  0.10000000000E+02 0.  1.
</event>
<event>
 5    1  0.7837891E-009  0.3856557E+03  0.7957747E-01  0.3426896E+00
         13   -1    0    0    0    0  0.00000000000E+00  0.00000000000E+00  0.14999999963E+04  0.15000000000E+04  0.10566000000E+00 0.  1.
        994   -1    0    0    0    0 -0.00000000000E+00 -0.00000000000E+00  0.11368683772E-12  0.17120000000E+03  0.17120000000E+03 0.  0.
         13    1    1    2    0    0  0.14593556236E+02 -0.11926373695E+01  0.84419694994E+02  0.85680163015E+02  0.10566000000E+00 0.  1.
        994    1    1    2    0    0 -0.67737414713E+01  0.32283162808E+01  0.14897486836E+01  0.17137084043E+03  0.17120000000E+03 0.  0.
        998    1    1    2    0    0 -0.78198147643E+01 -0.20356789112E+01  0.14140905526E+04  0.14141489966E+04  0.10000000000E+02 0.  1.
</event>
<event>
 5    1  0.7732857E-009  0.3721387E+03  0.7957747E-01  0.3486119E+00
         13   -1    0    0    0    0  0.00000000000E+00  0.00000000000E+00  0.14999999963E+04  0.15000000000E+04  0.10566000000E+00 0.  1.
        994   -1    0    0    0    0 -0.00000000000E+00 -0.00000000000E+00  0.11368683772E-12  0.17120000000E+03  0.17120000000E+03 0.  0.
         13    1    1    2    0    0 -0.11463234841E+02 -0.21712293145E+02  0.37351081270E+02  0.44698365325E+02  0.10566000000E+00 0.  1.
        994    1    1    2    0    0 -0.25219786508E+02 -0.11986575368E+02  0.10836397778E+02  0.17380041179E+03  0.17120000000E+03 0.  0.
        998    1    1    2    0    0  0.36683021349E+02  0.33698868513E+02  0.14518125172E+04  0.14527012229E+04  0.10000000000E+02 0.  1.
</event>
<event>
 5    1  0.7732857E-009  0.3689729E+03  0.7957747E-01  0.3500625E+00
         13   -1    0    0    0    0  0.00000000000E+00  0.00000000000E+00  0.14999999963E+04  0.15000000000E+04  0.10566000000E+00 0.  1.
        994   -1    0    0    0    0 -0.00000000000E+00 -0.00000000000E+00  0.11368683772E-12  0.17120000000E+03  0.17120000000E+03 0.  0.
         13    1    1    2    0    0  0.17919759038E+02 -0.37980317218E+02  0.94822000448E+02  0.10370556973E+03  0.10566000000E+00 0.  1.
        994    1    1    2    0    0  0.20333043996E+02  0.10591602824E+02  0.11632919240E+02  0.17311955273E+03  0.17120000000E+03 0.  0.
        998    1    1    2    0    0 -0.38252803035E+02  0.27388714394E+02  0.13935450766E+04  0.13943748775E+04  0.10000000000E+02 0.  1.
</event>
<event>
 5    1  0.7732857E-009  0.3820641E+03  0.7957747E-01  0.3442220E+00
         13   -1    0    0    0    0  0.00000000000E+00  0.00000000000E+00  0.14999999963E+04  0.15000000000E+04  0.10566000000E+00 0. -1.
        994   -1    0    0    0    0 -0.00000000000E+00 -0.00000000000E+00  0.11368683772E-12  0.17120000000E+03  0.17120000000E+03 0.  0.
         13    1    1    2    0    0 -0.16950955579E+02 -0.70927574258E+01  0.52225404508E+02  0.55363762002E+02  0.10566000000E+00 0. -1.
        994    1    1    2    0    0  0.17402806255E+02  0.42073130405E+01  0.41598668116E+01  0.17218392387E+03  0.17120000000E+03 0.  0.
        998    1    1    2    0    0 -0.45185067597E+00  0.28854443853E+01  0.14436147250E+04  0.14436523141E+04  0.10000000000E+02 0. -1.
</event>
<event>
 5    1  0.7732857E-009  0.3834568E+03  0.7957747E-01  0.3436243E+00
         13   -1    0    0    0    0  0.00000000000E+00  0.00000000000E+00  0.14999999963E+04  0.15000000000E+04  0.10566000000E+00 0. -1.
        994   -1    0    0    0    0 -0.00000000000E+00 -0.00000000000E+00  0.11368683772E-12  0.17120000000E+03  0.17120000000E+03 0.  0.
         13    1    1    2    0    0 -0.12669777477E+01 -0.21111614801E+02  0.94009790592E+02  0.96359521602E+02  0.10566000000E+00 0. -1.
        994    1    1    2    0    0  0.11502640867E+02  0.10447874482E+02  0.31967392154E+01  0.17193349868E+03  0.17120000000E+03 0.  0.
        998    1    1    2    0    0 -0.10235663120E+02  0.10663740319E+02  0.14027934665E+04  0.14029069797E+04  0.10000000000E+02 0. -1.
</event>
<event>
 5    1  0.7732857E-009  0.3832826E+03  0.7957747E-01  0.3436989E+00
         13   -1    0    0    0    0  0.00000000000E+00  0.00000000000E+00  0.14999999963E+04  0.15000000000E+04  0.10566000000E+00 0. -1.
        994   -1    0    0    0    0 -0.00000000000E+00 -0.00000000000E+00  0.11368683772E-12  0.17120000000E+03  0.17120000000E+03 0.  0.
         13    1    1    2    0    0  0.92564461874E+01  0.45186075066E+01  0.20328182566E+02  0.22789159271E+02  0.10566000000E+00 0. -1.
        994    1    1    2    0    0 -0.82441593741E+01 -0.38888694788E+01  0.27600193506E+01  0.17146471117E+03  0.17120000000E+03 0.  0.
        998    1    1    2    0    0 -0.10122868132E+01 -0.62973802778E+00  0.14769117944E+04  0.14769461296E+04  0.10000000000E+02 0. -1.
</event>
<event>
 5    1  0.9376005E-009  0.3864971E+03  0.7957747E-01  0.3423348E+00
         13   -1    0    0    0    0  0.00000000000E+00  0.00000000000E+00  0.14999999963E+04  0.15000000000E+04  0.10566000000E+00 0.  1.
        994   -1    0    0    0    0 -0.00000000000E+00 -0.00000000000E+00  0.11368683772E-12  0.17120000000E+03  0.17120000000E+03 0.  0.
         13    1    1    2    0    0  0.91652711545E+01 -0.49752447325E+01  0.61853527951E+02  0.62726591964E+02  0.10566000000E+00 0.  1.
        994    1    1    2    0    0 -0.82676516211E+01  0.21727903745E+01  0.11278649303E+01  0.17141699788E+03  0.17120000000E+03 0.  0.
        998    1    1    2    0    0 -0.89761953335E+00  0.28024543580E+01  0.14370186034E+04  0.14370564102E+04  0.10000000000E+02 0.  1.
</event>
<event>
 5    1  0.7732857E-009  0.4204223E+03  0.7957747E-01  0.3292063E+00
         13   -1    0    0    0    0  0.00000000000E+00  0.00000000000E+00  0.14999999963E+04  0.15000000000E+04  0.10566000000E+00 0. -1.
        994   -1    0    0    0    0 -0.00000000000E+00 -0.00000000000E+00  0.11368683772E-12  0.17120000000E+03  0.17120000000E+03 0.  0.
         13    1    1    2    0    0 -0.58767672414E+02  0.36485091193E+02  0.46619940422E+02  0.83416012907E+02  0.10566000000E+00 0. -1.
        994    1    1    2    0    0  0.40373577478E+02 -0.29756325056E+02  0.51429148466E+02  0.18566060958E+03  0.17120000000E+03 0.  0.
        998    1    1    2    0    0  0.18394094936E+02 -0.67287661366E+01  0.14019509074E+04  0.14021233775E+04  0.10000000000E+02 0. -1.
</event>
<event>
 5    1  0.7732857E-009  0.3817952E+03  0.7957747E-01  0.3443379E+00
         13   -1    0    0    0    0  0.00000000000E+00  0.00000000000E+00  0.14999999963E+04  0.15000000000E+04  0.10566000000E+00 0. -1.
        994   -1    0    0    0    0 -0.00000000000E+00 -0.00000000000E+00  0.11368683772E-12  0.17120000000E+03  0.17120000000E+03 0.  0.
         13    1    1    2    0    0  0.99065265431E+01  0.48350859250E+01  0.17007064224E+02  0.20267430069E+02  0.10566000000E+00 0. -1.
        994    1    1    2    0    0 -0.58128405163E+01 -0.29003635772E+02  0.61428929369E+01  0.17384526205E+03  0.17120000000E+03 0.  0.
        998    1    1    2    0    0 -0.40936860268E+01  0.24168549847E+02  0.14768500391E+04  0.14770873079E+04  0.10000000000E+02 0. -1.
</event>
<event>
 5    1  0.7732857E-009  0.3828632E+03  0.7957747E-01  0.3438785E+00
         13   -1    0    0    0    0  0.00000000000E+00  0.00000000000E+00  0.14999999963E+04  0.15000000000E+04  0.10566000000E+00 0. -1.
        994   -1    0    0    0    0 -0.00000000000E+00 -0.00000000000E+00  0.11368683772E-12  0.17120000000E+03  0.17120000000E+03 0.  0.
         13    1    1    2    0    0  0.19771561585E+02 -0.24929951112E+02  0.17427385941E+03  0.17715475254E+03  0.10566000000E+00 0. -1.
        994    1    1    2    0    0 -0.23196545407E+02  0.16569058440E+02  0.53904212675E+01  0.17364074999E+03  0.17120000000E+03 0.  0.
        998    1    1    2    0    0  0.34249838222E+01  0.83608926725E+01  0.13203357156E+04  0.13204044975E+04  0.10000000000E+02 0. -1.
</event>
<event>
 5    1  0.7732857E-009  0.3855208E+03  0.7957747E-01  0.3427466E+00
         13   -1    0    0    0    0  0.00000000000E+00  0.00000000000E+00  0.14999999963E+04  0.15000000000E+04  0.10566000000E+00 0.  1.
        994   -1    0    0    0    0 -0.00000000000E+00 -0.00000000000E+00  0.11368683772E-12  0.17120000000E+03  0.17120000000E+03 0.  0.
         13    1    1    2    0    0  0.41794611521E+01  0.11773536013E+02  0.56622230654E+02  0.57984241084E+02  0.10566000000E+00 0.  1.
        994    1    1    2    0    0 -0.57708456262E+01 -0.84341289973E+01  0.17147502794E+01  0.17151331598E+03  0.17120000000E+03 0.  0.
        998    1    1    2    0    0  0.15913844741E+01 -0.33394070158E+01  0.14416630153E+04  0.14417024429E+04  0.10000000000E+02 0.  1.
</event>
<event>
 5    1  0.7732857E-009  0.3746767E+03  0.7957747E-01  0.3474670E+00
         13   -1    0    0    0    0  0.00000000000E+00  0.00000000000E+00  0.14999999963E+04  0.15000000000E+04  0.10566000000E+00 0.  1.
        994   -1    0    0    0    0 -0.00000000000E+00 -0.00000000000E+00  0.11368683772E-12  0.17120000000E+03  0.17120000000E+03 0.  0.
         13    1    1    2    0    0  0.20890361836E+02  0.28126990733E+02  0.37929482250E+02  0.51635178059E+02  0.10566000000E+00 0.  1.
        994    1    1    2    0    0 -0.31795180814E+02 -0.38435389479E+02  0.22330319129E+02  0.17971170201E+03  0.17120000000E+03 0.  0.
        998    1    1    2    0    0  0.10904818977E+02  0.10308398745E+02  0.14397401949E+04  0.14398531199E+04  0.10000000000E+02 0.  1.
</event>
<event>
 5    1  0.7732857E-009  0.3828867E+03  0.7957747E-01  0.3438685E+00
         13   -1    0    0    0    0  0.00000000000E+00  0.00000000000E+00  0.14999999963E+04  0.15000000000E+04  0.10566000000E+00 0.  1.
        994   -1    0    0    0    0 -0.00000000000E+00 -0.00000000000E+00  0.11368683772E-12  0.17120000000E+03  0.17120000000E+03 0.  0.
         13    1    1    2    0    0  0.26220223846E+01  0.16136759096E+02  0.46776589466E+02  0.49551291422E+02  0.10566000000E+00 0.  1.
        994    1    1    2    0    0 -0.22624643765E+01 -0.21360303804E+02  0.42123044208E+01  0.17259364076E+03  0.17120000000E+03 0.  0.
        998    1    1    2    0    0 -0.35955800812E+00  0.52235447079E+01  0.14490111024E+04  0.14490550678E+04  0.10000000000E+02 0.  1.
</event>
<event>
 5    1  0.7732857E-009  0.3695237E+03  0.7957747E-01  0.3498083E+00
         13   -1    0    0    0    0  0.00000000000E+00  0.00000000000E+00  0.14999999963E+04  0.15000000000E+04  0.10566000000E+00 0. -1.
        994   -1    0    0    0    0 -0.00000000000E+00 -0.00000000000E+00  0.11368683772E-12  0.17120000000E+03  0.17120000000E+03 0.  0.
         13    1    1    2    0    0 -0.63047847991E+02 -0.31744939308E+02  0.24608344857E+03  0.25600751382E+03  0.10566000000E+00 0. -1.
        994    1    1    2    0    0  0.19587310286E+02  0.79547162855E+02  0.33135757214E+02  0.19266248272E+03  0.17120000000E+03 0.  0.
        998    1    1    2    0    0  0.43460537705E+02 -0.47802223547E+02  0.12207807905E+04  0.12225300035E+04  0.10000000000E+02 0. -1.
</event>
<event>
 5    1  0.7732857E-009  0.3852830E+03  0.7957747E-01  0.3428473E+00
         13   -1    0    0    0    0  0.00000000000E+00  0.00000000000E+00  0.14999999963E+04  0.15000000000E+04  0.10566000000E+00 0.  1.
        994   -1    0    0    0    0 -0.00000000000E+00 -0.00000000000E+00  0.11368683772E-12  0.17120000000E+03  0.17120000000E+03 0.  0.
         13    1    1    2    0    0  0.74387297445E-01  0.10173329707E+02  0.34729855612E+02  0.36189448817E+02  0.10566000000E+00 0.  1.
        994    1    1    2    0    0 -0.54825584462E+01 -0.66186609251E+01  0.17324074969E+01  0.17142434587E+03  0.17120000000E+03 0.  0.
        998    1    1    2    0    0  0.54081711488E+01 -0.35546687824E+01  0.14635377332E+04  0.14635862053E+04  0.10000000000E+02 0.  1.
</event>
<event>
 5    1  0.8192307E-009  0.3854605E+03  0.7957747E-01  0.3427721E+00
         13   -1    0    0    0    0  0.00000000000E+00  0.00000000000E+00  0.14999999963E+04  0.15000000000E+04  0.10566000000E+00 0.  1.
        994   -1    0    0    0    0 -0.00000000000E+00 -0.00000000000E+00  0.11368683772E-12  0.17120000000E+03  0.17120000000E+03 0.  0.
         13    1    1    2    0    0 -0.77650322960E+01 -0.11920654360E+02  0.69063297482E+02  0.70513459354E+02  0.10566000000E+00 0.  1.
        994    1    1    2    0    0  0.16112074435E+02  0.92411153401E+01  0.25353632063E+01  0.17222330046E+03  0.17120000000E+03 0.  0.
        998    1    1    2    0    0 -0.83470421386E+01  0.26795390199E+01  0.14284013356E+04  0.14284632402E+04  0.10000000000E+02 0.  1.
</event>
<event>
 5    1  0.7732857E-009  0.3795028E+03  0.7957747E-01  0.3453326E+00
         13   -1    0    0    0    0  0.00000000000E+00  0.00000000000E+00  0.14999999963E+04  0.15000000000E+04  0.10566000000E+00 0.  1.
        994   -1    0    0    0    0 -0.00000000000E+00 -0.00000000000E+00  0.11368683772E-12  0.17120000000E+03  0.17120000000E+03 0.  0.
         13    1    1    2    0    0 -0.38355026802E+02 -0.33194648909E+02  0.25660606375E+03  0.26157155028E+03  0.10566000000E+00 0.  1.
        994    1    1    2    0    0  0.40522114871E+02  0.21917203823E+02  0.11524022333E+02  0.17766442724E+03  0.17120000000E+03 0.  0.
        998    1    1    2    0    0 -0.21670880684E+01  0.11277445086E+02  0.12318699102E+04  0.12319640225E+04  0.10000000000E+02 0.  1.
</event>
<event>
 5    1  0.7732857E-009  0.3711020E+03  0.7957747E-01  0.3490842E+00
         13   -1    0    0    0    0  0.00000000000E+00  0.00000000000E+00  0.14999999963E+04  0.15000000000E+04  0.10566000000E+00 0. -1.
        994   -1    0    0    0    0 -0.00000000000E+00 -0.00000000000E+00  0.11368683772E-12  0.17120000000E+03  0.17120000000E+03 0.  0.
         13    1    1    2    0    0 -0.31752303729E+02  0.64176711591E+02  0.19336179795E+03  0.20619324715E+03  0.10566000000E+00 0. -1.
        994    1    1    2    0    0  0.38549989043E+02 -0.58082801293E+02  0.28779071826E+02  0.18707588951E+03  0.17120000000E+03 0.  0.
        998    1    1    2    0    0 -0.67976853145E+01 -0.60939102974E+01  0.12778591265E+04  0.12779308633E+04  0.10000000000E+02 0. -1.
</event>
<event>
 5    1  0.7732857E-009  0.3736230E+03  0.7957747E-01  0.3479404E+00
         13   -1    0    0    0    0  0.00000000000E+00  0.00000000000E+00  0.14999999963E+04  0.15000000000E+04  0.10566000000E+00 0.  1.
        994   -1    0    0    0    0 -0.00000000000E+00 -0.00000000000E+00  0.11368683772E-12  0.17120000000E+03  0.17120000000E+03 0.  0.
         13    1    1    2    0    0 -0.60469824554E+02 -0.46057036677E+01  0.14740995607E+03  0.15939736039E+03  0.10566000000E+00 0.  1.
        994    1    1    2    0    0  0.23073615096E+02 -0.64787382580E+01  0.14903898445E+02  0.17351061049E+03  0.17120000000E+03 0.  0.
        998    1    1    2    0    0  0.37396209458E+02  0.11084441926E+02  0.13376861418E+04  0.13382920291E+04  0.10000000000E+02 0.  1.
</event>
<event>
 5    1  0.7732857E-009  0.3840776E+03  0.7957747E-01  0.3433594E+00
         13   -1    0    0    0    0  0.00000000000E+00  0.00000000000E+00  0.14999999963E+04  0.15000000000E+04  0.10566000000E+00 0.  1.
        994   -1    0    0    0    0 -0.00000000000E+00 -0.00000000000E+00  0.11368683772E-12  0.17120000000E+03  0.17120000000E+03 0.  0.
         13    1    1    2    0    0 -0.15058472978E+02  0.13247409628E+02  0.91391035519E+02  0.93565934012E+02  0.10566000000E+00 0.  1.
        994    1    1    2    0    0  0.61304174703E+01 -0.23577928081E+02  0.40489179292E+01  0.17297206262E+03  0.17120000000E+03 0.  0.
        998    1    1    2    0    0  0.89280555081E+01  0.10330518452E+02  0.14045600428E+04  0.14046620034E+04  0.10000000000E+02 0.  1.
</event>
<event>
 5    1  0.7732857E-009  0.3824192E+03  0.7957747E-01  0.3440692E+00
         13   -1    0    0    0    0  0.00000000000E+00  0.00000000000E+00  0.14999999963E+04  0.15000000000E+04  0.10566000000E+00 0. -1.
        994   -1    0    0    0    0 -0.00000000000E+00 -0.00000000000E+00  0.11368683772E-12  0.17120000000E+03  0.17120000000E+03 0.  0.
         13    1    1    2    0    0 -0.61238928427E+01  0.17505978959E+02  0.59319836439E+02  0.62151552853E+02  0.10566000000E+00 0. -1.
        994    1    1    2    0    0 -0.46262747919E+01 -0.94161161777E+01  0.32820091116E+01  0.17155254952E+03  0.17120000000E+03 0.  0.
        998    1    1    2    0    0  0.10750167635E+02 -0.80898627809E+01  0.14373981507E+04  0.14374958976E+04  0.10000000000E+02 0. -1.
</event>
<event>
 5    1  0.7732857E-009  0.3722032E+03  0.7957747E-01  0.3485826E+00
         13   -1    0    0    0    0  0.00000000000E+00  0.00000000000E+00  0.14999999963E+04  0.15000000000E+04  0.10566000000E+00 0. -1.
        994   -1    0    0    0    0 -0.00000000000E+00 -0.00000000000E+00  0.11368683772E-12  0.17120000000E+03  0.17120000000E+03 0.  0.
         13    1    1    2    0    0  0.47638760792E+01  0.12312727578E+02  0.15362328336E+01  0.13291687292E+02  0.10566000000E+00 0. -1.
        994    1    1    2    0    0 -0.12956030779E+02 -0.14034601877E+02  0.13394923649E+02  0.17278221194E+03  0.17120000000E+03 0.  0.
        998    1    1    2    0    0  0.81921547001E+01  0.17218742988E+01  0.14850688398E+04  0.14851261008E+04  0.10000000000E+02 0. -1.
</event>
<event>
 5    1  0.7732857E-009  0.4473918E+03  0.7957747E-01  0.3201681E+00
         13   -1    0    0    0    0  0.00000000000E+00  0.00000000000E+00  0.14999999963E+04  0.15000000000E+04  0.10566000000E+00 0.  1.
        994   -1    0    0    0    0 -0.00000000000E+00 -0.00000000000E+00  0.11368683772E-12  0.17120000000E+03  0.17120000000E+03 0.  0.
         13    1    1    2    0    0  0.18321870505E+02  0.51461534834E+02  0.31032073829E+01  0.54713997901E+02  0.10566000000E+00 0.  1.
        994    1    1    2    0    0 -0.19795508921E+02 -0.58561180820E+02  0.78813453138E+02  0.19834887060E+03  0.17120000000E+03 0.  0.
        998    1    1    2    0    0  0.14736384161E+01  0.70996459859E+01  0.14180833358E+04  0.14181371315E+04  0.10000000000E+02 0.  1.
</event>
<event>
 5    1  0.7732857E-009  0.3839316E+03  0.7957747E-01  0.3434216E+00
         13   -1    0    0    0    0  0.00000000000E+00  0.00000000000E+00  0.14999999963E+04  0.15000000000E+04  0.10566000000E+00 0. -1.
        994   -1    0    0    0    0 -0.00000000000E+00 -0.00000000000E+00  0.11368683772E-12  0.17120000000E+03  0.17120000000E+03 0.  0.
         13    1    1    2    0    0 -0.20536765551E+02  0.73470728009E+01  0.10221844419E+03  0.10451966186E+03  0.10566000000E+00 0. -1.
        994    1    1    2    0    0  0.23290669842E+02 -0.53667542750E+01  0.40489702451E+01  0.17290775435E+03  0.17120000000E+03 0.  0.
        998    1    1    2    0    0 -0.27539042912E+01 -0.19803185260E+01  0.13937325818E+04  0.13937725838E+04  0.10000000000E+02 0. -1.
</event>
<event>
 5    1  0.1061716E-008  0.3861113E+03  0.7957747E-01  0.3424972E+00
         13   -1    0    0    0    0  0.00000000000E+00  0.00000000000E+00  0.14999999963E+04  0.15000000000E+04  0.10566000000E+00 0. -1.
        994   -1    0    0    0    0 -0.00000000000E+00 -0.00000000000E+00  0.11368683772E-12  0.17120000000E+03  0.17120000000E+03 0.  0.
         13    1    1    2    0    0  0.86582790940E+01 -0.86577337910E+01  0.71242626344E+02  0.72287240393E+02  0.10566000000E+00 0. -1.
        994    1    1    2    0    0 -0.98574481471E+01 -0.36157223374E+00  0.13982740962E+01  0.17148963581E+03  0.17120000000E+03 0.  0.
        998    1    1    2    0    0  0.11991690531E+01  0.90193060247E+01  0.14273590958E+04  0.14274231238E+04  0.10000000000E+02 0. -1.
</event>
<event>
 5    1  0.7732857E-009  0.3853376E+03  0.7957747E-01  0.3428242E+00
         13   -1    0    0    0    0  0.00000000000E+00  0.00000000000E+00  0.14999999963E+04  0.15000000000E+04  0.10566000000E+00 0. -1.
        994   -1    0    0    0    0 -0.00000000000E+00 -0.00000000000E+00  0.11368683772E-12  0.17120000000E+03  0.17120000000E+03 0.  0.
         13    1    1    2    0    0 -0.19778427167E+01 -0.10183280925E+02  0.36610381634E+02  0.38051836745E+02  0.10566000000E+00 0. -1.
        994    1    1    2    0    0 -0.10787072877E+01  0.83185261393E+01  0.16937833474E+01  0.17141374037E+03  0.17120000000E+03 0.  0.
        998    1    1    2    0    0  0.30565500044E+01  0.18647547861E+01  0.14616958313E+04  0.14617344229E+04  0.10000000000E+02 0. -1.
</event>
<event>
 5    1  0.7732857E-009  0.3761217E+03  0.7957747E-01  0.3468221E+00
         13   -1    0    0    0    0  0.00000000000E+00  0.00000000000E+00  0.14999999963E+04  0.15000000000E+04  0.10566000000E+00 0.  1.
        994   -1    0    0    0    0 -0.00000000000E+00 -0.00000000000E+00  0.11368683772E-12  0.17120000000E+03  0.17120000000E+03 0.  0.
         13    1    1    2    0    0 -0.58941375567E+01  0.42613775559E+02  0.13611611136E+03  0.14275251892E+03  0.10566000000E+00 0.  1.
        994    1    1    2    0    0  0.10685443649E+02 -0.43096873739E+02  0.12809492964E+02  0.17732750024E+03  0.17120000000E+03 0.  0.
        998    1    1    2    0    0 -0.47913060927E+01  0.48309817981E+00  0.13510743920E+04  0.13511199808E+04  0.10000000000E+02 0.  1.
</event>
<event>
 5    1  0.8655648E-009  0.3852274E+03  0.7957747E-01  0.3428709E+00
         13   -1    0    0    0    0  0.00000000000E+00  0.00000000000E+00  0.14999999963E+04  0.15000000000E+04  0.10566000000E+00 0. -1.
        994   -1    0    0    0    0 -0.00000000000E+00 -0.00000000000E+00  0.11368683772E-12  0.17120000000E+03  0.17120000000E+03 0.  0.
         13    1    1    2    0    0 -0.94355847271E+01 -0.10976047506E+02  0.65384676504E+02  0.66967685966E+02  0.10566000000E+00 0. -1.
        994    1    1    2    0    0  0.16740713390E+02  0.97580223521E+01  0.27521513705E+01  0.17231507427E+03  0.17120000000E+03 0.  0.
        998    1    1    2    0    0 -0.73051286634E+01  0.12180251537E+01  0.14318631684E+04  0.14319172398E+04  0.10000000000E+02 0. -1.
</event>
<event>
 5    1  0.7732857E-009  0.3721111E+03  0.7957747E-01  0.3486245E+00
         13   -1    0    0    0    0  0.00000000000E+00  0.00000000000E+00  0.14999999963E+04  0.15000000000E+04  0.10566000000E+00 0.  1.
        994   -1    0    0    0    0 -0.00000000000E+00 -0.00000000000E+00  0.11368683772E-12  0.17120000000E+03  0.17120000000E+03 0.  0.
         13    1    1    2    0    0  0.24925268649E+02 -0.69905306628E+01  0.23639668542E+02  0.35056834269E+02  0.10566000000E+00 0.  1.
        994    1    1    2    0    0  0.18070700793E+01  0.14939495084E+02  0.12857410858E+02  0.17234038131E+03  0.17120000000E+03 0.  0.
        998    1    1    2    0    0 -0.26732338728E+02 -0.79489644209E+01  0.14635029169E+04  0.14638027844E+04  0.10000000000E+02 0.  1.
</event>
<event>
 5    1  0.7732857E-009  0.3725884E+03  0.7957747E-01  0.3484079E+00
         13   -1    0    0    0    0  0.00000000000E+00  0.00000000000E+00  0.14999999963E+04  0.15000000000E+04  0.10566000000E+00 0.  1.
        994   -1    0    0    0    0 -0.00000000000E+00 -0.00000000000E+00  0.11368683772E-12  0.17120000000E+03  0.17120000000E+03 0.  0.
         13    1    1    2    0    0  0.44060588398E+01 -0.54126244376E+02  0.12378338624E+03  0.13517174838E+03  0.10566000000E+00 0.  1.
        994    1    1    2    0    0  0.68018301331E+01  0.16586927696E+02  0.13448686065E+02  0.17266064468E+03  0.17120000000E+03 0.  0.
        998    1    1    2    0    0 -0.11207888973E+02  0.37539316680E+02  0.13627679240E+04  0.13633676069E+04  0.10000000000E+02 0.  1.
</event>
<event>
 5    1  0.7732857E-009  0.3756568E+03  0.7957747E-01  0.3470291E+00
         13   -1    0    0    0    0  0.00000000000E+00  0.00000000000E+00  0.14999999963E+04  0.15000000000E+04  0.10566000000E+00 0. -1.
        994   -1    0    0    0    0 -0.00000000000E+00 -0.00000000000E+00  0.11368683772E-12  0.17120000000E+03  0.17120000000E+03 0.  0.
         13    1    1    2    0    0 -0.45402901198E+00 -0.12426566204E+02  0.93425532447E+01  0.15553782664E+02  0.10566000000E+00 0. -1.
        994    1    1    2    0    0  0.33087001079E+01  0.84433429939E+01  0.66208161867E+01  0.17156780801E+03  0.17120000000E+03 0.  0.
        998    1    1    2    0    0 -0.28546710959E+01  0.39832232106E+01  0.14840366268E+04  0.14840784093E+04  0.10000000000E+02 0. -1.
</event>
<event>
 5    1  0.7732857E-009  0.3711172E+03  0.7957747E-01  0.3490772E+00
         13   -1    0    0    0    0  0.00000000000E+00  0.00000000000E+00  0.14999999963E+04  0.15000000000E+04  0.10566000000E+00 0.  1.
        994   -1    0    0    0    0 -0.00000000000E+00 -0.00000000000E+00  0.11368683772E-12  0.17120000000E+03  0.17120000000E+03 0.  0.
         13    1    1    2    0    0  0.35133145544E+02  0.34060833038E+02  0.13932730637E+03  0.14767053778E+03  0.10566000000E+00 0.  1.
        994    1    1    2    0    0 -0.15625393738E+02 -0.15967622006E+02  0.10407302264E+02  0.17296493813E+03  0.17120000000E+03 0.  0.
        998    1    1    2    0    0 -0.19507751806E+02 -0.18093211031E+02  0.13502653876E+04  0.13505645241E+04  0.10000000000E+02 0.  1.
</event>
<event>
 5    1  0.7732857E-009  0.3811815E+03  0.7957747E-01  0.3446030E+00
         13   -1    0    0    0    0  0.00000000000E+00  0.00000000000E+00  0.14999999963E+04  0.15000000000E+04  0.10566000000E+00 0.  1.
        994   -1    0    0    0    0 -0.00000000000E+00 -0.00000000000E+00  0.11368683772E-12  0.17120000000E+03  0.17120000000E+03 0.  0.
         13    1    1    2    0    0 -0.63938372849E+01  0.17754908935E+02  0.47453192119E+02  0.51067940558E+02  0.10566000000E+00 0.  1.
        994    1    1    2    0    0  0.68812702717E+00 -0.21997493412E+02  0.51524526973E+01  0.17268570006E+03  0.17120000000E+03 0.  0.
        998    1    1    2    0    0  0.57057102577E+01  0.42425844768E+01  0.14473943515E+04  0.14474463594E+04  0.10000000000E+02 0.  1.
</event>
<event>
 5    1  0.7732857E-009  0.3748841E+03  0.7957747E-01  0.3473741E+00
         13   -1    0    0    0    0  0.00000000000E+00  0.00000000000E+00  0.14999999963E+04  0.15000000000E+04  0.10566000000E+00 0.  1.
        994   -1    0    0    0    0 -0.00000000000E+00 -0.00000000000E+00  0.11368683772E-12  0.17120000000E+03  0.17120000000E+03 0.  0.
         13    1    1    2    0    0  0.29468342663E+02 -0.20633553475E+02  0.93346992251E+02  0.10003898677E+03  0.10566000000E+00 0.  1.
        994    1    1    2    0    0  0.28713799778E+02  0.85504281692E+02  0.34927081319E+02  0.19663368352E+03  0.17120000000E+03 0.  0.
        998    1    1    2    0    0 -0.58182142440E+02 -0.64870728217E+02  0.13717259227E+04  0.13745273297E+04  0.10000000000E+02 0.  1.
</event>
<event>
 5    1  0.7732857E-009  0.4017557E+03  0.7957747E-01  0.3361576E+00
         13   -1    0    0    0    0  0.00000000000E+00  0.00000000000E+00  0.14999999963E+04  0.15000000000E+04  0.10566000000E+00 0. -1.
        994   -1    0    0    0    0 -0.00000000000E+00 -0.00000000000E+00  0.11368683772E-12  0.17120000000E+03  0.17120000000E+03 0.  0.
         13    1    1    2    0    0 -0.58940776396E+02  0.98792558330E+02  0.22116484947E+03  0.24929477835E+03  0.10566000000E+00 0. -1.
        994    1    1    2    0    0 -0.13238736855E+02 -0.95954941234E+02  0.66885542942E+02  0.20776364156E+03  0.17120000000E+03 0.  0.
        998    1    1    2    0    0  0.72179513251E+02 -0.28376170963E+01  0.12119496039E+04  0.12141415801E+04  0.10000000000E+02 0. -1.
</event>
<event>
 5    1  0.7732857E-009  0.3729526E+03  0.7957747E-01  0.3482431E+00
         13   -1    0    0    0    0  0.00000000000E+00  0.00000000000E+00  0.14999999963E+04  0.15000000000E+04  0.10566000000E+00 0. -1.
        994   -1    0    0    0    0 -0.00000000000E+00 -0.00000000000E+00  0.11368683772E-12  0.17120000000E+03  0.17120000000E+03 0.  0.
         13    1    1    2    0    0 -0.72382140788E+02  0.59423906384E+02  0.42347955344E+03  0.43371110004E+03  0.10566000000E+00 0. -1.
        994    1    1    2    0    0  0.60542872723E+02 -0.64626099911E+02  0.35071627357E+02  0.19591179462E+03  0.17120000000E+03 0.  0.
        998    1    1    2    0    0  0.11839268065E+02  0.52021935270E+01  0.10414488155E+04  0.10415771053E+04  0.10000000000E+02 0. -1.
</event>
<event>
 5    1  0.7732857E-009  0.3790479E+03  0.7957747E-01  0.3455315E+00
         13   -1    0    0    0    0  0.00000000000E+00  0.00000000000E+00  0.14999999963E+04  0.15000000000E+04  0.10566000000E+00 0.  1.
        994   -1    0    0    0    0 -0.00000000000E+00 -0.00000000000E+00  0.11368683772E-12  0.17120000000E+03  0.17120000000E+03 0.  0.
         13    1    1    2    0    0 -0.13550408413E+03  0.10131750822E+02  0.82173868056E+03  0.83289764046E+03  0.10566000000E+00 0.  1.
        994    1    1    2    0    0  0.13761509900E+03  0.13187611549E+01  0.70999076446E+02  0.23084619005E+03  0.17120000000E+03 0.  0.
        998    1    1    2    0    0 -0.21110148681E+01 -0.11450511977E+02  0.60726223927E+03  0.60745616949E+03  0.10000000000E+02 0. -1.
</event>
<event>
 5    1  0.7732857E-009  0.3709985E+03  0.7957747E-01  0.3491315E+00
         13   -1    0    0    0    0  0.00000000000E+00  0.00000000000E+00  0.14999999963E+04  0.15000000000E+04  0.10566000000E+00 0. -1.
        994   -1    0    0    0    0 -0.00000000000E+00 -0.00000000000E+00  0.11368683772E-12  0.17120000000E+03  0.17120000000E+03 0.  0.
         13    1    1    2    0    0  0.27169678570E+02 -0.21825051579E+02  0.63757914880E+02  0.72660905471E+02  0.10566000000E+00 0. -1.
        994    1    1    2    0    0 -0.22942476276E+02  0.26011289644E+02  0.12904511355E+02  0.17515396319E+03  0.17120000000E+03 0.  0.
        998    1    1    2    0    0 -0.42272022938E+01 -0.41862380647E+01  0.14233375700E+04  0.14233851313E+04  0.10000000000E+02 0. -1.
</event>
<event>
 5    1  0.1209731E-008  0.3862399E+03  0.7957747E-01  0.3424431E+00
         13   -1    0    0    0    0  0.00000000000E+00  0.00000000000E+00  0.14999999963E+04  0.15000000000E+04  0.10566000000E+00 0. -1.
        994   -1    0    0    0    0 -0.00000000000E+00 -0.00000000000E+00  0.11368683772E-12  0.17120000000E+03  0.17120000000E+03 0.  0.
         13    1    1    2    0    0 -0.73416647245E+01  0.74810089592E+01  0.54893900606E+02  0.55885749738E+02  0.10566000000E+00 0. -1.
        994    1    1    2    0    0  0.84453758155E+01 -0.18498341976E+01  0.12606750813E+01  0.17142279767E+03  0.17120000000E+03 0.  0.
        998    1    1    2    0    0 -0.11037110910E+01 -0.56311747616E+01  0.14438454206E+04  0.14438914526E+04  0.10000000000E+02 0. -1.
</event>
<event>
 5    1  0.7732857E-009  0.3838612E+03  0.7957747E-01  0.3434516E+00
         13   -1    0    0    0    0  0.00000000000E+00  0.00000000000E+00  0.14999999963E+04  0.15000000000E+04  0.10566000000E+00 0. -1.
        994   -1    0    0    0    0 -0.00000000000E+00 -0.00000000000E+00  0.11368683772E-12  0.17120000000E+03  0.17120000000E+03 0.  0.
         13    1    1    2    0    0  0.46346240769E+01 -0.19522070809E+02  0.10253709363E+03  0.10448185356E+03  0.10566000000E+00 0. -1.
        994    1    1    2    0    0  0.80561538430E+01 -0.21064182936E+01  0.24255091639E+01  0.17141954879E+03  0.17120000000E+03 0.  0.
        998    1    1    2    0    0 -0.12690777920E+02  0.21628489103E+02  0.13950373935E+04  0.13952985977E+04  0.10000000000E+02 0. -1.
</event>
<event>
 5    1  0.7732857E-009  0.3749400E+03  0.7957747E-01  0.3473491E+00
         13   -1    0    0    0    0  0.00000000000E+00  0.00000000000E+00  0.14999999963E+04  0.15000000000E+04  0.10566000000E+00 0. -1.
        994   -1    0    0    0    0 -0.00000000000E+00 -0.00000000000E+00  0.11368683772E-12  0.17120000000E+03  0.17120000000E+03 0.  0.
         13    1    1    2    0    0  0.36311068972E+02 -0.36857714223E+02  0.15562232605E+03  0.16399787912E+03  0.10566000000E+00 0. -1.
        994    1    1    2    0    0 -0.99224195845E+02  0.13076519924E+02  0.41565642664E+02  0.20261682819E+03  0.17120000000E+03 0.  0.
        998    1    1    2    0    0  0.62913126873E+02  0.23781194300E+02  0.13028120276E+04  0.13045852927E+04  0.10000000000E+02 0. -1.
</event>
<event>
 5    1  0.7732857E-009  0.3846637E+03  0.7957747E-01  0.3431100E+00
         13   -1    0    0    0    0  0.00000000000E+00  0.00000000000E+00  0.14999999963E+04  0.15000000000E+04  0.10566000000E+00 0.  1.
        994   -1    0    0    0    0 -0.00000000000E+00 -0.00000000000E+00  0.11368683772E-12  0.17120000000E+03  0.17120000000E+03 0.  0.
         13    1    1    2    0    0  0.17697073984E+02  0.28451005536E+01  0.10307796993E+03  0.10462485399E+03  0.10566000000E+00 0.  1.
        994    1    1    2    0    0  0.81846611296E+01 -0.82606805396E+01  0.22425040373E+01  0.17160913829E+03  0.17120000000E+03 0.  0.
        998    1    1    2    0    0 -0.25881735113E+02  0.54155799860E+01  0.13946795223E+04  0.13949660077E+04  0.10000000000E+02 0.  1.
</event>
<event>
 5    1  0.7732857E-009  0.3783900E+03  0.7957747E-01  0.3458199E+00
         13   -1    0    0    0    0  0.00000000000E+00  0.00000000000E+00  0.14999999963E+04  0.15000000000E+04  0.10566000000E+00 0.  1.
        994   -1    0    0    0    0 -0.00000000000E+00 -0.00000000000E+00  0.11368683772E-12  0.17120000000E+03  0.17120000000E+03 0.  0.
         13    1    1    2    0    0 -0.25722919299E+01  0.58559192335E+02  0.11097911083E+03  0.12550764876E+03  0.10566000000E+00 0.  1.
        994    1    1    2    0    0  0.83895794830E+01 -0.24543740575E+02  0.17872910800E+02  0.17407372342E+03  0.17120000000E+03 0.  0.
        998    1    1    2    0    0 -0.58172875531E+01 -0.34015451761E+02  0.13711479747E+04  0.13716186278E+04  0.10000000000E+02 0.  1.
</event>
<event>
 5    1  0.7732857E-009  0.3802142E+03  0.7957747E-01  0.3450226E+00
         13   -1    0    0    0    0  0.00000000000E+00  0.00000000000E+00  0.14999999963E+04  0.15000000000E+04  0.10566000000E+00 0. -1.
        994   -1    0    0    0    0 -0.00000000000E+00 -0.00000000000E+00  0.11368683772E-12  0.17120000000E+03  0.17120000000E+03 0.  0.
         13    1    1    2    0    0  0.36084743993E+01 -0.12286027334E+02  0.18585764792E+02  0.22570099071E+02  0.10566000000E+00 0. -1.
        994    1    1    2    0    0 -0.51559584749E+00  0.11322244620E+02  0.44543086934E+01  0.17163257246E+03  0.17120000000E+03 0.  0.
        998    1    1    2    0    0 -0.30928785518E+01  0.96378271416E+00  0.14769599228E+04  0.14769973285E+04  0.10000000000E+02 0. -1.
</event>
<event>
 5    1  0.7732857E-009  0.3802162E+03  0.7957747E-01  0.3450218E+00
         13   -1    0    0    0    0  0.00000000000E+00  0.00000000000E+00  0.14999999963E+04  0.15000000000E+04  0.10566000000E+00 0.  1.
        994   -1    0    0    0    0 -0.00000000000E+00 -0.00000000000E+00  0.11368683772E-12  0.17120000000E+03  0.17120000000E+03 0.  0.
         13    1    1    2    0    0 -0.21193598268E+02  0.23769636995E+02  0.12287672690E+03  0.12693646217E+03  0.10566000000E+00 0.  1.
        994    1    1    2    0    0  0.23383117825E+02 -0.81522855763E+01  0.60752443218E+01  0.17308835476E+03  0.17120000000E+03 0.  0.
        998    1    1    2    0    0 -0.21895195568E+01 -0.15617351418E+02  0.13710480251E+04  0.13711751831E+04  0.10000000000E+02 0.  1.
</event>
<event>
 5    1  0.7732857E-009  0.3804198E+03  0.7957747E-01  0.3449333E+00
         13   -1    0    0    0    0  0.00000000000E+00  0.00000000000E+00  0.14999999963E+04  0.15000000000E+04  0.10566000000E+00 0. -1.
        994   -1    0    0    0    0 -0.00000000000E+00 -0.00000000000E+00  0.11368683772E-12  0.17120000000E+03  0.17120000000E+03 0.  0.
         13    1    1    2    0    0  0.28704482820E+01 -0.10986691020E+02  0.14524613361E+02  0.18436984846E+02  0.10566000000E+00 0. -1.
        994    1    1    2    0    0 -0.44863792078E+00  0.15003292472E+02  0.46738469978E+01  0.17192028649E+03  0.17120000000E+03 0.  0.
        998    1    1    2    0    0 -0.24218103613E+01 -0.40166014517E+01  0.14808015359E+04  0.14808427287E+04  0.10000000000E+02 0. -1.
</event>
<event>
 5    1  0.7732857E-009  0.3773994E+03  0.7957747E-01  0.3462561E+00
         13   -1    0    0    0    0  0.00000000000E+00  0.00000000000E+00  0.14999999963E+04  0.15000000000E+04  0.10566000000E+00 0.  1.
        994   -1    0    0    0    0 -0.00000000000E+00 -0.00000000000E+00  0.11368683772E-12  0.17120000000E+03  0.17120000000E+03 0.  0.
         13    1    1    2    0    0 -0.50668419716E+02 -0.84952797994E+01  0.79204968046E+02  0.94408138752E+02  0.10566000000E+00 0.  1.
        994    1    1    2    0    0  0.50111765166E+02  0.12360445927E+02  0.24530295186E+02  0.18048585821E+03  0.17120000000E+03 0.  0.
        998    1    1    2    0    0  0.55665454916E+00 -0.38651661275E+01  0.13962647330E+04  0.13963060030E+04  0.10000000000E+02 0.  1.
</event>
<event>
 5    1  0.7732857E-009  0.3829635E+03  0.7957747E-01  0.3438356E+00
         13   -1    0    0    0    0  0.00000000000E+00  0.00000000000E+00  0.14999999963E+04  0.15000000000E+04  0.10566000000E+00 0. -1.
        994   -1    0    0    0    0 -0.00000000000E+00 -0.00000000000E+00  0.11368683772E-12  0.17120000000E+03  0.17120000000E+03 0.  0.
         13    1    1    2    0    0  0.54918068497E+01  0.13220095834E+02  0.36985924725E+02  0.39659811751E+02  0.10566000000E+00 0. -1.
        994    1    1    2    0    0 -0.82802403583E+01 -0.13670305308E+02  0.34907117476E+01  0.17197983805E+03  0.17120000000E+03 0.  0.
        998    1    1    2    0    0  0.27884335087E+01  0.45020947422E+00  0.14595233598E+04  0.14595603502E+04  0.10000000000E+02 0. -1.
</event>
<event>
 5    1  0.7732857E-009  0.3799459E+03  0.7957747E-01  0.3451394E+00
         13   -1    0    0    0    0  0.00000000000E+00  0.00000000000E+00  0.14999999963E+04  0.15000000000E+04  0.10566000000E+00 0. -1.
        994   -1    0    0    0    0 -0.00000000000E+00 -0.00000000000E+00  0.11368683772E-12  0.17120000000E+03  0.17120000000E+03 0.  0.
         13    1    1    2    0    0  0.56118109853E+02 -0.20623854249E+02  0.31241648491E+03  0.31808592679E+03  0.10566000000E+00 0. -1.
        994    1    1    2    0    0 -0.65729058356E+02  0.20580165340E+02  0.20188180400E+02  0.18563635136E+03  0.17120000000E+03 0.  0.
        998    1    1    2    0    0  0.96109485032E+01  0.43688908820E-01  0.11673953310E+04  0.11674777218E+04  0.10000000000E+02 0. -1.
</event>
<event>
 5    1  0.7732857E-009  0.3835698E+03  0.7957747E-01  0.3435760E+00
         13   -1    0    0    0    0  0.00000000000E+00  0.00000000000E+00  0.14999999963E+04  0.15000000000E+04  0.10566000000E+00 0. -1.
        994   -1    0    0    0    0 -0.00000000000E+00 -0.00000000000E+00  0.11368683772E-12  0.17120000000E+03  0.17120000000E+03 0.  0.
         13    1    1    2    0    0 -0.19928805240E+02  0.56200304929E+01  0.91495349780E+02  0.93809126509E+02  0.10566000000E+00 0. -1.
        994    1    1    2    0    0  0.81270851693E+01 -0.16680813001E+02  0.34802305254E+01  0.17223777472E+03  0.17120000000E+03 0.  0.
        998    1    1    2    0    0  0.11801720070E+02  0.11060782508E+02  0.14050244160E+04  0.14051530988E+04  0.10000000000E+02 0. -1.
</event>
<event>
 5    1  0.7732857E-009  0.3760724E+03  0.7957747E-01  0.3468440E+00
         13   -1    0    0    0    0  0.00000000000E+00  0.00000000000E+00  0.14999999963E+04  0.15000000000E+04  0.10566000000E+00 0.  1.
        994   -1    0    0    0    0 -0.00000000000E+00 -0.00000000000E+00  0.11368683772E-12  0.17120000000E+03  0.17120000000E+03 0.  0.
         13    1    1    2    0    0  0.70432977714E+02 -0.54789102787E+02  0.19414230989E+03  0.21366772752E+03  0.10566000000E+00 0.  1.
        994    1    1    2    0    0 -0.11339144960E+03  0.70059297891E+02  0.80707246549E+02  0.23149303598E+03  0.17120000000E+03 0.  0.
        998    1    1    2    0    0  0.42958471887E+02 -0.15270195103E+02  0.12251504398E+04  0.12260392365E+04  0.10000000000E+02 0.  1.
</event>
<event>
 5    1  0.7732857E-009  0.3840725E+03  0.7957747E-01  0.3433616E+00
         13   -1    0    0    0    0  0.00000000000E+00  0.00000000000E+00  0.14999999963E+04  0.15000000000E+04  0.10566000000E+00 0.  1.
        994   -1    0    0    0    0 -0.00000000000E+00 -0.00000000000E+00  0.11368683772E-12  0.17120000000E+03  0.17120000000E+03 0.  0.
         13    1    1    2    0    0 -0.16146228645E+01  0.11069677566E+02  0.29085411874E+02  0.31162752066E+02  0.10566000000E+00 0.  1.
        994    1    1    2    0    0  0.27071653462E+01 -0.96441006238E+01  0.24223816627E+01  0.17150989871E+03  0.17120000000E+03 0.  0.
        998    1    1    2    0    0 -0.10925424817E+01 -0.14255769417E+01  0.14684922027E+04  0.14685273492E+04  0.10000000000E+02 0.  1.
</event>
<event>
 5    1  0.7732857E-009  0.3798024E+03  0.7957747E-01  0.3452019E+00
         13   -1    0    0    0    0  0.00000000000E+00  0.00000000000E+00  0.14999999963E+04  0.15000000000E+04  0.10566000000E+00 0. -1.
        994   -1    0    0    0    0 -0.00000000000E+00 -0.00000000000E+00  0.11368683772E-12  0.17120000000E+03  0.17120000000E+03 0.  0.
         13    1    1    2    0    0 -0.23688150853E+02  0.29369569782E+02  0.14526052042E+03  0.15008107835E+03  0.10566000000E+00 0. -1.
        994    1    1    2    0    0  0.25576177789E+02 -0.37190701429E+02  0.11078175669E+02  0.17739632217E+03  0.17120000000E+03 0.  0.
        998    1    1    2    0    0 -0.18880269357E+01  0.78211316471E+01  0.13436613002E+04  0.13437225995E+04  0.10000000000E+02 0. -1.
</event>
<event>
 5    1  0.7732857E-009  0.3809394E+03  0.7957747E-01  0.3447078E+00
         13   -1    0    0    0    0  0.00000000000E+00  0.00000000000E+00  0.14999999963E+04  0.15000000000E+04  0.10566000000E+00 0. -1.
        994   -1    0    0    0    0 -0.00000000000E+00 -0.00000000000E+00  0.11368683772E-12  0.17120000000E+03  0.17120000000E+03 0.  0.
         13    1    1    2    0    0  0.48064874592E+02 -0.11836940722E+02  0.21887018247E+03  0.22439811335E+03  0.10566000000E+00 0. -1.
        994    1    1    2    0    0 -0.82622978533E+02  0.12823107490E+02  0.27319792795E+02  0.19247545232E+03  0.17120000000E+03 0.  0.
        998    1    1    2    0    0  0.34558103941E+02 -0.98616676870E+00  0.12538100210E+04  0.12543264343E+04  0.10000000000E+02 0. -1.
</event>
<event>
 5    1  0.7732857E-009  0.3763193E+03  0.7957747E-01  0.3467343E+00
         13   -1    0    0    0    0  0.00000000000E+00  0.00000000000E+00  0.14999999963E+04  0.15000000000E+04  0.10566000000E+00 0.  1.
        994   -1    0    0    0    0 -0.00000000000E+00 -0.00000000000E+00  0.11368683772E-12  0.17120000000E+03  0.17120000000E+03 0.  0.
         13    1    1    2    0    0  0.50818130460E+02 -0.95708488288E+02  0.46724430455E+03  0.47964554456E+03  0.10566000000E+00 0.  1.
        994    1    1    2    0    0  0.22050939193E+02  0.66288970903E+02  0.31982304821E+02  0.18765068453E+03  0.17120000000E+03 0.  0.
        998    1    1    2    0    0 -0.72869069653E+02  0.29419517385E+02  0.10007733869E+04  0.10039037709E+04  0.10000000000E+02 0. -1.
</event>
<event>
 5    1  0.7732857E-009  0.3811526E+03  0.7957747E-01  0.3446155E+00
         13   -1    0    0    0    0  0.00000000000E+00  0.00000000000E+00  0.14999999963E+04  0.15000000000E+04  0.10566000000E+00 0.  1.
        994   -1    0    0    0    0 -0.00000000000E+00 -0.00000000000E+00  0.11368683772E-12  0.17120000000E+03  0.17120000000E+03 0.  0.
         13    1    1    2    0    0  0.52843628533E+01 -0.36597178667E+02  0.18797915798E+03  0.19158145259E+03  0.10566000000E+00 0.  1.
        994    1    1    2    0    0 -0.11922078505E+02  0.22361146429E+02  0.56939312316E+01  0.17315893762E+03  0.17120000000E+03 0.  0.
        998    1    1    2    0    0  0.66377156517E+01  0.14236032238E+02  0.13063269071E+04  0.13064596098E+04  0.10000000000E+02 0.  1.
</event>
<event>
 5    1  0.7732857E-009  0.3686030E+03  0.7957747E-01  0.3502336E+00
         13   -1    0    0    0    0  0.00000000000E+00  0.00000000000E+00  0.14999999963E+04  0.15000000000E+04  0.10566000000E+00 0. -1.
        994   -1    0    0    0    0 -0.00000000000E+00 -0.00000000000E+00  0.11368683772E-12  0.17120000000E+03  0.17120000000E+03 0.  0.
         13    1    1    2    0    0 -0.12665670733E+02 -0.22491419911E+02  0.28895099877E+02  0.38745595178E+02  0.10566000000E+00 0. -1.
        994    1    1    2    0    0  0.16370105447E+02  0.16498575597E+02  0.11880174019E+02  0.17317841056E+03  0.17120000000E+03 0.  0.
        998    1    1    2    0    0 -0.37044347140E+01  0.59928443138E+01  0.14592247224E+04  0.14592759943E+04  0.10000000000E+02 0. -1.
</event>
<event>
 5    1  0.7732857E-009  0.3735515E+03  0.7957747E-01  0.3479727E+00
         13   -1    0    0    0    0  0.00000000000E+00  0.00000000000E+00  0.14999999963E+04  0.15000000000E+04  0.10566000000E+00 0. -1.
        994   -1    0    0    0    0 -0.00000000000E+00 -0.00000000000E+00  0.11368683772E-12  0.17120000000E+03  0.17120000000E+03 0.  0.
         13    1    1    2    0    0 -0.19948965464E+02 -0.85540500266E+01  0.28606353359E+02  0.35909157766E+02  0.10566000000E+00 0. -1.
        994    1    1    2    0    0  0.21466885918E+02 -0.10800674208E+02  0.93995818966E+01  0.17313368792E+03  0.17120000000E+03 0.  0.
        998    1    1    2    0    0 -0.15179204542E+01  0.19354724235E+02  0.14619940610E+04  0.14621571543E+04  0.10000000000E+02 0. -1.
</event>
<event>
 5    1  0.7732857E-009  0.3845096E+03  0.7957747E-01  0.3431755E+00
         13   -1    0    0    0    0  0.00000000000E+00  0.00000000000E+00  0.14999999963E+04  0.15000000000E+04  0.10566000000E+00 0. -1.
        994   -1    0    0    0    0 -0.00000000000E+00 -0.00000000000E+00  0.11368683772E-12  0.17120000000E+03  0.17120000000E+03 0.  0.
         13    1    1    2    0    0  0.15429184743E+02 -0.10265332531E+02  0.93334627201E+02  0.95156715962E+02  0.10566000000E+00 0. -1.
        994    1    1    2    0    0 -0.77906647796E+01  0.44167841104E+01  0.21380382678E+01  0.17144740782E+03  0.17120000000E+03 0.  0.
        998    1    1    2    0    0 -0.76385199634E+01  0.58485484206E+01  0.14045273308E+04  0.14045958762E+04  0.10000000000E+02 0. -1.
</event>
<event>
 5    1  0.7732857E-009  0.3841935E+03  0.7957747E-01  0.3433100E+00
         13   -1    0    0    0    0  0.00000000000E+00  0.00000000000E+00  0.14999999963E+04  0.15000000000E+04  0.10566000000E+00 0.  1.
        994   -1    0    0    0    0 -0.00000000000E+00 -0.00000000000E+00  0.11368683772E-12  0.17120000000E+03  0.17120000000E+03 0.  0.
         13    1    1    2    0    0  0.42872037717E+02  0.32847696201E+02  0.64628876203E+02  0.84225207433E+02  0.10566000000E+00 0.  1.
        994    1    1    2    0    0 -0.53084035459E+02 -0.53920048991E+02  0.40038728533E+02  0.19141009975E+03  0.17120000000E+03 0.  0.
        998    1    1    2    0    0  0.10211997741E+02  0.21072352790E+02  0.13953323915E+04  0.13955646928E+04  0.10000000000E+02 0.  1.
</event>
<event>
 5    1  0.7732857E-009  0.3734715E+03  0.7957747E-01  0.3480087E+00
         13   -1    0    0    0    0  0.00000000000E+00  0.00000000000E+00  0.14999999963E+04  0.15000000000E+04  0.10566000000E+00 0.  1.
        994   -1    0    0    0    0 -0.00000000000E+00 -0.00000000000E+00  0.11368683772E-12  0.17120000000E+03  0.17120000000E+03 0.  0.
         13    1    1    2    0    0  0.28835850700E+02 -0.42674731492E+02  0.20990028024E+03  0.21612676327E+03  0.10566000000E+00 0.  1.
        994    1    1    2    0    0  0.13187361102E+02  0.91192790037E+01  0.83445680763E+01  0.17215150176E+03  0.17120000000E+03 0.  0.
        998    1    1    2    0    0 -0.42023211802E+02  0.33555452488E+02  0.12817551480E+04  0.12829217350E+04  0.10000000000E+02 0.  1.
</event>
<event>
 5    1  0.7732857E-009  0.3843811E+03  0.7957747E-01  0.3432301E+00
         13   -1    0    0    0    0  0.00000000000E+00  0.00000000000E+00  0.14999999963E+04  0.15000000000E+04  0.10566000000E+00 0. -1.
        994   -1    0    0    0    0 -0.00000000000E+00 -0.00000000000E+00  0.11368683772E-12  0.17120000000E+03  0.17120000000E+03 0.  0.
         13    1    1    2    0    0  0.16373753614E+02  0.36917529008E+01  0.81134179923E+02  0.82852248990E+02  0.10566000000E+00 0. -1.
        994    1    1    2    0    0  0.84334551060E+01 -0.10041923551E+02  0.25045843045E+01  0.17171976105E+03  0.17120000000E+03 0.  0.
        998    1    1    2    0    0 -0.24807208720E+02  0.63501706500E+01  0.14163612321E+04  0.14166279900E+04  0.10000000000E+02 0. -1.
</event>
<event>
 5    1  0.7732857E-009  0.3709684E+03  0.7957747E-01  0.3491452E+00
         13   -1    0    0    0    0  0.00000000000E+00  0.00000000000E+00  0.14999999963E+04  0.15000000000E+04  0.10566000000E+00 0.  1.
        994   -1    0    0    0    0 -0.00000000000E+00 -0.00000000000E+00  0.11368683772E-12  0.17120000000E+03  0.17120000000E+03 0.  0.
         13    1    1    2    0    0 -0.12939839769E+00  0.75459012053E+02  0.30168826088E+03  0.31098214926E+03  0.10566000000E+00 0.  1.
        994    1    1    2    0    0  0.19062746105E+01 -0.53216598012E+02  0.18599968004E+02  0.18025270871E+03  0.17120000000E+03 0.  0.
        998    1    1    2    0    0 -0.17768762129E+01 -0.22242414042E+02  0.11797117674E+04  0.11799651420E+04  0.10000000000E+02 0.  1.
</event>
<event>
 5    1  0.7732857E-009  0.3847001E+03  0.7957747E-01  0.3430945E+00
         13   -1    0    0    0    0  0.00000000000E+00  0.00000000000E+00  0.14999999963E+04  0.15000000000E+04  0.10566000000E+00 0. -1.
        994   -1    0    0    0    0 -0.00000000000E+00 -0.00000000000E+00  0.11368683772E-12  0.17120000000E+03  0.17120000000E+03 0.  0.
         13    1    1    2    0    0  0.99972922063E+01  0.39118572862E+01  0.32068363249E+02  0.33817740380E+02  0.10566000000E+00 0. -1.
        994    1    1    2    0    0 -0.79970910868E+01  0.50513788089E+00  0.19904804140E+01  0.17139898087E+03  0.17120000000E+03 0.  0.
        998    1    1    2    0    0 -0.20002011195E+01 -0.44169951671E+01  0.14659411526E+04  0.14659832788E+04  0.10000000000E+02 0. -1.
</event>
<event>
 5    1  0.7732857E-009  0.3120160E+03  0.7957747E-01  0.3813802E+00
         13   -1    0    0    0    0  0.00000000000E+00  0.00000000000E+00  0.14999999963E+04  0.15000000000E+04  0.10566000000E+00 0. -1.
        994   -1    0    0    0    0 -0.00000000000E+00 -0.00000000000E+00  0.11368683772E-12  0.17120000000E+03  0.17120000000E+03 0.  0.
         13    1    1    2    0    0  0.16417223572E+03 -0.85090614980E+02  0.77966957508E+03  0.80129744365E+03  0.10566000000E+00 0. -1.
        994    1    1    2    0    0 -0.19281225868E+03  0.11836801672E+01  0.16206631642E+03  0.30455360631E+03  0.17120000000E+03 0.  0.
        998    1    1    2    0    0  0.28640022961E+02  0.83906934812E+02  0.55826410478E+03  0.56534895004E+03  0.10000000000E+02 0. -1.
</event>
<event>
 5    1  0.7732857E-009  0.3876831E+03  0.7957747E-01  0.3418372E+00
         13   -1    0    0    0    0  0.00000000000E+00  0.00000000000E+00  0.14999999963E+04  0.15000000000E+04  0.10566000000E+00 0.  1.
        994   -1    0    0    0    0 -0.00000000000E+00 -0.00000000000E+00  0.11368683772E-12  0.17120000000E+03  0.17120000000E+03 0.  0.
         13    1    1    2    0    0  0.34333575375E+02 -0.13313241224E+03  0.44565702961E+03  0.46638313949E+03  0.10566000000E+00 0.  1.
        994    1    1    2    0    0  0.28148321999E+02  0.97053463230E+02  0.59783848362E+02  0.20759395772E+03  0.17120000000E+03 0.  0.
        998    1    1    2    0    0 -0.62481897374E+02  0.36078949014E+02  0.99455911830E+03  0.99722290280E+03  0.10000000000E+02 0.  1.
</event>
<event>
 5    1  0.7732857E-009  0.3845303E+03  0.7957747E-01  0.3431667E+00
         13   -1    0    0    0    0  0.00000000000E+00  0.00000000000E+00  0.14999999963E+04  0.15000000000E+04  0.10566000000E+00 0.  1.
        994   -1    0    0    0    0 -0.00000000000E+00 -0.00000000000E+00  0.11368683772E-12  0.17120000000E+03  0.17120000000E+03 0.  0.
         13    1    1    2    0    0 -0.10182487961E+02 -0.74706967734E+01  0.43900584158E+02  0.45681142989E+02  0.10566000000E+00 0.  1.
        994    1    1    2    0    0  0.75306737547E+01 -0.69391149855E+01  0.22089778442E+01  0.17152020857E+03  0.17120000000E+03 0.  0.
        998    1    1    2    0    0  0.26518142065E+01  0.14409811759E+02  0.14538904343E+04  0.14539986484E+04  0.10000000000E+02 0.  1.
</event>
<event>
 5    1  0.7732857E-009  0.3850389E+03  0.7957747E-01  0.3429507E+00
         13   -1    0    0    0    0  0.00000000000E+00  0.00000000000E+00  0.14999999963E+04  0.15000000000E+04  0.10566000000E+00 0.  1.
        994   -1    0    0    0    0 -0.00000000000E+00 -0.00000000000E+00  0.11368683772E-12  0.17120000000E+03  0.17120000000E+03 0.  0.
         13    1    1    2    0    0 -0.10304676430E+02  0.10662800262E+01  0.31441232845E+02  0.33104162824E+02  0.10566000000E+00 0.  1.
        994    1    1    2    0    0  0.19154675013E+02  0.37422256477E+01  0.28643172360E+01  0.17233267288E+03  0.17120000000E+03 0.  0.
        998    1    1    2    0    0 -0.88499985833E+01 -0.48085056739E+01  0.14656944462E+04  0.14657631643E+04  0.10000000000E+02 0.  1.
</event>
<event>
 5    1  0.7732857E-009  0.3826023E+03  0.7957747E-01  0.3439905E+00
         13   -1    0    0    0    0  0.00000000000E+00  0.00000000000E+00  0.14999999963E+04  0.15000000000E+04  0.10566000000E+00 0.  1.
        994   -1    0    0    0    0 -0.00000000000E+00 -0.00000000000E+00  0.11368683772E-12  0.17120000000E+03  0.17120000000E+03 0.  0.
         13    1    1    2    0    0  0.40652931786E+01  0.28439965611E+02  0.12811272335E+03  0.13129447552E+03  0.10566000000E+00 0.  1.
        994    1    1    2    0    0 -0.75550002913E+01 -0.35007891106E+02  0.70881027530E+01  0.17504945493E+03  0.17120000000E+03 0.  0.
        998    1    1    2    0    0  0.34897071127E+01  0.65679254947E+01  0.13647991702E+04  0.13648560696E+04  0.10000000000E+02 0.  1.
</event>
<event>
 5    1  0.7732857E-009  0.3832933E+03  0.7957747E-01  0.3436943E+00
         13   -1    0    0    0    0  0.00000000000E+00  0.00000000000E+00  0.14999999963E+04  0.15000000000E+04  0.10566000000E+00 0.  1.
        994   -1    0    0    0    0 -0.00000000000E+00 -0.00000000000E+00  0.11368683772E-12  0.17120000000E+03  0.17120000000E+03 0.  0.
         13    1    1    2    0    0 -0.17063490140E+02  0.11146764183E+02  0.95968051506E+02  0.98108568033E+02  0.10566000000E+00 0.  1.
        994    1    1    2    0    0 -0.18519836907E+02 -0.12208815096E+02  0.41087144719E+01  0.17267993821E+03  0.17120000000E+03 0.  0.
        998    1    1    2    0    0  0.35583327047E+02  0.10620509131E+01  0.13999232303E+04  0.14004114938E+04  0.10000000000E+02 0.  1.
</event>
<event>
 5    1  0.7732857E-009  0.3840874E+03  0.7957747E-01  0.3433552E+00
         13   -1    0    0    0    0  0.00000000000E+00  0.00000000000E+00  0.14999999963E+04  0.15000000000E+04  0.10566000000E+00 0.  1.
        994   -1    0    0    0    0 -0.00000000000E+00 -0.00000000000E+00  0.11368683772E-12  0.17120000000E+03  0.17120000000E+03 0.  0.
         13    1    1    2    0    0  0.85483397969E+01  0.13722730993E+02  0.62403466550E+02  0.64463875626E+02  0.10566000000E+00 0.  1.
        994    1    1    2    0    0 -0.59760590360E+01 -0.84298463535E+01  0.24361712574E+01  0.17152886207E+03  0.17120000000E+03 0.  0.
        998    1    1    2    0    0 -0.25722807608E+01 -0.52928846397E+01  0.14351603585E+04  0.14352072623E+04  0.10000000000E+02 0.  1.
</event>
<event>
 5    1  0.7732857E-009  0.3730485E+03  0.7957747E-01  0.3481997E+00
         13   -1    0    0    0    0  0.00000000000E+00  0.00000000000E+00  0.14999999963E+04  0.15000000000E+04  0.10566000000E+00 0. -1.
        994   -1    0    0    0    0 -0.00000000000E+00 -0.00000000000E+00  0.11368683772E-12  0.17120000000E+03  0.17120000000E+03 0.  0.
         13    1    1    2    0    0 -0.41108646756E+02 -0.34982391101E+02  0.22659815960E+03  0.23293867353E+03  0.10566000000E+00 0. -1.
        994    1    1    2    0    0 -0.20555453903E+01  0.31092550004E+01  0.77318637957E+01  0.17141503566E+03  0.17120000000E+03 0.  0.
        998    1    1    2    0    0  0.43164192147E+02  0.31873136101E+02  0.12656699729E+04  0.12668462908E+04  0.10000000000E+02 0. -1.
</event>
<event>
 5    1  0.7732857E-009  0.3834270E+03  0.7957747E-01  0.3436371E+00
         13   -1    0    0    0    0  0.00000000000E+00  0.00000000000E+00  0.14999999963E+04  0.15000000000E+04  0.10566000000E+00 0.  1.
        994   -1    0    0    0    0 -0.00000000000E+00 -0.00000000000E+00  0.11368683772E-12  0.17120000000E+03  0.17120000000E+03 0.  0.
         13    1    1    2    0    0 -0.16555017034E+02  0.14533949022E+03  0.36364173187E+03  0.39196040148E+03  0.10566000000E+00 0.  1.
        994    1    1    2    0    0  0.17512719212E+02 -0.16564589532E+03  0.12870076818E+03  0.27132745107E+03  0.17120000000E+03 0.  0.
        998    1    1    2    0    0 -0.95770217865E+00  0.20306405100E+02  0.10076574962E+04  0.10079121475E+04  0.10000000000E+02 0.  1.
</event>
<event>
 5    1  0.7732857E-009  0.3805134E+03  0.7957747E-01  0.3448926E+00
         13   -1    0    0    0    0  0.00000000000E+00  0.00000000000E+00  0.14999999963E+04  0.15000000000E+04  0.10566000000E+00 0. -1.
        994   -1    0    0    0    0 -0.00000000000E+00 -0.00000000000E+00  0.11368683772E-12  0.17120000000E+03  0.17120000000E+03 0.  0.
         13    1    1    2    0    0  0.33372352939E+02 -0.32131764640E+02  0.25919627734E+03  0.26330378955E+03  0.10566000000E+00 0. -1.
        994    1    1    2    0    0 -0.80657109300E+01  0.41504835287E+02  0.98633628045E+01  0.17661945808E+03  0.17120000000E+03 0.  0.
        998    1    1    2    0    0 -0.25306642009E+02 -0.93730706464E+01  0.12309403561E+04  0.12312767524E+04  0.10000000000E+02 0. -1.
</event>
<event>
 5    1  0.7732857E-009  0.3839516E+03  0.7957747E-01  0.3434131E+00
         13   -1    0    0    0    0  0.00000000000E+00  0.00000000000E+00  0.14999999963E+04  0.15000000000E+04  0.10566000000E+00 0.  1.
        994   -1    0    0    0    0 -0.00000000000E+00 -0.00000000000E+00  0.11368683772E-12  0.17120000000E+03  0.17120000000E+03 0.  0.
         13    1    1    2    0    0 -0.10591461510E+02  0.50995985082E+01  0.31366493090E+02  0.33497059791E+02  0.10566000000E+00 0.  1.
        994    1    1    2    0    0  0.94086522476E+01 -0.17459148456E+01  0.24537635940E+01  0.17148478624E+03  0.17120000000E+03 0.  0.
        998    1    1    2    0    0  0.11828092620E+01 -0.33536836626E+01  0.14661797396E+04  0.14662181540E+04  0.10000000000E+02 0.  1.
</event>
<event>
 5    1  0.7732857E-009  0.3780509E+03  0.7957747E-01  0.3459689E+00
         13   -1    0    0    0    0  0.00000000000E+00  0.00000000000E+00  0.14999999963E+04  0.15000000000E+04  0.10566000000E+00 0.  1.
        994   -1    0    0    0    0 -0.00000000000E+00 -0.00000000000E+00  0.11368683772E-12  0.17120000000E+03  0.17120000000E+03 0.  0.
         13    1    1    2    0    0 -0.53998964303E+01 -0.23354222282E+02  0.55499496965E+02  0.60454808802E+02  0.10566000000E+00 0.  1.
        994    1    1    2    0    0 -0.40638093927E+02  0.18747691959E+02  0.11889104524E+02  0.17735197049E+03  0.17120000000E+03 0.  0.
        998    1    1    2    0    0  0.46037990358E+02  0.46065303228E+01  0.14326113948E+04  0.14333932207E+04  0.10000000000E+02 0.  1.
</event>
<event>
 5    1  0.7732857E-009  0.3848893E+03  0.7957747E-01  0.3430142E+00
         13   -1    0    0    0    0  0.00000000000E+00  0.00000000000E+00  0.14999999963E+04  0.15000000000E+04  0.10566000000E+00 0.  1.
        994   -1    0    0    0    0 -0.00000000000E+00 -0.00000000000E+00  0.11368683772E-12  0.17120000000E+03  0.17120000000E+03 0.  0.
         13    1    1    2    0    0 -0.72425260976E+01 -0.72310107341E+01  0.34792709970E+02  0.36266865478E+02  0.10566000000E+00 0.  1.
        994    1    1    2    0    0 -0.26323525869E+02  0.20404386629E+00  0.39682078203E+01  0.17325748561E+03  0.17120000000E+03 0.  0.
        998    1    1    2    0    0  0.33566051967E+02  0.70269668678E+01  0.14612390785E+04  0.14616756489E+04  0.10000000000E+02 0.  1.
</event>
<event>
 5    1  0.7732857E-009  0.3757855E+03  0.7957747E-01  0.3469717E+00
         13   -1    0    0    0    0  0.00000000000E+00  0.00000000000E+00  0.14999999963E+04  0.15000000000E+04  0.10566000000E+00 0.  1.
        994   -1    0    0    0    0 -0.00000000000E+00 -0.00000000000E+00  0.11368683772E-12  0.17120000000E+03  0.17120000000E+03 0.  0.
         13    1    1    2    0    0 -0.77131180725E+02 -0.14155535655E+02  0.31253824274E+03  0.32222625990E+03  0.10566000000E+00 0.  1.
        994    1    1    2    0    0  0.14177996618E+03 -0.89532777430E+02  0.10848067449E+03  0.26304975534E+03  0.17120000000E+03 0.  0.
        998    1    1    2    0    0 -0.64648785459E+02  0.10368831309E+03  0.10789810791E+04  0.10859239848E+04  0.10000000000E+02 0.  1.
</event>
<event>
 5    1  0.1142922E-008  0.3859680E+03  0.7957747E-01  0.3425577E+00
         13   -1    0    0    0    0  0.00000000000E+00  0.00000000000E+00  0.14999999963E+04  0.15000000000E+04  0.10566000000E+00 0. -1.
        994   -1    0    0    0    0 -0.00000000000E+00 -0.00000000000E+00  0.11368683772E-12  0.17120000000E+03  0.17120000000E+03 0.  0.
         13    1    1    2    0    0  0.89017625607E+00 -0.11841919756E+02  0.60285801484E+02  0.61444385438E+02  0.10566000000E+00 0. -1.
        994    1    1    2    0    0 -0.41740154257E+01  0.11553417464E+02  0.16451691812E+01  0.17164804235E+03  0.17120000000E+03 0.  0.
        998    1    1    2    0    0  0.32838391697E+01  0.28850229219E+00  0.14380690256E+04  0.14381075722E+04  0.10000000000E+02 0. -1.
</event>
<event>
 5    1  0.7732857E-009  0.3846171E+03  0.7957747E-01  0.3431298E+00
         13   -1    0    0    0    0  0.00000000000E+00  0.00000000000E+00  0.14999999963E+04  0.15000000000E+04  0.10566000000E+00 0. -1.
        994   -1    0    0    0    0 -0.00000000000E+00 -0.00000000000E+00  0.11368683772E-12  0.17120000000E+03  0.17120000000E+03 0.  0.
         13    1    1    2    0    0  0.12924623579E+02  0.37104805183E+00  0.45340800497E+02  0.47148519861E+02  0.10566000000E+00 0. -1.
        994    1    1    2    0    0 -0.10112213660E+02  0.11306312601E+01  0.21613707886E+01  0.17151573314E+03  0.17120000000E+03 0.  0.
        998    1    1    2    0    0 -0.28124099190E+01 -0.15016793119E+01  0.14524978250E+04  0.14525357470E+04  0.10000000000E+02 0. -1.
</event>
<event>
 5    1  0.7732857E-009  0.3759961E+03  0.7957747E-01  0.3468780E+00
         13   -1    0    0    0    0  0.00000000000E+00  0.00000000000E+00  0.14999999963E+04  0.15000000000E+04  0.10566000000E+00 0. -1.
        994   -1    0    0    0    0 -0.00000000000E+00 -0.00000000000E+00  0.11368683772E-12  0.17120000000E+03  0.17120000000E+03 0.  0.
         13    1    1    2    0    0 -0.31423676064E+02 -0.76858162928E+02  0.48778924431E+03  0.49480600507E+03  0.10566000000E+00 0. -1.
        994    1    1    2    0    0 -0.11929147719E+02  0.73846437723E+02  0.25366923479E+02  0.18854315616E+03  0.17120000000E+03 0.  0.
        998    1    1    2    0    0  0.43352823784E+02  0.30117252046E+01  0.98684382849E+03  0.98785083876E+03  0.10000000000E+02 0. -1.
</event>
<event>
 5    1  0.7732857E-009  0.3841870E+03  0.7957747E-01  0.3433128E+00
         13   -1    0    0    0    0  0.00000000000E+00  0.00000000000E+00  0.14999999963E+04  0.15000000000E+04  0.10566000000E+00 0.  1.
        994   -1    0    0    0    0 -0.00000000000E+00 -0.00000000000E+00  0.11368683772E-12  0.17120000000E+03  0.17120000000E+03 0.  0.
         13    1    1    2    0    0  0.58354764253E+01 -0.11082892983E+02  0.41842157832E+02  0.43676774584E+02  0.10566000000E+00 0.  1.
        994    1    1    2    0    0 -0.16646757589E+01 -0.13789837038E+02  0.26707483083E+01  0.17178330433E+03  0.17120000000E+03 0.  0.
        998    1    1    2    0    0 -0.41708006664E+01  0.24872730020E+02  0.14554870901E+04  0.14557399211E+04  0.10000000000E+02 0.  1.
</event>
<event>
 5    1  0.7732857E-009  0.3756995E+03  0.7957747E-01  0.3470100E+00
         13   -1    0    0    0    0  0.00000000000E+00  0.00000000000E+00  0.14999999963E+04  0.15000000000E+04  0.10566000000E+00 0. -1.
        994   -1    0    0    0    0 -0.00000000000E+00 -0.00000000000E+00  0.11368683772E-12  0.17120000000E+03  0.17120000000E+03 0.  0.
         13    1    1    2    0    0 -0.59045897350E+02  0.10508734183E+02  0.35092752383E+03  0.35601543454E+03  0.10566000000E+00 0. -1.
        994    1    1    2    0    0  0.11444273671E+02  0.78164656925E+01  0.69715405750E+01  0.17190145699E+03  0.17120000000E+03 0.  0.
        998    1    1    2    0    0  0.47601623679E+02 -0.18325199876E+02  0.11421009319E+04  0.11432831085E+04  0.10000000000E+02 0. -1.
</event>
<event>
 5    1  0.7732857E-009  0.3814219E+03  0.7957747E-01  0.3444990E+00
         13   -1    0    0    0    0  0.00000000000E+00  0.00000000000E+00  0.14999999963E+04  0.15000000000E+04  0.10566000000E+00 0.  1.
        994   -1    0    0    0    0 -0.00000000000E+00 -0.00000000000E+00  0.11368683772E-12  0.17120000000E+03  0.17120000000E+03 0.  0.
         13    1    1    2    0    0  0.47001905779E+01 -0.15823855876E+02  0.37355516815E+02  0.40840323294E+02  0.10566000000E+00 0.  1.
        994    1    1    2    0    0 -0.54634008320E+01  0.19596987192E+02  0.47954161519E+01  0.17247123433E+03  0.17120000000E+03 0.  0.
        998    1    1    2    0    0  0.76321025409E+00 -0.37731313166E+01  0.14578490633E+04  0.14578884424E+04  0.10000000000E+02 0.  1.
</event>
<event>
 5    1  0.7732857E-009  0.3856487E+03  0.7957747E-01  0.3426926E+00
         13   -1    0    0    0    0  0.00000000000E+00  0.00000000000E+00  0.14999999963E+04  0.15000000000E+04  0.10566000000E+00 0. -1.
        994   -1    0    0    0    0 -0.00000000000E+00 -0.00000000000E+00  0.11368683772E-12  0.17120000000E+03  0.17120000000E+03 0.  0.
         13    1    1    2    0    0  0.10123326870E+02  0.45081791326E+01  0.46701181748E+02  0.47998093365E+02  0.10566000000E+00 0. -1.
        994    1    1    2    0    0 -0.97396156458E+01 -0.99270186327E+00  0.16230327640E+01  0.17148737506E+03  0.17120000000E+03 0.  0.
        998    1    1    2    0    0 -0.38371122431E+00 -0.35154772694E+01  0.14516757818E+04  0.14517145316E+04  0.10000000000E+02 0. -1.
</event>
<event>
 5    1  0.7732857E-009  0.3818183E+03  0.7957747E-01  0.3443279E+00
         13   -1    0    0    0    0  0.00000000000E+00  0.00000000000E+00  0.14999999963E+04  0.15000000000E+04  0.10566000000E+00 0. -1.
        994   -1    0    0    0    0 -0.00000000000E+00 -0.00000000000E+00  0.11368683772E-12  0.17120000000E+03  0.17120000000E+03 0.  0.
         13    1    1    2    0    0 -0.11421010238E+02  0.12121642847E+02  0.42812483897E+02  0.45937932492E+02  0.10566000000E+00 0. -1.
        994    1    1    2    0    0  0.60415794782E+01 -0.24051935102E+01  0.33586278454E+01  0.17135637140E+03  0.17120000000E+03 0.  0.
        998    1    1    2    0    0  0.53794307597E+01 -0.97164493371E+01  0.14538288845E+04  0.14539056961E+04  0.10000000000E+02 0. -1.
</event>
<event>
 5    1  0.7732857E-009  0.3749053E+03  0.7957747E-01  0.3473647E+00
         13   -1    0    0    0    0  0.00000000000E+00  0.00000000000E+00  0.14999999963E+04  0.15000000000E+04  0.10566000000E+00 0.  1.
        994   -1    0    0    0    0 -0.00000000000E+00 -0.00000000000E+00  0.11368683772E-12  0.17120000000E+03  0.17120000000E+03 0.  0.
         13    1    1    2    0    0 -0.37634880056E+02  0.23631462182E+00  0.11179990950E+03  0.11796470222E+03  0.10566000000E+00 0.  1.
        994    1    1    2    0    0  0.44010038163E+01  0.52814361649E+01  0.68881110997E+01  0.17147637877E+03  0.17120000000E+03 0.  0.
        998    1    1    2    0    0  0.33233876240E+02 -0.55177507867E+01  0.13813119757E+04  0.13817589190E+04  0.10000000000E+02 0.  1.
</event>
<event>
 5    1  0.7732857E-009  0.3785566E+03  0.7957747E-01  0.3457467E+00
         13   -1    0    0    0    0  0.00000000000E+00  0.00000000000E+00  0.14999999963E+04  0.15000000000E+04  0.10566000000E+00 0. -1.
        994   -1    0    0    0    0 -0.00000000000E+00 -0.00000000000E+00  0.11368683772E-12  0.17120000000E+03  0.17120000000E+03 0.  0.
         13    1    1    2    0    0 -0.40747747682E+02  0.21040309665E+02  0.17509653402E+03  0.18100243358E+03  0.10566000000E+00 0. -1.
        994    1    1    2    0    0  0.51312644188E+02 -0.29842879029E+02  0.16791622438E+02  0.18197522762E+03  0.17120000000E+03 0.  0.
        998    1    1    2    0    0 -0.10564896506E+02  0.88025693634E+01  0.13081118398E+04  0.13082223388E+04  0.10000000000E+02 0. -1.
</event>
<event>
 5    1  0.7796993E-009  0.3860553E+03  0.7957747E-01  0.3425209E+00
         13   -1    0    0    0    0  0.00000000000E+00  0.00000000000E+00  0.14999999963E+04  0.15000000000E+04  0.10566000000E+00 0.  1.
        994   -1    0    0    0    0 -0.00000000000E+00 -0.00000000000E+00  0.11368683772E-12  0.17120000000E+03  0.17120000000E+03 0.  0.
         13    1    1    2    0    0 -0.11690546839E+02  0.55052153578E+01  0.75139144319E+02  0.76242235373E+02  0.10566000000E+00 0.  1.
        994    1    1    2    0    0  0.96305413155E+01 -0.41288258685E+01  0.14670056456E+01  0.17152663535E+03  0.17120000000E+03 0.  0.
        998    1    1    2    0    0  0.20600055239E+01 -0.13763894893E+01  0.14233938463E+04  0.14234311293E+04  0.10000000000E+02 0.  1.
</event>
<event>
 5    1  0.7732857E-009  0.3815497E+03  0.7957747E-01  0.3444438E+00
         13   -1    0    0    0    0  0.00000000000E+00  0.00000000000E+00  0.14999999963E+04  0.15000000000E+04  0.10566000000E+00 0.  1.
        994   -1    0    0    0    0 -0.00000000000E+00 -0.00000000000E+00  0.11368683772E-12  0.17120000000E+03  0.17120000000E+03 0.  0.
         13    1    1    2    0    0 -0.13325050231E+02  0.24088211254E+02  0.14430057081E+03  0.14690290938E+03  0.10566000000E+00 0.  1.
        994    1    1    2    0    0 -0.88540857302E+01  0.16972569356E+02  0.45726662751E+01  0.17232763046E+03  0.17120000000E+03 0.  0.
        998    1    1    2    0    0  0.22179135961E+02 -0.41060780610E+02  0.13511267592E+04  0.13519694602E+04  0.10000000000E+02 0.  1.
</event>
<event>
 5    1  0.7732857E-009  0.3823088E+03  0.7957747E-01  0.3441167E+00
         13   -1    0    0    0    0  0.00000000000E+00  0.00000000000E+00  0.14999999963E+04  0.15000000000E+04  0.10566000000E+00 0.  1.
        994   -1    0    0    0    0 -0.00000000000E+00 -0.00000000000E+00  0.11368683772E-12  0.17120000000E+03  0.17120000000E+03 0.  0.
         13    1    1    2    0    0 -0.81178734048E+01  0.68329661846E+01  0.18594276470E+02  0.21409053622E+02  0.10566000000E+00 0.  1.
        994    1    1    2    0    0 -0.55159197012E+01  0.63944208365E+01  0.32088286303E+01  0.17143818294E+03  0.17120000000E+03 0.  0.
        998    1    1    2    0    0  0.13633793106E+02 -0.13227387021E+02  0.14781968912E+04  0.14783527634E+04  0.10000000000E+02 0.  1.
</event>
<event>
 5    1  0.7732857E-009  0.3844244E+03  0.7957747E-01  0.3432117E+00
         13   -1    0    0    0    0  0.00000000000E+00  0.00000000000E+00  0.14999999963E+04  0.15000000000E+04  0.10566000000E+00 0.  1.
        994   -1    0    0    0    0 -0.00000000000E+00 -0.00000000000E+00  0.11368683772E-12  0.17120000000E+03  0.17120000000E+03 0.  0.
         13    1    1    2    0    0  0.93735425573E+01 -0.48846654031E+01  0.28463214726E+02  0.30362625261E+02  0.10566000000E+00 0.  1.
        994    1    1    2    0    0 -0.67791270797E+01  0.69197693355E+01  0.22254219003E+01  0.17148828611E+03  0.17120000000E+03 0.  0.
        998    1    1    2    0    0 -0.25944154776E+01 -0.20351039324E+01  0.14693113597E+04  0.14693490886E+04  0.10000000000E+02 0.  1.
</event>
<event>
 5    1  0.7732857E-009  0.3768497E+03  0.7957747E-01  0.3464991E+00
         13   -1    0    0    0    0  0.00000000000E+00  0.00000000000E+00  0.14999999963E+04  0.15000000000E+04  0.10566000000E+00 0.  1.
        994   -1    0    0    0    0 -0.00000000000E+00 -0.00000000000E+00  0.11368683772E-12  0.17120000000E+03  0.17120000000E+03 0.  0.
         13    1    1    2    0    0 -0.30630305605E+02  0.25930754831E+02  0.12391566417E+03  0.13025253418E+03  0.10566000000E+00 0.  1.
        994    1    1    2    0    0  0.45797938035E+02 -0.18143078370E+02  0.13973662162E+02  0.17869338448E+03  0.17120000000E+03 0.  0.
        998    1    1    2    0    0 -0.15167632429E+02 -0.77876764614E+01  0.13621106699E+04  0.13622540813E+04  0.10000000000E+02 0.  1.
</event>
<event>
 5    1  0.7732857E-009  0.3834389E+03  0.7957747E-01  0.3436320E+00
         13   -1    0    0    0    0  0.00000000000E+00  0.00000000000E+00  0.14999999963E+04  0.15000000000E+04  0.10566000000E+00 0. -1.
        994   -1    0    0    0    0 -0.00000000000E+00 -0.00000000000E+00  0.11368683772E-12  0.17120000000E+03  0.17120000000E+03 0.  0.
         13    1    1    2    0    0  0.86421204599E+02  0.54665886056E+02  0.30726260658E+03  0.32383221623E+03  0.10566000000E+00 0. -1.
        994    1    1    2    0    0 -0.45687155915E+02 -0.11956422469E+02  0.26459300971E+02  0.17955446767E+03  0.17120000000E+03 0.  0.
        998    1    1    2    0    0 -0.40734048684E+02 -0.42709463587E+02  0.11662780887E+04  0.11678133161E+04  0.10000000000E+02 0. -1.
</event>
<event>
 5    1  0.7732857E-009  0.3825406E+03  0.7957747E-01  0.3440170E+00
         13   -1    0    0    0    0  0.00000000000E+00  0.00000000000E+00  0.14999999963E+04  0.15000000000E+04  0.10566000000E+00 0. -1.
        994   -1    0    0    0    0 -0.00000000000E+00 -0.00000000000E+00  0.11368683772E-12  0.17120000000E+03  0.17120000000E+03 0.  0.
         13    1    1    2    0    0  0.36229385971E+02 -0.37553404344E+02  0.66367453857E+02  0.84424384399E+02  0.10566000000E+00 0. -1.
        994    1    1    2    0    0 -0.66429608395E+02  0.15989872258E+02  0.35011691685E+02  0.18762683028E+03  0.17120000000E+03 0.  0.
        998    1    1    2    0    0  0.30200222424E+02  0.21563532086E+02  0.13986208507E+04  0.13991487853E+04  0.10000000000E+02 0.  0.
</event>
<event>
 5    1  0.7732857E-009  0.3707166E+03  0.7957747E-01  0.3492604E+00
         13   -1    0    0    0    0  0.00000000000E+00  0.00000000000E+00  0.14999999963E+04  0.15000000000E+04  0.10566000000E+00 0. -1.
        994   -1    0    0    0    0 -0.00000000000E+00 -0.00000000000E+00  0.11368683772E-12  0.17120000000E+03  0.17120000000E+03 0.  0.
         13    1    1    2    0    0 -0.16178080316E+02 -0.54276353973E+01  0.77565930242E+01  0.18744743479E+02  0.10566000000E+00 0. -1.
        994    1    1    2    0    0  0.14842081978E+02  0.23727757683E+01  0.12110385462E+02  0.17228470303E+03  0.17120000000E+03 0.  0.
        998    1    1    2    0    0  0.13359983382E+01  0.30548596290E+01  0.14801330178E+04  0.14801705535E+04  0.10000000000E+02 0. -1.
</event>
<event>
 5    1  0.7732857E-009  0.3834869E+03  0.7957747E-01  0.3436115E+00
         13   -1    0    0    0    0  0.00000000000E+00  0.00000000000E+00  0.14999999963E+04  0.15000000000E+04  0.10566000000E+00 0.  1.
        994   -1    0    0    0    0 -0.00000000000E+00 -0.00000000000E+00  0.11368683772E-12  0.17120000000E+03  0.17120000000E+03 0.  0.
         13    1    1    2    0    0  0.14830062223E+02  0.26221404602E+00  0.46456319347E+02  0.48766794779E+02  0.10566000000E+00 0.  1.
        994    1    1    2    0    0 -0.54416814577E+01  0.61968045941E+01  0.26080407637E+01  0.17141836005E+03  0.17120000000E+03 0.  0.
        998    1    1    2    0    0 -0.93883807649E+01 -0.64590186402E+01  0.14509356362E+04  0.14510148452E+04  0.10000000000E+02 0.  1.
</event>
<event>
 5    1  0.7732857E-009  0.3808690E+03  0.7957747E-01  0.3447384E+00
         13   -1    0    0    0    0  0.00000000000E+00  0.00000000000E+00  0.14999999963E+04  0.15000000000E+04  0.10566000000E+00 0.  1.
        994   -1    0    0    0    0 -0.00000000000E+00 -0.00000000000E+00  0.11368683772E-12  0.17120000000E+03  0.17120000000E+03 0.  0.
         13    1    1    2    0    0 -0.22684365492E+01  0.27405095374E+02  0.10606607412E+03  0.10957284472E+03  0.10566000000E+00 0.  1.
        994    1    1    2    0    0  0.62402201466E-01 -0.81441250172E+01  0.39162738446E+01  0.17143835005E+03  0.17120000000E+03 0.  0.
        998    1    1    2    0    0  0.22060343477E+01 -0.19260970357E+02  0.13900176483E+04  0.13901888052E+04  0.10000000000E+02 0.  1.
</event>
<event>
 5    1  0.7732857E-009  0.3915660E+03  0.7957747E-01  0.3402294E+00
         13   -1    0    0    0    0  0.00000000000E+00  0.00000000000E+00  0.14999999963E+04  0.15000000000E+04  0.10566000000E+00 0.  1.
        994   -1    0    0    0    0 -0.00000000000E+00 -0.00000000000E+00  0.11368683772E-12  0.17120000000E+03  0.17120000000E+03 0.  0.
         13    1    1    2    0    0  0.77731629783E+02  0.70144991939E+02  0.23897284543E+03  0.26090335026E+03  0.10566000000E+00 0.  1.
        994    1    1    2    0    0 -0.61735834642E+02 -0.22407756689E+02  0.39348006713E+02  0.18753966639E+03  0.17120000000E+03 0.  0.
        998    1    1    2    0    0 -0.15995795141E+02 -0.47737235250E+02  0.12216791441E+04  0.12227569833E+04  0.10000000000E+02 0.  1.
</event>
<event>
 5    1  0.7732857E-009  0.3836629E+03  0.7957747E-01  0.3435363E+00
         13   -1    0    0    0    0  0.00000000000E+00  0.00000000000E+00  0.14999999963E+04  0.15000000000E+04  0.10566000000E+00 0.  1.
        994   -1    0    0    0    0 -0.00000000000E+00 -0.00000000000E+00  0.11368683772E-12  0.17120000000E+03  0.17120000000E+03 0.  0.
         13    1    1    2    0    0  0.14806283219E+02  0.24245981311E+02  0.15728271218E+03  0.15982789603E+03  0.10566000000E+00 0.  1.
        994    1    1    2    0    0 -0.65643661943E+00 -0.35317540631E+02  0.64276803261E+01  0.17492431123E+03  0.17120000000E+03 0.  0.
        998    1    1    2    0    0 -0.14149846599E+02  0.11071559320E+02  0.13362896038E+04  0.13364477927E+04  0.10000000000E+02 0.  1.
</event>
<event>
 5    1  0.7732857E-009  0.3743540E+03  0.7957747E-01  0.3476117E+00
         13   -1    0    0    0    0  0.00000000000E+00  0.00000000000E+00  0.14999999963E+04  0.15000000000E+04  0.10566000000E+00 0.  1.
        994   -1    0    0    0    0 -0.00000000000E+00 -0.00000000000E+00  0.11368683772E-12  0.17120000000E+03  0.17120000000E+03 0.  0.
         13    1    1    2    0    0 -0.53286565942E+02 -0.10364341305E+03  0.56602442014E+03  0.57789711069E+03  0.10566000000E+00 0.  1.
        994    1    1    2    0    0 -0.12937645779E+02  0.74211558964E+02  0.33690762119E+02  0.19005063961E+03  0.17120000000E+03 0.  0.
        998    1    1    2    0    0  0.66224211721E+02  0.29431854087E+02  0.90028481402E+03  0.90325224971E+03  0.10000000000E+02 0.  1.
</event>
<event>
 5    1  0.7732857E-009  0.3770716E+03  0.7957747E-01  0.3464009E+00
         13   -1    0    0    0    0  0.00000000000E+00  0.00000000000E+00  0.14999999963E+04  0.15000000000E+04  0.10566000000E+00 0.  1.
        994   -1    0    0    0    0 -0.00000000000E+00 -0.00000000000E+00  0.11368683772E-12  0.17120000000E+03  0.17120000000E+03 0.  0.
         13    1    1    2    0    0  0.87728563477E-01 -0.76685278667E+02  0.33327331846E+03  0.34198209839E+03  0.10566000000E+00 0.  1.
        994    1    1    2    0    0  0.34965756364E+02  0.10065641010E+03  0.44960897362E+02  0.20660406410E+03  0.17120000000E+03 0.  0.
        998    1    1    2    0    0 -0.35053484928E+02 -0.23971131433E+02  0.11217657805E+04  0.11226138375E+04  0.10000000000E+02 0.  1.
</event>
<event>
 5    1  0.7732857E-009  0.3822379E+03  0.7957747E-01  0.3441472E+00
         13   -1    0    0    0    0  0.00000000000E+00  0.00000000000E+00  0.14999999963E+04  0.15000000000E+04  0.10566000000E+00 0. -1.
        994   -1    0    0    0    0 -0.00000000000E+00 -0.00000000000E+00  0.11368683772E-12  0.17120000000E+03  0.17120000000E+03 0.  0.
         13    1    1    2    0    0 -0.12818832766E+01 -0.19112235577E+02  0.66344608615E+02  0.69054609041E+02  0.10566000000E+00 0. -1.
        994    1    1    2    0    0 -0.98839681421E+01 -0.73168924292E+01  0.35097025616E+01  0.17167698667E+03  0.17120000000E+03 0.  0.
        998    1    1    2    0    0  0.11165851419E+02  0.26429128006E+02  0.14301456851E+04  0.14304684043E+04  0.10000000000E+02 0. -1.
</event>
<event>
 5    1  0.7732857E-009  0.3762486E+03  0.7957747E-01  0.3467657E+00
         13   -1    0    0    0    0  0.00000000000E+00  0.00000000000E+00  0.14999999963E+04  0.15000000000E+04  0.10566000000E+00 0.  1.
        994   -1    0    0    0    0 -0.00000000000E+00 -0.00000000000E+00  0.11368683772E-12  0.17120000000E+03  0.17120000000E+03 0.  0.
         13    1    1    2    0    0  0.20224597525E+02 -0.29704545039E+02  0.10776336071E+03  0.11359730374E+03  0.10566000000E+00 0.  1.
        994    1    1    2    0    0  0.63841644287E+01  0.23564211719E+02  0.80590691322E+01  0.17311966447E+03  0.17120000000E+03 0.  0.
        998    1    1    2    0    0 -0.26608761954E+02  0.61403333199E+01  0.13841775664E+04  0.13844830318E+04  0.10000000000E+02 0.  1.
</event>
<event>
 5    1  0.7732857E-009  0.3845094E+03  0.7957747E-01  0.3431755E+00
         13   -1    0    0    0    0  0.00000000000E+00  0.00000000000E+00  0.14999999963E+04  0.15000000000E+04  0.10566000000E+00 0. -1.
        994   -1    0    0    0    0 -0.00000000000E+00 -0.00000000000E+00  0.11368683772E-12  0.17120000000E+03  0.17120000000E+03 0.  0.
         13    1    1    2    0    0  0.15937093291E+02  0.22407448017E+01  0.67603549854E+02  0.69492898894E+02  0.10566000000E+00 0. -1.
        994    1    1    2    0    0 -0.13281342857E+02 -0.35145011882E+01  0.24958383112E+01  0.17176849244E+03  0.17120000000E+03 0.  0.
        998    1    1    2    0    0 -0.26557504339E+01  0.12737563865E+01  0.14299006081E+04  0.14299386087E+04  0.10000000000E+02 0. -1.
</event>
<event>
 5    1  0.7732857E-009  0.3790369E+03  0.7957747E-01  0.3455363E+00
         13   -1    0    0    0    0  0.00000000000E+00  0.00000000000E+00  0.14999999963E+04  0.15000000000E+04  0.10566000000E+00 0.  1.
        994   -1    0    0    0    0 -0.00000000000E+00 -0.00000000000E+00  0.11368683772E-12  0.17120000000E+03  0.17120000000E+03 0.  0.
         13    1    1    2    0    0  0.27256752989E+02 -0.48536650626E+01  0.82363802311E+02  0.86892437779E+02  0.10566000000E+00 0.  1.
        994    1    1    2    0    0 -0.96359903249E+01  0.29590147456E+02  0.78746590106E+01  0.17418346474E+03  0.17120000000E+03 0.  0.
        998    1    1    2    0    0 -0.17620762664E+02 -0.24736482393E+02  0.14097615350E+04  0.14101240975E+04  0.10000000000E+02 0.  1.
</event>
<event>
 5    1  0.7732857E-009  0.3842083E+03  0.7957747E-01  0.3433037E+00
         13   -1    0    0    0    0  0.00000000000E+00  0.00000000000E+00  0.14999999963E+04  0.15000000000E+04  0.10566000000E+00 0. -1.
        994   -1    0    0    0    0 -0.00000000000E+00 -0.00000000000E+00  0.11368683772E-12  0.17120000000E+03  0.17120000000E+03 0.  0.
         13    1    1    2    0    0  0.17701928425E+02 -0.46095890984E+00  0.87285007715E+02  0.89063205023E+02  0.10566000000E+00 0. -1.
        994    1    1    2    0    0  0.68947693281E+01  0.10826803613E+01  0.21843379337E+01  0.17135612441E+03  0.17120000000E+03 0.  0.
        998    1    1    2    0    0 -0.24596697753E+02 -0.62172145147E+00  0.14105306506E+04  0.14107806706E+04  0.10000000000E+02 0. -1.
</event>
<event>
 5    1  0.7732857E-009  0.3737797E+03  0.7957747E-01  0.3478698E+00
         13   -1    0    0    0    0  0.00000000000E+00  0.00000000000E+00  0.14999999963E+04  0.15000000000E+04  0.10566000000E+00 0.  1.
        994   -1    0    0    0    0 -0.00000000000E+00 -0.00000000000E+00  0.11368683772E-12  0.17120000000E+03  0.17120000000E+03 0.  0.
         13    1    1    2    0    0 -0.17247915510E+02 -0.30213566341E+02  0.78474293246E+02  0.85840410327E+02  0.10566000000E+00 0.  1.
        994    1    1    2    0    0  0.11722312333E+02  0.25191614284E+02  0.99463518074E+01  0.17372507001E+03  0.17120000000E+03 0.  0.
        998    1    1    2    0    0  0.55256031769E+01  0.50219520569E+01  0.14115793512E+04  0.14116345197E+04  0.10000000000E+02 0.  1.
</event>
<event>
 5    1  0.7732857E-009  0.3799532E+03  0.7957747E-01  0.3451362E+00
         13   -1    0    0    0    0  0.00000000000E+00  0.00000000000E+00  0.14999999963E+04  0.15000000000E+04  0.10566000000E+00 0.  1.
        994   -1    0    0    0    0 -0.00000000000E+00 -0.00000000000E+00  0.11368683772E-12  0.17120000000E+03  0.17120000000E+03 0.  0.
         13    1    1    2    0    0  0.36113530355E+01  0.45761353701E+02  0.16696414626E+03  0.17315940825E+03  0.10566000000E+00 0.  1.
        994    1    1    2    0    0 -0.70215570197E+01 -0.91395630135E+02  0.32781707078E+02  0.19694299630E+03  0.17120000000E+03 0.  0.
        998    1    1    2    0    0  0.34102039841E+01  0.45634276434E+02  0.13002541429E+04  0.13010975955E+04  0.10000000000E+02 0.  1.
</event>
<event>
 5    1  0.7732857E-009  0.3816081E+03  0.7957747E-01  0.3444186E+00
         13   -1    0    0    0    0  0.00000000000E+00  0.00000000000E+00  0.14999999963E+04  0.15000000000E+04  0.10566000000E+00 0. -1.
        994   -1    0    0    0    0 -0.00000000000E+00 -0.00000000000E+00  0.11368683772E-12  0.17120000000E+03  0.17120000000E+03 0.  0.
         13    1    1    2    0    0 -0.16487186675E+02  0.35988440082E+01  0.43205932314E+02  0.46384725436E+02  0.10566000000E+00 0. -1.
        994    1    1    2    0    0 -0.55598332712E+00 -0.10716956197E+02  0.37066257188E+01  0.17157605119E+03  0.17120000000E+03 0.  0.
        998    1    1    2    0    0  0.17043170002E+02  0.71181121891E+01  0.14530874382E+04  0.14532392234E+04  0.10000000000E+02 0. -1.
</event>
<event>
 5    1  0.7732857E-009  0.3847077E+03  0.7957747E-01  0.3430913E+00
         13   -1    0    0    0    0  0.00000000000E+00  0.00000000000E+00  0.14999999963E+04  0.15000000000E+04  0.10566000000E+00 0.  1.
        994   -1    0    0    0    0 -0.00000000000E+00 -0.00000000000E+00  0.11368683772E-12  0.17120000000E+03  0.17120000000E+03 0.  0.
         13    1    1    2    0    0 -0.21628878196E+01  0.66767043866E+02  0.10393533778E+03  0.12355193982E+03  0.10566000000E+00 0.  1.
        994    1    1    2    0    0  0.75614912532E+01 -0.67634100791E+02  0.36222294749E+02  0.18775793559E+03  0.17120000000E+03 0.  0.
        998    1    1    2    0    0 -0.53986034336E+01  0.86705692443E+00  0.13598423638E+04  0.13598901246E+04  0.10000000000E+02 0.  1.
</event>
<event>
 5    1  0.7732857E-009  0.3799307E+03  0.7957747E-01  0.3451460E+00
         13   -1    0    0    0    0  0.00000000000E+00  0.00000000000E+00  0.14999999963E+04  0.15000000000E+04  0.10566000000E+00 0.  1.
        994   -1    0    0    0    0 -0.00000000000E+00 -0.00000000000E+00  0.11368683772E-12  0.17120000000E+03  0.17120000000E+03 0.  0.
         13    1    1    2    0    0  0.17348362072E+02 -0.75382697596E+01  0.53919512251E+02  0.57141194799E+02  0.10566000000E+00 0.  1.
        994    1    1    2    0    0  0.37628786732E+02 -0.49829412163E+02  0.17316829641E+02  0.18305247471E+03  0.17120000000E+03 0.  0.
        998    1    1    2    0    0 -0.54977148804E+02  0.57367681922E+02  0.14287636544E+04  0.14310063305E+04  0.10000000000E+02 0.  1.
</event>
<event>
 5    1  0.7937834E-009  0.3861918E+03  0.7957747E-01  0.3424633E+00
         13   -1    0    0    0    0  0.00000000000E+00  0.00000000000E+00  0.14999999963E+04  0.15000000000E+04  0.10566000000E+00 0.  1.
        994   -1    0    0    0    0 -0.00000000000E+00 -0.00000000000E+00  0.11368683772E-12  0.17120000000E+03  0.17120000000E+03 0.  0.
         13    1    1    2    0    0  0.54504522759E+01  0.10404688947E+02  0.65020965434E+02  0.66073459817E+02  0.10566000000E+00 0.  1.
        994    1    1    2    0    0 -0.44636556393E+01 -0.11592557776E+02  0.15452433789E+01  0.17165704004E+03  0.17120000000E+03 0.  0.
        998    1    1    2    0    0 -0.98679663665E+00  0.11878688288E+01  0.14334337875E+04  0.14334695001E+04  0.10000000000E+02 0.  0.
</event>
<event>
 5    1  0.1050054E-008  0.3852120E+03  0.7957747E-01  0.3428774E+00
         13   -1    0    0    0    0  0.00000000000E+00  0.00000000000E+00  0.14999999963E+04  0.15000000000E+04  0.10566000000E+00 0. -1.
        994   -1    0    0    0    0 -0.00000000000E+00 -0.00000000000E+00  0.11368683772E-12  0.17120000000E+03  0.17120000000E+03 0.  0.
         13    1    1    2    0    0  0.14920239930E+02  0.10336262568E+02  0.10288025749E+03  0.10446918411E+03  0.10566000000E+00 0. -1.
        994    1    1    2    0    0 -0.17913647494E+02 -0.54903379016E+01  0.26794436997E+01  0.17224303178E+03  0.17120000000E+03 0.  0.
        998    1    1    2    0    0  0.29934075640E+01 -0.48459246659E+01  0.13944402951E+04  0.13944877841E+04  0.10000000000E+02 0. -1.
</event>
<event>
 5    1  0.7732857E-009  0.3686038E+03  0.7957747E-01  0.3502332E+00
         13   -1    0    0    0    0  0.00000000000E+00  0.00000000000E+00  0.14999999963E+04  0.15000000000E+04  0.10566000000E+00 0. -1.
        994   -1    0    0    0    0 -0.00000000000E+00 -0.00000000000E+00  0.11368683772E-12  0.17120000000E+03  0.17120000000E+03 0.  0.
         13    1    1    2    0    0 -0.13338949713E+02  0.62770099216E+02  0.22613872354E+03  0.23506753579E+03  0.10566000000E+00 0. -1.
        994    1    1    2    0    0 -0.59638086354E+01 -0.19504235737E+02  0.11447284846E+02  0.17279022703E+03  0.17120000000E+03 0.  0.
        998    1    1    2    0    0  0.19302758348E+02 -0.43265863480E+02  0.12624139879E+04  0.12633422372E+04  0.10000000000E+02 0. -1.
</event>
<event>
 5    1  0.7732857E-009  0.3809153E+03  0.7957747E-01  0.3447183E+00
         13   -1    0    0    0    0  0.00000000000E+00  0.00000000000E+00  0.14999999963E+04  0.15000000000E+04  0.10566000000E+00 0.  1.
        994   -1    0    0    0    0 -0.00000000000E+00 -0.00000000000E+00  0.11368683772E-12  0.17120000000E+03  0.17120000000E+03 0.  0.
         13    1    1    2    0    0 -0.13473330044E+02 -0.20978776122E+02  0.88904260853E+02  0.92334275499E+02  0.10566000000E+00 0.  1.
        994    1    1    2    0    0  0.11220974597E+02 -0.34581857161E+01  0.41314568759E+01  0.17165191014E+03  0.17120000000E+03 0.  0.
        998    1    1    2    0    0  0.22523554475E+01  0.24436961838E+02  0.14069642785E+04  0.14072138144E+04  0.10000000000E+02 0.  1.
</event>
<event>
 5    1  0.7732857E-009  0.3860144E+03  0.7957747E-01  0.3425381E+00
         13   -1    0    0    0    0  0.00000000000E+00  0.00000000000E+00  0.14999999963E+04  0.15000000000E+04  0.10566000000E+00 0.  1.
        994   -1    0    0    0    0 -0.00000000000E+00 -0.00000000000E+00  0.11368683772E-12  0.17120000000E+03  0.17120000000E+03 0.  0.
         13    1    1    2    0    0 -0.16396016230E+01 -0.98943236956E+01  0.44889794826E+02  0.45996638773E+02  0.10566000000E+00 0.  1.
        994    1    1    2    0    0  0.33890287132E+01  0.71848742377E+01  0.13342151292E+01  0.17138940476E+03  0.17120000000E+03 0.  0.
        998    1    1    2    0    0 -0.17494270902E+01  0.27094494579E+01  0.14537759863E+04  0.14538139565E+04  0.10000000000E+02 0.  1.
</event>
<event>
 5    1  0.7779491E-009  0.3856860E+03  0.7957747E-01  0.3426768E+00
         13   -1    0    0    0    0  0.00000000000E+00  0.00000000000E+00  0.14999999963E+04  0.15000000000E+04  0.10566000000E+00 0.  1.
        994   -1    0    0    0    0 -0.00000000000E+00 -0.00000000000E+00  0.11368683772E-12  0.17120000000E+03  0.17120000000E+03 0.  0.
         13    1    1    2    0    0  0.15135373407E+02 -0.15220342984E+01  0.90041127868E+02  0.91317095816E+02  0.10566000000E+00 0.  1.
        994    1    1    2    0    0 -0.10743263921E+02 -0.40944988327E+01  0.17237899474E+01  0.17159427173E+03  0.17120000000E+03 0.  0.
        998    1    1    2    0    0 -0.43921094867E+01  0.56165331311E+01  0.14082350785E+04  0.14082886324E+04  0.10000000000E+02 0.  1.
</event>
<event>
 5    1  0.7732857E-009  0.3823086E+03  0.7957747E-01  0.3441168E+00
         13   -1    0    0    0    0  0.00000000000E+00  0.00000000000E+00  0.14999999963E+04  0.15000000000E+04  0.10566000000E+00 0. -1.
        994   -1    0    0    0    0 -0.00000000000E+00 -0.00000000000E+00  0.11368683772E-12  0.17120000000E+03  0.17120000000E+03 0.  0.
         13    1    1    2    0    0 -0.10727047198E+02 -0.14792280293E+02  0.53654688051E+02  0.56680841664E+02  0.10566000000E+00 0. -1.
        994    1    1    2    0    0  0.11203056939E+02  0.14522585152E+02  0.40891865715E+01  0.17222826542E+03  0.17120000000E+03 0.  0.
        998    1    1    2    0    0 -0.47600974095E+00  0.26969514084E+00  0.14422561217E+04  0.14422908929E+04  0.10000000000E+02 0. -1.
</event>
<event>
 5    1  0.7732857E-009  0.3851596E+03  0.7957747E-01  0.3428996E+00
         13   -1    0    0    0    0  0.00000000000E+00  0.00000000000E+00  0.14999999963E+04  0.15000000000E+04  0.10566000000E+00 0.  1.
        994   -1    0    0    0    0 -0.00000000000E+00 -0.00000000000E+00  0.11368683772E-12  0.17120000000E+03  0.17120000000E+03 0.  0.
         13    1    1    2    0    0  0.14804059369E+02  0.14812216615E+02  0.11481768998E+03  0.11671193183E+03  0.10566000000E+00 0.  1.
        994    1    1    2    0    0 -0.61916921034E+02  0.23403948283E+01  0.14273500882E+02  0.18262627244E+03  0.17120000000E+03 0.  0.
        998    1    1    2    0    0  0.47112861665E+02 -0.17152611443E+02  0.13709088054E+04  0.13718617957E+04  0.10000000000E+02 0.  1.
</event>
<event>
 5    1  0.7732857E-009  0.3847459E+03  0.7957747E-01  0.3430750E+00
         13   -1    0    0    0    0  0.00000000000E+00  0.00000000000E+00  0.14999999963E+04  0.15000000000E+04  0.10566000000E+00 0. -1.
        994   -1    0    0    0    0 -0.00000000000E+00 -0.00000000000E+00  0.11368683772E-12  0.17120000000E+03  0.17120000000E+03 0.  0.
         13    1    1    2    0    0  0.93143031810E+01  0.97784365834E+01  0.55047064303E+02  0.56679489396E+02  0.10566000000E+00 0. -1.
        994    1    1    2    0    0  0.10096153208E+02 -0.73140823755E+01  0.22680725465E+01  0.17166832050E+03  0.17120000000E+03 0.  0.
        998    1    1    2    0    0 -0.19410456389E+02 -0.24643542079E+01  0.14426848594E+04  0.14428521901E+04  0.10000000000E+02 0. -1.
</event>
<event>
 5    1  0.7732857E-009  0.3685162E+03  0.7957747E-01  0.3502738E+00
         13   -1    0    0    0    0  0.00000000000E+00  0.00000000000E+00  0.14999999963E+04  0.15000000000E+04  0.10566000000E+00 0.  1.
        994   -1    0    0    0    0 -0.00000000000E+00 -0.00000000000E+00  0.11368683772E-12  0.17120000000E+03  0.17120000000E+03 0.  0.
         13    1    1    2    0    0 -0.53050298870E+02  0.79578703247E+01  0.15535549208E+03  0.16435632630E+03  0.10566000000E+00 0.  1.
        994    1    1    2    0    0  0.43248496480E+01 -0.15836947594E+02  0.11094213277E+02  0.17234278285E+03  0.17120000000E+03 0.  0.
        998    1    1    2    0    0  0.48725449222E+02  0.78790772691E+01  0.13335502909E+04  0.13345008908E+04  0.10000000000E+02 0.  1.
</event>
<event>
 5    1  0.7732857E-009  0.3788170E+03  0.7957747E-01  0.3456326E+00
         13   -1    0    0    0    0  0.00000000000E+00  0.00000000000E+00  0.14999999963E+04  0.15000000000E+04  0.10566000000E+00 0. -1.
        994   -1    0    0    0    0 -0.00000000000E+00 -0.00000000000E+00  0.11368683772E-12  0.17120000000E+03  0.17120000000E+03 0.  0.
         13    1    1    2    0    0  0.35622749786E+02 -0.41066439435E+02  0.22001791166E+03  0.22663478410E+03  0.10566000000E+00 0. -1.
        994    1    1    2    0    0 -0.27767297417E+02  0.84590557036E+02  0.31811112562E+02  0.19557088748E+03  0.17120000000E+03 0.  0.
        998    1    1    2    0    0 -0.78554523690E+01 -0.43524117601E+02  0.12481709721E+04  0.12489943284E+04  0.10000000000E+02 0. -1.
</event>
<event>
 5    1  0.7732857E-009  0.3755834E+03  0.7957747E-01  0.3470618E+00
         13   -1    0    0    0    0  0.00000000000E+00  0.00000000000E+00  0.14999999963E+04  0.15000000000E+04  0.10566000000E+00 0. -1.
        994   -1    0    0    0    0 -0.00000000000E+00 -0.00000000000E+00  0.11368683772E-12  0.17120000000E+03  0.17120000000E+03 0.  0.
         13    1    1    2    0    0  0.93580150914E+01 -0.14013874067E+02  0.19431948918E+02  0.25721059768E+02  0.10566000000E+00 0. -1.
        994    1    1    2    0    0 -0.11488525532E+02  0.88365090940E+01  0.70924287477E+01  0.17195875278E+03  0.17120000000E+03 0.  0.
        998    1    1    2    0    0  0.21305104402E+01  0.51773649731E+01  0.14734756186E+04  0.14735201875E+04  0.10000000000E+02 0. -1.
</event>
<event>
 5    1  0.7732857E-009  0.3786990E+03  0.7957747E-01  0.3456843E+00
         13   -1    0    0    0    0  0.00000000000E+00  0.00000000000E+00  0.14999999963E+04  0.15000000000E+04  0.10566000000E+00 0. -1.
        994   -1    0    0    0    0 -0.00000000000E+00 -0.00000000000E+00  0.11368683772E-12  0.17120000000E+03  0.17120000000E+03 0.  0.
         13    1    1    2    0    0 -0.11408820409E+03 -0.11067529124E+03  0.94282446614E+03  0.95612923997E+03  0.10566000000E+00 0. -1.
        994    1    1    2    0    0  0.10922851857E+03  0.10954414153E+03  0.89855504830E+02  0.24761712372E+03  0.17120000000E+03 0.  0.
        998    1    1    2    0    0  0.48596855229E+01  0.11311497044E+01  0.46732002530E+03  0.46745363630E+03  0.10000000000E+02 0. -1.
</event>
<event>
 5    1  0.7732857E-009  0.3780091E+03  0.7957747E-01  0.3459874E+00
         13   -1    0    0    0    0  0.00000000000E+00  0.00000000000E+00  0.14999999963E+04  0.15000000000E+04  0.10566000000E+00 0.  1.
        994   -1    0    0    0    0 -0.00000000000E+00 -0.00000000000E+00  0.11368683772E-12  0.17120000000E+03  0.17120000000E+03 0.  0.
         13    1    1    2    0    0 -0.44134062737E+01 -0.44428269564E+02  0.21502303859E+03  0.21960935221E+03  0.10566000000E+00 0.  1.
        994    1    1    2    0    0  0.10069178849E+02  0.90329206615E+01  0.57575352192E+01  0.17183006498E+03  0.17120000000E+03 0.  0.
        998    1    1    2    0    0 -0.56557725748E+01  0.35395348902E+02  0.12792194225E+04  0.12797605828E+04  0.10000000000E+02 0.  1.
</event>
<event>
 5    1  0.7732857E-009  0.3768023E+03  0.7957747E-01  0.3465201E+00
         13   -1    0    0    0    0  0.00000000000E+00  0.00000000000E+00  0.14999999963E+04  0.15000000000E+04  0.10566000000E+00 0. -1.
        994   -1    0    0    0    0 -0.00000000000E+00 -0.00000000000E+00  0.11368683772E-12  0.17120000000E+03  0.17120000000E+03 0.  0.
         13    1    1    2    0    0  0.15182370637E+02  0.18834098654E+02  0.48779524347E+02  0.54448882539E+02  0.10566000000E+00 0. -1.
        994    1    1    2    0    0 -0.61143403632E+01 -0.14022805235E+02  0.65472073025E+01  0.17200677355E+03  0.17120000000E+03 0.  0.
        998    1    1    2    0    0 -0.90680302740E+01 -0.48112934182E+01  0.14446732646E+04  0.14447443439E+04  0.10000000000E+02 0. -1.
</event>
<event>
 5    1  0.7732857E-009  0.3764493E+03  0.7957747E-01  0.3466766E+00
         13   -1    0    0    0    0  0.00000000000E+00  0.00000000000E+00  0.14999999963E+04  0.15000000000E+04  0.10566000000E+00 0.  1.
        994   -1    0    0    0    0 -0.00000000000E+00 -0.00000000000E+00  0.11368683772E-12  0.17120000000E+03  0.17120000000E+03 0.  0.
         13    1    1    2    0    0 -0.36827040572E+01  0.24369865032E+02  0.14969650011E+02  0.28836681785E+02  0.10566000000E+00 0.  1.
        994    1    1    2    0    0 -0.39036044847E+01 -0.19324517566E+02  0.15781846603E+02  0.17305254055E+03  0.17120000000E+03 0.  0.
        998    1    1    2    0    0  0.75863085419E+01 -0.50453474663E+01  0.14692484997E+04  0.14693107777E+04  0.10000000000E+02 0.  1.
</event>
<event>
 5    1  0.7732857E-009  0.3785830E+03  0.7957747E-01  0.3457352E+00
         13   -1    0    0    0    0  0.00000000000E+00  0.00000000000E+00  0.14999999963E+04  0.15000000000E+04  0.10566000000E+00 0.  1.
        994   -1    0    0    0    0 -0.00000000000E+00 -0.00000000000E+00  0.11368683772E-12  0.17120000000E+03  0.17120000000E+03 0.  0.
         13    1    1    2    0    0  0.27237866772E+02 -0.16772537370E+02  0.11145115049E+03  0.11595080641E+03  0.10566000000E+00 0.  1.
        994    1    1    2    0    0 -0.52652880378E+01  0.17285998333E+01  0.49532913557E+01  0.17136127454E+03  0.17120000000E+03 0.  0.
        998    1    1    2    0    0 -0.21972578735E+02  0.15043937537E+02  0.13835955544E+04  0.13838879191E+04  0.10000000000E+02 0.  1.
</event>
<event>
 5    1  0.7732857E-009  0.3846200E+03  0.7957747E-01  0.3431286E+00
         13   -1    0    0    0    0  0.00000000000E+00  0.00000000000E+00  0.14999999963E+04  0.15000000000E+04  0.10566000000E+00 0. -1.
        994   -1    0    0    0    0 -0.00000000000E+00 -0.00000000000E+00  0.11368683772E-12  0.17120000000E+03  0.17120000000E+03 0.  0.
         13    1    1    2    0    0  0.52796934039E+01 -0.14193671544E+02  0.64819517250E+02  0.66565129422E+02  0.10566000000E+00 0. -1.
        994    1    1    2    0    0  0.59202528019E+01  0.74816496297E+01  0.21187059748E+01  0.17147872576E+03  0.17120000000E+03 0.  0.
        998    1    1    2    0    0 -0.11199946206E+02  0.67120219146E+01  0.14330617731E+04  0.14331561448E+04  0.10000000000E+02 0. -1.
</event>
<event>
 5    1  0.7732857E-009  0.3794879E+03  0.7957747E-01  0.3453391E+00
         13   -1    0    0    0    0  0.00000000000E+00  0.00000000000E+00  0.14999999963E+04  0.15000000000E+04  0.10566000000E+00 0.  1.
        994   -1    0    0    0    0 -0.00000000000E+00 -0.00000000000E+00  0.11368683772E-12  0.17120000000E+03  0.17120000000E+03 0.  0.
         13    1    1    2    0    0  0.52278764612E+02  0.19201958762E+02  0.31115015818E+03  0.31609526499E+03  0.10566000000E+00 0.  1.
        994    1    1    2    0    0 -0.41897246175E+02 -0.16664750516E+02  0.11230099452E+02  0.17739404804E+03  0.17120000000E+03 0.  0.
        998    1    1    2    0    0 -0.10381518437E+02 -0.25372082461E+01  0.11776197386E+04  0.11777106870E+04  0.10000000000E+02 0.  1.
</event>
<event>
 5    1  0.7732857E-009  0.3797404E+03  0.7957747E-01  0.3452290E+00
         13   -1    0    0    0    0  0.00000000000E+00  0.00000000000E+00  0.14999999963E+04  0.15000000000E+04  0.10566000000E+00 0.  1.
        994   -1    0    0    0    0 -0.00000000000E+00 -0.00000000000E+00  0.11368683772E-12  0.17120000000E+03  0.17120000000E+03 0.  0.
         13    1    1    2    0    0  0.19166430134E+01  0.28304487421E+02  0.92420157638E+02  0.96676337490E+02  0.10566000000E+00 0.  1.
        994    1    1    2    0    0  0.19558391954E+02 -0.20064625041E+02  0.68955448521E+01  0.17361482774E+03  0.17120000000E+03 0.  0.
        998    1    1    2    0    0 -0.21475034967E+02 -0.82398623807E+01  0.14006842938E+04  0.14009088348E+04  0.10000000000E+02 0.  1.
</event>
<event>
 5    1  0.7732857E-009  0.3890402E+03  0.7957747E-01  0.3412716E+00
         13   -1    0    0    0    0  0.00000000000E+00  0.00000000000E+00  0.14999999963E+04  0.15000000000E+04  0.10566000000E+00 0. -1.
        994   -1    0    0    0    0 -0.00000000000E+00 -0.00000000000E+00  0.11368683772E-12  0.17120000000E+03  0.17120000000E+03 0.  0.
         13    1    1    2    0    0  0.17843394345E+02 -0.19022100742E+02  0.67135068008E+01  0.26931568391E+02  0.10566000000E+00 0. -1.
        994    1    1    2    0    0 -0.82890734472E+01  0.23277327243E+02  0.23676062092E+02  0.17458676530E+03  0.17120000000E+03 0.  0.
        998    1    1    2    0    0 -0.95543208978E+01 -0.42552265012E+01  0.14696104274E+04  0.14696816663E+04  0.10000000000E+02 0. -1.
</event>
<event>
 5    1  0.7732857E-009  0.3691258E+03  0.7957747E-01  0.3499918E+00
         13   -1    0    0    0    0  0.00000000000E+00  0.00000000000E+00  0.14999999963E+04  0.15000000000E+04  0.10566000000E+00 0.  1.
        994   -1    0    0    0    0 -0.00000000000E+00 -0.00000000000E+00  0.11368683772E-12  0.17120000000E+03  0.17120000000E+03 0.  0.
         13    1    1    2    0    0 -0.12175895992E+02  0.47218756410E+01  0.31827367133E+01  0.13442080561E+02  0.10566000000E+00 0.  1.
        994    1    1    2    0    0  0.19892534515E+02 -0.66639923944E+01  0.12012769311E+02  0.17289843363E+03  0.17120000000E+03 0.  0.
        998    1    1    2    0    0 -0.77166385231E+01  0.19421167534E+01  0.14848044903E+04  0.14848594858E+04  0.10000000000E+02 0.  1.
</event>
<event>
 5    1  0.7732857E-009  0.3813405E+03  0.7957747E-01  0.3445342E+00
         13   -1    0    0    0    0  0.00000000000E+00  0.00000000000E+00  0.14999999963E+04  0.15000000000E+04  0.10566000000E+00 0. -1.
        994   -1    0    0    0    0 -0.00000000000E+00 -0.00000000000E+00  0.11368683772E-12  0.17120000000E+03  0.17120000000E+03 0.  0.
         13    1    1    2    0    0 -0.21121519340E+02 -0.10419410582E+01  0.61250421725E+02  0.64798376106E+02  0.10566000000E+00 0. -1.
        994    1    1    2    0    0  0.21776158585E+02 -0.21232553755E+01  0.50528537491E+01  0.17266638534E+03  0.17120000000E+03 0.  0.
        998    1    1    2    0    0 -0.65463924551E+00  0.31651964337E+01  0.14336967208E+04  0.14337352386E+04  0.10000000000E+02 0. -1.
</event>
<event>
 5    1  0.7732857E-009  0.3738747E+03  0.7957747E-01  0.3478271E+00
         13   -1    0    0    0    0  0.00000000000E+00  0.00000000000E+00  0.14999999963E+04  0.15000000000E+04  0.10566000000E+00 0. -1.
        994   -1    0    0    0    0 -0.00000000000E+00 -0.00000000000E+00  0.11368683772E-12  0.17120000000E+03  0.17120000000E+03 0.  0.
         13    1    1    2    0    0 -0.28398112439E+02 -0.39368074422E+02  0.18060060937E+03  0.18701039902E+03  0.10566000000E+00 0. -1.
        994    1    1    2    0    0  0.95829697989E+01  0.12430176379E+01  0.75764371244E+01  0.17163979959E+03  0.17120000000E+03 0.  0.
        998    1    1    2    0    0  0.18815142640E+02  0.38125056784E+02  0.13118229498E+04  0.13125498014E+04  0.10000000000E+02 0. -1.
</event>
<event>
 5    1  0.7732857E-009  0.3715194E+03  0.7957747E-01  0.3488937E+00
         13   -1    0    0    0    0  0.00000000000E+00  0.00000000000E+00  0.14999999963E+04  0.15000000000E+04  0.10566000000E+00 0. -1.
        994   -1    0    0    0    0 -0.00000000000E+00 -0.00000000000E+00  0.11368683772E-12  0.17120000000E+03  0.17120000000E+03 0.  0.
         13    1    1    2    0    0  0.99445469936E+02  0.13687396601E+02  0.33687180023E+03  0.35151012400E+03  0.10566000000E+00 0. -1.
        994    1    1    2    0    0 -0.92358968719E+02 -0.30877510044E+02  0.45867513521E+02  0.20222974194E+03  0.17120000000E+03 0.  0.
        998    1    1    2    0    0 -0.70865012165E+01  0.17190113443E+02  0.11172606825E+04  0.11174601341E+04  0.10000000000E+02 0.  1.
</event>
<event>
 5    1  0.7732857E-009  0.3821121E+03  0.7957747E-01  0.3442013E+00
         13   -1    0    0    0    0  0.00000000000E+00  0.00000000000E+00  0.14999999963E+04  0.15000000000E+04  0.10566000000E+00 0.  1.
        994   -1    0    0    0    0 -0.00000000000E+00 -0.00000000000E+00  0.11368683772E-12  0.17120000000E+03  0.17120000000E+03 0.  0.
         13    1    1    2    0    0 -0.23509206462E+02  0.12596760222E+02  0.12025959710E+03  0.12318174790E+03  0.10566000000E+00 0.  1.
        994    1    1    2    0    0  0.61259209412E+01 -0.77934563393E+01  0.33970151145E+01  0.17152039115E+03  0.17120000000E+03 0.  0.
        998    1    1    2    0    0  0.17383285520E+02 -0.48033038831E+01  0.13763433841E+04  0.13764978609E+04  0.10000000000E+02 0.  1.
</event>
<event>
 5    1  0.7732857E-009  0.3839047E+03  0.7957747E-01  0.3434331E+00
         13   -1    0    0    0    0  0.00000000000E+00  0.00000000000E+00  0.14999999963E+04  0.15000000000E+04  0.10566000000E+00 0.  1.
        994   -1    0    0    0    0 -0.00000000000E+00 -0.00000000000E+00  0.11368683772E-12  0.17120000000E+03  0.17120000000E+03 0.  0.
         13    1    1    2    0    0 -0.18190025806E+03 -0.12274519622E+02  0.94117210245E+03  0.95866746336E+03  0.10566000000E+00 0.  1.
        994    1    1    2    0    0  0.20766922868E+03  0.12229871400E+02  0.16123113155E+03  0.31397610749E+03  0.17120000000E+03 0.  0.
        998    1    1    2    0    0 -0.25768970613E+02  0.44648222030E-01  0.39759676229E+03  0.39855642915E+03  0.10000000000E+02 0.  1.
</event>
<event>
 5    1  0.7732857E-009  0.3761810E+03  0.7957747E-01  0.3467958E+00
         13   -1    0    0    0    0  0.00000000000E+00  0.00000000000E+00  0.14999999963E+04  0.15000000000E+04  0.10566000000E+00 0. -1.
        994   -1    0    0    0    0 -0.00000000000E+00 -0.00000000000E+00  0.11368683772E-12  0.17120000000E+03  0.17120000000E+03 0.  0.
         13    1    1    2    0    0 -0.47103939312E+02  0.46055408168E+02  0.15703565725E+03  0.17029412947E+03  0.10566000000E+00 0. -1.
        994    1    1    2    0    0 -0.10174619012E+02 -0.47992890830E+02  0.22896274054E+02  0.17955645298E+03  0.17120000000E+03 0.  0.
        998    1    1    2    0    0  0.57278558324E+02  0.19374826620E+01  0.13200680650E+04  0.13213494175E+04  0.10000000000E+02 0. -1.
</event>
<event>
 5    1  0.7732857E-009  0.3795974E+03  0.7957747E-01  0.3452913E+00
         13   -1    0    0    0    0  0.00000000000E+00  0.00000000000E+00  0.14999999963E+04  0.15000000000E+04  0.10566000000E+00 0.  1.
        994   -1    0    0    0    0 -0.00000000000E+00 -0.00000000000E+00  0.11368683772E-12  0.17120000000E+03  0.17120000000E+03 0.  0.
         13    1    1    2    0    0 -0.36896394224E+02 -0.20328525429E+02  0.18115070898E+03  0.18598436327E+03  0.10566000000E+00 0.  1.
        994    1    1    2    0    0  0.25756653620E+02  0.40462521437E+02  0.12076325623E+02  0.17820184760E+03  0.17120000000E+03 0.  0.
        998    1    1    2    0    0  0.11139740604E+02 -0.20133996008E+02  0.13067729617E+04  0.13070137891E+04  0.10000000000E+02 0.  1.
</event>
<event>
 5    1  0.7732857E-009  0.3854924E+03  0.7957747E-01  0.3427587E+00
         13   -1    0    0    0    0  0.00000000000E+00  0.00000000000E+00  0.14999999963E+04  0.15000000000E+04  0.10566000000E+00 0. -1.
        994   -1    0    0    0    0 -0.00000000000E+00 -0.00000000000E+00  0.11368683772E-12  0.17120000000E+03  0.17120000000E+03 0.  0.
         13    1    1    2    0    0  0.11628524531E+02  0.88454007533E+01  0.78550730043E+02  0.79898010310E+02  0.10566000000E+00 0. -1.
        994    1    1    2    0    0 -0.49379744487E+00 -0.12147819203E+02  0.18713625549E+01  0.17164135674E+03  0.17120000000E+03 0.  0.
        998    1    1    2    0    0 -0.11134727086E+02  0.33024184495E+01  0.14195779037E+04  0.14196606329E+04  0.10000000000E+02 0. -1.
</event>
<event>
 5    1  0.7732857E-009  0.3920094E+03  0.7957747E-01  0.3400478E+00
         13   -1    0    0    0    0  0.00000000000E+00  0.00000000000E+00  0.14999999963E+04  0.15000000000E+04  0.10566000000E+00 0.  1.
        994   -1    0    0    0    0 -0.00000000000E+00 -0.00000000000E+00  0.11368683772E-12  0.17120000000E+03  0.17120000000E+03 0.  0.
         13    1    1    2    0    0 -0.16831502719E+02 -0.18952966866E+01 -0.41304507618E+01  0.17434546763E+02  0.10566000000E+00 0.  1.
        994    1    1    2    0    0  0.13500691867E+02 -0.50621877871E+01  0.23876071891E+02  0.17345720289E+03  0.17120000000E+03 0.  0.
        998    1    1    2    0    0  0.33308108515E+01  0.69574844737E+01  0.14802543751E+04  0.14803082503E+04  0.10000000000E+02 0.  1.
</event>
<event>
 5    1  0.7732857E-009  0.3832573E+03  0.7957747E-01  0.3437097E+00
         13   -1    0    0    0    0  0.00000000000E+00  0.00000000000E+00  0.14999999963E+04  0.15000000000E+04  0.10566000000E+00 0. -1.
        994   -1    0    0    0    0 -0.00000000000E+00 -0.00000000000E+00  0.11368683772E-12  0.17120000000E+03  0.17120000000E+03 0.  0.
         13    1    1    2    0    0 -0.13891056671E+02 -0.67509958017E+02  0.40101356320E+03  0.40689365308E+03  0.10566000000E+00 0. -1.
        994    1    1    2    0    0  0.29901084277E+02  0.10727506876E+03  0.44657822770E+02  0.20905926517E+03  0.17120000000E+03 0.  0.
        998    1    1    2    0    0 -0.16010027606E+02 -0.39765110743E+02  0.10543286103E+04  0.10552470817E+04  0.10000000000E+02 0. -1.
</event>
<event>
 5    1  0.7732857E-009  0.3755600E+03  0.7957747E-01  0.3470722E+00
         13   -1    0    0    0    0  0.00000000000E+00  0.00000000000E+00  0.14999999963E+04  0.15000000000E+04  0.10566000000E+00 0. -1.
        994   -1    0    0    0    0 -0.00000000000E+00 -0.00000000000E+00  0.11368683772E-12  0.17120000000E+03  0.17120000000E+03 0.  0.
         13    1    1    2    0    0 -0.75588325926E+02 -0.57090310429E+02  0.45134736515E+03  0.46118039177E+03  0.10566000000E+00 0. -1.
        994    1    1    2    0    0  0.86016514201E+02  0.53943759301E+02  0.42211615434E+02  0.20346997410E+03  0.17120000000E+03 0.  0.
        998    1    1    2    0    0 -0.10428188275E+02  0.31465511275E+01  0.10064410157E+04  0.10065496341E+04  0.10000000000E+02 0. -1.
</event>
<event>
 5    1  0.7732857E-009  0.3801411E+03  0.7957747E-01  0.3450544E+00
         13   -1    0    0    0    0  0.00000000000E+00  0.00000000000E+00  0.14999999963E+04  0.15000000000E+04  0.10566000000E+00 0. -1.
        994   -1    0    0    0    0 -0.00000000000E+00 -0.00000000000E+00  0.11368683772E-12  0.17120000000E+03  0.17120000000E+03 0.  0.
         13    1    1    2    0    0 -0.18807467137E+02  0.19781816258E+02  0.91489451139E+02  0.95474456837E+02  0.10566000000E+00 0. -1.
        994    1    1    2    0    0  0.26197383628E+02  0.48935647477E+01  0.64387543072E+01  0.17338150836E+03  0.17120000000E+03 0.  0.
        998    1    1    2    0    0 -0.73899164912E+01 -0.24675381006E+02  0.14020717908E+04  0.14023440348E+04  0.10000000000E+02 0. -1.
</event>
<event>
 5    1  0.7732857E-009  0.3719431E+03  0.7957747E-01  0.3487008E+00
         13   -1    0    0    0    0  0.00000000000E+00  0.00000000000E+00  0.14999999963E+04  0.15000000000E+04  0.10566000000E+00 0. -1.
        994   -1    0    0    0    0 -0.00000000000E+00 -0.00000000000E+00  0.11368683772E-12  0.17120000000E+03  0.17120000000E+03 0.  0.
         13    1    1    2    0    0 -0.38374497988E+02  0.63007656681E+02  0.28696347063E+03  0.29629480512E+03  0.10566000000E+00 0. -1.
        994    1    1    2    0    0  0.34857748296E+02 -0.51567983964E+02  0.21683493790E+02  0.18345008446E+03  0.17120000000E+03 0.  0.
        998    1    1    2    0    0  0.35167496928E+01 -0.11439672716E+02  0.11913530319E+04  0.11914551104E+04  0.10000000000E+02 0. -1.
</event>
<event>
 5    1  0.7732857E-009  0.3775776E+03  0.7957747E-01  0.3461775E+00
         13   -1    0    0    0    0  0.00000000000E+00  0.00000000000E+00  0.14999999963E+04  0.15000000000E+04  0.10566000000E+00 0.  1.
        994   -1    0    0    0    0 -0.00000000000E+00 -0.00000000000E+00  0.11368683772E-12  0.17120000000E+03  0.17120000000E+03 0.  0.
         13    1    1    2    0    0 -0.53740085585E+01  0.31205412244E+02  0.89179833241E+02  0.94634621266E+02  0.10566000000E+00 0.  1.
        994    1    1    2    0    0  0.17782577530E+02 -0.22995859561E+02  0.82139215004E+01  0.17384458038E+03  0.17120000000E+03 0.  0.
        998    1    1    2    0    0 -0.12408568972E+02 -0.82095526828E+01  0.14026062415E+04  0.14027207984E+04  0.10000000000E+02 0.  1.
</event>
<event>
 5    1  0.7732857E-009  0.3812938E+03  0.7957747E-01  0.3445544E+00
         13   -1    0    0    0    0  0.00000000000E+00  0.00000000000E+00  0.14999999963E+04  0.15000000000E+04  0.10566000000E+00 0. -1.
        994   -1    0    0    0    0 -0.00000000000E+00 -0.00000000000E+00  0.11368683772E-12  0.17120000000E+03  0.17120000000E+03 0.  0.
         13    1    1    2    0    0  0.74806752241E+01 -0.13132645400E+02  0.29681842149E+02  0.33308404261E+02  0.10566000000E+00 0. -1.
        994    1    1    2    0    0 -0.44806976980E+00  0.32347418944E+02  0.69729685272E+01  0.17436920189E+03  0.17120000000E+03 0.  0.
        998    1    1    2    0    0 -0.70326054543E+01 -0.19214773543E+02  0.14633451856E+04  0.14635223938E+04  0.10000000000E+02 0. -1.
</event>
<event>
 5    1  0.7732857E-009  0.3806996E+03  0.7957747E-01  0.3448118E+00
         13   -1    0    0    0    0  0.00000000000E+00  0.00000000000E+00  0.14999999963E+04  0.15000000000E+04  0.10566000000E+00 0.  1.
        994   -1    0    0    0    0 -0.00000000000E+00 -0.00000000000E+00  0.11368683772E-12  0.17120000000E+03  0.17120000000E+03 0.  0.
         13    1    1    2    0    0 -0.11017557942E+02  0.21504710042E+02  0.99824151447E+01  0.26143812139E+02  0.10566000000E+00 0.  1.
        994    1    1    2    0    0  0.54616284242E+01 -0.29104994749E+02  0.19904213719E+02  0.17487866602E+03  0.17120000000E+03 0.  0.
        998    1    1    2    0    0  0.55559295179E+01  0.76002847066E+01  0.14701133674E+04  0.14701775218E+04  0.10000000000E+02 0.  1.
</event>
<event>
 5    1  0.7732857E-009  0.3751527E+03  0.7957747E-01  0.3472540E+00
         13   -1    0    0    0    0  0.00000000000E+00  0.00000000000E+00  0.14999999963E+04  0.15000000000E+04  0.10566000000E+00 0.  1.
        994   -1    0    0    0    0 -0.00000000000E+00 -0.00000000000E+00  0.11368683772E-12  0.17120000000E+03  0.17120000000E+03 0.  0.
         13    1    1    2    0    0  0.37057234087E+02  0.38636315111E+02  0.23424909850E+03  0.24028869044E+03  0.10566000000E+00 0.  1.
        994    1    1    2    0    0 -0.15392066155E+02 -0.10039768924E+02  0.77485405235E+01  0.17235774581E+03  0.17120000000E+03 0.  0.
        998    1    1    2    0    0 -0.21665167932E+02 -0.28596546188E+02  0.12580023573E+04  0.12585535637E+04  0.10000000000E+02 0.  1.
</event>
<event>
 5    1  0.7732857E-009  0.3811301E+03  0.7957747E-01  0.3446253E+00
         13   -1    0    0    0    0  0.00000000000E+00  0.00000000000E+00  0.14999999963E+04  0.15000000000E+04  0.10566000000E+00 0.  1.
        994   -1    0    0    0    0 -0.00000000000E+00 -0.00000000000E+00  0.11368683772E-12  0.17120000000E+03  0.17120000000E+03 0.  0.
         13    1    1    2    0    0 -0.27514914756E+02 -0.82104581789E+01  0.10118052597E+03  0.10517600562E+03  0.10566000000E+00 0.  1.
        994    1    1    2    0    0  0.38025318165E+02  0.12974007548E+02  0.89587338391E+01  0.17607938155E+03  0.17120000000E+03 0.  0.
        998    1    1    2    0    0 -0.10510403409E+02 -0.47635493695E+01  0.13898607365E+04  0.13899446128E+04  0.10000000000E+02 0.  1.
</event>
<event>
 5    1  0.7732857E-009  0.3853448E+03  0.7957747E-01  0.3428211E+00
         13   -1    0    0    0    0  0.00000000000E+00  0.00000000000E+00  0.14999999963E+04  0.15000000000E+04  0.10566000000E+00 0.  1.
        994   -1    0    0    0    0 -0.00000000000E+00 -0.00000000000E+00  0.11368683772E-12  0.17120000000E+03  0.17120000000E+03 0.  0.
         13    1    1    2    0    0  0.14959572117E+02 -0.27672119353E+01  0.76912630541E+02  0.78402870870E+02  0.10566000000E+00 0.  1.
        994    1    1    2    0    0 -0.14253026129E+02  0.37515444410E+01  0.21729210567E+01  0.17184697968E+03  0.17120000000E+03 0.  0.
        998    1    1    2    0    0 -0.70654598761E+00 -0.98433250567E+00  0.14209144447E+04  0.14209501494E+04  0.10000000000E+02 0.  1.
</event>
<event>
 5    1  0.7732857E-009  0.3834838E+03  0.7957747E-01  0.3436128E+00
         13   -1    0    0    0    0  0.00000000000E+00  0.00000000000E+00  0.14999999963E+04  0.15000000000E+04  0.10566000000E+00 0. -1.
        994   -1    0    0    0    0 -0.00000000000E+00 -0.00000000000E+00  0.11368683772E-12  0.17120000000E+03  0.17120000000E+03 0.  0.
         13    1    1    2    0    0  0.21044734700E+02  0.23152052518E+02  0.17449372213E+03  0.17727653150E+03  0.10566000000E+00 0. -1.
        994    1    1    2    0    0 -0.25816785760E+02 -0.26543504272E+02  0.69292383915E+01  0.17529551732E+03  0.17120000000E+03 0.  0.
        998    1    1    2    0    0  0.47720510607E+01  0.33914517542E+01  0.13185770358E+04  0.13186279512E+04  0.10000000000E+02 0. -1.
</event>
<event>
 5    1  0.7732857E-009  0.3849510E+03  0.7957747E-01  0.3429880E+00
         13   -1    0    0    0    0  0.00000000000E+00  0.00000000000E+00  0.14999999963E+04  0.15000000000E+04  0.10566000000E+00 0. -1.
        994   -1    0    0    0    0 -0.00000000000E+00 -0.00000000000E+00  0.11368683772E-12  0.17120000000E+03  0.17120000000E+03 0.  0.
         13    1    1    2    0    0  0.46460935762E+00 -0.12711905139E+02  0.48644815682E+02  0.50280589206E+02  0.10566000000E+00 0. -1.
        994    1    1    2    0    0 -0.18993031651E+01  0.90858310347E+01  0.19379133682E+01  0.17146240167E+03  0.17120000000E+03 0.  0.
        998    1    1    2    0    0  0.14346938074E+01  0.36260741047E+01  0.14494172672E+04  0.14494570091E+04  0.10000000000E+02 0. -1.
</event>
<event>
 5    1  0.7732857E-009  0.3817810E+03  0.7957747E-01  0.3443440E+00
         13   -1    0    0    0    0  0.00000000000E+00  0.00000000000E+00  0.14999999963E+04  0.15000000000E+04  0.10566000000E+00 0. -1.
        994   -1    0    0    0    0 -0.00000000000E+00 -0.00000000000E+00  0.11368683772E-12  0.17120000000E+03  0.17120000000E+03 0.  0.
         13    1    1    2    0    0  0.22873878190E+02  0.17572573650E+02  0.13943755744E+03  0.14238979331E+03  0.10566000000E+00 0. -1.
        994    1    1    2    0    0 -0.69341380776E+01  0.20121970793E+01  0.34100779317E+01  0.17138611332E+03  0.17120000000E+03 0.  0.
        998    1    1    2    0    0 -0.15939740113E+02 -0.19584770729E+02  0.13571523609E+04  0.13574240934E+04  0.10000000000E+02 0. -1.
</event>
<event>
 5    1  0.7732857E-009  0.3834060E+03  0.7957747E-01  0.3436461E+00
         13   -1    0    0    0    0  0.00000000000E+00  0.00000000000E+00  0.14999999963E+04  0.15000000000E+04  0.10566000000E+00 0. -1.
        994   -1    0    0    0    0 -0.00000000000E+00 -0.00000000000E+00  0.11368683772E-12  0.17120000000E+03  0.17120000000E+03 0.  0.
         13    1    1    2    0    0 -0.10748724600E+02 -0.11210884366E+02  0.50633251254E+02  0.52961838199E+02  0.10566000000E+00 0. -1.
        994    1    1    2    0    0  0.10994366912E+02 -0.52386981731E+01  0.29140686517E+01  0.17165736762E+03  0.17120000000E+03 0.  0.
        998    1    1    2    0    0 -0.24564231231E+00  0.16449582539E+02  0.14464526764E+04  0.14465807942E+04  0.10000000000E+02 0. -1.
</event>
<event>
 5    1  0.7732857E-009  0.3931951E+03  0.7957747E-01  0.3395642E+00
         13   -1    0    0    0    0  0.00000000000E+00  0.00000000000E+00  0.14999999963E+04  0.15000000000E+04  0.10566000000E+00 0. -1.
        994   -1    0    0    0    0 -0.00000000000E+00 -0.00000000000E+00  0.11368683772E-12  0.17120000000E+03  0.17120000000E+03 0.  0.
         13    1    1    2    0    0  0.29479014696E+02 -0.56094937032E+02  0.73549189771E+02  0.97083205283E+02  0.10566000000E+00 0. -1.
        994    1    1    2    0    0 -0.23936449747E+02  0.55737450031E+02  0.37927826133E+02  0.18554669751E+03  0.17120000000E+03 0.  0.
        998    1    1    2    0    0 -0.55425649481E+01  0.35748700101E+00  0.13885229804E+04  0.13885700972E+04  0.10000000000E+02 0. -1.
</event>
<event>
 5    1  0.7732857E-009  0.3839907E+03  0.7957747E-01  0.3433964E+00
         13   -1    0    0    0    0  0.00000000000E+00  0.00000000000E+00  0.14999999963E+04  0.15000000000E+04  0.10566000000E+00 0.  1.
        994   -1    0    0    0    0 -0.00000000000E+00 -0.00000000000E+00  0.11368683772E-12  0.17120000000E+03  0.17120000000E+03 0.  0.
         13    1    1    2    0    0 -0.15393806534E+02 -0.85035008819E+01  0.71724910722E+02  0.73849528021E+02  0.10566000000E+00 0.  1.
        994    1    1    2    0    0  0.10620131172E+02  0.61308592759E+01  0.26283912938E+01  0.17165874013E+03  0.17120000000E+03 0.  0.
        998    1    1    2    0    0  0.47736753621E+01  0.23726416060E+01  0.14256466943E+04  0.14256917319E+04  0.10000000000E+02 0.  1.
</event>
<event>
 5    1  0.7732857E-009  0.3723360E+03  0.7957747E-01  0.3485224E+00
         13   -1    0    0    0    0  0.00000000000E+00  0.00000000000E+00  0.14999999963E+04  0.15000000000E+04  0.10566000000E+00 0.  1.
        994   -1    0    0    0    0 -0.00000000000E+00 -0.00000000000E+00  0.11368683772E-12  0.17120000000E+03  0.17120000000E+03 0.  0.
         13    1    1    2    0    0  0.35067398390E+02  0.50693650689E+01  0.89435048547E+02  0.96198024744E+02  0.10566000000E+00 0.  1.
        994    1    1    2    0    0  0.25890773855E+02 -0.96913517538E+01  0.10679048730E+02  0.17374618428E+03  0.17120000000E+03 0.  0.
        998    1    1    2    0    0 -0.60958172245E+02  0.46219866849E+01  0.13998858990E+04  0.14012557910E+04  0.10000000000E+02 0.  1.
</event>
<event>
 5    1  0.7732857E-009  0.3822922E+03  0.7957747E-01  0.3441238E+00
         13   -1    0    0    0    0  0.00000000000E+00  0.00000000000E+00  0.14999999963E+04  0.15000000000E+04  0.10566000000E+00 0.  1.
        994   -1    0    0    0    0 -0.00000000000E+00 -0.00000000000E+00  0.11368683772E-12  0.17120000000E+03  0.17120000000E+03 0.  0.
         13    1    1    2    0    0  0.13319621054E+02 -0.16576804347E+02  0.67682588866E+02  0.70944673845E+02  0.10566000000E+00 0.  1.
        994    1    1    2    0    0 -0.49727842607E+02  0.52257970160E+01  0.11320294558E+02  0.17871137724E+03  0.17120000000E+03 0.  0.
        998    1    1    2    0    0  0.36408221553E+02  0.11351007331E+02  0.14209971129E+04  0.14215439489E+04  0.10000000000E+02 0.  1.
</event>
<event>
 5    1  0.7732857E-009  0.3835507E+03  0.7957747E-01  0.3435842E+00
         13   -1    0    0    0    0  0.00000000000E+00  0.00000000000E+00  0.14999999963E+04  0.15000000000E+04  0.10566000000E+00 0.  1.
        994   -1    0    0    0    0 -0.00000000000E+00 -0.00000000000E+00  0.11368683772E-12  0.17120000000E+03  0.17120000000E+03 0.  0.
         13    1    1    2    0    0  0.71874891671E+01  0.13909788496E+02  0.56854152155E+02  0.58970738488E+02  0.10566000000E+00 0.  1.
        994    1    1    2    0    0  0.80514667080E+00  0.97415464978E+01  0.26671740841E+01  0.17149956212E+03  0.17120000000E+03 0.  0.
        998    1    1    2    0    0 -0.79926358379E+01 -0.23651334994E+02  0.14404786700E+04  0.14407296994E+04  0.10000000000E+02 0.  1.
</event>
<event>
 5    1  0.9841889E-009  0.3863615E+03  0.7957747E-01  0.3423918E+00
         13   -1    0    0    0    0  0.00000000000E+00  0.00000000000E+00  0.14999999963E+04  0.15000000000E+04  0.10566000000E+00 0.  1.
        994   -1    0    0    0    0 -0.00000000000E+00 -0.00000000000E+00  0.11368683772E-12  0.17120000000E+03  0.17120000000E+03 0.  0.
         13    1    1    2    0    0  0.56443235012E+01 -0.83293540972E+01  0.53826826065E+02  0.54759244843E+02  0.10566000000E+00 0.  1.
        994    1    1    2    0    0 -0.17054264671E+01  0.74604095954E+01  0.11474477997E+01  0.17137480219E+03  0.17120000000E+03 0.  0.
        998    1    1    2    0    0 -0.39388970341E+01  0.86894450186E+00  0.14450257224E+04  0.14450659530E+04  0.10000000000E+02 0.  1.
</event>
<event>
 5    1  0.7992855E-009  0.3850882E+03  0.7957747E-01  0.3429298E+00
         13   -1    0    0    0    0  0.00000000000E+00  0.00000000000E+00  0.14999999963E+04  0.15000000000E+04  0.10566000000E+00 0. -1.
        994   -1    0    0    0    0 -0.00000000000E+00 -0.00000000000E+00  0.11368683772E-12  0.17120000000E+03  0.17120000000E+03 0.  0.
         13    1    1    2    0    0 -0.17226740122E+02  0.76299641049E+00  0.88972064763E+02  0.90627712158E+02  0.10566000000E+00 0. -1.
        994    1    1    2    0    0  0.18709842958E+02  0.72221491389E+01  0.29098303182E+01  0.17239525740E+03  0.17120000000E+03 0.  0.
        998    1    1    2    0    0 -0.14831028356E+01 -0.79851455494E+01  0.14081181012E+04  0.14081770304E+04  0.10000000000E+02 0. -1.
</event>
<event>
 5    1  0.7732857E-009  0.3813615E+03  0.7957747E-01  0.3445252E+00
         13   -1    0    0    0    0  0.00000000000E+00  0.00000000000E+00  0.14999999963E+04  0.15000000000E+04  0.10566000000E+00 0. -1.
        994   -1    0    0    0    0 -0.00000000000E+00 -0.00000000000E+00  0.11368683772E-12  0.17120000000E+03  0.17120000000E+03 0.  0.
         13    1    1    2    0    0  0.80080106962E+01  0.10175639288E+02  0.22517211692E+02  0.25975139203E+02  0.10566000000E+00 0. -1.
        994    1    1    2    0    0 -0.10994258374E+02 -0.10982567078E+02  0.42515168346E+01  0.17195640695E+03  0.17120000000E+03 0.  0.
        998    1    1    2    0    0  0.29862476779E+01  0.80692779031E+00  0.14732312678E+04  0.14732684538E+04  0.10000000000E+02 0. -1.
</event>
<event>
 5    1  0.7732857E-009  0.3730455E+03  0.7957747E-01  0.3482010E+00
         13   -1    0    0    0    0  0.00000000000E+00  0.00000000000E+00  0.14999999963E+04  0.15000000000E+04  0.10566000000E+00 0.  1.
        994   -1    0    0    0    0 -0.00000000000E+00 -0.00000000000E+00  0.11368683772E-12  0.17120000000E+03  0.17120000000E+03 0.  0.
         13    1    1    2    0    0 -0.32579033195E+00  0.14498049491E+02  0.10001333034E+02  0.17616395910E+02  0.10566000000E+00 0.  1.
        994    1    1    2    0    0 -0.20309099308E+01 -0.20552377100E+02  0.91466765551E+01  0.17268360227E+03  0.17120000000E+03 0.  0.
        998    1    1    2    0    0  0.23567002627E+01  0.60543276096E+01  0.14808519867E+04  0.14809000018E+04  0.10000000000E+02 0.  1.
</event>
<event>
 5    1  0.7732857E-009  0.3836160E+03  0.7957747E-01  0.3435563E+00
         13   -1    0    0    0    0  0.00000000000E+00  0.00000000000E+00  0.14999999963E+04  0.15000000000E+04  0.10566000000E+00 0. -1.
        994   -1    0    0    0    0 -0.00000000000E+00 -0.00000000000E+00  0.11368683772E-12  0.17120000000E+03  0.17120000000E+03 0.  0.
         13    1    1    2    0    0  0.22177589913E+02  0.11373976313E+02  0.12436310974E+03  0.12683614256E+03  0.10566000000E+00 0. -1.
        994    1    1    2    0    0 -0.19072151502E+02 -0.17030572008E+02  0.44815779231E+01  0.17315689962E+03  0.17120000000E+03 0.  0.
        998    1    1    2    0    0 -0.31054384106E+01  0.56565956945E+01  0.13711553086E+04  0.13712069578E+04  0.10000000000E+02 0. -1.
</event>
<event>
 5    1  0.7732857E-009  0.3808680E+03  0.7957747E-01  0.3447388E+00
         13   -1    0    0    0    0  0.00000000000E+00  0.00000000000E+00  0.14999999963E+04  0.15000000000E+04  0.10566000000E+00 0.  1.
        994   -1    0    0    0    0 -0.00000000000E+00 -0.00000000000E+00  0.11368683772E-12  0.17120000000E+03  0.17120000000E+03 0.  0.
         13    1    1    2    0    0  0.10525604153E+02  0.10452492171E+01  0.13457250642E+02  0.17116940368E+02  0.10566000000E+00 0.  1.
        994    1    1    2    0    0 -0.10599985990E+02  0.50851521207E+00  0.40711284834E+01  0.17157689931E+03  0.17120000000E+03 0.  0.
        998    1    1    2    0    0  0.74381837066E-01 -0.15537644292E+01  0.14824716172E+04  0.14825061603E+04  0.10000000000E+02 0.  1.
</event>
<event>
 5    1  0.7732857E-009  0.3773618E+03  0.7957747E-01  0.3462727E+00
         13   -1    0    0    0    0  0.00000000000E+00  0.00000000000E+00  0.14999999963E+04  0.15000000000E+04  0.10566000000E+00 0.  1.
        994   -1    0    0    0    0 -0.00000000000E+00 -0.00000000000E+00  0.11368683772E-12  0.17120000000E+03  0.17120000000E+03 0.  0.
         13    1    1    2    0    0  0.76733463967E+02  0.59884140616E+02  0.32898001555E+03  0.34307724580E+03  0.10566000000E+00 0.  1.
        994    1    1    2    0    0 -0.66053562088E+02  0.18856382937E+01  0.30728017356E+02  0.18606525669E+03  0.17120000000E+03 0.  0.
        998    1    1    2    0    0 -0.10679901880E+02 -0.61769778910E+02  0.11402919634E+04  0.11420574975E+04  0.10000000000E+02 0.  1.
</event>
<event>
 5    1  0.7732857E-009  0.3827686E+03  0.7957747E-01  0.3439191E+00
         13   -1    0    0    0    0  0.00000000000E+00  0.00000000000E+00  0.14999999963E+04  0.15000000000E+04  0.10566000000E+00 0.  1.
        994   -1    0    0    0    0 -0.00000000000E+00 -0.00000000000E+00  0.11368683772E-12  0.17120000000E+03  0.17120000000E+03 0.  0.
         13    1    1    2    0    0 -0.11355564888E+02 -0.18969180082E+02  0.91175013683E+02  0.93817231525E+02  0.10566000000E+00 0.  1.
        994    1    1    2    0    0 -0.17825438527E-01  0.98762879216E+01  0.30652257181E+01  0.17151203162E+03  0.17120000000E+03 0.  0.
        998    1    1    2    0    0  0.11373390326E+02  0.90928921607E+01  0.14057597569E+04  0.14058707369E+04  0.10000000000E+02 0.  1.
</event>
<event>
 5    1  0.7732857E-009  0.3766682E+03  0.7957747E-01  0.3465795E+00
         13   -1    0    0    0    0  0.00000000000E+00  0.00000000000E+00  0.14999999963E+04  0.15000000000E+04  0.10566000000E+00 0. -1.
        994   -1    0    0    0    0 -0.00000000000E+00 -0.00000000000E+00  0.11368683772E-12  0.17120000000E+03  0.17120000000E+03 0.  0.
         13    1    1    2    0    0  0.20277091074E+02 -0.57240598202E+02  0.24746434207E+03  0.25480631520E+03  0.10566000000E+00 0. -1.
        994    1    1    2    0    0 -0.15466099275E+02  0.68281478586E+02  0.22576490581E+02  0.18633490943E+03  0.17120000000E+03 0.  0.
        998    1    1    2    0    0 -0.48109917988E+01 -0.11040880385E+02  0.12299591636E+04  0.12300587754E+04  0.10000000000E+02 0. -1.
</event>
<event>
 5    1  0.7732857E-009  0.3831907E+03  0.7957747E-01  0.3437382E+00
         13   -1    0    0    0    0  0.00000000000E+00  0.00000000000E+00  0.14999999963E+04  0.15000000000E+04  0.10566000000E+00 0.  1.
        994   -1    0    0    0    0 -0.00000000000E+00 -0.00000000000E+00  0.11368683772E-12  0.17120000000E+03  0.17120000000E+03 0.  0.
         13    1    1    2    0    0 -0.11219296311E+02 -0.40409163702E+01  0.28681992109E+02  0.31062347790E+02  0.10566000000E+00 0.  1.
        994    1    1    2    0    0 -0.42895487628E+01 -0.60723862900E+01  0.27139458385E+01  0.17138284513E+03  0.17120000000E+03 0.  0.
        998    1    1    2    0    0  0.15508845074E+02  0.10113302660E+02  0.14686040583E+04  0.14687548071E+04  0.10000000000E+02 0.  1.
</event>
<event>
 5    1  0.7732857E-009  0.3839249E+03  0.7957747E-01  0.3434245E+00
         13   -1    0    0    0    0  0.00000000000E+00  0.00000000000E+00  0.14999999963E+04  0.15000000000E+04  0.10566000000E+00 0.  1.
        994   -1    0    0    0    0 -0.00000000000E+00 -0.00000000000E+00  0.11368683772E-12  0.17120000000E+03  0.17120000000E+03 0.  0.
         13    1    1    2    0    0 -0.53334234910E+01  0.88523354207E+01  0.24294449779E+02  0.26401528414E+02  0.10566000000E+00 0.  1.
        994    1    1    2    0    0  0.74975896721E+01  0.16516429014E+00  0.23504906678E+01  0.17138029623E+03  0.17120000000E+03 0.  0.
        998    1    1    2    0    0 -0.21641661811E+01 -0.90174997108E+01  0.14733550558E+04  0.14734181754E+04  0.10000000000E+02 0.  1.
</event>
<event>
 5    1  0.7732857E-009  0.3830518E+03  0.7957747E-01  0.3437977E+00
         13   -1    0    0    0    0  0.00000000000E+00  0.00000000000E+00  0.14999999963E+04  0.15000000000E+04  0.10566000000E+00 0.  1.
        994   -1    0    0    0    0 -0.00000000000E+00 -0.00000000000E+00  0.11368683772E-12  0.17120000000E+03  0.17120000000E+03 0.  0.
         13    1    1    2    0    0  0.11941369139E+01 -0.11096771750E+02  0.22948323188E+02  0.25518640391E+02  0.10566000000E+00 0.  1.
        994    1    1    2    0    0  0.36819911797E+01  0.91294483048E+01  0.29212692973E+01  0.17150766076E+03  0.17120000000E+03 0.  0.
        998    1    1    2    0    0 -0.48761280936E+01  0.19673234450E+01  0.14741304038E+04  0.14741736988E+04  0.10000000000E+02 0.  1.
</event>
<event>
 5    1  0.7732857E-009  0.3830493E+03  0.7957747E-01  0.3437988E+00
         13   -1    0    0    0    0  0.00000000000E+00  0.00000000000E+00  0.14999999963E+04  0.15000000000E+04  0.10566000000E+00 0.  1.
        994   -1    0    0    0    0 -0.00000000000E+00 -0.00000000000E+00  0.11368683772E-12  0.17120000000E+03  0.17120000000E+03 0.  0.
         13    1    1    2    0    0 -0.10687067815E+02  0.15121444968E+02  0.65459727122E+02  0.68028365814E+02  0.10566000000E+00 0.  1.
        994    1    1    2    0    0 -0.76793224117E+01 -0.19224031850E+02  0.40212654361E+01  0.17249390125E+03  0.17120000000E+03 0.  0.
        998    1    1    2    0    0  0.18366390226E+02  0.41025868818E+01  0.14305190037E+04  0.14306777329E+04  0.10000000000E+02 0.  1.
</event>
<event>
 5    1  0.7732857E-009  0.3704349E+03  0.7957747E-01  0.3493895E+00
         13   -1    0    0    0    0  0.00000000000E+00  0.00000000000E+00  0.14999999963E+04  0.15000000000E+04  0.10566000000E+00 0. -1.
        994   -1    0    0    0    0 -0.00000000000E+00 -0.00000000000E+00  0.11368683772E-12  0.17120000000E+03  0.17120000000E+03 0.  0.
         13    1    1    2    0    0 -0.44370707771E+02 -0.93438816174E+02  0.47279843717E+03  0.48398134822E+03  0.10566000000E+00 0. -1.
        994    1    1    2    0    0  0.20086018962E+02  0.85227346339E+02  0.35998276512E+02  0.19563349568E+03  0.17120000000E+03 0.  0.
        998    1    1    2    0    0  0.24284688809E+02  0.82114698341E+01  0.99120328260E+03  0.99158515609E+03  0.10000000000E+02 0. -1.
</event>
<event>
 5    1  0.7732857E-009  0.3838704E+03  0.7957747E-01  0.3434477E+00
         13   -1    0    0    0    0  0.00000000000E+00  0.00000000000E+00  0.14999999963E+04  0.15000000000E+04  0.10566000000E+00 0. -1.
        994   -1    0    0    0    0 -0.00000000000E+00 -0.00000000000E+00  0.11368683772E-12  0.17120000000E+03  0.17120000000E+03 0.  0.
         13    1    1    2    0    0  0.12149249189E+02 -0.14203063995E+02  0.83201190338E+02  0.85274735534E+02  0.10566000000E+00 0. -1.
        994    1    1    2    0    0 -0.11946898895E+02 -0.45476231837E+01  0.27315366551E+01  0.17169831264E+03  0.17120000000E+03 0.  0.
        998    1    1    2    0    0 -0.20235029374E+00  0.18750687179E+02  0.14140672693E+04  0.14142269518E+04  0.10000000000E+02 0. -1.
</event>
<event>
 5    1  0.7732857E-009  0.3842212E+03  0.7957747E-01  0.3432982E+00
         13   -1    0    0    0    0  0.00000000000E+00  0.00000000000E+00  0.14999999963E+04  0.15000000000E+04  0.10566000000E+00 0. -1.
        994   -1    0    0    0    0 -0.00000000000E+00 -0.00000000000E+00  0.11368683772E-12  0.17120000000E+03  0.17120000000E+03 0.  0.
         13    1    1    2    0    0  0.21267646366E+02  0.37836484053E+01  0.12234339114E+03  0.12423584546E+03  0.10566000000E+00 0. -1.
        994    1    1    2    0    0 -0.46707294671E+01 -0.84262454355E+01  0.23233800144E+01  0.17148660420E+03  0.17120000000E+03 0.  0.
        998    1    1    2    0    0 -0.16596916899E+02  0.46425970302E+01  0.13753332251E+04  0.13754775503E+04  0.10000000000E+02 0. -1.
</event>
<event>
 5    1  0.7732857E-009  0.3844585E+03  0.7957747E-01  0.3431972E+00
         13   -1    0    0    0    0  0.00000000000E+00  0.00000000000E+00  0.14999999963E+04  0.15000000000E+04  0.10566000000E+00 0. -1.
        994   -1    0    0    0    0 -0.00000000000E+00 -0.00000000000E+00  0.11368683772E-12  0.17120000000E+03  0.17120000000E+03 0.  0.
         13    1    1    2    0    0 -0.27888309307E+01 -0.16886872008E+02  0.77164756556E+02  0.79040210290E+02  0.10566000000E+00 0. -1.
        994    1    1    2    0    0  0.28094359765E+01  0.10193998054E+02  0.22676403398E+01  0.17154122746E+03  0.17120000000E+03 0.  0.
        998    1    1    2    0    0 -0.20605045816E-01  0.66928739542E+01  0.14205675994E+04  0.14206185622E+04  0.10000000000E+02 0. -1.
</event>
<event>
 5    1  0.7732857E-009  0.3767813E+03  0.7957747E-01  0.3465294E+00
         13   -1    0    0    0    0  0.00000000000E+00  0.00000000000E+00  0.14999999963E+04  0.15000000000E+04  0.10566000000E+00 0. -1.
        994   -1    0    0    0    0 -0.00000000000E+00 -0.00000000000E+00  0.11368683772E-12  0.17120000000E+03  0.17120000000E+03 0.  0.
         13    1    1    2    0    0 -0.98551070885E+02 -0.81480913478E+02  0.65067965079E+03  0.66312553257E+03  0.10566000000E+00 0. -1.
        994    1    1    2    0    0  0.33648018785E+02  0.55081149011E+02  0.29645317035E+02  0.18534941858E+03  0.17120000000E+03 0.  0.
        998    1    1    2    0    0  0.64903052099E+02  0.26399764467E+02  0.81967502846E+03  0.82272504885E+03  0.10000000000E+02 0. -1.
</event>
<event>
 5    1  0.7732857E-009  0.3837325E+03  0.7957747E-01  0.3435066E+00
         13   -1    0    0    0    0  0.00000000000E+00  0.00000000000E+00  0.14999999963E+04  0.15000000000E+04  0.10566000000E+00 0. -1.
        994   -1    0    0    0    0 -0.00000000000E+00 -0.00000000000E+00  0.11368683772E-12  0.17120000000E+03  0.17120000000E+03 0.  0.
         13    1    1    2    0    0  0.11515167801E+02 -0.15854036430E+02  0.79656768074E+02  0.82031466064E+02  0.10566000000E+00 0. -1.
        994    1    1    2    0    0 -0.60755193622E+01  0.23093757154E+02  0.41460448283E+01  0.17290709425E+03  0.17120000000E+03 0.  0.
        998    1    1    2    0    0 -0.54396484391E+01 -0.72397207239E+01  0.14161971834E+04  0.14162614397E+04  0.10000000000E+02 0. -1.
</event>
<event>
 5    1  0.7732857E-009  0.3816393E+03  0.7957747E-01  0.3444052E+00
         13   -1    0    0    0    0  0.00000000000E+00  0.00000000000E+00  0.14999999963E+04  0.15000000000E+04  0.10566000000E+00 0. -1.
        994   -1    0    0    0    0 -0.00000000000E+00 -0.00000000000E+00  0.11368683772E-12  0.17120000000E+03  0.17120000000E+03 0.  0.
         13    1    1    2    0    0 -0.17742301757E+02  0.15567828257E+02  0.80688506682E+02  0.84070166069E+02  0.10566000000E+00 0. -1.
        994    1    1    2    0    0  0.82277197581E+01 -0.21956513520E+02  0.51380358437E+01  0.17287458827E+03  0.17120000000E+03 0.  0.
        998    1    1    2    0    0  0.95145819989E+01  0.63886852628E+01  0.14141734538E+04  0.14142552457E+04  0.10000000000E+02 0. -1.
</event>
<event>
 5    1  0.7732857E-009  0.3821841E+03  0.7957747E-01  0.3441703E+00
         13   -1    0    0    0    0  0.00000000000E+00  0.00000000000E+00  0.14999999963E+04  0.15000000000E+04  0.10566000000E+00 0.  1.
        994   -1    0    0    0    0 -0.00000000000E+00 -0.00000000000E+00  0.11368683772E-12  0.17120000000E+03  0.17120000000E+03 0.  0.
         13    1    1    2    0    0 -0.55428649290E+02  0.55046847675E+01  0.93933295627E+02  0.10920673930E+03  0.10566000000E+00 0.  1.
        994    1    1    2    0    0 -0.72180666143E+01 -0.18380087431E+02  0.18957726898E+02  0.17337463341E+03  0.17120000000E+03 0.  0.
        998    1    1    2    0    0  0.62646715904E+02  0.12875402664E+02  0.13871089738E+04  0.13886186273E+04  0.10000000000E+02 0.  1.
</event>
<event>
 5    1  0.7732857E-009  0.3798115E+03  0.7957747E-01  0.3451980E+00
         13   -1    0    0    0    0  0.00000000000E+00  0.00000000000E+00  0.14999999963E+04  0.15000000000E+04  0.10566000000E+00 0.  1.
        994   -1    0    0    0    0 -0.00000000000E+00 -0.00000000000E+00  0.11368683772E-12  0.17120000000E+03  0.17120000000E+03 0.  0.
         13    1    1    2    0    0 -0.78447132443E+01  0.91688776943E+01  0.15329324653E+02  0.19509156886E+02  0.10566000000E+00 0.  1.
        994    1    1    2    0    0  0.26304831164E+01 -0.11628835668E+02  0.47039510657E+01  0.17167910885E+03  0.17120000000E+03 0.  0.
        998    1    1    2    0    0  0.52142301279E+01  0.24599579734E+01  0.14799667206E+04  0.14800117343E+04  0.10000000000E+02 0.  1.
</event>
<event>
 5    1  0.7732857E-009  0.3845739E+03  0.7957747E-01  0.3431481E+00
         13   -1    0    0    0    0  0.00000000000E+00  0.00000000000E+00  0.14999999963E+04  0.15000000000E+04  0.10566000000E+00 0. -1.
        994   -1    0    0    0    0 -0.00000000000E+00 -0.00000000000E+00  0.11368683772E-12  0.17120000000E+03  0.17120000000E+03 0.  0.
         13    1    1    2    0    0  0.11204913376E+03 -0.12911254394E+02  0.27551852990E+03  0.29771157241E+03  0.10566000000E+00 0. -1.
        994    1    1    2    0    0 -0.10503395270E+03  0.19897223705E+02  0.62313846010E+02  0.21123561758E+03  0.17120000000E+03 0.  0.
        998    1    1    2    0    0 -0.70151810637E+01 -0.69859693111E+01  0.11621676204E+04  0.11622528100E+04  0.10000000000E+02 0. -1.
</event>
<event>
 5    1  0.7732857E-009  0.3844568E+03  0.7957747E-01  0.3431979E+00
         13   -1    0    0    0    0  0.00000000000E+00  0.00000000000E+00  0.14999999963E+04  0.15000000000E+04  0.10566000000E+00 0. -1.
        994   -1    0    0    0    0 -0.00000000000E+00 -0.00000000000E+00  0.11368683772E-12  0.17120000000E+03  0.17120000000E+03 0.  0.
         13    1    1    2    0    0  0.20632490290E+01  0.21499935136E+02  0.11957091146E+03  0.12150604199E+03  0.10566000000E+00 0. -1.
        994    1    1    2    0    0 -0.23085430899E+02 -0.15109804571E+02  0.44119920055E+01  0.17346512326E+03  0.17120000000E+03 0.  0.
        998    1    1    2    0    0  0.21022181870E+02 -0.63901305652E+01  0.13760170928E+04  0.13762288348E+04  0.10000000000E+02 0. -1.
</event>
<event>
 5    1  0.7732857E-009  0.3817995E+03  0.7957747E-01  0.3443360E+00
         13   -1    0    0    0    0  0.00000000000E+00  0.00000000000E+00  0.14999999963E+04  0.15000000000E+04  0.10566000000E+00 0.  1.
        994   -1    0    0    0    0 -0.00000000000E+00 -0.00000000000E+00  0.11368683772E-12  0.17120000000E+03  0.17120000000E+03 0.  0.
         13    1    1    2    0    0 -0.21416638715E+03  0.34566509819E+01  0.11318933087E+04  0.11519816246E+04  0.10566000000E+00 0.  1.
        994    1    1    2    0    0  0.21228282734E+03  0.11885538956E+01  0.17121336453E+03  0.32200755835E+03  0.17120000000E+03 0.  0.
        998    1    1    2    0    0  0.18835598161E+01 -0.46452048775E+01  0.19689332302E+03  0.19721081708E+03  0.10000000000E+02 0. -1.
</event>
<event>
 5    1  0.7732857E-009  0.3826551E+03  0.7957747E-01  0.3439678E+00
         13   -1    0    0    0    0  0.00000000000E+00  0.00000000000E+00  0.14999999963E+04  0.15000000000E+04  0.10566000000E+00 0.  1.
        994   -1    0    0    0    0 -0.00000000000E+00 -0.00000000000E+00  0.11368683772E-12  0.17120000000E+03  0.17120000000E+03 0.  0.
         13    1    1    2    0    0  0.21172764779E+02 -0.86647768706E+01  0.86608815759E+02  0.89579364018E+02  0.10566000000E+00 0.  1.
        994    1    1    2    0    0 -0.22786270498E+02  0.13647799882E+02  0.51401609498E+01  0.17332437168E+03  0.17120000000E+03 0.  0.
        998    1    1    2    0    0  0.16135057187E+01 -0.49830230114E+01  0.14082510196E+04  0.14082962643E+04  0.10000000000E+02 0.  1.
</event>
<event>
 5    1  0.7732857E-009  0.3777521E+03  0.7957747E-01  0.3461005E+00
         13   -1    0    0    0    0  0.00000000000E+00  0.00000000000E+00  0.14999999963E+04  0.15000000000E+04  0.10566000000E+00 0. -1.
        994   -1    0    0    0    0 -0.00000000000E+00 -0.00000000000E+00  0.11368683772E-12  0.17120000000E+03  0.17120000000E+03 0.  0.
         13    1    1    2    0    0 -0.90664352451E+02  0.49417441413E+02  0.61055711418E+03  0.61922702554E+03  0.10566000000E+00 0. -1.
        994    1    1    2    0    0  0.97094879274E+02 -0.33106798480E+02  0.41576558439E+02  0.20386644132E+03  0.17120000000E+03 0.  0.
        998    1    1    2    0    0 -0.64305268226E+01 -0.16310642933E+02  0.84786632366E+03  0.84810653314E+03  0.10000000000E+02 0.  0.
</event>
<event>
 5    1  0.7732857E-009  0.3804167E+03  0.7957747E-01  0.3449346E+00
         13   -1    0    0    0    0  0.00000000000E+00  0.00000000000E+00  0.14999999963E+04  0.15000000000E+04  0.10566000000E+00 0.  1.
        994   -1    0    0    0    0 -0.00000000000E+00 -0.00000000000E+00  0.11368683772E-12  0.17120000000E+03  0.17120000000E+03 0.  0.
         13    1    1    2    0    0  0.40316472366E+02  0.18188518871E+02  0.21902976785E+03  0.22345086827E+03  0.10566000000E+00 0.  1.
        994    1    1    2    0    0 -0.47332353195E+02  0.26144875881E+01  0.11461510842E+02  0.17801121716E+03  0.17120000000E+03 0.  0.
        998    1    1    2    0    0  0.70158808288E+01 -0.20803006459E+02  0.12695087176E+04  0.12697379146E+04  0.10000000000E+02 0.  1.
</event>
<event>
 5    1  0.7732857E-009  0.3687058E+03  0.7957747E-01  0.3501860E+00
         13   -1    0    0    0    0  0.00000000000E+00  0.00000000000E+00  0.14999999963E+04  0.15000000000E+04  0.10566000000E+00 0.  1.
        994   -1    0    0    0    0 -0.00000000000E+00 -0.00000000000E+00  0.11368683772E-12  0.17120000000E+03  0.17120000000E+03 0.  0.
         13    1    1    2    0    0 -0.20828995547E+02 -0.85930197356E+01  0.20865307519E+02  0.30709270027E+02  0.10566000000E+00 0.  1.
        994    1    1    2    0    0  0.70182793265E+01  0.22311069123E+00  0.10427735443E+02  0.17166095564E+03  0.17120000000E+03 0.  0.
        998    1    1    2    0    0  0.13810716221E+02  0.83699090444E+01  0.14687069533E+04  0.14688297743E+04  0.10000000000E+02 0.  1.
</event>
<event>
 5    1  0.7732857E-009  0.3842505E+03  0.7957747E-01  0.3432857E+00
         13   -1    0    0    0    0  0.00000000000E+00  0.00000000000E+00  0.14999999963E+04  0.15000000000E+04  0.10566000000E+00 0. -1.
        994   -1    0    0    0    0 -0.00000000000E+00 -0.00000000000E+00  0.11368683772E-12  0.17120000000E+03  0.17120000000E+03 0.  0.
         13    1    1    2    0    0  0.16080275382E+03 -0.64153380136E+02  0.10447320347E+04  0.10589798002E+04  0.10566000000E+00 0. -1.
        994    1    1    2    0    0 -0.18205330586E+03  0.53804817423E+02  0.13156528180E+03  0.28750170074E+03  0.17120000000E+03 0.  0.
        998    1    1    2    0    0  0.21250552036E+02  0.10348562713E+02  0.32370267980E+03  0.32471849904E+03  0.10000000000E+02 0.  1.
</event>
<event>
 5    1  0.7732857E-009  0.3796280E+03  0.7957747E-01  0.3452780E+00
         13   -1    0    0    0    0  0.00000000000E+00  0.00000000000E+00  0.14999999963E+04  0.15000000000E+04  0.10566000000E+00 0.  1.
        994   -1    0    0    0    0 -0.00000000000E+00 -0.00000000000E+00  0.11368683772E-12  0.17120000000E+03  0.17120000000E+03 0.  0.
         13    1    1    2    0    0  0.14997526945E+02 -0.50366122247E+02  0.28558616874E+03  0.29038103076E+03  0.10566000000E+00 0.  1.
        994    1    1    2    0    0 -0.10513448367E+02  0.40943818750E+02  0.10325247306E+02  0.17664365152E+03  0.17120000000E+03 0.  0.
        998    1    1    2    0    0 -0.44840785776E+01  0.94223034969E+01  0.12040885802E+04  0.12041753177E+04  0.10000000000E+02 0.  1.
</event>
<event>
 5    1  0.7732857E-009  0.3808773E+03  0.7957747E-01  0.3447347E+00
         13   -1    0    0    0    0  0.00000000000E+00  0.00000000000E+00  0.14999999963E+04  0.15000000000E+04  0.10566000000E+00 0.  1.
        994   -1    0    0    0    0 -0.00000000000E+00 -0.00000000000E+00  0.11368683772E-12  0.17120000000E+03  0.17120000000E+03 0.  0.
         13    1    1    2    0    0  0.11971276303E+02  0.53929576166E+00  0.17619176867E+02  0.21308422132E+02  0.10566000000E+00 0.  1.
        994    1    1    2    0    0 -0.14409989208E+02 -0.79036667741E+01  0.45918032512E+01  0.17204836644E+03  0.17120000000E+03 0.  0.
        998    1    1    2    0    0  0.24387129050E+01  0.73643710124E+01  0.14777890162E+04  0.14778432114E+04  0.10000000000E+02 0.  1.
</event>
<event>
 5    1  0.7732857E-009  0.3811257E+03  0.7957747E-01  0.3446272E+00
         13   -1    0    0    0    0  0.00000000000E+00  0.00000000000E+00  0.14999999963E+04  0.15000000000E+04  0.10566000000E+00 0. -1.
        994   -1    0    0    0    0 -0.00000000000E+00 -0.00000000000E+00  0.11368683772E-12  0.17120000000E+03  0.17120000000E+03 0.  0.
         13    1    1    2    0    0 -0.77789446061E+01  0.17644877610E+02  0.52064850348E+02  0.55521288627E+02  0.10566000000E+00 0. -1.
        994    1    1    2    0    0  0.87662759759E+01 -0.36142572604E+01  0.38655087399E+01  0.17150595502E+03  0.17120000000E+03 0.  0.
        998    1    1    2    0    0 -0.98733136978E+00 -0.14030620349E+02  0.14440696372E+04  0.14441727564E+04  0.10000000000E+02 0. -1.
</event>
<event>
 5    1  0.7732857E-009  0.3839754E+03  0.7957747E-01  0.3434029E+00
         13   -1    0    0    0    0  0.00000000000E+00  0.00000000000E+00  0.14999999963E+04  0.15000000000E+04  0.10566000000E+00 0.  1.
        994   -1    0    0    0    0 -0.00000000000E+00 -0.00000000000E+00  0.11368683772E-12  0.17120000000E+03  0.17120000000E+03 0.  0.
         13    1    1    2    0    0  0.10827374788E+02 -0.11960508449E+02  0.61736085376E+02  0.63809413167E+02  0.10566000000E+00 0.  1.
        994    1    1    2    0    0 -0.72403007892E+01  0.22145029377E+01  0.23288632743E+01  0.17138316598E+03  0.17120000000E+03 0.  0.
        998    1    1    2    0    0 -0.35870739991E+01  0.97460055110E+01  0.14359350476E+04  0.14360074208E+04  0.10000000000E+02 0.  1.
</event>
<event>
 5    1  0.7732857E-009  0.3832916E+03  0.7957747E-01  0.3436950E+00
         13   -1    0    0    0    0  0.00000000000E+00  0.00000000000E+00  0.14999999963E+04  0.15000000000E+04  0.10566000000E+00 0.  1.
        994   -1    0    0    0    0 -0.00000000000E+00 -0.00000000000E+00  0.11368683772E-12  0.17120000000E+03  0.17120000000E+03 0.  0.
         13    1    1    2    0    0 -0.19318720311E+02 -0.10140511766E+02  0.96719536064E+02  0.99150001280E+02  0.10566000000E+00 0.  1.
        994    1    1    2    0    0  0.14481278070E+02 -0.30910214712E+01  0.32061310424E+01  0.17186908129E+03  0.17120000000E+03 0.  0.
        998    1    1    2    0    0  0.48374422414E+01  0.13231533238E+02  0.14000743292E+04  0.14001809174E+04  0.10000000000E+02 0.  1.
</event>
<event>
 5    1  0.7732857E-009  0.3854874E+03  0.7957747E-01  0.3427608E+00
         13   -1    0    0    0    0  0.00000000000E+00  0.00000000000E+00  0.14999999963E+04  0.15000000000E+04  0.10566000000E+00 0. -1.
        994   -1    0    0    0    0 -0.00000000000E+00 -0.00000000000E+00  0.11368683772E-12  0.17120000000E+03  0.17120000000E+03 0.  0.
         13    1    1    2    0    0  0.49165848244E+01 -0.10512076590E+02  0.47435892306E+02  0.48834942443E+02  0.10566000000E+00 0. -1.
        994    1    1    2    0    0 -0.18732096287E+02  0.50766441371E+01  0.26261035489E+01  0.17231656962E+03  0.17120000000E+03 0.  0.
        998    1    1    2    0    0  0.13815511463E+02  0.54354324532E+01  0.14499380004E+04  0.14500484879E+04  0.10000000000E+02 0. -1.
</event>
<event>
 5    1  0.7732857E-009  0.3818833E+03  0.7957747E-01  0.3442999E+00
         13   -1    0    0    0    0  0.00000000000E+00  0.00000000000E+00  0.14999999963E+04  0.15000000000E+04  0.10566000000E+00 0.  1.
        994   -1    0    0    0    0 -0.00000000000E+00 -0.00000000000E+00  0.11368683772E-12  0.17120000000E+03  0.17120000000E+03 0.  0.
         13    1    1    2    0    0  0.10116230352E+02  0.30750649059E+01  0.14844088976E+02  0.18225045467E+02  0.10566000000E+00 0.  1.
        994    1    1    2    0    0 -0.43860416565E+02  0.45699627084E+01  0.96730598214E+01  0.17705261587E+03  0.17120000000E+03 0.  0.
        998    1    1    2    0    0  0.33744186213E+02 -0.76450276143E+01  0.14754828475E+04  0.14759223387E+04  0.10000000000E+02 0.  1.
</event>
<event>
 5    1  0.7732857E-009  0.3846099E+03  0.7957747E-01  0.3431328E+00
         13   -1    0    0    0    0  0.00000000000E+00  0.00000000000E+00  0.14999999963E+04  0.15000000000E+04  0.10566000000E+00 0. -1.
        994   -1    0    0    0    0 -0.00000000000E+00 -0.00000000000E+00  0.11368683772E-12  0.17120000000E+03  0.17120000000E+03 0.  0.
         13    1    1    2    0    0 -0.42241255555E+01  0.15024591482E+02  0.63153149936E+02  0.65053155933E+02  0.10566000000E+00 0. -1.
        994    1    1    2    0    0 -0.63929730523E+01 -0.21972407232E+02  0.35501278087E+01  0.17275908136E+03  0.17120000000E+03 0.  0.
        998    1    1    2    0    0  0.10617098608E+02  0.69478157505E+01  0.14332967185E+04  0.14333877627E+04  0.10000000000E+02 0. -1.
</event>
<event>
 5    1  0.7732857E-009  0.3714246E+03  0.7957747E-01  0.3489369E+00
         13   -1    0    0    0    0  0.00000000000E+00  0.00000000000E+00  0.14999999963E+04  0.15000000000E+04  0.10566000000E+00 0. -1.
        994   -1    0    0    0    0 -0.00000000000E+00 -0.00000000000E+00  0.11368683772E-12  0.17120000000E+03  0.17120000000E+03 0.  0.
         13    1    1    2    0    0 -0.13938308139E+02  0.20613816338E+02  0.37715979521E+02  0.45185308819E+02  0.10566000000E+00 0. -1.
        994    1    1    2    0    0 -0.26000066837E+02  0.25197515921E+02  0.13050318997E+02  0.17547270189E+03  0.17120000000E+03 0.  0.
        998    1    1    2    0    0  0.39938374976E+02 -0.45811332259E+02  0.14492336978E+04  0.14505419893E+04  0.10000000000E+02 0. -1.
</event>
<event>
 5    1  0.7732857E-009  0.3795651E+03  0.7957747E-01  0.3453054E+00
         13   -1    0    0    0    0  0.00000000000E+00  0.00000000000E+00  0.14999999963E+04  0.15000000000E+04  0.10566000000E+00 0.  1.
        994   -1    0    0    0    0 -0.00000000000E+00 -0.00000000000E+00  0.11368683772E-12  0.17120000000E+03  0.17120000000E+03 0.  0.
         13    1    1    2    0    0  0.17128141219E+02 -0.26013884027E+02  0.11071705927E+03  0.11501466759E+03  0.10566000000E+00 0.  1.
        994    1    1    2    0    0 -0.15731713337E+02  0.10561042518E+02  0.55556520365E+01  0.17233492883E+03  0.17120000000E+03 0.  0.
        998    1    1    2    0    0 -0.13964278816E+01  0.15452841508E+02  0.13837272850E+04  0.13838504036E+04  0.10000000000E+02 0.  1.
</event>
<event>
 5    1  0.7732857E-009  0.3687189E+03  0.7957747E-01  0.3501800E+00
         13   -1    0    0    0    0  0.00000000000E+00  0.00000000000E+00  0.14999999963E+04  0.15000000000E+04  0.10566000000E+00 0.  1.
        994   -1    0    0    0    0 -0.00000000000E+00 -0.00000000000E+00  0.11368683772E-12  0.17120000000E+03  0.17120000000E+03 0.  0.
         13    1    1    2    0    0  0.73833297882E+02 -0.75780244747E+02  0.51835087454E+03  0.52903841228E+03  0.10566000000E+00 0.  1.
        994    1    1    2    0    0 -0.34505088969E+02  0.65149458632E+02  0.29061357870E+02  0.18865061793E+03  0.17120000000E+03 0.  0.
        998    1    1    2    0    0 -0.39328208913E+02  0.10630786115E+02  0.95258776387E+03  0.95351096979E+03  0.10000000000E+02 0.  1.
</event>
<event>
 5    1  0.7732857E-009  0.3859292E+03  0.7957747E-01  0.3425741E+00
         13   -1    0    0    0    0  0.00000000000E+00  0.00000000000E+00  0.14999999963E+04  0.15000000000E+04  0.10566000000E+00 0.  1.
        994   -1    0    0    0    0 -0.00000000000E+00 -0.00000000000E+00  0.11368683772E-12  0.17120000000E+03  0.17120000000E+03 0.  0.
         13    1    1    2    0    0  0.28607713839E+01  0.11215928362E+02  0.59029366967E+02  0.60153623253E+02  0.10566000000E+00 0.  1.
        994    1    1    2    0    0  0.44044643792E+01 -0.63471298114E+01  0.13652127215E+01  0.17137966381E+03  0.17120000000E+03 0.  0.
        998    1    1    2    0    0 -0.72652357630E+01 -0.48687985509E+01  0.14396054166E+04  0.14396667129E+04  0.10000000000E+02 0.  1.
</event>
<event>
 5    1  0.7732857E-009  0.3718345E+03  0.7957747E-01  0.3487502E+00
         13   -1    0    0    0    0  0.00000000000E+00  0.00000000000E+00  0.14999999963E+04  0.15000000000E+04  0.10566000000E+00 0.  1.
        994   -1    0    0    0    0 -0.00000000000E+00 -0.00000000000E+00  0.11368683772E-12  0.17120000000E+03  0.17120000000E+03 0.  0.
         13    1    1    2    0    0  0.36991116401E+02  0.69876337444E+01  0.52732668734E+02  0.64791320667E+02  0.10566000000E+00 0.  1.
        994    1    1    2    0    0 -0.39844813782E+02 -0.81864716698E+01  0.17756718377E+02  0.17685974260E+03  0.17120000000E+03 0.  0.
        998    1    1    2    0    0  0.28536973808E+01  0.11988379255E+01  0.14295106092E+04  0.14295489367E+04  0.10000000000E+02 0.  1.
</event>
<event>
 5    1  0.7732857E-009  0.3840655E+03  0.7957747E-01  0.3433645E+00
         13   -1    0    0    0    0  0.00000000000E+00  0.00000000000E+00  0.14999999963E+04  0.15000000000E+04  0.10566000000E+00 0. -1.
        994   -1    0    0    0    0 -0.00000000000E+00 -0.00000000000E+00  0.11368683772E-12  0.17120000000E+03  0.17120000000E+03 0.  0.
         13    1    1    2    0    0  0.13228589391E+02 -0.52674744223E+01  0.48244050234E+02  0.50301505058E+02  0.10566000000E+00 0. -1.
        994    1    1    2    0    0 -0.92742520997E+01 -0.11458249096E+01  0.23829370733E+01  0.17147140594E+03  0.17120000000E+03 0.  0.
        998    1    1    2    0    0 -0.39543372917E+01  0.64132993318E+01  0.14493730090E+04  0.14494270890E+04  0.10000000000E+02 0. -1.
</event>
<event>
 5    1  0.7732857E-009  0.3774077E+03  0.7957747E-01  0.3462524E+00
         13   -1    0    0    0    0  0.00000000000E+00  0.00000000000E+00  0.14999999963E+04  0.15000000000E+04  0.10566000000E+00 0.  1.
        994   -1    0    0    0    0 -0.00000000000E+00 -0.00000000000E+00  0.11368683772E-12  0.17120000000E+03  0.17120000000E+03 0.  0.
         13    1    1    2    0    0 -0.23849034244E+02  0.40861402788E+01  0.53418038228E+02  0.58642739951E+02  0.10566000000E+00 0.  1.
        994    1    1    2    0    0  0.27038455087E+01 -0.20343057069E+02  0.68688351982E+01  0.17256237031E+03  0.17120000000E+03 0.  0.
        998    1    1    2    0    0  0.21145188736E+02  0.16256916790E+02  0.14397131229E+04  0.14399948897E+04  0.10000000000E+02 0.  1.
</event>
<event>
 5    1  0.7732857E-009  0.3755366E+03  0.7957747E-01  0.3470827E+00
         13   -1    0    0    0    0  0.00000000000E+00  0.00000000000E+00  0.14999999963E+04  0.15000000000E+04  0.10566000000E+00 0. -1.
        994   -1    0    0    0    0 -0.00000000000E+00 -0.00000000000E+00  0.11368683772E-12  0.17120000000E+03  0.17120000000E+03 0.  0.
         13    1    1    2    0    0  0.45619679385E+02  0.51128959361E+02  0.28249675627E+03  0.29068841411E+03  0.10566000000E+00 0. -1.
        994    1    1    2    0    0 -0.49329253853E+02 -0.56141282386E+02  0.25596575588E+02  0.18854666148E+03  0.17120000000E+03 0.  0.
        998    1    1    2    0    0  0.37095744684E+01  0.50123230257E+01  0.11919066644E+04  0.11919649244E+04  0.10000000000E+02 0.  1.
</event>
<event>
 5    1  0.7732857E-009  0.3811810E+03  0.7957747E-01  0.3446032E+00
         13   -1    0    0    0    0  0.00000000000E+00  0.00000000000E+00  0.14999999963E+04  0.15000000000E+04  0.10566000000E+00 0.  1.
        994   -1    0    0    0    0 -0.00000000000E+00 -0.00000000000E+00  0.11368683772E-12  0.17120000000E+03  0.17120000000E+03 0.  0.
         13    1    1    2    0    0 -0.45657069449E+01  0.14815194962E+02  0.32835307718E+02  0.36311214227E+02  0.10566000000E+00 0.  1.
        994    1    1    2    0    0  0.26641338953E+01 -0.81297368591E+01  0.37819145762E+01  0.17145533852E+03  0.17120000000E+03 0.  0.
        998    1    1    2    0    0  0.19015730496E+01 -0.66854581030E+01  0.14633827740E+04  0.14634334472E+04  0.10000000000E+02 0.  1.
</event>
<event>
 5    1  0.7732857E-009  0.3836697E+03  0.7957747E-01  0.3435334E+00
         13   -1    0    0    0    0  0.00000000000E+00  0.00000000000E+00  0.14999999963E+04  0.15000000000E+04  0.10566000000E+00 0. -1.
        994   -1    0    0    0    0 -0.00000000000E+00 -0.00000000000E+00  0.11368683772E-12  0.17120000000E+03  0.17120000000E+03 0.  0.
         13    1    1    2    0    0 -0.22025311162E+02 -0.17898726443E+01  0.10898928588E+03  0.11120698529E+03  0.10566000000E+00 0. -1.
        994    1    1    2    0    0  0.10222889677E+02 -0.50382262191E+01  0.27211804126E+01  0.17160051288E+03  0.17120000000E+03 0.  0.
        998    1    1    2    0    0  0.11802421485E+02  0.68280988635E+01  0.13882895300E+04  0.13883925018E+04  0.10000000000E+02 0. -1.
</event>
<event>
 5    1  0.7732857E-009  0.3736929E+03  0.7957747E-01  0.3479089E+00
         13   -1    0    0    0    0  0.00000000000E+00  0.00000000000E+00  0.14999999963E+04  0.15000000000E+04  0.10566000000E+00 0. -1.
        994   -1    0    0    0    0 -0.00000000000E+00 -0.00000000000E+00  0.11368683772E-12  0.17120000000E+03  0.17120000000E+03 0.  0.
         13    1    1    2    0    0  0.12715439288E+02  0.17748070890E+02  0.29770253724E+02  0.36918228390E+02  0.10566000000E+00 0. -1.
        994    1    1    2    0    0 -0.16068329460E+02 -0.79598570306E+00  0.82356503784E+01  0.17215135998E+03  0.17120000000E+03 0.  0.
        998    1    1    2    0    0  0.33528901718E+01 -0.16952085187E+02  0.14619940922E+04  0.14621304116E+04  0.10000000000E+02 0. -1.
</event>
<event>
 5    1  0.7732857E-009  0.3738666E+03  0.7957747E-01  0.3478307E+00
         13   -1    0    0    0    0  0.00000000000E+00  0.00000000000E+00  0.14999999963E+04  0.15000000000E+04  0.10566000000E+00 0.  1.
        994   -1    0    0    0    0 -0.00000000000E+00 -0.00000000000E+00  0.11368683772E-12  0.17120000000E+03  0.17120000000E+03 0.  0.
         13    1    1    2    0    0  0.20823684138E+02  0.25371039395E+02  0.66563662715E+02  0.74216223422E+02  0.10566000000E+00 0.  1.
        994    1    1    2    0    0 -0.24599119721E+02 -0.33605915027E+02  0.13203514626E+02  0.17668686146E+03  0.17120000000E+03 0.  0.
        998    1    1    2    0    0  0.37754355828E+01  0.82348756315E+01  0.14202328189E+04  0.14202969151E+04  0.10000000000E+02 0.  1.
</event>
<event>
 5    1  0.7732857E-009  0.3838060E+03  0.7957747E-01  0.3434752E+00
         13   -1    0    0    0    0  0.00000000000E+00  0.00000000000E+00  0.14999999963E+04  0.15000000000E+04  0.10566000000E+00 0. -1.
        994   -1    0    0    0    0 -0.00000000000E+00 -0.00000000000E+00  0.11368683772E-12  0.17120000000E+03  0.17120000000E+03 0.  0.
         13    1    1    2    0    0  0.14997412046E+02 -0.78700136774E+01  0.71602764509E+02  0.73578709779E+02  0.10566000000E+00 0. -1.
        994    1    1    2    0    0  0.64604728899E+01 -0.53073592806E+01  0.24549435297E+01  0.17142162209E+03  0.17120000000E+03 0.  0.
        998    1    1    2    0    0 -0.21457884936E+02  0.13177372958E+02  0.14259422882E+04  0.14261996681E+04  0.10000000000E+02 0. -1.
</event>
<event>
 5    1  0.7732857E-009  0.3789875E+03  0.7957747E-01  0.3455579E+00
         13   -1    0    0    0    0  0.00000000000E+00  0.00000000000E+00  0.14999999963E+04  0.15000000000E+04  0.10566000000E+00 0.  1.
        994   -1    0    0    0    0 -0.00000000000E+00 -0.00000000000E+00  0.11368683772E-12  0.17120000000E+03  0.17120000000E+03 0.  0.
         13    1    1    2    0    0 -0.83057966333E+01  0.14356280134E+02  0.29796884374E+02  0.34102118988E+02  0.10566000000E+00 0.  1.
        994    1    1    2    0    0  0.42927982330E+01  0.17750823806E+02  0.57645722435E+01  0.17226778618E+03  0.17120000000E+03 0.  0.
        998    1    1    2    0    0  0.40129984003E+01 -0.32107103941E+02  0.14644385397E+04  0.14648300948E+04  0.10000000000E+02 0.  1.
</event>
<event>
 5    1  0.7732857E-009  0.3766943E+03  0.7957747E-01  0.3465680E+00
         13   -1    0    0    0    0  0.00000000000E+00  0.00000000000E+00  0.14999999963E+04  0.15000000000E+04  0.10566000000E+00 0. -1.
        994   -1    0    0    0    0 -0.00000000000E+00 -0.00000000000E+00  0.11368683772E-12  0.17120000000E+03  0.17120000000E+03 0.  0.
         13    1    1    2    0    0 -0.33491291224E+02  0.28264562208E+02  0.15155643452E+03  0.15776538300E+03  0.10566000000E+00 0. -1.
        994    1    1    2    0    0  0.66627133736E+02  0.14057864429E+02  0.21647313427E+02  0.18551238417E+03  0.17120000000E+03 0.  0.
        998    1    1    2    0    0 -0.33135842512E+02 -0.42322426637E+02  0.13267962483E+04  0.13279222328E+04  0.10000000000E+02 0. -1.
</event>
<event>
 5    1  0.7732857E-009  0.3793712E+03  0.7957747E-01  0.3453901E+00
         13   -1    0    0    0    0  0.00000000000E+00  0.00000000000E+00  0.14999999963E+04  0.15000000000E+04  0.10566000000E+00 0.  1.
        994   -1    0    0    0    0 -0.00000000000E+00 -0.00000000000E+00  0.11368683772E-12  0.17120000000E+03  0.17120000000E+03 0.  0.
         13    1    1    2    0    0 -0.72592924850E+01  0.75804380324E+01  0.10431726329E+02  0.14798393371E+02  0.10566000000E+00 0.  1.
        994    1    1    2    0    0 -0.65595224389E+00 -0.92139032143E+01  0.47367721500E+01  0.17151444049E+03  0.17120000000E+03 0.  0.
        998    1    1    2    0    0  0.79152447289E+01  0.16334651820E+01  0.14848314978E+04  0.14848871661E+04  0.10000000000E+02 0.  1.
</event>
<event>
 5    1  0.7732857E-009  0.3803578E+03  0.7957747E-01  0.3449602E+00
         13   -1    0    0    0    0  0.00000000000E+00  0.00000000000E+00  0.14999999963E+04  0.15000000000E+04  0.10566000000E+00 0. -1.
        994   -1    0    0    0    0 -0.00000000000E+00 -0.00000000000E+00  0.11368683772E-12  0.17120000000E+03  0.17120000000E+03 0.  0.
         13    1    1    2    0    0 -0.15703857225E+02 -0.20404477394E+02  0.79688937375E+02  0.83745398283E+02  0.10566000000E+00 0. -1.
        994    1    1    2    0    0  0.36180878262E+01  0.26826980258E+02  0.64032017486E+01  0.17344514528E+03  0.17120000000E+03 0.  0.
        998    1    1    2    0    0  0.12085769399E+02 -0.64225028641E+01  0.14139078572E+04  0.14140094564E+04  0.10000000000E+02 0. -1.
</event>
<event>
 5    1  0.7732857E-009  0.3852423E+03  0.7957747E-01  0.3428645E+00
         13   -1    0    0    0    0  0.00000000000E+00  0.00000000000E+00  0.14999999963E+04  0.15000000000E+04  0.10566000000E+00 0. -1.
        994   -1    0    0    0    0 -0.00000000000E+00 -0.00000000000E+00  0.11368683772E-12  0.17120000000E+03  0.17120000000E+03 0.  0.
         13    1    1    2    0    0  0.15248082168E+02  0.30396808456E-01  0.73614506333E+02  0.75177201600E+02  0.10566000000E+00 0. -1.
        994    1    1    2    0    0 -0.16858737963E+02  0.33699351400E+01  0.24817486644E+01  0.17207897194E+03  0.17120000000E+03 0.  0.
        998    1    1    2    0    0  0.16106557953E+01 -0.34003319484E+01  0.14239037413E+04  0.14239438265E+04  0.10000000000E+02 0. -1.
</event>
<event>
 5    1  0.7732857E-009  0.3771354E+03  0.7957747E-01  0.3463727E+00
         13   -1    0    0    0    0  0.00000000000E+00  0.00000000000E+00  0.14999999963E+04  0.15000000000E+04  0.10566000000E+00 0. -1.
        994   -1    0    0    0    0 -0.00000000000E+00 -0.00000000000E+00  0.11368683772E-12  0.17120000000E+03  0.17120000000E+03 0.  0.
         13    1    1    2    0    0  0.43989562233E+02  0.95817036303E+02  0.22419160974E+03  0.24774558538E+03  0.10566000000E+00 0. -1.
        994    1    1    2    0    0 -0.29962007988E+02 -0.17060260040E+03  0.13188307590E+03  0.27695767708E+03  0.17120000000E+03 0.  0.
        998    1    1    2    0    0 -0.14027554245E+02  0.74785564098E+02  0.11439253106E+04  0.11464967375E+04  0.10000000000E+02 0. -1.
</event>
<event>
 5    1  0.7732857E-009  0.3369239E+03  0.7957747E-01  0.3663237E+00
         13   -1    0    0    0    0  0.00000000000E+00  0.00000000000E+00  0.14999999963E+04  0.15000000000E+04  0.10566000000E+00 0. -1.
        994   -1    0    0    0    0 -0.00000000000E+00 -0.00000000000E+00  0.11368683772E-12  0.17120000000E+03  0.17120000000E+03 0.  0.
         13    1    1    2    0    0 -0.22327468953E+03  0.69822652410E+02  0.84272901040E+03  0.87459647032E+03  0.10566000000E+00 0. -1.
        994    1    1    2    0    0  0.21390037741E+03 -0.79213543749E+02  0.22304279172E+03  0.36205756988E+03  0.17120000000E+03 0.  0.
        998    1    1    2    0    0  0.93743121259E+01  0.93908913397E+01  0.43422819417E+03  0.43454595980E+03  0.10000000000E+02 0. -1.
</event>
<event>
 5    1  0.7732857E-009  0.3855379E+03  0.7957747E-01  0.3427394E+00
         13   -1    0    0    0    0  0.00000000000E+00  0.00000000000E+00  0.14999999963E+04  0.15000000000E+04  0.10566000000E+00 0.  1.
        994   -1    0    0    0    0 -0.00000000000E+00 -0.00000000000E+00  0.11368683772E-12  0.17120000000E+03  0.17120000000E+03 0.  0.
         13    1    1    2    0    0  0.75535696758E+01  0.84604948811E+01  0.52417811520E+02  0.53630910089E+02  0.10566000000E+00 0.  1.
        994    1    1    2    0    0  0.14610249274E+01  0.97698397583E+01  0.16837223865E+01  0.17149302984E+03  0.17120000000E+03 0.  0.
        998    1    1    2    0    0 -0.90145946033E+01 -0.18230334639E+02  0.14458984624E+04  0.14460760601E+04  0.10000000000E+02 0.  1.
</event>
<event>
 5    1  0.7732857E-009  0.3695051E+03  0.7957747E-01  0.3498169E+00
         13   -1    0    0    0    0  0.00000000000E+00  0.00000000000E+00  0.14999999963E+04  0.15000000000E+04  0.10566000000E+00 0. -1.
        994   -1    0    0    0    0 -0.00000000000E+00 -0.00000000000E+00  0.11368683772E-12  0.17120000000E+03  0.17120000000E+03 0.  0.
         13    1    1    2    0    0 -0.18442855909E+02  0.11346430182E+02  0.21626531303E+02  0.30603895703E+02  0.10566000000E+00 0. -1.
        994    1    1    2    0    0 -0.27167744400E+01  0.76245905209E+01  0.97549540246E+01  0.17166861790E+03  0.17120000000E+03 0.  0.
        998    1    1    2    0    0  0.21159630349E+02 -0.18971020703E+02  0.14686185110E+04  0.14689274864E+04  0.10000000000E+02 0. -1.
</event>
<event>
 5    1  0.7732857E-009  0.3833306E+03  0.7957747E-01  0.3436783E+00
         13   -1    0    0    0    0  0.00000000000E+00  0.00000000000E+00  0.14999999963E+04  0.15000000000E+04  0.10566000000E+00 0. -1.
        994   -1    0    0    0    0 -0.00000000000E+00 -0.00000000000E+00  0.11368683772E-12  0.17120000000E+03  0.17120000000E+03 0.  0.
         13    1    1    2    0    0 -0.16874287805E+02  0.14460142616E+01  0.53771494830E+02  0.56375680629E+02  0.10566000000E+00 0. -1.
        994    1    1    2    0    0  0.24780226073E+02 -0.10175478001E+02  0.48376188225E+01  0.17335063459E+03  0.17120000000E+03 0.  0.
        998    1    1    2    0    0 -0.79059382675E+01  0.87294637390E+01  0.14413908826E+04  0.14414736848E+04  0.10000000000E+02 0. -1.
</event>
<event>
 5    1  0.7732857E-009  0.3714590E+03  0.7957747E-01  0.3489212E+00
         13   -1    0    0    0    0  0.00000000000E+00  0.00000000000E+00  0.14999999963E+04  0.15000000000E+04  0.10566000000E+00 0.  1.
        994   -1    0    0    0    0 -0.00000000000E+00 -0.00000000000E+00  0.11368683772E-12  0.17120000000E+03  0.17120000000E+03 0.  0.
         13    1    1    2    0    0  0.45517353129E+02 -0.64032678797E+02  0.32884644493E+03  0.33810058991E+03  0.10566000000E+00 0.  1.
        994    1    1    2    0    0 -0.15966094240E+02  0.60358673085E+02  0.22040838849E+02  0.18355741379E+03  0.17120000000E+03 0.  0.
        998    1    1    2    0    0 -0.29551258889E+02  0.36740057122E+01  0.11491127125E+04  0.11495419963E+04  0.10000000000E+02 0.  1.
</event>
<event>
 5    1  0.7732857E-009  0.3848956E+03  0.7957747E-01  0.3430115E+00
         13   -1    0    0    0    0  0.00000000000E+00  0.00000000000E+00  0.14999999963E+04  0.15000000000E+04  0.10566000000E+00 0. -1.
        994   -1    0    0    0    0 -0.00000000000E+00 -0.00000000000E+00  0.11368683772E-12  0.17120000000E+03  0.17120000000E+03 0.  0.
         13    1    1    2    0    0 -0.10500571781E+02  0.21228639264E+01  0.33653583476E+02  0.35317749133E+02  0.10566000000E+00 0. -1.
        994    1    1    2    0    0  0.10332866570E+02  0.66646750831E+01  0.21795068552E+01  0.17165481722E+03  0.17120000000E+03 0.  0.
        998    1    1    2    0    0  0.16770521111E+00 -0.87875390095E+01  0.14641669059E+04  0.14642274336E+04  0.10000000000E+02 0. -1.
</event>
<event>
 5    1  0.7732857E-009  0.3808889E+03  0.7957747E-01  0.3447297E+00
         13   -1    0    0    0    0  0.00000000000E+00  0.00000000000E+00  0.14999999963E+04  0.15000000000E+04  0.10566000000E+00 0. -1.
        994   -1    0    0    0    0 -0.00000000000E+00 -0.00000000000E+00  0.11368683772E-12  0.17120000000E+03  0.17120000000E+03 0.  0.
         13    1    1    2    0    0 -0.44466857368E+02  0.26604266379E+02  0.30560445542E+03  0.30996642194E+03  0.10566000000E+00 0. -1.
        994    1    1    2    0    0  0.66689344730E+02  0.11212001491E+02  0.19081335285E+02  0.18505867998E+03  0.17120000000E+03 0.  0.
        998    1    1    2    0    0 -0.22222487362E+02 -0.37816267870E+02  0.11753142056E+04  0.11761748981E+04  0.10000000000E+02 0. -1.
</event>
<event>
 5    1  0.7732857E-009  0.3789351E+03  0.7957747E-01  0.3455808E+00
         13   -1    0    0    0    0  0.00000000000E+00  0.00000000000E+00  0.14999999963E+04  0.15000000000E+04  0.10566000000E+00 0.  1.
        994   -1    0    0    0    0 -0.00000000000E+00 -0.00000000000E+00  0.11368683772E-12  0.17120000000E+03  0.17120000000E+03 0.  0.
         13    1    1    2    0    0 -0.12531121114E+02 -0.32578530512E+02  0.14488200301E+03  0.14902749950E+03  0.10566000000E+00 0.  1.
        994    1    1    2    0    0 -0.59257603992E+02  0.28879076609E+02  0.19390375257E+02  0.18447463606E+03  0.17120000000E+03 0.  0.
        998    1    1    2    0    0  0.71788725106E+02  0.36994539022E+01  0.13357276180E+04  0.13376978644E+04  0.10000000000E+02 0.  1.
</event>
<event>
 5    1  0.7732857E-009  0.3807750E+03  0.7957747E-01  0.3447791E+00
         13   -1    0    0    0    0  0.00000000000E+00  0.00000000000E+00  0.14999999963E+04  0.15000000000E+04  0.10566000000E+00 0.  1.
        994   -1    0    0    0    0 -0.00000000000E+00 -0.00000000000E+00  0.11368683772E-12  0.17120000000E+03  0.17120000000E+03 0.  0.
         13    1    1    2    0    0  0.13257483320E+02  0.51468902111E+01  0.25323470058E+02  0.29043771150E+02  0.10566000000E+00 0.  1.
        994    1    1    2    0    0 -0.11257009006E+02 -0.56414929475E+01  0.42712968029E+01  0.17171555163E+03  0.17120000000E+03 0.  0.
        998    1    1    2    0    0 -0.20004743135E+01  0.49460273644E+00  0.14704052294E+04  0.14704406772E+04  0.10000000000E+02 0.  1.
</event>
<event>
 5    1  0.7732857E-009  0.3820608E+03  0.7957747E-01  0.3442234E+00
         13   -1    0    0    0    0  0.00000000000E+00  0.00000000000E+00  0.14999999963E+04  0.15000000000E+04  0.10566000000E+00 0. -1.
        994   -1    0    0    0    0 -0.00000000000E+00 -0.00000000000E+00  0.11368683772E-12  0.17120000000E+03  0.17120000000E+03 0.  0.
         13    1    1    2    0    0 -0.11164034563E+01  0.21395735308E+02  0.65686407073E+02  0.69092250536E+02  0.10566000000E+00 0. -1.
        994    1    1    2    0    0  0.25036672519E+01 -0.36252596292E+02  0.74934156870E+01  0.17517451403E+03  0.17120000000E+03 0.  0.
        998    1    1    2    0    0 -0.13872637956E+01  0.14856860984E+02  0.14268201735E+04  0.14269332354E+04  0.10000000000E+02 0. -1.
</event>
<event>
 5    1  0.7732857E-009  0.3883122E+03  0.7957747E-01  0.3415745E+00
         13   -1    0    0    0    0  0.00000000000E+00  0.00000000000E+00  0.14999999963E+04  0.15000000000E+04  0.10566000000E+00 0. -1.
        994   -1    0    0    0    0 -0.00000000000E+00 -0.00000000000E+00  0.11368683772E-12  0.17120000000E+03  0.17120000000E+03 0.  0.
         13    1    1    2    0    0  0.83489685790E+02  0.14364910830E+03  0.45263460420E+03  0.48216562510E+03  0.10566000000E+00 0. -1.
        994    1    1    2    0    0 -0.81381901931E+02 -0.13255215705E+03  0.11821947491E+03  0.25976599575E+03  0.17120000000E+03 0.  0.
        998    1    1    2    0    0 -0.21077838586E+01 -0.11096951249E+02  0.92914591717E+03  0.92926837915E+03  0.10000000000E+02 0. -1.
</event>
<event>
 5    1  0.7732857E-009  0.3833714E+03  0.7957747E-01  0.3436609E+00
         13   -1    0    0    0    0  0.00000000000E+00  0.00000000000E+00  0.14999999963E+04  0.15000000000E+04  0.10566000000E+00 0. -1.
        994   -1    0    0    0    0 -0.00000000000E+00 -0.00000000000E+00  0.11368683772E-12  0.17120000000E+03  0.17120000000E+03 0.  0.
         13    1    1    2    0    0 -0.17773723495E+02  0.52585615180E+01  0.63867938990E+02  0.66503251883E+02  0.10566000000E+00 0. -1.
        994    1    1    2    0    0  0.23521902617E+02 -0.23303845692E+02  0.60739841520E+01  0.17447831501E+03  0.17120000000E+03 0.  0.
        998    1    1    2    0    0 -0.57481791213E+01  0.18045284174E+02  0.14300580731E+04  0.14302184331E+04  0.10000000000E+02 0. -1.
</event>
<event>
 5    1  0.7732857E-009  0.3776893E+03  0.7957747E-01  0.3461282E+00
         13   -1    0    0    0    0  0.00000000000E+00  0.00000000000E+00  0.14999999963E+04  0.15000000000E+04  0.10566000000E+00 0.  1.
        994   -1    0    0    0    0 -0.00000000000E+00 -0.00000000000E+00  0.11368683772E-12  0.17120000000E+03  0.17120000000E+03 0.  0.
         13    1    1    2    0    0  0.30242195618E+02 -0.15926089285E+02  0.11558982880E+03  0.12053734028E+03  0.10566000000E+00 0.  1.
        994    1    1    2    0    0 -0.61259798602E+01  0.45009341183E+01  0.54988418625E+01  0.17145688466E+03  0.17120000000E+03 0.  0.
        998    1    1    2    0    0 -0.24116215757E+02  0.11425155167E+02  0.13789113256E+04  0.13792057751E+04  0.10000000000E+02 0.  1.
</event>
<event>
 5    1  0.7732857E-009  0.3695911E+03  0.7957747E-01  0.3497772E+00
         13   -1    0    0    0    0  0.00000000000E+00  0.00000000000E+00  0.14999999963E+04  0.15000000000E+04  0.10566000000E+00 0.  1.
        994   -1    0    0    0    0 -0.00000000000E+00 -0.00000000000E+00  0.11368683772E-12  0.17120000000E+03  0.17120000000E+03 0.  0.
         13    1    1    2    0    0 -0.16420753168E+02  0.29440972931E+02  0.54066212034E+02  0.63714821427E+02  0.10566000000E+00 0.  1.
        994    1    1    2    0    0  0.19136499499E+02 -0.30725268216E+02  0.14033311493E+02  0.17554663640E+03  0.17120000000E+03 0.  0.
        998    1    1    2    0    0 -0.27157463303E+01  0.12842952853E+01  0.14319004728E+04  0.14319385422E+04  0.10000000000E+02 0.  0.
</event>
<event>
 5    1  0.7732857E-009  0.3713965E+03  0.7957747E-01  0.3489497E+00
         13   -1    0    0    0    0  0.00000000000E+00  0.00000000000E+00  0.14999999963E+04  0.15000000000E+04  0.10566000000E+00 0. -1.
        994   -1    0    0    0    0 -0.00000000000E+00 -0.00000000000E+00  0.11368683772E-12  0.17120000000E+03  0.17120000000E+03 0.  0.
         13    1    1    2    0    0  0.48573924249E+02 -0.59803424876E+02  0.15041958209E+03  0.16900277389E+03  0.10566000000E+00 0. -1.
        994    1    1    2    0    0 -0.14369886970E+03  0.94271028913E+02  0.12405521477E+03  0.27246197598E+03  0.17120000000E+03 0.  0.
        998    1    1    2    0    0  0.95124945454E+02 -0.34467604037E+02  0.12255251994E+04  0.12297352501E+04  0.10000000000E+02 0. -1.
</event>
<event>
 5    1  0.7732857E-009  0.3729695E+03  0.7957747E-01  0.3482354E+00
         13   -1    0    0    0    0  0.00000000000E+00  0.00000000000E+00  0.14999999963E+04  0.15000000000E+04  0.10566000000E+00 0. -1.
        994   -1    0    0    0    0 -0.00000000000E+00 -0.00000000000E+00  0.11368683772E-12  0.17120000000E+03  0.17120000000E+03 0.  0.
         13    1    1    2    0    0  0.42435577873E+01 -0.10493846822E+02  0.45911870800E+01  0.12215513361E+02  0.10566000000E+00 0. -1.
        994    1    1    2    0    0 -0.31651630472E+02  0.63050032702E+01  0.11298398126E+02  0.17458142106E+03  0.17120000000E+03 0.  0.
        998    1    1    2    0    0  0.27408072685E+02  0.41888435521E+01  0.14841104111E+04  0.14844030656E+04  0.10000000000E+02 0. -1.
</event>
<event>
 5    1  0.7732857E-009  0.3753790E+03  0.7957747E-01  0.3471529E+00
         13   -1    0    0    0    0  0.00000000000E+00  0.00000000000E+00  0.14999999963E+04  0.15000000000E+04  0.10566000000E+00 0. -1.
        994   -1    0    0    0    0 -0.00000000000E+00 -0.00000000000E+00  0.11368683772E-12  0.17120000000E+03  0.17120000000E+03 0.  0.
         13    1    1    2    0    0 -0.40954532293E+02 -0.28060106344E+02  0.29137059109E+03  0.29556974778E+03  0.10566000000E+00 0. -1.
        994    1    1    2    0    0 -0.34561389946E+02  0.73727548487E+01  0.10735625999E+02  0.17513863324E+03  0.17120000000E+03 0.  0.
        998    1    1    2    0    0  0.75515922239E+02  0.20687351495E+02  0.11978937792E+04  0.12004916190E+04  0.10000000000E+02 0. -1.
</event>
<event>
 5    1  0.7732857E-009  0.3840557E+03  0.7957747E-01  0.3433687E+00
         13   -1    0    0    0    0  0.00000000000E+00  0.00000000000E+00  0.14999999963E+04  0.15000000000E+04  0.10566000000E+00 0.  1.
        994   -1    0    0    0    0 -0.00000000000E+00 -0.00000000000E+00  0.11368683772E-12  0.17120000000E+03  0.17120000000E+03 0.  0.
         13    1    1    2    0    0  0.14444893583E+02  0.26107859437E+01  0.49532239274E+02  0.51661639980E+02  0.10566000000E+00 0.  1.
        994    1    1    2    0    0 -0.14097609391E+02 -0.70374855173E+01  0.29190825623E+01  0.17194833479E+03  0.17120000000E+03 0.  0.
        998    1    1    2    0    0 -0.34728419173E+00  0.44266995736E+01  0.14475486744E+04  0.14475900252E+04  0.10000000000E+02 0.  1.
</event>
<event>
 5    1  0.7732857E-009  0.3772527E+03  0.7957747E-01  0.3463209E+00
         13   -1    0    0    0    0  0.00000000000E+00  0.00000000000E+00  0.14999999963E+04  0.15000000000E+04  0.10566000000E+00 0. -1.
        994   -1    0    0    0    0 -0.00000000000E+00 -0.00000000000E+00  0.11368683772E-12  0.17120000000E+03  0.17120000000E+03 0.  0.
         13    1    1    2    0    0 -0.12096501031E+02 -0.26087954467E+02  0.69577287155E+02  0.75285568055E+02  0.10566000000E+00 0. -1.
        994    1    1    2    0    0  0.94902310706E+01  0.28398425564E+02  0.85568895352E+01  0.17400918200E+03  0.17120000000E+03 0.  0.
        998    1    1    2    0    0  0.26062699607E+01 -0.23104710972E+01  0.14218658196E+04  0.14219052499E+04  0.10000000000E+02 0. -1.
</event>
<event>
 5    1  0.7732857E-009  0.3806033E+03  0.7957747E-01  0.3448536E+00
         13   -1    0    0    0    0  0.00000000000E+00  0.00000000000E+00  0.14999999963E+04  0.15000000000E+04  0.10566000000E+00 0. -1.
        994   -1    0    0    0    0 -0.00000000000E+00 -0.00000000000E+00  0.11368683772E-12  0.17120000000E+03  0.17120000000E+03 0.  0.
         13    1    1    2    0    0 -0.65034264419E+01 -0.18644122385E+02  0.49971683228E+02  0.53731537700E+02  0.10566000000E+00 0. -1.
        994    1    1    2    0    0 -0.13994807250E+02  0.16123876530E+02  0.53511928663E+01  0.17260912285E+03  0.17120000000E+03 0.  0.
        998    1    1    2    0    0  0.20498233692E+02  0.25202458550E+01  0.14446771202E+04  0.14448593395E+04  0.10000000000E+02 0. -1.
</event>
<event>
 5    1  0.7732857E-009  0.3787602E+03  0.7957747E-01  0.3456575E+00
         13   -1    0    0    0    0  0.00000000000E+00  0.00000000000E+00  0.14999999963E+04  0.15000000000E+04  0.10566000000E+00 0.  1.
        994   -1    0    0    0    0 -0.00000000000E+00 -0.00000000000E+00  0.11368683772E-12  0.17120000000E+03  0.17120000000E+03 0.  0.
         13    1    1    2    0    0 -0.30028923951E+02  0.11159593867E+02  0.10506018897E+03  0.10983591070E+03  0.10566000000E+00 0.  1.
        994    1    1    2    0    0  0.24717097504E+02  0.46499036379E+01  0.68864653258E+01  0.17317453600E+03  0.17120000000E+03 0.  0.
        998    1    1    2    0    0  0.53118264474E+01 -0.15809497505E+02  0.13880533420E+04  0.13881895533E+04  0.10000000000E+02 0.  1.
</event>
<event>
 5    1  0.7732857E-009  0.3750602E+03  0.7957747E-01  0.3472953E+00
         13   -1    0    0    0    0  0.00000000000E+00  0.00000000000E+00  0.14999999963E+04  0.15000000000E+04  0.10566000000E+00 0.  1.
        994   -1    0    0    0    0 -0.00000000000E+00 -0.00000000000E+00  0.11368683772E-12  0.17120000000E+03  0.17120000000E+03 0.  0.
         13    1    1    2    0    0 -0.34789828972E+01  0.11105703042E+02  0.75933242939E+01  0.13896391615E+02  0.10566000000E+00 0.  1.
        994    1    1    2    0    0 -0.14610207058E+02  0.14311757974E+02  0.80706326820E+01  0.17260608239E+03  0.17120000000E+03 0.  0.
        998    1    1    2    0    0  0.18089189955E+02 -0.25417461016E+02  0.14843360393E+04  0.14846975260E+04  0.10000000000E+02 0.  1.
</event>
<event>
 5    1  0.7732857E-009  0.3835151E+03  0.7957747E-01  0.3435994E+00
         13   -1    0    0    0    0  0.00000000000E+00  0.00000000000E+00  0.14999999963E+04  0.15000000000E+04  0.10566000000E+00 0. -1.
        994   -1    0    0    0    0 -0.00000000000E+00 -0.00000000000E+00  0.11368683772E-12  0.17120000000E+03  0.17120000000E+03 0.  0.
         13    1    1    2    0    0  0.98127345928E+01  0.50891630582E+01  0.24746491588E+02  0.27103308853E+02  0.10566000000E+00 0. -1.
        994    1    1    2    0    0 -0.86757622999E+01 -0.63056647643E+01  0.27493661736E+01  0.17155765583E+03  0.17120000000E+03 0.  0.
        998    1    1    2    0    0 -0.11369722930E+01  0.12165017061E+01  0.14725041385E+04  0.14725390353E+04  0.10000000000E+02 0. -1.
</event>
<event>
 5    1  0.7732857E-009  0.3714332E+03  0.7957747E-01  0.3489330E+00
         13   -1    0    0    0    0  0.00000000000E+00  0.00000000000E+00  0.14999999963E+04  0.15000000000E+04  0.10566000000E+00 0. -1.
        994   -1    0    0    0    0 -0.00000000000E+00 -0.00000000000E+00  0.11368683772E-12  0.17120000000E+03  0.17120000000E+03 0.  0.
         13    1    1    2    0    0 -0.38464877929E+02 -0.16908725989E+03  0.77228128927E+03  0.79151023317E+03  0.10566000000E+00 0. -1.
        994    1    1    2    0    0  0.48296066403E+02  0.16396136251E+03  0.11689117400E+03  0.26867978150E+03  0.17120000000E+03 0.  0.
        998    1    1    2    0    0 -0.98311884746E+01  0.51258973769E+01  0.61082753301E+03  0.61100998533E+03  0.10000000000E+02 0.  0.
</event>
<event>
 5    1  0.7732857E-009  0.3822130E+03  0.7957747E-01  0.3441579E+00
         13   -1    0    0    0    0  0.00000000000E+00  0.00000000000E+00  0.14999999963E+04  0.15000000000E+04  0.10566000000E+00 0.  1.
        994   -1    0    0    0    0 -0.00000000000E+00 -0.00000000000E+00  0.11368683772E-12  0.17120000000E+03  0.17120000000E+03 0.  0.
         13    1    1    2    0    0  0.13512569261E+02  0.15195675069E+02  0.64991656391E+02  0.68098638998E+02  0.10566000000E+00 0.  1.
        994    1    1    2    0    0 -0.19864266743E+02 -0.10345908226E+02  0.46866726522E+01  0.17272241259E+03  0.17120000000E+03 0.  0.
        998    1    1    2    0    0  0.63516974816E+01 -0.48497668425E+01  0.14303216672E+04  0.14303789484E+04  0.10000000000E+02 0.  1.
</event>
<event>
 5    1  0.7732857E-009  0.3761338E+03  0.7957747E-01  0.3468167E+00
         13   -1    0    0    0    0  0.00000000000E+00  0.00000000000E+00  0.14999999963E+04  0.15000000000E+04  0.10566000000E+00 0.  1.
        994   -1    0    0    0    0 -0.00000000000E+00 -0.00000000000E+00  0.11368683772E-12  0.17120000000E+03  0.17120000000E+03 0.  0.
         13    1    1    2    0    0  0.34263035532E+02 -0.78170253404E+01  0.10393926511E+03  0.10971984089E+03  0.10566000000E+00 0.  1.
        994    1    1    2    0    0 -0.92203294079E+01  0.82635577545E+01  0.66169167069E+01  0.17177463273E+03  0.17120000000E+03 0.  0.
        998    1    1    2    0    0 -0.25042706125E+02 -0.44653241410E+00  0.13894438145E+04  0.13897055264E+04  0.10000000000E+02 0.  1.
</event>
<event>
 5    1  0.8040409E-009  0.3860056E+03  0.7957747E-01  0.3425419E+00
         13   -1    0    0    0    0  0.00000000000E+00  0.00000000000E+00  0.14999999963E+04  0.15000000000E+04  0.10566000000E+00 0.  1.
        994   -1    0    0    0    0 -0.00000000000E+00 -0.00000000000E+00  0.11368683772E-12  0.17120000000E+03  0.17120000000E+03 0.  0.
         13    1    1    2    0    0 -0.12629151713E+02 -0.15941877063E+01  0.73550169756E+02  0.74643657082E+02  0.10566000000E+00 0.  1.
        994    1    1    2    0    0  0.74609049074E+01 -0.64418986678E+01  0.14502697722E+01  0.17148966862E+03  0.17120000000E+03 0.  0.
        998    1    1    2    0    0  0.51682468057E+01  0.80360863741E+01  0.14249995568E+04  0.14250666743E+04  0.10000000000E+02 0.  1.
</event>
<event>
 5    1  0.7732857E-009  0.3786931E+03  0.7957747E-01  0.3456869E+00
         13   -1    0    0    0    0  0.00000000000E+00  0.00000000000E+00  0.14999999963E+04  0.15000000000E+04  0.10566000000E+00 0.  1.
        994   -1    0    0    0    0 -0.00000000000E+00 -0.00000000000E+00  0.11368683772E-12  0.17120000000E+03  0.17120000000E+03 0.  0.
         13    1    1    2    0    0  0.36495926661E+02 -0.32952151951E+02  0.20636963708E+03  0.21214673048E+03  0.10566000000E+00 0.  1.
        994    1    1    2    0    0 -0.38282416969E+02  0.42160182200E+02  0.15760730339E+02  0.18111009092E+03  0.17120000000E+03 0.  0.
        998    1    1    2    0    0  0.17864903085E+01 -0.92080302489E+01  0.12778696289E+04  0.12779431786E+04  0.10000000000E+02 0.  1.
</event>
<event>
 5    1  0.7732857E-009  0.3733690E+03  0.7957747E-01  0.3480550E+00
         13   -1    0    0    0    0  0.00000000000E+00  0.00000000000E+00  0.14999999963E+04  0.15000000000E+04  0.10566000000E+00 0.  1.
        994   -1    0    0    0    0 -0.00000000000E+00 -0.00000000000E+00  0.11368683772E-12  0.17120000000E+03  0.17120000000E+03 0.  0.
         13    1    1    2    0    0 -0.44833811404E+02 -0.45544784569E+00  0.81417560823E+02  0.92946804421E+02  0.10566000000E+00 0.  1.
        994    1    1    2    0    0  0.76758210919E+00 -0.14471758530E+02  0.13474740419E+02  0.17233986656E+03  0.17120000000E+03 0.  0.
        998    1    1    2    0    0  0.44066229295E+02  0.14927206375E+02  0.14051076950E+04  0.14059133290E+04  0.10000000000E+02 0.  1.
</event>
<event>
 5    1  0.7732857E-009  0.3830254E+03  0.7957747E-01  0.3438090E+00
         13   -1    0    0    0    0  0.00000000000E+00  0.00000000000E+00  0.14999999963E+04  0.15000000000E+04  0.10566000000E+00 0.  1.
        994   -1    0    0    0    0 -0.00000000000E+00 -0.00000000000E+00  0.11368683772E-12  0.17120000000E+03  0.17120000000E+03 0.  0.
         13    1    1    2    0    0  0.11979530615E+02  0.21184964531E+02  0.11074036909E+03  0.11338321033E+03  0.10566000000E+00 0.  1.
        994    1    1    2    0    0 -0.26031619059E+02 -0.58340477878E+01  0.49727694537E+01  0.17333738702E+03  0.17120000000E+03 0.  0.
        998    1    1    2    0    0  0.14052088444E+02 -0.15350916743E+02  0.13842868577E+04  0.13844794026E+04  0.10000000000E+02 0.  1.
</event>
<event>
 5    1  0.7732857E-009  0.3758971E+03  0.7957747E-01  0.3469220E+00
         13   -1    0    0    0    0  0.00000000000E+00  0.00000000000E+00  0.14999999963E+04  0.15000000000E+04  0.10566000000E+00 0. -1.
        994   -1    0    0    0    0 -0.00000000000E+00 -0.00000000000E+00  0.11368683772E-12  0.17120000000E+03  0.17120000000E+03 0.  0.
         13    1    1    2    0    0  0.40364551230E+02 -0.33796462119E+02  0.20313984719E+03  0.20985067674E+03  0.10566000000E+00 0. -1.
        994    1    1    2    0    0 -0.15718824826E+02  0.51065030686E+02  0.15955330822E+02  0.18005202413E+03  0.17120000000E+03 0.  0.
        998    1    1    2    0    0 -0.24645726404E+02 -0.17268568567E+02  0.12809048183E+04  0.12812972991E+04  0.10000000000E+02 0. -1.
</event>
<event>
 5    1  0.7732857E-009  0.3837358E+03  0.7957747E-01  0.3435052E+00
         13   -1    0    0    0    0  0.00000000000E+00  0.00000000000E+00  0.14999999963E+04  0.15000000000E+04  0.10566000000E+00 0. -1.
        994   -1    0    0    0    0 -0.00000000000E+00 -0.00000000000E+00  0.11368683772E-12  0.17120000000E+03  0.17120000000E+03 0.  0.
         13    1    1    2    0    0  0.13819166461E+02  0.36599945347E+01  0.43409059709E+02  0.45702544245E+02  0.10566000000E+00 0. -1.
        994    1    1    2    0    0 -0.14319979632E+02 -0.76584215049E+01  0.31304227211E+01  0.17199695574E+03  0.17120000000E+03 0.  0.
        998    1    1    2    0    0  0.50081317073E+00  0.39984269702E+01  0.14534605138E+04  0.14535005000E+04  0.10000000000E+02 0. -1.
</event>
<event>
 5    1  0.7732857E-009  0.3786643E+03  0.7957747E-01  0.3456995E+00
         13   -1    0    0    0    0  0.00000000000E+00  0.00000000000E+00  0.14999999963E+04  0.15000000000E+04  0.10566000000E+00 0.  1.
        994   -1    0    0    0    0 -0.00000000000E+00 -0.00000000000E+00  0.11368683772E-12  0.17120000000E+03  0.17120000000E+03 0.  0.
         13    1    1    2    0    0  0.24407503097E+02  0.10967466530E+02  0.83901145121E+02  0.88064889974E+02  0.10566000000E+00 0.  1.
        994    1    1    2    0    0  0.14743605667E+02  0.39857801452E+01  0.55925119812E+01  0.17197085957E+03  0.17120000000E+03 0.  0.
        998    1    1    2    0    0 -0.39151108764E+02 -0.14953246675E+02  0.14105063392E+04  0.14111642505E+04  0.10000000000E+02 0.  1.
</event>
<event>
 5    1  0.7732857E-009  0.3751380E+03  0.7957747E-01  0.3472606E+00
         13   -1    0    0    0    0  0.00000000000E+00  0.00000000000E+00  0.14999999963E+04  0.15000000000E+04  0.10566000000E+00 0.  1.
        994   -1    0    0    0    0 -0.00000000000E+00 -0.00000000000E+00  0.11368683772E-12  0.17120000000E+03  0.17120000000E+03 0.  0.
         13    1    1    2    0    0  0.13644498579E+02  0.55239731096E+01  0.13527245879E+02  0.19992102578E+02  0.10566000000E+00 0.  1.
        994    1    1    2    0    0 -0.10937459455E+02  0.28662293191E+01  0.70423532062E+01  0.17171743659E+03  0.17120000000E+03 0.  0.
        998    1    1    2    0    0 -0.27070391235E+01 -0.83902024288E+01  0.14794303972E+04  0.14794904608E+04  0.10000000000E+02 0.  1.
</event>
<event>
 5    1  0.7732857E-009  0.3731057E+03  0.7957747E-01  0.3481738E+00
         13   -1    0    0    0    0  0.00000000000E+00  0.00000000000E+00  0.14999999963E+04  0.15000000000E+04  0.10566000000E+00 0. -1.
        994   -1    0    0    0    0 -0.00000000000E+00 -0.00000000000E+00  0.11368683772E-12  0.17120000000E+03  0.17120000000E+03 0.  0.
         13    1    1    2    0    0 -0.14318395768E+02 -0.32271923270E+02  0.88196744050E+02  0.95000896385E+02  0.10566000000E+00 0. -1.
        994    1    1    2    0    0  0.38368010338E+01 -0.10375699907E+02  0.80734656498E+01  0.17174689819E+03  0.17120000000E+03 0.  0.
        998    1    1    2    0    0  0.10481594734E+02  0.42647623177E+02  0.14037297866E+04  0.14044522054E+04  0.10000000000E+02 0. -1.
</event>
<event>
 5    1  0.7732857E-009  0.3844835E+03  0.7957747E-01  0.3431866E+00
         13   -1    0    0    0    0  0.00000000000E+00  0.00000000000E+00  0.14999999963E+04  0.15000000000E+04  0.10566000000E+00 0. -1.
        994   -1    0    0    0    0 -0.00000000000E+00 -0.00000000000E+00  0.11368683772E-12  0.17120000000E+03  0.17120000000E+03 0.  0.
         13    1    1    2    0    0 -0.32233764522E+01 -0.10488762338E+02  0.30391456960E+02  0.32311857132E+02  0.10566000000E+00 0. -1.
        994    1    1    2    0    0 -0.35146946858E+01  0.17888689439E+02  0.29823991281E+01  0.17219376584E+03  0.17120000000E+03 0.  0.
        998    1    1    2    0    0  0.67380711380E+01 -0.73999271009E+01  0.14666261402E+04  0.14666943770E+04  0.10000000000E+02 0. -1.
</event>
<event>
 5    1  0.7732857E-009  0.3819119E+03  0.7957747E-01  0.3442876E+00
         13   -1    0    0    0    0  0.00000000000E+00  0.00000000000E+00  0.14999999963E+04  0.15000000000E+04  0.10566000000E+00 0. -1.
        994   -1    0    0    0    0 -0.00000000000E+00 -0.00000000000E+00  0.11368683772E-12  0.17120000000E+03  0.17120000000E+03 0.  0.
         13    1    1    2    0    0  0.24170305056E+02  0.14539037320E+02  0.12653672504E+03  0.12964235882E+03  0.10566000000E+00 0. -1.
        994    1    1    2    0    0 -0.54491572774E+01 -0.19265780530E+02  0.45039175807E+01  0.17242560392E+03  0.17120000000E+03 0.  0.
        998    1    1    2    0    0 -0.18721147778E+02  0.47267432094E+01  0.13689593537E+04  0.13691320373E+04  0.10000000000E+02 0. -1.
</event>
<event>
 5    1  0.7732857E-009  0.3817743E+03  0.7957747E-01  0.3443469E+00
         13   -1    0    0    0    0  0.00000000000E+00  0.00000000000E+00  0.14999999963E+04  0.15000000000E+04  0.10566000000E+00 0.  1.
        994   -1    0    0    0    0 -0.00000000000E+00 -0.00000000000E+00  0.11368683772E-12  0.17120000000E+03  0.17120000000E+03 0.  0.
         13    1    1    2    0    0  0.14645370312E+02 -0.14240241477E+02  0.60942129313E+02  0.64274611147E+02  0.10566000000E+00 0.  1.
        994    1    1    2    0    0 -0.12735317893E+02  0.17825248151E+02  0.48368190922E+01  0.17266372697E+03  0.17120000000E+03 0.  0.
        998    1    1    2    0    0 -0.19100524190E+01 -0.35850066738E+01  0.14342210479E+04  0.14342616619E+04  0.10000000000E+02 0.  1.
</event>
<event>
 5    1  0.7732857E-009  0.3824634E+03  0.7957747E-01  0.3440502E+00
         13   -1    0    0    0    0  0.00000000000E+00  0.00000000000E+00  0.14999999963E+04  0.15000000000E+04  0.10566000000E+00 0.  1.
        994   -1    0    0    0    0 -0.00000000000E+00 -0.00000000000E+00  0.11368683772E-12  0.17120000000E+03  0.17120000000E+03 0.  0.
         13    1    1    2    0    0 -0.11273103973E+02 -0.33181055089E+02  0.18886618698E+03  0.19208985668E+03  0.10566000000E+00 0.  1.
        994    1    1    2    0    0  0.60642333159E+01  0.33830451687E+02  0.68216666130E+01  0.17474910450E+03  0.17120000000E+03 0.  0.
        998    1    1    2    0    0  0.52088706576E+01 -0.64939659817E+00  0.13043121427E+04  0.13043610388E+04  0.10000000000E+02 0.  0.
</event>
<event>
 5    1  0.7732857E-009  0.3856718E+03  0.7957747E-01  0.3426828E+00
         13   -1    0    0    0    0  0.00000000000E+00  0.00000000000E+00  0.14999999963E+04  0.15000000000E+04  0.10566000000E+00 0.  1.
        994   -1    0    0    0    0 -0.00000000000E+00 -0.00000000000E+00  0.11368683772E-12  0.17120000000E+03  0.17120000000E+03 0.  0.
         13    1    1    2    0    0 -0.55134114777E+01 -0.11170728934E+02  0.56748754540E+02  0.58100044724E+02  0.10566000000E+00 0.  1.
        994    1    1    2    0    0  0.90409597381E+01  0.15022111781E+02  0.23063505551E+01  0.17211090043E+03  0.17120000000E+03 0.  0.
        998    1    1    2    0    0 -0.35275482604E+01 -0.38513828469E+01  0.14409448912E+04  0.14409890548E+04  0.10000000000E+02 0.  1.
</event>
<event>
 5    1  0.7732857E-009  0.3846959E+03  0.7957747E-01  0.3430963E+00
         13   -1    0    0    0    0  0.00000000000E+00  0.00000000000E+00  0.14999999963E+04  0.15000000000E+04  0.10566000000E+00 0.  1.
        994   -1    0    0    0    0 -0.00000000000E+00 -0.00000000000E+00  0.11368683772E-12  0.17120000000E+03  0.17120000000E+03 0.  0.
         13    1    1    2    0    0 -0.81542514018E+01 -0.13488760630E+02  0.63707977107E+02  0.65628926476E+02  0.10566000000E+00 0.  1.
        994    1    1    2    0    0 -0.39503879562E+02  0.58552273235E+02  0.18380434133E+02  0.18610804808E+03  0.17120000000E+03 0.  0.
        998    1    1    2    0    0  0.47658130964E+02 -0.45063512604E+02  0.14179115850E+04  0.14194630254E+04  0.10000000000E+02 0.  1.
</event>
<event>
 5    1  0.7732857E-009  0.3717261E+03  0.7957747E-01  0.3487995E+00
         13   -1    0    0    0    0  0.00000000000E+00  0.00000000000E+00  0.14999999963E+04  0.15000000000E+04  0.10566000000E+00 0.  1.
        994   -1    0    0    0    0 -0.00000000000E+00 -0.00000000000E+00  0.11368683772E-12  0.17120000000E+03  0.17120000000E+03 0.  0.
         13    1    1    2    0    0  0.12665722138E+02  0.22900255637E+02  0.36189611403E+02  0.44660288435E+02  0.10566000000E+00 0.  1.
        994    1    1    2    0    0 -0.17608701734E+02 -0.26227201089E+02  0.11807411055E+02  0.17449007826E+03  0.17120000000E+03 0.  0.
        998    1    1    2    0    0  0.49429795965E+01  0.33269454516E+01  0.14520029738E+04  0.14520496333E+04  0.10000000000E+02 0.  1.
</event>
<event>
 5    1  0.7732857E-009  0.3854148E+03  0.7957747E-01  0.3427915E+00
         13   -1    0    0    0    0  0.00000000000E+00  0.00000000000E+00  0.14999999963E+04  0.15000000000E+04  0.10566000000E+00 0.  1.
        994   -1    0    0    0    0 -0.00000000000E+00 -0.00000000000E+00  0.11368683772E-12  0.17120000000E+03  0.17120000000E+03 0.  0.
         13    1    1    2    0    0  0.92108402936E+01  0.61355049411E+01  0.43235177104E+02  0.44629314392E+02  0.10566000000E+00 0.  1.
        994    1    1    2    0    0 -0.10300065232E+02  0.28975306966E+01  0.18004344043E+01  0.17154348892E+03  0.17120000000E+03 0.  0.
        998    1    1    2    0    0  0.10892249383E+01 -0.90330356378E+01  0.14549643848E+04  0.14550271967E+04  0.10000000000E+02 0.  1.
</event>
<event>
 5    1  0.7732857E-009  0.3694049E+03  0.7957747E-01  0.3498630E+00
         13   -1    0    0    0    0  0.00000000000E+00  0.00000000000E+00  0.14999999963E+04  0.15000000000E+04  0.10566000000E+00 0.  1.
        994   -1    0    0    0    0 -0.00000000000E+00 -0.00000000000E+00  0.11368683772E-12  0.17120000000E+03  0.17120000000E+03 0.  0.
         13    1    1    2    0    0 -0.14073017791E+02  0.74929049015E-01  0.46901228128E+01  0.14834549543E+02  0.10566000000E+00 0.  1.
        994    1    1    2    0    0 -0.55676745740E+01 -0.81910383582E+01  0.10966784348E+02  0.17183655743E+03  0.17120000000E+03 0.  0.
        998    1    1    2    0    0  0.19640692365E+02  0.81161093092E+01  0.14843430891E+04  0.14845288930E+04  0.10000000000E+02 0.  1.
</event>
<event>
 5    1  0.7732857E-009  0.3819738E+03  0.7957747E-01  0.3442609E+00
         13   -1    0    0    0    0  0.00000000000E+00  0.00000000000E+00  0.14999999963E+04  0.15000000000E+04  0.10566000000E+00 0.  1.
        994   -1    0    0    0    0 -0.00000000000E+00 -0.00000000000E+00  0.11368683772E-12  0.17120000000E+03  0.17120000000E+03 0.  0.
         13    1    1    2    0    0 -0.11073174776E+02  0.10163633434E+02  0.35749706454E+02  0.38781017518E+02  0.10566000000E+00 0.  1.
        994    1    1    2    0    0  0.14117030221E+02  0.10749871015E+02  0.41864829190E+01  0.17216799037E+03  0.17120000000E+03 0.  0.
        998    1    1    2    0    0 -0.30438554455E+01 -0.20913504449E+02  0.14600638069E+04  0.14602509921E+04  0.10000000000E+02 0.  1.
</event>
<event>
 5    1  0.7732857E-009  0.3850689E+03  0.7957747E-01  0.3429380E+00
         13   -1    0    0    0    0  0.00000000000E+00  0.00000000000E+00  0.14999999963E+04  0.15000000000E+04  0.10566000000E+00 0. -1.
        994   -1    0    0    0    0 -0.00000000000E+00 -0.00000000000E+00  0.11368683772E-12  0.17120000000E+03  0.17120000000E+03 0.  0.
         13    1    1    2    0    0  0.11674113409E+02  0.62525877167E+01  0.51413364638E+02  0.53091666055E+02  0.10566000000E+00 0. -1.
        994    1    1    2    0    0 -0.18677130317E+02 -0.87775451953E+01  0.29974260205E+01  0.17246537351E+03  0.17120000000E+03 0.  0.
        998    1    1    2    0    0  0.70030169080E+01  0.25249574786E+01  0.14455892056E+04  0.14456429604E+04  0.10000000000E+02 0. -1.
</event>
<event>
 5    1  0.7732857E-009  0.3805511E+03  0.7957747E-01  0.3448763E+00
         13   -1    0    0    0    0  0.00000000000E+00  0.00000000000E+00  0.14999999963E+04  0.15000000000E+04  0.10566000000E+00 0. -1.
        994   -1    0    0    0    0 -0.00000000000E+00 -0.00000000000E+00  0.11368683772E-12  0.17120000000E+03  0.17120000000E+03 0.  0.
         13    1    1    2    0    0 -0.22289853342E+02  0.98448335697E+01  0.72031375810E+02  0.76041360950E+02  0.10566000000E+00 0. -1.
        994    1    1    2    0    0  0.24458782383E+02 -0.93996756773E+01  0.61496230143E+01  0.17330275186E+03  0.17120000000E+03 0.  0.
        998    1    1    2    0    0 -0.21689290413E+01 -0.44515789240E+00  0.14218189975E+04  0.14218558872E+04  0.10000000000E+02 0. -1.
</event>
<event>
 5    1  0.7732857E-009  0.3700180E+03  0.7957747E-01  0.3495808E+00
         13   -1    0    0    0    0  0.00000000000E+00  0.00000000000E+00  0.14999999963E+04  0.15000000000E+04  0.10566000000E+00 0.  1.
        994   -1    0    0    0    0 -0.00000000000E+00 -0.00000000000E+00  0.11368683772E-12  0.17120000000E+03  0.17120000000E+03 0.  0.
         13    1    1    2    0    0 -0.96732791177E+00 -0.11591721796E+03  0.53489178471E+03  0.54730884303E+03  0.10566000000E+00 0.  1.
        994    1    1    2    0    0  0.31124516943E+02  0.10117014055E+03  0.49058722515E+02  0.20717222582E+03  0.17120000000E+03 0.  0.
        998    1    1    2    0    0 -0.30157189031E+02  0.14747077408E+02  0.91604948906E+03  0.91671893116E+03  0.10000000000E+02 0.  1.
</event>
<event>
 5    1  0.7732857E-009  0.3766447E+03  0.7957747E-01  0.3465899E+00
         13   -1    0    0    0    0  0.00000000000E+00  0.00000000000E+00  0.14999999963E+04  0.15000000000E+04  0.10566000000E+00 0.  1.
        994   -1    0    0    0    0 -0.00000000000E+00 -0.00000000000E+00  0.11368683772E-12  0.17120000000E+03  0.17120000000E+03 0.  0.
         13    1    1    2    0    0 -0.39289328420E+02 -0.35082914632E+02  0.22689132016E+03  0.23292519090E+03  0.10566000000E+00 0.  1.
        994    1    1    2    0    0  0.17239773092E+02  0.35002842268E+02  0.11000308234E+02  0.17593423636E+03  0.17120000000E+03 0.  0.
        998    1    1    2    0    0  0.22049555328E+02  0.80072364189E-01  0.12621083679E+04  0.12623405727E+04  0.10000000000E+02 0.  1.
</event>
<event>
 5    1  0.7732857E-009  0.4373743E+03  0.7957747E-01  0.3233986E+00
         13   -1    0    0    0    0  0.00000000000E+00  0.00000000000E+00  0.14999999963E+04  0.15000000000E+04  0.10566000000E+00 0. -1.
        994   -1    0    0    0    0 -0.00000000000E+00 -0.00000000000E+00  0.11368683772E-12  0.17120000000E+03  0.17120000000E+03 0.  0.
         13    1    1    2    0    0 -0.36584318404E+02  0.87217196052E+01 -0.67027960013E+01  0.38202347889E+02  0.10566000000E+00 0. -1.
        994    1    1    2    0    0 -0.81775303656E+02 -0.99941178072E+02  0.13555057389E+03  0.25369043625E+03  0.17120000000E+03 0.  0.
        998    1    1    2    0    0  0.11835962206E+03  0.91219458467E+02  0.13711522184E+04  0.13793072159E+04  0.10000000000E+02 0. -1.
</event>
<event>
 5    1  0.7732857E-009  0.3824366E+03  0.7957747E-01  0.3440617E+00
         13   -1    0    0    0    0  0.00000000000E+00  0.00000000000E+00  0.14999999963E+04  0.15000000000E+04  0.10566000000E+00 0.  1.
        994   -1    0    0    0    0 -0.00000000000E+00 -0.00000000000E+00  0.11368683772E-12  0.17120000000E+03  0.17120000000E+03 0.  0.
         13    1    1    2    0    0  0.94147009694E+01 -0.12554306222E+02  0.40683967475E+02  0.43605545205E+02  0.10566000000E+00 0.  1.
        994    1    1    2    0    0 -0.11859957432E+02  0.94057314052E+01  0.36684015025E+01  0.17190702005E+03  0.17120000000E+03 0.  0.
        998    1    1    2    0    0  0.24452564625E+01  0.31485748165E+01  0.14556476273E+04  0.14556874347E+04  0.10000000000E+02 0.  1.
</event>
<event>
 5    1  0.7732857E-009  0.3763434E+03  0.7957747E-01  0.3467236E+00
         13   -1    0    0    0    0  0.00000000000E+00  0.00000000000E+00  0.14999999963E+04  0.15000000000E+04  0.10566000000E+00 0. -1.
        994   -1    0    0    0    0 -0.00000000000E+00 -0.00000000000E+00  0.11368683772E-12  0.17120000000E+03  0.17120000000E+03 0.  0.
         13    1    1    2    0    0  0.29611010757E+00 -0.17692444598E+02  0.43998855476E+01  0.18234046011E+02  0.10566000000E+00 0. -1.
        994    1    1    2    0    0  0.69478816524E+00  0.19161767369E+02  0.15648706570E+02  0.17297970423E+03  0.17120000000E+03 0.  0.
        998    1    1    2    0    0 -0.99089827282E+00 -0.14693227707E+01  0.14799514042E+04  0.14799862498E+04  0.10000000000E+02 0. -1.
</event>
<event>
 5    1  0.7732857E-009  0.3787277E+03  0.7957747E-01  0.3456717E+00
         13   -1    0    0    0    0  0.00000000000E+00  0.00000000000E+00  0.14999999963E+04  0.15000000000E+04  0.10566000000E+00 0. -1.
        994   -1    0    0    0    0 -0.00000000000E+00 -0.00000000000E+00  0.11368683772E-12  0.17120000000E+03  0.17120000000E+03 0.  0.
         13    1    1    2    0    0  0.26244685493E+02 -0.32686686364E+02  0.17712646117E+03  0.18201922259E+03  0.10566000000E+00 0. -1.
        994    1    1    2    0    0 -0.20823882450E+02  0.20245707010E+02  0.76136986599E+01  0.17381291995E+03  0.17120000000E+03 0.  0.
        998    1    1    2    0    0 -0.54208030423E+01  0.12440979354E+02  0.13152598364E+04  0.13153678575E+04  0.10000000000E+02 0. -1.
</event>
<event>
 5    1  0.7732857E-009  0.3760891E+03  0.7957747E-01  0.3468366E+00
         13   -1    0    0    0    0  0.00000000000E+00  0.00000000000E+00  0.14999999963E+04  0.15000000000E+04  0.10566000000E+00 0.  1.
        994   -1    0    0    0    0 -0.00000000000E+00 -0.00000000000E+00  0.11368683772E-12  0.17120000000E+03  0.17120000000E+03 0.  0.
         13    1    1    2    0    0 -0.10876403509E+03 -0.24820825782E+02  0.55855344005E+03  0.56958550304E+03  0.10566000000E+00 0.  1.
        994    1    1    2    0    0  0.31757444309E+02  0.30440031856E+02  0.21140474335E+02  0.17802103938E+03  0.17120000000E+03 0.  0.
        998    1    1    2    0    0  0.77006590778E+02 -0.56192060738E+01  0.92030608189E+03  0.92359345757E+03  0.10000000000E+02 0.  1.
</event>
<event>
 5    1  0.7732857E-009  0.3811624E+03  0.7957747E-01  0.3446113E+00
         13   -1    0    0    0    0  0.00000000000E+00  0.00000000000E+00  0.14999999963E+04  0.15000000000E+04  0.10566000000E+00 0.  1.
        994   -1    0    0    0    0 -0.00000000000E+00 -0.00000000000E+00  0.11368683772E-12  0.17120000000E+03  0.17120000000E+03 0.  0.
         13    1    1    2    0    0  0.11205693761E+02 -0.28860482689E+02  0.14099377120E+03  0.14435286528E+03  0.10566000000E+00 0.  1.
        994    1    1    2    0    0 -0.65353458653E+01  0.88364159955E+01  0.39498603982E+01  0.17159788574E+03  0.17120000000E+03 0.  0.
        998    1    1    2    0    0 -0.46703478958E+01  0.20024066693E+02  0.13550563647E+04  0.13552492490E+04  0.10000000000E+02 0.  1.
</event>
<event>
 5    1  0.7732857E-009  0.3754157E+03  0.7957747E-01  0.3471366E+00
         13   -1    0    0    0    0  0.00000000000E+00  0.00000000000E+00  0.14999999963E+04  0.15000000000E+04  0.10566000000E+00 0. -1.
        994   -1    0    0    0    0 -0.00000000000E+00 -0.00000000000E+00  0.11368683772E-12  0.17120000000E+03  0.17120000000E+03 0.  0.
         13    1    1    2    0    0 -0.13414692059E+03  0.30794334713E+02  0.72739001241E+03  0.74029718943E+03  0.10566000000E+00 0. -1.
        994    1    1    2    0    0  0.13096832819E+03 -0.33928192221E+02  0.71373776946E+02  0.22958109951E+03  0.17120000000E+03 0.  0.
        998    1    1    2    0    0  0.31785924050E+01  0.31338575079E+01  0.70123620692E+03  0.70132171107E+03  0.10000000000E+02 0. -1.
</event>
<event>
 5    1  0.7732857E-009  0.3826143E+03  0.7957747E-01  0.3439854E+00
         13   -1    0    0    0    0  0.00000000000E+00  0.00000000000E+00  0.14999999963E+04  0.15000000000E+04  0.10566000000E+00 0.  1.
        994   -1    0    0    0    0 -0.00000000000E+00 -0.00000000000E+00  0.11368683772E-12  0.17120000000E+03  0.17120000000E+03 0.  0.
         13    1    1    2    0    0  0.68263018090E+01  0.10589820343E+02  0.26963762415E+02  0.29762364471E+02  0.10566000000E+00 0.  1.
        994    1    1    2    0    0 -0.70966555562E+01 -0.80061297592E+01  0.31986958279E+01  0.17156378490E+03  0.17120000000E+03 0.  0.
        998    1    1    2    0    0  0.27035374713E+00 -0.25836905835E+01  0.14698375380E+04  0.14698738506E+04  0.10000000000E+02 0.  1.
</event>
<event>
 5    1  0.7732857E-009  0.3700342E+03  0.7957747E-01  0.3495734E+00
         13   -1    0    0    0    0  0.00000000000E+00  0.00000000000E+00  0.14999999963E+04  0.15000000000E+04  0.10566000000E+00 0.  1.
        994   -1    0    0    0    0 -0.00000000000E+00 -0.00000000000E+00  0.11368683772E-12  0.17120000000E+03  0.17120000000E+03 0.  0.
         13    1    1    2    0    0 -0.59519116038E+02  0.11437811225E+03  0.56333458246E+03  0.57790201651E+03  0.10566000000E+00 0.  1.
        994    1    1    2    0    0  0.60783483848E+02 -0.10799109595E+03  0.64381428135E+02  0.22093238106E+03  0.17120000000E+03 0.  0.
        998    1    1    2    0    0 -0.12643678109E+01 -0.63870163023E+01  0.87228398569E+03  0.87236560242E+03  0.10000000000E+02 0.  0.
</event>
<event>
 5    1  0.7732857E-009  0.3808075E+03  0.7957747E-01  0.3447650E+00
         13   -1    0    0    0    0  0.00000000000E+00  0.00000000000E+00  0.14999999963E+04  0.15000000000E+04  0.10566000000E+00 0. -1.
        994   -1    0    0    0    0 -0.00000000000E+00 -0.00000000000E+00  0.11368683772E-12  0.17120000000E+03  0.17120000000E+03 0.  0.
         13    1    1    2    0    0  0.33088014279E+02 -0.17061961258E+02  0.15312395448E+03  0.15758452910E+03  0.10566000000E+00 0. -1.
        994    1    1    2    0    0 -0.38379254804E+02  0.36563978674E+02  0.13151705390E+02  0.17970058178E+03  0.17120000000E+03 0.  0.
        998    1    1    2    0    0  0.52912405255E+01 -0.19502017416E+02  0.13337243364E+04  0.13339148891E+04  0.10000000000E+02 0. -1.
</event>
<event>
 5    1  0.7732857E-009  0.3827384E+03  0.7957747E-01  0.3439321E+00
         13   -1    0    0    0    0  0.00000000000E+00  0.00000000000E+00  0.14999999963E+04  0.15000000000E+04  0.10566000000E+00 0. -1.
        994   -1    0    0    0    0 -0.00000000000E+00 -0.00000000000E+00  0.11368683772E-12  0.17120000000E+03  0.17120000000E+03 0.  0.
         13    1    1    2    0    0 -0.12205876120E+02 -0.23593486938E+02  0.12545232424E+03  0.12823389902E+03  0.10566000000E+00 0. -1.
        994    1    1    2    0    0  0.88117452950E+01  0.15697056042E+02  0.38314167532E+01  0.17218642275E+03  0.17120000000E+03 0.  0.
        998    1    1    2    0    0  0.33941308250E+01  0.78964308953E+01  0.13707162553E+04  0.13707796782E+04  0.10000000000E+02 0. -1.
</event>
<event>
 5    1  0.7732857E-009  0.3708513E+03  0.7957747E-01  0.3491987E+00
         13   -1    0    0    0    0  0.00000000000E+00  0.00000000000E+00  0.14999999963E+04  0.15000000000E+04  0.10566000000E+00 0.  1.
        994   -1    0    0    0    0 -0.00000000000E+00 -0.00000000000E+00  0.11368683772E-12  0.17120000000E+03  0.17120000000E+03 0.  0.
         13    1    1    2    0    0 -0.29367264584E+02 -0.12609843930E+02  0.42254215746E+02  0.52979942483E+02  0.10566000000E+00 0.  1.
        994    1    1    2    0    0  0.93044934451E+00  0.94125823445E+01  0.11703448136E+02  0.17186003939E+03  0.17120000000E+03 0.  0.
        998    1    1    2    0    0  0.28436815240E+02  0.31972615857E+01  0.14460423324E+04  0.14463600181E+04  0.10000000000E+02 0.  1.
</event>
<event>
 5    1  0.7732857E-009  0.3845294E+03  0.7957747E-01  0.3431670E+00
         13   -1    0    0    0    0  0.00000000000E+00  0.00000000000E+00  0.14999999963E+04  0.15000000000E+04  0.10566000000E+00 0.  1.
        994   -1    0    0    0    0 -0.00000000000E+00 -0.00000000000E+00  0.11368683772E-12  0.17120000000E+03  0.17120000000E+03 0.  0.
         13    1    1    2    0    0  0.63475583154E+00  0.10277958801E+02  0.27821892035E+02  0.29666617477E+02  0.10566000000E+00 0.  1.
        994    1    1    2    0    0  0.30820914745E+01 -0.89490573241E+01  0.21590655773E+01  0.17147503165E+03  0.17120000000E+03 0.  0.
        998    1    1    2    0    0 -0.37168473060E+01 -0.13289014769E+01  0.14700190387E+04  0.14700583509E+04  0.10000000000E+02 0.  1.
</event>
<event>
 5    1  0.7732857E-009  0.3840888E+03  0.7957747E-01  0.3433546E+00
         13   -1    0    0    0    0  0.00000000000E+00  0.00000000000E+00  0.14999999963E+04  0.15000000000E+04  0.10566000000E+00 0. -1.
        994   -1    0    0    0    0 -0.00000000000E+00 -0.00000000000E+00  0.11368683772E-12  0.17120000000E+03  0.17120000000E+03 0.  0.
         13    1    1    2    0    0  0.13461989579E+00 -0.15039113262E+02  0.52087770226E+02  0.54215680586E+02  0.10566000000E+00 0. -1.
        994    1    1    2    0    0 -0.36158732644E+01  0.16541537100E+02  0.30294354233E+01  0.17206194951E+03  0.17120000000E+03 0.  0.
        998    1    1    2    0    0  0.34812533686E+01 -0.15024238383E+01  0.14448827906E+04  0.14449223699E+04  0.10000000000E+02 0. -1.
</event>
<event>
 5    1  0.7732857E-009  0.3840209E+03  0.7957747E-01  0.3433835E+00
         13   -1    0    0    0    0  0.00000000000E+00  0.00000000000E+00  0.14999999963E+04  0.15000000000E+04  0.10566000000E+00 0.  1.
        994   -1    0    0    0    0 -0.00000000000E+00 -0.00000000000E+00  0.11368683772E-12  0.17120000000E+03  0.17120000000E+03 0.  0.
         13    1    1    2    0    0  0.50587793360E+02 -0.14617262840E+02  0.71654995188E+02  0.88922655771E+02  0.10566000000E+00 0.  1.
        994    1    1    2    0    0 -0.15040226998E+02  0.17716170647E+02  0.20542362280E+02  0.17398706785E+03  0.17120000000E+03 0.  0.
        998    1    1    2    0    0 -0.35547566362E+02 -0.30989078070E+01  0.14078026388E+04  0.14082902764E+04  0.10000000000E+02 0.  1.
</event>
<event>
 5    1  0.7732857E-009  0.3846209E+03  0.7957747E-01  0.3431282E+00
         13   -1    0    0    0    0  0.00000000000E+00  0.00000000000E+00  0.14999999963E+04  0.15000000000E+04  0.10566000000E+00 0.  1.
        994   -1    0    0    0    0 -0.00000000000E+00 -0.00000000000E+00  0.11368683772E-12  0.17120000000E+03  0.17120000000E+03 0.  0.
         13    1    1    2    0    0 -0.13758591893E+02  0.12559150426E+02  0.89949389400E+02  0.91858232770E+02  0.10566000000E+00 0.  1.
        994    1    1    2    0    0  0.96901322175E+01 -0.19314988920E+02  0.33575686941E+01  0.17259107951E+03  0.17120000000E+03 0.  0.
        998    1    1    2    0    0  0.40684596755E+01  0.67558384944E+01  0.14066930382E+04  0.14067506877E+04  0.10000000000E+02 0.  1.
</event>
<event>
 5    1  0.7732857E-009  0.3812563E+03  0.7957747E-01  0.3445707E+00
         13   -1    0    0    0    0  0.00000000000E+00  0.00000000000E+00  0.14999999963E+04  0.15000000000E+04  0.10566000000E+00 0.  1.
        994   -1    0    0    0    0 -0.00000000000E+00 -0.00000000000E+00  0.11368683772E-12  0.17120000000E+03  0.17120000000E+03 0.  0.
         13    1    1    2    0    0 -0.19208233759E+03 -0.10194911680E+03  0.10746096980E+04  0.10963919286E+04  0.10566000000E+00 0.  1.
        994    1    1    2    0    0  0.19478439932E+03  0.14712836144E+03  0.23721839061E+03  0.38101144576E+03  0.17120000000E+03 0.  0.
        998    1    1    2    0    0 -0.27020617360E+01 -0.45179244639E+02  0.18817190764E+03  0.19379662564E+03  0.10000000000E+02 0. -1.
</event>
<event>
 5    1  0.7732857E-009  0.3746172E+03  0.7957747E-01  0.3474937E+00
         13   -1    0    0    0    0  0.00000000000E+00  0.00000000000E+00  0.14999999963E+04  0.15000000000E+04  0.10566000000E+00 0. -1.
        994   -1    0    0    0    0 -0.00000000000E+00 -0.00000000000E+00  0.11368683772E-12  0.17120000000E+03  0.17120000000E+03 0.  0.
         13    1    1    2    0    0 -0.42948076543E+01  0.21255647183E+02  0.30464506704E+02  0.37394454706E+02  0.10566000000E+00 0. -1.
        994    1    1    2    0    0  0.12053624504E+02 -0.23868586349E+02  0.93128342020E+01  0.17352569884E+03  0.17120000000E+03 0.  0.
        998    1    1    2    0    0 -0.77588168497E+01  0.26129391662E+01  0.14602226554E+04  0.14602798465E+04  0.10000000000E+02 0. -1.
</event>
<event>
 5    1  0.7732857E-009  0.3778531E+03  0.7957747E-01  0.3460560E+00
         13   -1    0    0    0    0  0.00000000000E+00  0.00000000000E+00  0.14999999963E+04  0.15000000000E+04  0.10566000000E+00 0.  1.
        994   -1    0    0    0    0 -0.00000000000E+00 -0.00000000000E+00  0.11368683772E-12  0.17120000000E+03  0.17120000000E+03 0.  0.
         13    1    1    2    0    0  0.29594025004E+02  0.81767668547E+02  0.35659662413E+03  0.36704621158E+03  0.10566000000E+00 0.  1.
        994    1    1    2    0    0 -0.13266632864E+02  0.13294848161E+02  0.16422199666E+02  0.17300833846E+03  0.17120000000E+03 0.  0.
        998    1    1    2    0    0 -0.16327392139E+02 -0.95062516707E+02  0.11269811725E+04  0.11311454500E+04  0.10000000000E+02 0.  1.
</event>
<event>
 5    1  0.7732857E-009  0.3788706E+03  0.7957747E-01  0.3456091E+00
         13   -1    0    0    0    0  0.00000000000E+00  0.00000000000E+00  0.14999999963E+04  0.15000000000E+04  0.10566000000E+00 0. -1.
        994   -1    0    0    0    0 -0.00000000000E+00 -0.00000000000E+00  0.11368683772E-12  0.17120000000E+03  0.17120000000E+03 0.  0.
         13    1    1    2    0    0  0.37886827582E+02 -0.37666320507E+02  0.29019954848E+03  0.29507618086E+03  0.10566000000E+00 0. -1.
        994    1    1    2    0    0 -0.14571317127E+02  0.35468999395E+02  0.96539244375E+01  0.17570717532E+03  0.17120000000E+03 0.  0.
        998    1    1    2    0    0 -0.23315510455E+02  0.21973211118E+01  0.12001465234E+04  0.12004166438E+04  0.10000000000E+02 0. -1.
</event>
<event>
 5    1  0.7732857E-009  0.3750349E+03  0.7957747E-01  0.3473067E+00
         13   -1    0    0    0    0  0.00000000000E+00  0.00000000000E+00  0.14999999963E+04  0.15000000000E+04  0.10566000000E+00 0. -1.
        994   -1    0    0    0    0 -0.00000000000E+00 -0.00000000000E+00  0.11368683772E-12  0.17120000000E+03  0.17120000000E+03 0.  0.
         13    1    1    2    0    0  0.35027135466E+02 -0.53170959513E+02  0.12382612198E+03  0.13923710282E+03  0.10566000000E+00 0. -1.
        994    1    1    2    0    0 -0.42565020765E+02  0.70054512569E+02  0.37944182481E+02  0.19356811904E+03  0.17120000000E+03 0.  0.
        998    1    1    2    0    0  0.75378852986E+01 -0.16883553056E+02  0.13382296918E+04  0.13383947781E+04  0.10000000000E+02 0. -1.
</event>
<event>
 5    1  0.7732857E-009  0.3809374E+03  0.7957747E-01  0.3447087E+00
         13   -1    0    0    0    0  0.00000000000E+00  0.00000000000E+00  0.14999999963E+04  0.15000000000E+04  0.10566000000E+00 0.  1.
        994   -1    0    0    0    0 -0.00000000000E+00 -0.00000000000E+00  0.11368683772E-12  0.17120000000E+03  0.17120000000E+03 0.  0.
         13    1    1    2    0    0 -0.13480038575E+02  0.47878395942E+01  0.26064518379E+02  0.29732223770E+02  0.10566000000E+00 0.  1.
        994    1    1    2    0    0  0.14821688474E+02 -0.41393325739E+01  0.44503289490E+01  0.17194784660E+03  0.17120000000E+03 0.  0.
        998    1    1    2    0    0 -0.13416498990E+01 -0.64850702038E+00  0.14694851490E+04  0.14695199296E+04  0.10000000000E+02 0.  1.
</event>
<event>
 5    1  0.8455108E-009  0.3854695E+03  0.7957747E-01  0.3427683E+00
         13   -1    0    0    0    0  0.00000000000E+00  0.00000000000E+00  0.14999999963E+04  0.15000000000E+04  0.10566000000E+00 0. -1.
        994   -1    0    0    0    0 -0.00000000000E+00 -0.00000000000E+00  0.11368683772E-12  0.17120000000E+03  0.17120000000E+03 0.  0.
         13    1    1    2    0    0 -0.15699596113E+02  0.34089812991E+01  0.88357295833E+02  0.89806020748E+02  0.10566000000E+00 0. -1.
        994    1    1    2    0    0  0.15505420646E+02 -0.69416762969E+01  0.23454510130E+01  0.17205681062E+03  0.17120000000E+03 0.  0.
        998    1    1    2    0    0  0.19417546742E+00  0.35326949978E+01  0.14092972494E+04  0.14093371686E+04  0.10000000000E+02 0. -1.
</event>
<event>
 5    1  0.7732857E-009  0.3721291E+03  0.7957747E-01  0.3486163E+00
         13   -1    0    0    0    0  0.00000000000E+00  0.00000000000E+00  0.14999999963E+04  0.15000000000E+04  0.10566000000E+00 0. -1.
        994   -1    0    0    0    0 -0.00000000000E+00 -0.00000000000E+00  0.11368683772E-12  0.17120000000E+03  0.17120000000E+03 0.  0.
         13    1    1    2    0    0 -0.52749988169E+02  0.44130188189E+02  0.27876953402E+03  0.28712801853E+03  0.10566000000E+00 0. -1.
        994    1    1    2    0    0 -0.14224282562E+02  0.17564072792E+02  0.13870337968E+02  0.17324160338E+03  0.17120000000E+03 0.  0.
        998    1    1    2    0    0  0.66974270731E+02 -0.61694260981E+02  0.12073601243E+04  0.12108303781E+04  0.10000000000E+02 0. -1.
</event>
<event>
 5    1  0.7732857E-009  0.3825447E+03  0.7957747E-01  0.3440153E+00
         13   -1    0    0    0    0  0.00000000000E+00  0.00000000000E+00  0.14999999963E+04  0.15000000000E+04  0.10566000000E+00 0. -1.
        994   -1    0    0    0    0 -0.00000000000E+00 -0.00000000000E+00  0.11368683772E-12  0.17120000000E+03  0.17120000000E+03 0.  0.
         13    1    1    2    0    0  0.11792679816E+01  0.19674901982E+02  0.63899154045E+02  0.66870064249E+02  0.10566000000E+00 0. -1.
        994    1    1    2    0    0 -0.94556196733E+00 -0.22945395653E+02  0.46043382781E+01  0.17279474876E+03  0.17120000000E+03 0.  0.
        998    1    1    2    0    0 -0.23370601430E+00  0.32704936704E+01  0.14314965040E+04  0.14315351870E+04  0.10000000000E+02 0. -1.
</event>
<event>
 5    1  0.7732857E-009  0.3834011E+03  0.7957747E-01  0.3436482E+00
         13   -1    0    0    0    0  0.00000000000E+00  0.00000000000E+00  0.14999999963E+04  0.15000000000E+04  0.10566000000E+00 0. -1.
        994   -1    0    0    0    0 -0.00000000000E+00 -0.00000000000E+00  0.11368683772E-12  0.17120000000E+03  0.17120000000E+03 0.  0.
         13    1    1    2    0    0  0.92470871479E+01  0.10800955498E+02  0.40751618367E+02  0.43161033629E+02  0.10566000000E+00 0. -1.
        994    1    1    2    0    0 -0.52911929897E+01 -0.96061778832E+01  0.28237541856E+01  0.17157415005E+03  0.17120000000E+03 0.  0.
        998    1    1    2    0    0 -0.39558941582E+01 -0.11947776143E+01  0.14564246237E+04  0.14564648163E+04  0.10000000000E+02 0. -1.
</event>
<event>
 5    1  0.7732857E-009  0.3825622E+03  0.7957747E-01  0.3440077E+00
         13   -1    0    0    0    0  0.00000000000E+00  0.00000000000E+00  0.14999999963E+04  0.15000000000E+04  0.10566000000E+00 0.  1.
        994   -1    0    0    0    0 -0.00000000000E+00 -0.00000000000E+00  0.11368683772E-12  0.17120000000E+03  0.17120000000E+03 0.  0.
         13    1    1    2    0    0 -0.10923301039E+02  0.56151631351E+01  0.25363281692E+02  0.28180769770E+02  0.10566000000E+00 0.  1.
        994    1    1    2    0    0  0.79200451027E+01 -0.58376981989E+01  0.31662680278E+01  0.17151172289E+03  0.17120000000E+03 0.  0.
        998    1    1    2    0    0  0.30032559358E+01  0.22253506376E+00  0.14714704466E+04  0.14715075073E+04  0.10000000000E+02 0.  1.
</event>
<event>
 5    1  0.7732857E-009  0.3700221E+03  0.7957747E-01  0.3495789E+00
         13   -1    0    0    0    0  0.00000000000E+00  0.00000000000E+00  0.14999999963E+04  0.15000000000E+04  0.10566000000E+00 0. -1.
        994   -1    0    0    0    0 -0.00000000000E+00 -0.00000000000E+00  0.11368683772E-12  0.17120000000E+03  0.17120000000E+03 0.  0.
         13    1    1    2    0    0  0.83396776624E+02 -0.44455458384E+02  0.46364438306E+03  0.47317801644E+03  0.10566000000E+00 0. -1.
        994    1    1    2    0    0 -0.81556355204E+02 -0.17810124260E+02  0.33752188214E+02  0.19343549263E+03  0.17120000000E+03 0.  0.
        998    1    1    2    0    0 -0.18404214203E+01  0.62265582644E+02  0.10026034250E+04  0.10045864909E+04  0.10000000000E+02 0. -1.
</event>
<event>
 5    1  0.9615063E-009  0.3856256E+03  0.7957747E-01  0.3427023E+00
         13   -1    0    0    0    0  0.00000000000E+00  0.00000000000E+00  0.14999999963E+04  0.15000000000E+04  0.10566000000E+00 0.  1.
        994   -1    0    0    0    0 -0.00000000000E+00 -0.00000000000E+00  0.11368683772E-12  0.17120000000E+03  0.17120000000E+03 0.  0.
         13    1    1    2    0    0 -0.13687233431E+02 -0.52300664580E+01  0.76489087750E+02  0.77879943907E+02  0.10566000000E+00 0.  1.
        994    1    1    2    0    0  0.19423451048E+02  0.15157013640E+01  0.25665713265E+01  0.17232409898E+03  0.17120000000E+03 0.  0.
        998    1    1    2    0    0 -0.57362176165E+01  0.37143650940E+01  0.14209443372E+04  0.14209959571E+04  0.10000000000E+02 0.  1.
</event>
<event>
 5    1  0.7732857E-009  0.3710104E+03  0.7957747E-01  0.3491260E+00
         13   -1    0    0    0    0  0.00000000000E+00  0.00000000000E+00  0.14999999963E+04  0.15000000000E+04  0.10566000000E+00 0. -1.
        994   -1    0    0    0    0 -0.00000000000E+00 -0.00000000000E+00  0.11368683772E-12  0.17120000000E+03  0.17120000000E+03 0.  0.
         13    1    1    2    0    0 -0.59876780711E-01  0.24603010447E+02  0.30477993210E+02  0.39169260172E+02  0.10566000000E+00 0. -1.
        994    1    1    2    0    0  0.31674587690E+01 -0.24170166372E+02  0.10792122620E+02  0.17326320916E+03  0.17120000000E+03 0.  0.
        998    1    1    2    0    0 -0.31075819883E+01 -0.43284407568E+00  0.14587298804E+04  0.14587675307E+04  0.10000000000E+02 0. -1.
</event>
<event>
 5    1  0.7732857E-009  0.3843852E+03  0.7957747E-01  0.3432284E+00
         13   -1    0    0    0    0  0.00000000000E+00  0.00000000000E+00  0.14999999963E+04  0.15000000000E+04  0.10566000000E+00 0. -1.
        994   -1    0    0    0    0 -0.00000000000E+00 -0.00000000000E+00  0.11368683772E-12  0.17120000000E+03  0.17120000000E+03 0.  0.
         13    1    1    2    0    0 -0.16300253073E+01 -0.17504531697E+02  0.81804490853E+02  0.83672286333E+02  0.10566000000E+00 0. -1.
        994    1    1    2    0    0  0.33762239192E+01  0.68355210943E+01  0.21272375769E+01  0.17138287072E+03  0.17120000000E+03 0.  0.
        998    1    1    2    0    0 -0.17461986120E+01  0.10669010602E+02  0.14160682678E+04  0.14161448429E+04  0.10000000000E+02 0. -1.
</event>
<event>
 5    1  0.7732857E-009  0.3735507E+03  0.7957747E-01  0.3479730E+00
         13   -1    0    0    0    0  0.00000000000E+00  0.00000000000E+00  0.14999999963E+04  0.15000000000E+04  0.10566000000E+00 0.  1.
        994   -1    0    0    0    0 -0.00000000000E+00 -0.00000000000E+00  0.11368683772E-12  0.17120000000E+03  0.17120000000E+03 0.  0.
         13    1    1    2    0    0  0.50838605847E+02  0.28796202415E+02  0.21101471522E+03  0.21895434758E+03  0.10566000000E+00 0.  1.
        994    1    1    2    0    0 -0.38384520360E+02 -0.27124650817E+02  0.15008803281E+02  0.17816796082E+03  0.17120000000E+03 0.  0.
        998    1    1    2    0    0 -0.12454085487E+02 -0.16715515983E+01  0.12739764778E+04  0.12740776916E+04  0.10000000000E+02 0.  1.
</event>
<event>
 5    1  0.7732857E-009  0.3782497E+03  0.7957747E-01  0.3458815E+00
         13   -1    0    0    0    0  0.00000000000E+00  0.00000000000E+00  0.14999999963E+04  0.15000000000E+04  0.10566000000E+00 0.  1.
        994   -1    0    0    0    0 -0.00000000000E+00 -0.00000000000E+00  0.11368683772E-12  0.17120000000E+03  0.17120000000E+03 0.  0.
         13    1    1    2    0    0  0.38564872412E+02  0.16738392512E+02  0.18136984954E+03  0.18617856121E+03  0.10566000000E+00 0.  1.
        994    1    1    2    0    0 -0.12733574928E+02 -0.16981163593E+02  0.65355370181E+01  0.17263446090E+03  0.17120000000E+03 0.  0.
        998    1    1    2    0    0 -0.25831297484E+02  0.24277108034E+00  0.13120946097E+04  0.13123869779E+04  0.10000000000E+02 0. -1.
</event>
<event>
 5    1  0.7732857E-009  0.3696177E+03  0.7957747E-01  0.3497650E+00
         13   -1    0    0    0    0  0.00000000000E+00  0.00000000000E+00  0.14999999963E+04  0.15000000000E+04  0.10566000000E+00 0. -1.
        994   -1    0    0    0    0 -0.00000000000E+00 -0.00000000000E+00  0.11368683772E-12  0.17120000000E+03  0.17120000000E+03 0.  0.
         13    1    1    2    0    0 -0.81965326158E+02  0.44467016824E+02  0.36958009042E+03  0.38116280599E+03  0.10566000000E+00 0. -1.
        994    1    1    2    0    0  0.46054678108E+02 -0.54994294209E+02  0.28923697916E+02  0.18786012369E+03  0.17120000000E+03 0.  0.
        998    1    1    2    0    0  0.35910648050E+02  0.10527277384E+02  0.11014962079E+04  0.11021770703E+04  0.10000000000E+02 0. -1.
</event>
<event>
 5    1  0.7732857E-009  0.3842643E+03  0.7957747E-01  0.3432798E+00
         13   -1    0    0    0    0  0.00000000000E+00  0.00000000000E+00  0.14999999963E+04  0.15000000000E+04  0.10566000000E+00 0.  1.
        994   -1    0    0    0    0 -0.00000000000E+00 -0.00000000000E+00  0.11368683772E-12  0.17120000000E+03  0.17120000000E+03 0.  0.
         13    1    1    2    0    0 -0.13320871033E+02 -0.10466923389E+01  0.46562611529E+02  0.48442018191E+02  0.10566000000E+00 0.  1.
        994    1    1    2    0    0  0.64007446935E+00 -0.17440278529E+02  0.30004895622E+01  0.17211338108E+03  0.17120000000E+03 0.  0.
        998    1    1    2    0    0  0.12680796564E+02  0.18486970868E+02  0.14504368952E+04  0.14506446007E+04  0.10000000000E+02 0.  1.
</event>
<event>
 5    1  0.7732857E-009  0.3804201E+03  0.7957747E-01  0.3449331E+00
         13   -1    0    0    0    0  0.00000000000E+00  0.00000000000E+00  0.14999999963E+04  0.15000000000E+04  0.10566000000E+00 0.  1.
        994   -1    0    0    0    0 -0.00000000000E+00 -0.00000000000E+00  0.11368683772E-12  0.17120000000E+03  0.17120000000E+03 0.  0.
         13    1    1    2    0    0  0.45802586766E+02  0.11086416562E+02  0.60253593379E+02  0.76493740043E+02  0.10566000000E+00 0.  1.
        994    1    1    2    0    0 -0.34944838129E+02 -0.17733412159E+02  0.22151645452E+02  0.17701906964E+03  0.17120000000E+03 0.  0.
        998    1    1    2    0    0 -0.10857748636E+02  0.66469955972E+01  0.14175947574E+04  0.14176871903E+04  0.10000000000E+02 0.  1.
</event>
<event>
 5    1  0.1124351E-008  0.3857988E+03  0.7957747E-01  0.3426292E+00
         13   -1    0    0    0    0  0.00000000000E+00  0.00000000000E+00  0.14999999963E+04  0.15000000000E+04  0.10566000000E+00 0. -1.
        994   -1    0    0    0    0 -0.00000000000E+00 -0.00000000000E+00  0.11368683772E-12  0.17120000000E+03  0.17120000000E+03 0.  0.
         13    1    1    2    0    0 -0.16975498584E+02  0.79045511685E+01  0.99553372172E+02  0.10129923275E+03  0.10566000000E+00 0. -1.
        994    1    1    2    0    0  0.49907038344E+02 -0.23689208334E+02  0.11309485894E+02  0.18024770606E+03  0.17120000000E+03 0.  0.
        998    1    1    2    0    0 -0.32931539760E+02  0.15784657166E+02  0.13891371382E+04  0.13896530612E+04  0.10000000000E+02 0. -1.
</event>
<event>
 5    1  0.7732857E-009  0.3803898E+03  0.7957747E-01  0.3449463E+00
         13   -1    0    0    0    0  0.00000000000E+00  0.00000000000E+00  0.14999999963E+04  0.15000000000E+04  0.10566000000E+00 0. -1.
        994   -1    0    0    0    0 -0.00000000000E+00 -0.00000000000E+00  0.11368683772E-12  0.17120000000E+03  0.17120000000E+03 0.  0.
         13    1    1    2    0    0 -0.81469927144E+01 -0.15816810702E+02  0.40657404869E+02  0.44379958605E+02  0.10566000000E+00 0. -1.
        994    1    1    2    0    0  0.10641716449E+02 -0.78095286916E+01  0.45184349930E+01  0.17176754968E+03  0.17120000000E+03 0.  0.
        998    1    1    2    0    0 -0.24947237344E+01  0.23626339394E+02  0.14548241564E+04  0.14550524917E+04  0.10000000000E+02 0. -1.
</event>
<event>
 5    1  0.7732857E-009  0.3838151E+03  0.7957747E-01  0.3434713E+00
         13   -1    0    0    0    0  0.00000000000E+00  0.00000000000E+00  0.14999999963E+04  0.15000000000E+04  0.10566000000E+00 0. -1.
        994   -1    0    0    0    0 -0.00000000000E+00 -0.00000000000E+00  0.11368683772E-12  0.17120000000E+03  0.17120000000E+03 0.  0.
         13    1    1    2    0    0  0.34839477609E+01  0.13313059409E+02  0.41050019237E+02  0.43295388741E+02  0.10566000000E+00 0. -1.
        994    1    1    2    0    0 -0.70007515299E+01 -0.13561286404E+02  0.29888686606E+01  0.17190489332E+03  0.17120000000E+03 0.  0.
        998    1    1    2    0    0  0.35168037691E+01  0.24822699479E+00  0.14559611084E+04  0.14559997179E+04  0.10000000000E+02 0. -1.
</event>
<event>
 5    1  0.7905728E-009  0.3853921E+03  0.7957747E-01  0.3428011E+00
         13   -1    0    0    0    0  0.00000000000E+00  0.00000000000E+00  0.14999999963E+04  0.15000000000E+04  0.10566000000E+00 0. -1.
        994   -1    0    0    0    0 -0.00000000000E+00 -0.00000000000E+00  0.11368683772E-12  0.17120000000E+03  0.17120000000E+03 0.  0.
         13    1    1    2    0    0  0.10090351495E+02 -0.10941430440E+02  0.66005630611E+02  0.67663021879E+02  0.10566000000E+00 0. -1.
        994    1    1    2    0    0 -0.42187621788E+02  0.85566040880E+01  0.75455830347E+01  0.17669008667E+03  0.17120000000E+03 0.  0.
        998    1    1    2    0    0  0.32097270293E+02  0.23848263519E+01  0.14264487826E+04  0.14268468914E+04  0.10000000000E+02 0. -1.
</event>
<event>
 5    1  0.7732857E-009  0.3826299E+03  0.7957747E-01  0.3439787E+00
         13   -1    0    0    0    0  0.00000000000E+00  0.00000000000E+00  0.14999999963E+04  0.15000000000E+04  0.10566000000E+00 0.  1.
        994   -1    0    0    0    0 -0.00000000000E+00 -0.00000000000E+00  0.11368683772E-12  0.17120000000E+03  0.17120000000E+03 0.  0.
         13    1    1    2    0    0 -0.93371636782E+01 -0.25341420909E+02  0.12904225611E+03  0.13183810248E+03  0.10566000000E+00 0.  1.
        994    1    1    2    0    0  0.45529763836E+01  0.15454104233E+02  0.36721196165E+01  0.17199559121E+03  0.17120000000E+03 0.  0.
        998    1    1    2    0    0  0.47841872946E+01  0.98873166759E+01  0.13672856206E+04  0.13673663063E+04  0.10000000000E+02 0.  1.
</event>
<event>
 5    1  0.7732857E-009  0.3825223E+03  0.7957747E-01  0.3440249E+00
         13   -1    0    0    0    0  0.00000000000E+00  0.00000000000E+00  0.14999999963E+04  0.15000000000E+04  0.10566000000E+00 0. -1.
        994   -1    0    0    0    0 -0.00000000000E+00 -0.00000000000E+00  0.11368683772E-12  0.17120000000E+03  0.17120000000E+03 0.  0.
         13    1    1    2    0    0 -0.25249278981E+02 -0.21680753956E+02  0.16586915072E+03  0.16917496122E+03  0.10566000000E+00 0. -1.
        994    1    1    2    0    0  0.60534011927E+02 -0.61307327533E+01  0.15236842968E+02  0.18232814886E+03  0.17120000000E+03 0.  0.
        998    1    1    2    0    0 -0.35284732945E+02  0.27811486710E+02  0.13188940026E+04  0.13196968899E+04  0.10000000000E+02 0. -1.
</event>
<event>
 5    1  0.7732857E-009  0.3829754E+03  0.7957747E-01  0.3438305E+00
         13   -1    0    0    0    0  0.00000000000E+00  0.00000000000E+00  0.14999999963E+04  0.15000000000E+04  0.10566000000E+00 0.  1.
        994   -1    0    0    0    0 -0.00000000000E+00 -0.00000000000E+00  0.11368683772E-12  0.17120000000E+03  0.17120000000E+03 0.  0.
         13    1    1    2    0    0  0.12848607770E+02  0.58234061009E+01  0.37560879037E+02  0.40122681594E+02  0.10566000000E+00 0.  1.
        994    1    1    2    0    0 -0.65275214732E+01  0.28614293663E+01  0.28068541636E+01  0.17137127748E+03  0.17120000000E+03 0.  0.
        998    1    1    2    0    0 -0.63210862965E+01 -0.86848354672E+01  0.14596322631E+04  0.14597060409E+04  0.10000000000E+02 0.  1.
</event>
<event>
 5    1  0.7732857E-009  0.3805267E+03  0.7957747E-01  0.3448868E+00
         13   -1    0    0    0    0  0.00000000000E+00  0.00000000000E+00  0.14999999963E+04  0.15000000000E+04  0.10566000000E+00 0. -1.
        994   -1    0    0    0    0 -0.00000000000E+00 -0.00000000000E+00  0.11368683772E-12  0.17120000000E+03  0.17120000000E+03 0.  0.
         13    1    1    2    0    0 -0.40267934748E+01 -0.17814615413E+02  0.39131363718E+02  0.43183913423E+02  0.10566000000E+00 0. -1.
        994    1    1    2    0    0  0.29749370142E+02  0.24252411559E+02  0.87994111677E+01  0.17567035643E+03  0.17120000000E+03 0.  0.
        998    1    1    2    0    0 -0.25722576668E+02 -0.64377961452E+01  0.14520692214E+04  0.14523457302E+04  0.10000000000E+02 0. -1.
</event>
<event>
 5    1  0.7732857E-009  0.3786941E+03  0.7957747E-01  0.3456864E+00
         13   -1    0    0    0    0  0.00000000000E+00  0.00000000000E+00  0.14999999963E+04  0.15000000000E+04  0.10566000000E+00 0. -1.
        994   -1    0    0    0    0 -0.00000000000E+00 -0.00000000000E+00  0.11368683772E-12  0.17120000000E+03  0.17120000000E+03 0.  0.
         13    1    1    2    0    0  0.10116917072E+02 -0.30000391562E+02  0.10033233891E+03  0.10520914836E+03  0.10566000000E+00 0. -1.
        994    1    1    2    0    0 -0.18671442655E+02  0.19537367697E+02  0.72497089948E+01  0.17347140914E+03  0.17120000000E+03 0.  0.
        998    1    1    2    0    0  0.85545255831E+01  0.10463023865E+02  0.13924179484E+04  0.13925194425E+04  0.10000000000E+02 0. -1.
</event>
<event>
 5    1  0.8166959E-009  0.3861275E+03  0.7957747E-01  0.3424904E+00
         13   -1    0    0    0    0  0.00000000000E+00  0.00000000000E+00  0.14999999963E+04  0.15000000000E+04  0.10566000000E+00 0.  1.
        994   -1    0    0    0    0 -0.00000000000E+00 -0.00000000000E+00  0.11368683772E-12  0.17120000000E+03  0.17120000000E+03 0.  0.
         13    1    1    2    0    0 -0.13465896895E+01 -0.11307950643E+02  0.62269727970E+02  0.63302553164E+02  0.10566000000E+00 0.  1.
        994    1    1    2    0    0  0.57991477540E+01  0.50883248505E+01  0.12664200038E+01  0.17137842625E+03  0.17120000000E+03 0.  0.
        998    1    1    2    0    0 -0.44525580644E+01  0.62196257928E+01  0.14364638483E+04  0.14365190206E+04  0.10000000000E+02 0.  1.
</event>
<event>
 5    1  0.7732857E-009  0.3750831E+03  0.7957747E-01  0.3472851E+00
         13   -1    0    0    0    0  0.00000000000E+00  0.00000000000E+00  0.14999999963E+04  0.15000000000E+04  0.10566000000E+00 0.  1.
        994   -1    0    0    0    0 -0.00000000000E+00 -0.00000000000E+00  0.11368683772E-12  0.17120000000E+03  0.17120000000E+03 0.  0.
         13    1    1    2    0    0  0.13423413797E+02 -0.23095358489E+02  0.51570703609E+02  0.58078672991E+02  0.10566000000E+00 0.  1.
        994    1    1    2    0    0 -0.83611367034E+01  0.12763011581E+02  0.74275802294E+01  0.17203898401E+03  0.17120000000E+03 0.  0.
        998    1    1    2    0    0 -0.50622770933E+01  0.10332346909E+02  0.14410017124E+04  0.14410823430E+04  0.10000000000E+02 0.  1.
</event>
<event>
 5    1  0.7732857E-009  0.3851380E+03  0.7957747E-01  0.3429087E+00
         13   -1    0    0    0    0  0.00000000000E+00  0.00000000000E+00  0.14999999963E+04  0.15000000000E+04  0.10566000000E+00 0. -1.
        994   -1    0    0    0    0 -0.00000000000E+00 -0.00000000000E+00  0.11368683772E-12  0.17120000000E+03  0.17120000000E+03 0.  0.
         13    1    1    2    0    0 -0.14954333361E+02  0.75436233007E+01  0.88747252910E+02  0.90314032143E+02  0.10566000000E+00 0. -1.
        994    1    1    2    0    0  0.13973360536E+02 -0.47168061023E+00  0.22044473746E+01  0.17178409960E+03  0.17120000000E+03 0.  0.
        998    1    1    2    0    0  0.98097282511E+00 -0.70719426905E+01  0.14090482960E+04  0.14091018683E+04  0.10000000000E+02 0. -1.
</event>
<event>
 5    1  0.7732857E-009  0.4234798E+03  0.7957747E-01  0.3281252E+00
         13   -1    0    0    0    0  0.00000000000E+00  0.00000000000E+00  0.14999999963E+04  0.15000000000E+04  0.10566000000E+00 0.  1.
        994   -1    0    0    0    0 -0.00000000000E+00 -0.00000000000E+00  0.11368683772E-12  0.17120000000E+03  0.17120000000E+03 0.  0.
         13    1    1    2    0    0  0.13079673938E+03 -0.35673834440E+01  0.21380797917E+03  0.25066786068E+03  0.10566000000E+00 0.  1.
        994    1    1    2    0    0 -0.55964393844E+02  0.64967102315E+02  0.75318887001E+02  0.20575498172E+03  0.17120000000E+03 0.  0.
        998    1    1    2    0    0 -0.74832345540E+02 -0.61399718871E+02  0.12108731301E+04  0.12147771576E+04  0.10000000000E+02 0.  1.
</event>
<event>
 5    1  0.7732857E-009  0.3850432E+03  0.7957747E-01  0.3429489E+00
         13   -1    0    0    0    0  0.00000000000E+00  0.00000000000E+00  0.14999999963E+04  0.15000000000E+04  0.10566000000E+00 0. -1.
        994   -1    0    0    0    0 -0.00000000000E+00 -0.00000000000E+00  0.11368683772E-12  0.17120000000E+03  0.17120000000E+03 0.  0.
         13    1    1    2    0    0 -0.13096818956E+02 -0.14356087043E+02  0.11453333019E+03  0.11617021473E+03  0.10566000000E+00 0. -1.
        994    1    1    2    0    0  0.12453085301E+02  0.92885711893E+01  0.24027079556E+01  0.17192024283E+03  0.17120000000E+03 0.  0.
        998    1    1    2    0    0  0.64373365505E+00  0.50675158539E+01  0.13830639581E+04  0.13831095424E+04  0.10000000000E+02 0. -1.
</event>
<event>
 5    1  0.7732857E-009  0.4541640E+03  0.7957747E-01  0.3180622E+00
         13   -1    0    0    0    0  0.00000000000E+00  0.00000000000E+00  0.14999999963E+04  0.15000000000E+04  0.10566000000E+00 0. -1.
        994   -1    0    0    0    0 -0.00000000000E+00 -0.00000000000E+00  0.11368683772E-12  0.17120000000E+03  0.17120000000E+03 0.  0.
         13    1    1    2    0    0  0.78819566415E+02 -0.81567499907E+02  0.98621503641E+02  0.15030633132E+03  0.10566000000E+00 0. -1.
        994    1    1    2    0    0 -0.29090776503E+02  0.22415660158E+02  0.72140687207E+02  0.18937384679E+03  0.17120000000E+03 0.  0.
        998    1    1    2    0    0 -0.49728789913E+02  0.59151839750E+02  0.13292378054E+04  0.13315198219E+04  0.10000000000E+02 0. -1.
</event>
<event>
 5    1  0.7732857E-009  0.3826838E+03  0.7957747E-01  0.3439555E+00
         13   -1    0    0    0    0  0.00000000000E+00  0.00000000000E+00  0.14999999963E+04  0.15000000000E+04  0.10566000000E+00 0. -1.
        994   -1    0    0    0    0 -0.00000000000E+00 -0.00000000000E+00  0.11368683772E-12  0.17120000000E+03  0.17120000000E+03 0.  0.
         13    1    1    2    0    0  0.31993022049E+02 -0.14285989718E+02  0.20502836565E+03  0.20800068472E+03  0.10566000000E+00 0. -1.
        994    1    1    2    0    0 -0.22767453741E+02  0.18123425696E+02  0.55954976049E+01  0.17374569089E+03  0.17120000000E+03 0.  0.
        998    1    1    2    0    0 -0.92255683080E+01 -0.38374359779E+01  0.12893761330E+04  0.12894536244E+04  0.10000000000E+02 0. -1.
</event>
<event>
 5    1  0.7732857E-009  0.3862358E+03  0.7957747E-01  0.3424448E+00
         13   -1    0    0    0    0  0.00000000000E+00  0.00000000000E+00  0.14999999963E+04  0.15000000000E+04  0.10566000000E+00 0.  1.
        994   -1    0    0    0    0 -0.00000000000E+00 -0.00000000000E+00  0.11368683772E-12  0.17120000000E+03  0.17120000000E+03 0.  0.
         13    1    1    2    0    0 -0.67843058927E+01 -0.80520087762E+01  0.54990747411E+02  0.55989776894E+02  0.10566000000E+00 0.  1.
        994    1    1    2    0    0  0.54673047152E+01  0.57770054143E+01  0.12250984529E+01  0.17138904889E+03  0.17120000000E+03 0.  0.
        998    1    1    2    0    0  0.13170011775E+01  0.22750033619E+01  0.14437841504E+04  0.14438211742E+04  0.10000000000E+02 0.  0.
</event>
<event>
 5    1  0.7732857E-009  0.3824507E+03  0.7957747E-01  0.3440557E+00
         13   -1    0    0    0    0  0.00000000000E+00  0.00000000000E+00  0.14999999963E+04  0.15000000000E+04  0.10566000000E+00 0.  1.
        994   -1    0    0    0    0 -0.00000000000E+00 -0.00000000000E+00  0.11368683772E-12  0.17120000000E+03  0.17120000000E+03 0.  0.
         13    1    1    2    0    0 -0.18118151269E+02 -0.11344366912E+02  0.89206849988E+02  0.91732411474E+02  0.10566000000E+00 0.  1.
        994    1    1    2    0    0 -0.27271042988E+01 -0.14240803224E+02  0.35986073701E+01  0.17185059659E+03  0.17120000000E+03 0.  0.
        998    1    1    2    0    0  0.20845255568E+02  0.25585170136E+02  0.14071945389E+04  0.14076169919E+04  0.10000000000E+02 0.  1.
</event>
<event>
 5    1  0.7732857E-009  0.3756471E+03  0.7957747E-01  0.3470334E+00
         13   -1    0    0    0    0  0.00000000000E+00  0.00000000000E+00  0.14999999963E+04  0.15000000000E+04  0.10566000000E+00 0.  1.
        994   -1    0    0    0    0 -0.00000000000E+00 -0.00000000000E+00  0.11368683772E-12  0.17120000000E+03  0.17120000000E+03 0.  0.
         13    1    1    2    0    0 -0.14051460753E+02  0.11855382209E+02  0.23931637412E+02  0.30178271486E+02  0.10566000000E+00 0.  1.
        994    1    1    2    0    0  0.10435255701E+02 -0.81060028591E+01  0.69392360966E+01  0.17184933762E+03  0.17120000000E+03 0.  0.
        998    1    1    2    0    0  0.36162050529E+01 -0.37493793503E+01  0.14691291228E+04  0.14691723909E+04  0.10000000000E+02 0.  1.
</event>
<event>
 5    1  0.7732857E-009  0.3782202E+03  0.7957747E-01  0.3458945E+00
         13   -1    0    0    0    0  0.00000000000E+00  0.00000000000E+00  0.14999999963E+04  0.15000000000E+04  0.10566000000E+00 0.  1.
        994   -1    0    0    0    0 -0.00000000000E+00 -0.00000000000E+00  0.11368683772E-12  0.17120000000E+03  0.17120000000E+03 0.  0.
         13    1    1    2    0    0  0.98958265562E+01 -0.51854225668E+01  0.10189513644E+02  0.15121287735E+02  0.10566000000E+00 0.  1.
        994    1    1    2    0    0 -0.81708914980E+01 -0.22406393676E+01  0.52757168223E+01  0.17149069106E+03  0.17120000000E+03 0.  0.
        998    1    1    2    0    0 -0.17249350582E+01  0.74260619344E+01  0.14845347658E+04  0.14845880212E+04  0.10000000000E+02 0.  1.
</event>
<event>
 5    1  0.7732857E-009  0.3752934E+03  0.7957747E-01  0.3471911E+00
         13   -1    0    0    0    0  0.00000000000E+00  0.00000000000E+00  0.14999999963E+04  0.15000000000E+04  0.10566000000E+00 0. -1.
        994   -1    0    0    0    0 -0.00000000000E+00 -0.00000000000E+00  0.11368683772E-12  0.17120000000E+03  0.17120000000E+03 0.  0.
         13    1    1    2    0    0 -0.12377539059E+02  0.10383669778E+03  0.34295696522E+03  0.35854533107E+03  0.10566000000E+00 0. -1.
        994    1    1    2    0    0  0.44491836521E+01 -0.83948882103E+02  0.39389786619E+02  0.19475165039E+03  0.17120000000E+03 0.  0.
        998    1    1    2    0    0  0.79283554065E+01 -0.19887815675E+02  0.11176532444E+04  0.11179030185E+04  0.10000000000E+02 0. -1.
</event>
<event>
 5    1  0.7732857E-009  0.3857063E+03  0.7957747E-01  0.3426682E+00
         13   -1    0    0    0    0  0.00000000000E+00  0.00000000000E+00  0.14999999963E+04  0.15000000000E+04  0.10566000000E+00 0.  1.
        994   -1    0    0    0    0 -0.00000000000E+00 -0.00000000000E+00  0.11368683772E-12  0.17120000000E+03  0.17120000000E+03 0.  0.
         13    1    1    2    0    0 -0.16950559057E+02 -0.99621838841E+01  0.11457509763E+03  0.11624986331E+03  0.10566000000E+00 0.  1.
        994    1    1    2    0    0  0.46204305540E+02  0.88211692569E+01  0.85737949001E+01  0.17775151430E+03  0.17120000000E+03 0.  0.
        998    1    1    2    0    0 -0.29253746483E+02  0.11410146273E+01  0.13768511038E+04  0.13771986224E+04  0.10000000000E+02 0.  1.
</event>
<event>
 5    1  0.7732857E-009  0.3742677E+03  0.7957747E-01  0.3476504E+00
         13   -1    0    0    0    0  0.00000000000E+00  0.00000000000E+00  0.14999999963E+04  0.15000000000E+04  0.10566000000E+00 0. -1.
        994   -1    0    0    0    0 -0.00000000000E+00 -0.00000000000E+00  0.11368683772E-12  0.17120000000E+03  0.17120000000E+03 0.  0.
         13    1    1    2    0    0 -0.71345909500E+02  0.41461874103E+02  0.40522809310E+03  0.41354460993E+03  0.10566000000E+00 0. -1.
        994    1    1    2    0    0  0.52948248799E+02 -0.42001690720E+02  0.22783196822E+02  0.18546205308E+03  0.17120000000E+03 0.  0.
        998    1    1    2    0    0  0.18397660701E+02  0.53981661649E+00  0.10719887064E+04  0.10721933370E+04  0.10000000000E+02 0. -1.
</event>
<event>
 5    1  0.7732857E-009  0.3178854E+03  0.7957747E-01  0.3776066E+00
         13   -1    0    0    0    0  0.00000000000E+00  0.00000000000E+00  0.14999999963E+04  0.15000000000E+04  0.10566000000E+00 0. -1.
        994   -1    0    0    0    0 -0.00000000000E+00 -0.00000000000E+00  0.11368683772E-12  0.17120000000E+03  0.17120000000E+03 0.  0.
         13    1    1    2    0    0 -0.20618596629E+03 -0.38548895506E+01  0.73886447289E+03  0.76710379567E+03  0.10566000000E+00 0. -1.
        994    1    1    2    0    0  0.20623155440E+03 -0.17650300978E+02  0.18197267145E+03  0.32444796241E+03  0.17120000000E+03 0.  0.
        998    1    1    2    0    0 -0.45588113697E-01  0.21505190529E+02  0.57916285194E+03  0.57964824192E+03  0.10000000000E+02 0.  1.
</event>
<event>
 5    1  0.7732857E-009  0.3765510E+03  0.7957747E-01  0.3466315E+00
         13   -1    0    0    0    0  0.00000000000E+00  0.00000000000E+00  0.14999999963E+04  0.15000000000E+04  0.10566000000E+00 0. -1.
        994   -1    0    0    0    0 -0.00000000000E+00 -0.00000000000E+00  0.11368683772E-12  0.17120000000E+03  0.17120000000E+03 0.  0.
         13    1    1    2    0    0  0.30903040362E+02 -0.16048716342E+02  0.35307293027E+02  0.49590072643E+02  0.10566000000E+00 0. -1.
        994    1    1    2    0    0 -0.30302490410E+02  0.20076888894E+02  0.19188298586E+02  0.17606519587E+03  0.17120000000E+03 0.  0.
        998    1    1    2    0    0 -0.60054995177E+00 -0.40281725520E+01  0.14455044047E+04  0.14455447315E+04  0.10000000000E+02 0. -1.
</event>
<event>
 5    1  0.8638045E-009  0.3857030E+03  0.7957747E-01  0.3426696E+00
         13   -1    0    0    0    0  0.00000000000E+00  0.00000000000E+00  0.14999999963E+04  0.15000000000E+04  0.10566000000E+00 0. -1.
        994   -1    0    0    0    0 -0.00000000000E+00 -0.00000000000E+00  0.11368683772E-12  0.17120000000E+03  0.17120000000E+03 0.  0.
         13    1    1    2    0    0 -0.10347334881E+02 -0.88168660676E+01  0.72416987160E+02  0.73681990064E+02  0.10566000000E+00 0. -1.
        994    1    1    2    0    0  0.17123360735E+02 -0.50925115721E+01  0.23293695467E+01  0.17214531396E+03  0.17120000000E+03 0.  0.
        998    1    1    2    0    0 -0.67760258538E+01  0.13909377640E+02  0.14252536396E+04  0.14253726960E+04  0.10000000000E+02 0. -1.
</event>
<event>
 5    1  0.7732857E-009  0.3749707E+03  0.7957747E-01  0.3473354E+00
         13   -1    0    0    0    0  0.00000000000E+00  0.00000000000E+00  0.14999999963E+04  0.15000000000E+04  0.10566000000E+00 0.  1.
        994   -1    0    0    0    0 -0.00000000000E+00 -0.00000000000E+00  0.11368683772E-12  0.17120000000E+03  0.17120000000E+03 0.  0.
         13    1    1    2    0    0 -0.66126286805E+02 -0.12159249400E+02  0.37618621796E+03  0.38214737327E+03  0.10566000000E+00 0.  1.
        994    1    1    2    0    0  0.34158681371E+02 -0.31149476753E+02  0.13993840086E+02  0.17788303172E+03  0.17120000000E+03 0.  0.
        998    1    1    2    0    0  0.31967605434E+02  0.43308726153E+02  0.11098199382E+04  0.11111695950E+04  0.10000000000E+02 0.  1.
</event>
<event>
 5    1  0.7732857E-009  0.3822357E+03  0.7957747E-01  0.3441481E+00
         13   -1    0    0    0    0  0.00000000000E+00  0.00000000000E+00  0.14999999963E+04  0.15000000000E+04  0.10566000000E+00 0.  1.
        994   -1    0    0    0    0 -0.00000000000E+00 -0.00000000000E+00  0.11368683772E-12  0.17120000000E+03  0.17120000000E+03 0.  0.
         13    1    1    2    0    0 -0.33554741937E+02 -0.40733021377E+01  0.19688659043E+03  0.19976699716E+03  0.10566000000E+00 0.  1.
        994    1    1    2    0    0  0.14956728633E+02 -0.33304958494E-01  0.37515032198E+01  0.17189304412E+03  0.17120000000E+03 0.  0.
        998    1    1    2    0    0  0.18598013305E+02  0.41066070962E+01  0.12993619026E+04  0.12995399587E+04  0.10000000000E+02 0.  1.
</event>
<event>
 5    1  0.7732857E-009  0.3858111E+03  0.7957747E-01  0.3426239E+00
         13   -1    0    0    0    0  0.00000000000E+00  0.00000000000E+00  0.14999999963E+04  0.15000000000E+04  0.10566000000E+00 0.  1.
        994   -1    0    0    0    0 -0.00000000000E+00 -0.00000000000E+00  0.11368683772E-12  0.17120000000E+03  0.17120000000E+03 0.  0.
         13    1    1    2    0    0 -0.11231502398E+02  0.75998873982E+00  0.52216053900E+02  0.53415837333E+02  0.10566000000E+00 0.  1.
        994    1    1    2    0    0  0.72357278528E+01  0.19906540689E+01  0.14127088367E+01  0.17137022556E+03  0.17120000000E+03 0.  0.
        998    1    1    2    0    0  0.39957745454E+01 -0.27506428088E+01  0.14463712335E+04  0.14464139371E+04  0.10000000000E+02 0.  1.
</event>
<event>
 5    1  0.7732857E-009  0.3814148E+03  0.7957747E-01  0.3445021E+00
         13   -1    0    0    0    0  0.00000000000E+00  0.00000000000E+00  0.14999999963E+04  0.15000000000E+04  0.10566000000E+00 0.  1.
        994   -1    0    0    0    0 -0.00000000000E+00 -0.00000000000E+00  0.11368683772E-12  0.17120000000E+03  0.17120000000E+03 0.  0.
         13    1    1    2    0    0 -0.16914635145E+02  0.55031583411E+01  0.44980536726E+02  0.48369923320E+02  0.10566000000E+00 0.  1.
        994    1    1    2    0    0  0.12231914486E+02 -0.11340689224E+01  0.39229608566E+01  0.17168498905E+03  0.17120000000E+03 0.  0.
        998    1    1    2    0    0  0.46827206591E+01 -0.43690894187E+01  0.14510964987E+04  0.14511450876E+04  0.10000000000E+02 0.  1.
</event>
<event>
 5    1  0.7732857E-009  0.3688495E+03  0.7957747E-01  0.3501195E+00
         13   -1    0    0    0    0  0.00000000000E+00  0.00000000000E+00  0.14999999963E+04  0.15000000000E+04  0.10566000000E+00 0. -1.
        994   -1    0    0    0    0 -0.00000000000E+00 -0.00000000000E+00  0.11368683772E-12  0.17120000000E+03  0.17120000000E+03 0.  0.
         13    1    1    2    0    0 -0.51567104989E+00 -0.23670443500E+02  0.22811217965E+02  0.32877327160E+02  0.10566000000E+00 0. -1.
        994    1    1    2    0    0  0.31205366948E+02  0.14931500312E+02  0.14510137572E+02  0.17526182905E+03  0.17120000000E+03 0.  0.
        998    1    1    2    0    0 -0.30689695898E+02  0.87389431879E+01  0.14626786407E+04  0.14630608438E+04  0.10000000000E+02 0. -1.
</event>
<event>
 5    1  0.7732857E-009  0.3826605E+03  0.7957747E-01  0.3439655E+00
         13   -1    0    0    0    0  0.00000000000E+00  0.00000000000E+00  0.14999999963E+04  0.15000000000E+04  0.10566000000E+00 0. -1.
        994   -1    0    0    0    0 -0.00000000000E+00 -0.00000000000E+00  0.11368683772E-12  0.17120000000E+03  0.17120000000E+03 0.  0.
         13    1    1    2    0    0 -0.16066384189E+02 -0.21516239837E+02  0.13219098577E+03  0.13489086388E+03  0.10566000000E+00 0. -1.
        994    1    1    2    0    0  0.70084362682E+01  0.94249546220E+01  0.32533947966E+01  0.17163325006E+03  0.17120000000E+03 0.  0.
        998    1    1    2    0    0  0.90579479211E+01  0.12091285215E+02  0.13645556157E+04  0.13646758861E+04  0.10000000000E+02 0. -1.
</event>
<event>
 5    1  0.7732857E-009  0.3816286E+03  0.7957747E-01  0.3444098E+00
         13   -1    0    0    0    0  0.00000000000E+00  0.00000000000E+00  0.14999999963E+04  0.15000000000E+04  0.10566000000E+00 0.  1.
        994   -1    0    0    0    0 -0.00000000000E+00 -0.00000000000E+00  0.11368683772E-12  0.17120000000E+03  0.17120000000E+03 0.  0.
         13    1    1    2    0    0  0.17062751387E+01 -0.18780868404E+02  0.51602873524E+02  0.54940878340E+02  0.10566000000E+00 0.  1.
        994    1    1    2    0    0  0.49757219998E+01  0.17079074579E+02  0.43661953988E+01  0.17217710725E+03  0.17120000000E+03 0.  0.
        998    1    1    2    0    0 -0.66819971385E+01  0.17017938248E+01  0.14440309274E+04  0.14440820144E+04  0.10000000000E+02 0.  1.
</event>
<event>
 5    1  0.7732857E-009  0.3840990E+03  0.7957747E-01  0.3433503E+00
         13   -1    0    0    0    0  0.00000000000E+00  0.00000000000E+00  0.14999999963E+04  0.15000000000E+04  0.10566000000E+00 0.  1.
        994   -1    0    0    0    0 -0.00000000000E+00 -0.00000000000E+00  0.11368683772E-12  0.17120000000E+03  0.17120000000E+03 0.  0.
         13    1    1    2    0    0 -0.10858606759E+02  0.16707435097E+02  0.12027967467E+03  0.12191906754E+03  0.10566000000E+00 0.  1.
        994    1    1    2    0    0  0.21306741954E+01  0.20722944876E+02  0.35108364941E+01  0.17249853967E+03  0.17120000000E+03 0.  0.
        998    1    1    2    0    0  0.87279325631E+01 -0.37430379974E+02  0.13762094851E+04  0.13767823928E+04  0.10000000000E+02 0.  1.
</event>
<event>
 5    1  0.7732857E-009  0.3824387E+03  0.7957747E-01  0.3440608E+00
         13   -1    0    0    0    0  0.00000000000E+00  0.00000000000E+00  0.14999999963E+04  0.15000000000E+04  0.10566000000E+00 0.  1.
        994   -1    0    0    0    0 -0.00000000000E+00 -0.00000000000E+00  0.11368683772E-12  0.17120000000E+03  0.17120000000E+03 0.  0.
         13    1    1    2    0    0 -0.17308458102E+02 -0.38049793071E+01  0.53528750854E+02  0.56386158953E+02  0.10566000000E+00 0.  1.
        994    1    1    2    0    0  0.93516873426E+01  0.26114343580E+01  0.32198115726E+01  0.17150533762E+03  0.17120000000E+03 0.  0.
        998    1    1    2    0    0  0.79567707592E+01  0.11935449491E+01  0.14432514339E+04  0.14433085034E+04  0.10000000000E+02 0.  1.
</event>
<event>
 5    1  0.7732857E-009  0.3822669E+03  0.7957747E-01  0.3441347E+00
         13   -1    0    0    0    0  0.00000000000E+00  0.00000000000E+00  0.14999999963E+04  0.15000000000E+04  0.10566000000E+00 0.  1.
        994   -1    0    0    0    0 -0.00000000000E+00 -0.00000000000E+00  0.11368683772E-12  0.17120000000E+03  0.17120000000E+03 0.  0.
         13    1    1    2    0    0  0.10453255926E+02 -0.65290844949E+01  0.25257530194E+02  0.28104332395E+02  0.10566000000E+00 0.  1.
        994    1    1    2    0    0 -0.17036537501E+01 -0.10532869212E+02  0.33709977319E+01  0.17156528610E+03  0.17120000000E+03 0.  0.
        998    1    1    2    0    0 -0.87496021758E+01  0.17061953707E+02  0.14713714684E+04  0.14715303815E+04  0.10000000000E+02 0.  1.
</event>
<event>
 5    1  0.7732857E-009  0.3796818E+03  0.7957747E-01  0.3452545E+00
         13   -1    0    0    0    0  0.00000000000E+00  0.00000000000E+00  0.14999999963E+04  0.15000000000E+04  0.10566000000E+00 0. -1.
        994   -1    0    0    0    0 -0.00000000000E+00 -0.00000000000E+00  0.11368683772E-12  0.17120000000E+03  0.17120000000E+03 0.  0.
         13    1    1    2    0    0  0.96586052068E+01  0.34065232062E+02  0.36089040203E+02  0.50558467904E+02  0.10566000000E+00 0. -1.
        994    1    1    2    0    0 -0.72685995469E+01  0.21963704202E+02  0.18092065691E+02  0.17370089143E+03  0.17120000000E+03 0.  0.
        998    1    1    2    0    0 -0.23900056599E+01 -0.56028936264E+02  0.14458188904E+04  0.14469406407E+04  0.10000000000E+02 0. -1.
</event>
<event>
 5    1  0.7732857E-009  0.3771466E+03  0.7957747E-01  0.3463678E+00
         13   -1    0    0    0    0  0.00000000000E+00  0.00000000000E+00  0.14999999963E+04  0.15000000000E+04  0.10566000000E+00 0. -1.
        994   -1    0    0    0    0 -0.00000000000E+00 -0.00000000000E+00  0.11368683772E-12  0.17120000000E+03  0.17120000000E+03 0.  0.
         13    1    1    2    0    0 -0.14519916502E+03 -0.25100233859E+03  0.74049397281E+03  0.79524606659E+03  0.10566000000E+00 0. -1.
        994    1    1    2    0    0  0.17584395171E+03  0.26272076339E+03  0.50930814529E+03  0.62341601016E+03  0.17120000000E+03 0.  0.
        998    1    1    2    0    0 -0.30644786687E+02 -0.11718424802E+02  0.25019787819E+03  0.25253792325E+03  0.10000000000E+02 0. -1.
</event>
<event>
 5    1  0.7732857E-009  0.3816592E+03  0.7957747E-01  0.3443965E+00
         13   -1    0    0    0    0  0.00000000000E+00  0.00000000000E+00  0.14999999963E+04  0.15000000000E+04  0.10566000000E+00 0. -1.
        994   -1    0    0    0    0 -0.00000000000E+00 -0.00000000000E+00  0.11368683772E-12  0.17120000000E+03  0.17120000000E+03 0.  0.
         13    1    1    2    0    0 -0.57031675948E+01  0.29347994140E+02  0.13239859580E+03  0.13573220036E+03  0.10566000000E+00 0. -1.
        994    1    1    2    0    0  0.31574516304E+01 -0.19942138132E+02  0.46544197645E+01  0.17244930269E+03  0.17120000000E+03 0.  0.
        998    1    1    2    0    0  0.25457159644E+01 -0.94058560086E+01  0.13629469807E+04  0.13630184970E+04  0.10000000000E+02 0. -1.
</event>
<event>
 5    1  0.7732857E-009  0.3835592E+03  0.7957747E-01  0.3435806E+00
         13   -1    0    0    0    0  0.00000000000E+00  0.00000000000E+00  0.14999999963E+04  0.15000000000E+04  0.10566000000E+00 0. -1.
        994   -1    0    0    0    0 -0.00000000000E+00 -0.00000000000E+00  0.11368683772E-12  0.17120000000E+03  0.17120000000E+03 0.  0.
         13    1    1    2    0    0 -0.12176381353E+02 -0.64029708821E+01  0.38309765936E+02  0.40705179388E+02  0.10566000000E+00 0. -1.
        994    1    1    2    0    0  0.17121461397E+02  0.49863691909E+01  0.33985737136E+01  0.17215980548E+03  0.17120000000E+03 0.  0.
        998    1    1    2    0    0 -0.49450800442E+01  0.14166016912E+01  0.14582916566E+04  0.14583350151E+04  0.10000000000E+02 0. -1.
</event>
<event>
 5    1  0.7732857E-009  0.3839169E+03  0.7957747E-01  0.3434279E+00
         13   -1    0    0    0    0  0.00000000000E+00  0.00000000000E+00  0.14999999963E+04  0.15000000000E+04  0.10566000000E+00 0.  1.
        994   -1    0    0    0    0 -0.00000000000E+00 -0.00000000000E+00  0.11368683772E-12  0.17120000000E+03  0.17120000000E+03 0.  0.
         13    1    1    2    0    0  0.59156328119E+01  0.10048960695E+02  0.30577438560E+02  0.32725635754E+02  0.10566000000E+00 0.  1.
        994    1    1    2    0    0  0.90492932588E-01 -0.10833599441E+02  0.25562890574E+01  0.17156150407E+03  0.17120000000E+03 0.  0.
        998    1    1    2    0    0 -0.60061257445E+01  0.78463874586E+00  0.14668662687E+04  0.14669128602E+04  0.10000000000E+02 0.  1.
</event>
<event>
 5    1  0.7732857E-009  0.3810818E+03  0.7957747E-01  0.3446462E+00
         13   -1    0    0    0    0  0.00000000000E+00  0.00000000000E+00  0.14999999963E+04  0.15000000000E+04  0.10566000000E+00 0.  1.
        994   -1    0    0    0    0 -0.00000000000E+00 -0.00000000000E+00  0.11368683772E-12  0.17120000000E+03  0.17120000000E+03 0.  0.
         13    1    1    2    0    0  0.10309668197E+02 -0.59392772734E+01  0.18465575318E+02  0.21967086942E+02  0.10566000000E+00 0.  1.
        994    1    1    2    0    0 -0.36015717663E+00  0.74891680568E+01  0.37753382360E+01  0.17140568990E+03  0.17120000000E+03 0.  0.
        998    1    1    2    0    0 -0.99495110200E+01 -0.15498907834E+01  0.14777590827E+04  0.14778272232E+04  0.10000000000E+02 0.  1.
</event>
<event>
 5    1  0.7732857E-009  0.3805011E+03  0.7957747E-01  0.3448979E+00
         13   -1    0    0    0    0  0.00000000000E+00  0.00000000000E+00  0.14999999963E+04  0.15000000000E+04  0.10566000000E+00 0. -1.
        994   -1    0    0    0    0 -0.00000000000E+00 -0.00000000000E+00  0.11368683772E-12  0.17120000000E+03  0.17120000000E+03 0.  0.
         13    1    1    2    0    0 -0.10529694162E+02  0.15164697869E+02  0.38719242820E+02  0.42895611071E+02  0.10566000000E+00 0. -1.
        994    1    1    2    0    0  0.25484896980E+02 -0.29579206598E+02  0.89847270064E+01  0.17582540987E+03  0.17120000000E+03 0.  0.
        998    1    1    2    0    0 -0.14955202818E+02  0.14414508729E+02  0.14522960265E+04  0.14524789791E+04  0.10000000000E+02 0. -1.
</event>
<event>
 5    1  0.7732857E-009  0.3808638E+03  0.7957747E-01  0.3447406E+00
         13   -1    0    0    0    0  0.00000000000E+00  0.00000000000E+00  0.14999999963E+04  0.15000000000E+04  0.10566000000E+00 0. -1.
        994   -1    0    0    0    0 -0.00000000000E+00 -0.00000000000E+00  0.11368683772E-12  0.17120000000E+03  0.17120000000E+03 0.  0.
         13    1    1    2    0    0  0.10506922810E+02  0.14462056146E+02  0.42678130077E+02  0.46270729904E+02  0.10566000000E+00 0. -1.
        994    1    1    2    0    0 -0.11669885451E+01 -0.71139239818E+01  0.38710119645E+01  0.17139543317E+03  0.17120000000E+03 0.  0.
        998    1    1    2    0    0 -0.93399342646E+01 -0.73481321638E+01  0.14534508542E+04  0.14535338369E+04  0.10000000000E+02 0. -1.
</event>
<event>
 5    1  0.7732857E-009  0.3843728E+03  0.7957747E-01  0.3432337E+00
         13   -1    0    0    0    0  0.00000000000E+00  0.00000000000E+00  0.14999999963E+04  0.15000000000E+04  0.10566000000E+00 0. -1.
        994   -1    0    0    0    0 -0.00000000000E+00 -0.00000000000E+00  0.11368683772E-12  0.17120000000E+03  0.17120000000E+03 0.  0.
         13    1    1    2    0    0  0.52520268436E+01  0.11784278858E+02  0.42902337339E+02  0.44800387581E+02  0.10566000000E+00 0. -1.
        994    1    1    2    0    0 -0.44086513969E+01 -0.53254647551E+01  0.20993876725E+01  0.17135239774E+03  0.17120000000E+03 0.  0.
        998    1    1    2    0    0 -0.84337544672E+00 -0.64588141034E+01  0.14549982713E+04  0.14550472147E+04  0.10000000000E+02 0. -1.
</event>
<event>
 5    1  0.7732857E-009  0.3430505E+03  0.7957747E-01  0.3629722E+00
         13   -1    0    0    0    0  0.00000000000E+00  0.00000000000E+00  0.14999999963E+04  0.15000000000E+04  0.10566000000E+00 0.  1.
        994   -1    0    0    0    0 -0.00000000000E+00 -0.00000000000E+00  0.11368683772E-12  0.17120000000E+03  0.17120000000E+03 0.  0.
         13    1    1    2    0    0  0.65643392154E+02 -0.24697907518E+03  0.95766068435E+03  0.99117189025E+03  0.10566000000E+00 0.  1.
        994    1    1    2    0    0 -0.92555133092E+02  0.18947841745E+03  0.21493148188E+03  0.34637191752E+03  0.17120000000E+03 0.  0.
        998    1    1    2    0    0  0.26911740938E+02  0.57500657730E+02  0.32740783005E+03  0.33365619224E+03  0.10000000000E+02 0. -1.
</event>
<event>
 5    1  0.7732857E-009  0.3848223E+03  0.7957747E-01  0.3430426E+00
         13   -1    0    0    0    0  0.00000000000E+00  0.00000000000E+00  0.14999999963E+04  0.15000000000E+04  0.10566000000E+00 0. -1.
        994   -1    0    0    0    0 -0.00000000000E+00 -0.00000000000E+00  0.11368683772E-12  0.17120000000E+03  0.17120000000E+03 0.  0.
         13    1    1    2    0    0  0.79534967593E+01 -0.15780348699E+02  0.90709039091E+02  0.92414384446E+02  0.10566000000E+00 0. -1.
        994    1    1    2    0    0  0.79314578310E+01  0.17250232622E+02  0.29054500604E+01  0.17227408450E+03  0.17120000000E+03 0.  0.
        998    1    1    2    0    0 -0.15884954590E+02 -0.14698839231E+01  0.14063855071E+04  0.14065115311E+04  0.10000000000E+02 0. -1.
</event>
<event>
 5    1  0.7732857E-009  0.3826364E+03  0.7957747E-01  0.3439759E+00
         13   -1    0    0    0    0  0.00000000000E+00  0.00000000000E+00  0.14999999963E+04  0.15000000000E+04  0.10566000000E+00 0. -1.
        994   -1    0    0    0    0 -0.00000000000E+00 -0.00000000000E+00  0.11368683772E-12  0.17120000000E+03  0.17120000000E+03 0.  0.
         13    1    1    2    0    0  0.40140436307E+01 -0.10857524851E+02  0.23944745528E+02  0.26596247754E+02  0.10566000000E+00 0. -1.
        994    1    1    2    0    0 -0.23412137136E+01 -0.82263021236E+01  0.30506663688E+01  0.17144065998E+03  0.17120000000E+03 0.  0.
        998    1    1    2    0    0 -0.16728299171E+01  0.19083826974E+02  0.14730045844E+04  0.14731630923E+04  0.10000000000E+02 0. -1.
</event>
<event>
 5    1  0.7732857E-009  0.3819571E+03  0.7957747E-01  0.3442681E+00
         13   -1    0    0    0    0  0.00000000000E+00  0.00000000000E+00  0.14999999963E+04  0.15000000000E+04  0.10566000000E+00 0. -1.
        994   -1    0    0    0    0 -0.00000000000E+00 -0.00000000000E+00  0.11368683772E-12  0.17120000000E+03  0.17120000000E+03 0.  0.
         13    1    1    2    0    0 -0.18165376846E+02 -0.12090055972E+02  0.82718588215E+02  0.85548386132E+02  0.10566000000E+00 0. -1.
        994    1    1    2    0    0 -0.25921564952E+01 -0.61006045213E+01  0.32944364780E+01  0.17135994270E+03  0.17120000000E+03 0.  0.
        998    1    1    2    0    0  0.20757533341E+02  0.18190660493E+02  0.14139869716E+04  0.14142916712E+04  0.10000000000E+02 0. -1.
</event>
<event>
 5    1  0.7732857E-009  0.3722420E+03  0.7957747E-01  0.3485650E+00
         13   -1    0    0    0    0  0.00000000000E+00  0.00000000000E+00  0.14999999963E+04  0.15000000000E+04  0.10566000000E+00 0. -1.
        994   -1    0    0    0    0 -0.00000000000E+00 -0.00000000000E+00  0.11368683772E-12  0.17120000000E+03  0.17120000000E+03 0.  0.
         13    1    1    2    0    0 -0.68381021017E+02  0.53963586251E+02  0.39500774413E+03  0.40449865484E+03  0.10566000000E+00 0. -1.
        994    1    1    2    0    0  0.35228116748E+02 -0.71922712666E+02  0.30440507173E+02  0.19144179607E+03  0.17120000000E+03 0.  0.
        998    1    1    2    0    0  0.33152904269E+02  0.17959126415E+02  0.10745517450E+04  0.10752595491E+04  0.10000000000E+02 0. -1.
</event>
<event>
 5    1  0.7732857E-009  0.3840178E+03  0.7957747E-01  0.3433849E+00
         13   -1    0    0    0    0  0.00000000000E+00  0.00000000000E+00  0.14999999963E+04  0.15000000000E+04  0.10566000000E+00 0.  1.
        994   -1    0    0    0    0 -0.00000000000E+00 -0.00000000000E+00  0.11368683772E-12  0.17120000000E+03  0.17120000000E+03 0.  0.
         13    1    1    2    0    0 -0.91288943793E+01  0.16794583982E+02  0.81655832314E+02  0.83863465697E+02  0.10566000000E+00 0.  1.
        994    1    1    2    0    0  0.81594103091E+01 -0.18551194313E+02  0.34747733117E+01  0.17243038258E+03  0.17120000000E+03 0.  0.
        998    1    1    2    0    0  0.96948407015E+00  0.17566103313E+01  0.14148693907E+04  0.14149061517E+04  0.10000000000E+02 0.  1.
</event>
<event>
 5    1  0.7732857E-009  0.3755972E+03  0.7957747E-01  0.3470556E+00
         13   -1    0    0    0    0  0.00000000000E+00  0.00000000000E+00  0.14999999963E+04  0.15000000000E+04  0.10566000000E+00 0.  1.
        994   -1    0    0    0    0 -0.00000000000E+00 -0.00000000000E+00  0.11368683772E-12  0.17120000000E+03  0.17120000000E+03 0.  0.
         13    1    1    2    0    0  0.65403702175E+02  0.15685889329E+02  0.28399934284E+03  0.29185497988E+03  0.10566000000E+00 0.  1.
        994    1    1    2    0    0 -0.65880157696E+02 -0.18734514520E+02  0.22456489084E+02  0.18575497601E+03  0.17120000000E+03 0.  0.
        998    1    1    2    0    0  0.47645552130E+00  0.30486251910E+01  0.11935441644E+04  0.11935900441E+04  0.10000000000E+02 0.  1.
</event>
<event>
 5    1  0.7732857E-009  0.3687129E+03  0.7957747E-01  0.3501827E+00
         13   -1    0    0    0    0  0.00000000000E+00  0.00000000000E+00  0.14999999963E+04  0.15000000000E+04  0.10566000000E+00 0. -1.
        994   -1    0    0    0    0 -0.00000000000E+00 -0.00000000000E+00  0.11368683772E-12  0.17120000000E+03  0.17120000000E+03 0.  0.
         13    1    1    2    0    0  0.13395457216E+02 -0.21067529546E+02  0.25038676149E+02  0.35358528569E+02  0.10566000000E+00 0. -1.
        994    1    1    2    0    0 -0.17827875636E+02  0.30002429925E+02  0.14510636434E+02  0.17532249576E+03  0.17120000000E+03 0.  0.
        998    1    1    2    0    0  0.44324184203E+01 -0.89349003793E+01  0.14604506837E+04  0.14605189757E+04  0.10000000000E+02 0. -1.
</event>
<event>
 5    1  0.7732857E-009  0.3827108E+03  0.7957747E-01  0.3439439E+00
         13   -1    0    0    0    0  0.00000000000E+00  0.00000000000E+00  0.14999999963E+04  0.15000000000E+04  0.10566000000E+00 0. -1.
        994   -1    0    0    0    0 -0.00000000000E+00 -0.00000000000E+00  0.11368683772E-12  0.17120000000E+03  0.17120000000E+03 0.  0.
         13    1    1    2    0    0 -0.12727779380E+02 -0.19582004760E+02  0.96044297501E+02  0.98843156186E+02  0.10566000000E+00 0. -1.
        994    1    1    2    0    0  0.10038197656E+02  0.13920668306E+02  0.37474992767E+01  0.17209890810E+03  0.17120000000E+03 0.  0.
        998    1    1    2    0    0  0.26895817240E+01  0.56613364539E+01  0.14002081995E+04  0.14002579357E+04  0.10000000000E+02 0. -1.
</event>
<event>
 5    1  0.7732857E-009  0.3815860E+03  0.7957747E-01  0.3444282E+00
         13   -1    0    0    0    0  0.00000000000E+00  0.00000000000E+00  0.14999999963E+04  0.15000000000E+04  0.10566000000E+00 0.  1.
        994   -1    0    0    0    0 -0.00000000000E+00 -0.00000000000E+00  0.11368683772E-12  0.17120000000E+03  0.17120000000E+03 0.  0.
         13    1    1    2    0    0  0.25269932348E+02 -0.15180377500E+02  0.11896329782E+03  0.12256137538E+03  0.10566000000E+00 0.  1.
        994    1    1    2    0    0 -0.26769725230E+02  0.16123828665E+02  0.65891253897E+01  0.17415353173E+03  0.17120000000E+03 0.  0.
        998    1    1    2    0    0  0.14997928821E+01 -0.94345116535E+00  0.13744475731E+04  0.13744850929E+04  0.10000000000E+02 0.  0.
</event>
<event>
 5    1  0.7732857E-009  0.3722673E+03  0.7957747E-01  0.3485535E+00
         13   -1    0    0    0    0  0.00000000000E+00  0.00000000000E+00  0.14999999963E+04  0.15000000000E+04  0.10566000000E+00 0.  1.
        994   -1    0    0    0    0 -0.00000000000E+00 -0.00000000000E+00  0.11368683772E-12  0.17120000000E+03  0.17120000000E+03 0.  0.
         13    1    1    2    0    0 -0.11189903070E+02 -0.87932683410E+01  0.88284939205E+01  0.16747804864E+02  0.10566000000E+00 0.  1.
        994    1    1    2    0    0  0.90467536443E+01  0.89244725219E+01  0.86430158581E+01  0.17188842801E+03  0.17120000000E+03 0.  0.
        998    1    1    2    0    0  0.21431494257E+01 -0.13120418092E+00  0.14825284865E+04  0.14825637671E+04  0.10000000000E+02 0.  1.
</event>
<event>
 5    1  0.7732857E-009  0.3748012E+03  0.7957747E-01  0.3474112E+00
         13   -1    0    0    0    0  0.00000000000E+00  0.00000000000E+00  0.14999999963E+04  0.15000000000E+04  0.10566000000E+00 0. -1.
        994   -1    0    0    0    0 -0.00000000000E+00 -0.00000000000E+00  0.11368683772E-12  0.17120000000E+03  0.17120000000E+03 0.  0.
         13    1    1    2    0    0 -0.47602125654E+01 -0.10595186958E+02 -0.13551309613E+01  0.11694663497E+02  0.10566000000E+00 0. -1.
        994    1    1    2    0    0  0.11968967320E+02  0.15524857798E+02  0.14867957835E+02  0.17295887823E+03  0.17120000000E+03 0.  0.
        998    1    1    2    0    0 -0.72087547544E+01 -0.49296708401E+01  0.14864871694E+04  0.14865464583E+04  0.10000000000E+02 0. -1.
</event>
<event>
 5    1  0.7732857E-009  0.3684967E+03  0.7957747E-01  0.3502829E+00
         13   -1    0    0    0    0  0.00000000000E+00  0.00000000000E+00  0.14999999963E+04  0.15000000000E+04  0.10566000000E+00 0. -1.
        994   -1    0    0    0    0 -0.00000000000E+00 -0.00000000000E+00  0.11368683772E-12  0.17120000000E+03  0.17120000000E+03 0.  0.
         13    1    1    2    0    0 -0.19123426891E+02 -0.19311962752E+02  0.31850572262E+02  0.41870365163E+02  0.10566000000E+00 0. -1.
        994    1    1    2    0    0  0.18119267414E+02  0.16299562488E+02  0.12214501836E+02  0.17335690827E+03  0.17120000000E+03 0.  0.
        998    1    1    2    0    0  0.10041594774E+01  0.30124002643E+01  0.14559349222E+04  0.14559727266E+04  0.10000000000E+02 0. -1.
</event>
<event>
 5    1  0.7732857E-009  0.3833545E+03  0.7957747E-01  0.3436681E+00
         13   -1    0    0    0    0  0.00000000000E+00  0.00000000000E+00  0.14999999963E+04  0.15000000000E+04  0.10566000000E+00 0.  1.
        994   -1    0    0    0    0 -0.00000000000E+00 -0.00000000000E+00  0.11368683772E-12  0.17120000000E+03  0.17120000000E+03 0.  0.
         13    1    1    2    0    0  0.25382614349E+02  0.79559185925E+01  0.13157287802E+03  0.13423489541E+03  0.10566000000E+00 0.  1.
        994    1    1    2    0    0 -0.26829650957E+02 -0.83258754818E+01  0.50628149391E+01  0.17356330968E+03  0.17120000000E+03 0.  0.
        998    1    1    2    0    0  0.14470366080E+01  0.36995688925E+00  0.13633643033E+04  0.13634017949E+04  0.10000000000E+02 0.  1.
</event>
<event>
 5    1  0.7732857E-009  0.3791974E+03  0.7957747E-01  0.3454660E+00
         13   -1    0    0    0    0  0.00000000000E+00  0.00000000000E+00  0.14999999963E+04  0.15000000000E+04  0.10566000000E+00 0.  1.
        994   -1    0    0    0    0 -0.00000000000E+00 -0.00000000000E+00  0.11368683772E-12  0.17120000000E+03  0.17120000000E+03 0.  0.
         13    1    1    2    0    0  0.61602559282E+02  0.78509643569E+02  0.26036513590E+03  0.27883445734E+03  0.10566000000E+00 0.  1.
        994    1    1    2    0    0 -0.62602402488E+02 -0.70828520891E+02  0.48927991805E+02  0.20159148928E+03  0.17120000000E+03 0.  0.
        998    1    1    2    0    0  0.99984320569E+00 -0.76811226781E+01  0.11907068686E+04  0.11907740534E+04  0.10000000000E+02 0.  1.
</event>
<event>
 5    1  0.7732857E-009  0.3774761E+03  0.7957747E-01  0.3462222E+00
         13   -1    0    0    0    0  0.00000000000E+00  0.00000000000E+00  0.14999999963E+04  0.15000000000E+04  0.10566000000E+00 0.  1.
        994   -1    0    0    0    0 -0.00000000000E+00 -0.00000000000E+00  0.11368683772E-12  0.17120000000E+03  0.17120000000E+03 0.  0.
         13    1    1    2    0    0 -0.49831550600E+00 -0.17311161825E+02  0.26214492306E+02  0.31418711192E+02  0.10566000000E+00 0.  1.
        994    1    1    2    0    0  0.13348222013E+02  0.67342163071E+00  0.60150328874E+01  0.17182621787E+03  0.17120000000E+03 0.  0.
        998    1    1    2    0    0 -0.12849906507E+02  0.16637740195E+02  0.14677704711E+04  0.14679550709E+04  0.10000000000E+02 0.  1.
</event>
<event>
 5    1  0.7732857E-009  0.3841835E+03  0.7957747E-01  0.3433142E+00
         13   -1    0    0    0    0  0.00000000000E+00  0.00000000000E+00  0.14999999963E+04  0.15000000000E+04  0.10566000000E+00 0. -1.
        994   -1    0    0    0    0 -0.00000000000E+00 -0.00000000000E+00  0.11368683772E-12  0.17120000000E+03  0.17120000000E+03 0.  0.
         13    1    1    2    0    0  0.16243421346E+02 -0.10907516876E+02  0.96902648181E+02  0.98858267484E+02  0.10566000000E+00 0. -1.
        994    1    1    2    0    0 -0.34866275116E+01  0.83646087891E+01  0.23069000101E+01  0.17145519834E+03  0.17120000000E+03 0.  0.
        998    1    1    2    0    0 -0.12756793834E+02  0.25429080866E+01  0.14007904481E+04  0.14008865342E+04  0.10000000000E+02 0. -1.
</event>
<event>
 5    1  0.7732857E-009  0.3727384E+03  0.7957747E-01  0.3483400E+00
         13   -1    0    0    0    0  0.00000000000E+00  0.00000000000E+00  0.14999999963E+04  0.15000000000E+04  0.10566000000E+00 0.  1.
        994   -1    0    0    0    0 -0.00000000000E+00 -0.00000000000E+00  0.11368683772E-12  0.17120000000E+03  0.17120000000E+03 0.  0.
         13    1    1    2    0    0 -0.14126900069E+02  0.48511763203E+01  0.35707555551E+01  0.15357886460E+02  0.10566000000E+00 0.  1.
        994    1    1    2    0    0 -0.21883937551E+01  0.97159163428E+01  0.12744372990E+02  0.17196234222E+03  0.17120000000E+03 0.  0.
        998    1    1    2    0    0  0.16315293824E+02 -0.14567092663E+02  0.14836848677E+04  0.14838797713E+04  0.10000000000E+02 0.  1.
</event>
<event>
 5    1  0.7732857E-009  0.3799370E+03  0.7957747E-01  0.3451433E+00
         13   -1    0    0    0    0  0.00000000000E+00  0.00000000000E+00  0.14999999963E+04  0.15000000000E+04  0.10566000000E+00 0.  1.
        994   -1    0    0    0    0 -0.00000000000E+00 -0.00000000000E+00  0.11368683772E-12  0.17120000000E+03  0.17120000000E+03 0.  0.
         13    1    1    2    0    0 -0.28410781177E+02 -0.28473671308E+01  0.92524068158E+02  0.96829718265E+02  0.10566000000E+00 0.  1.
        994    1    1    2    0    0  0.25621802513E+02  0.37934070984E+01  0.64113078945E+01  0.17326687961E+03  0.17120000000E+03 0.  0.
        998    1    1    2    0    0  0.27889786637E+01 -0.94603996757E+00  0.14010646202E+04  0.14011034021E+04  0.10000000000E+02 0.  1.
</event>
<event>
 5    1  0.7732857E-009  0.3851730E+03  0.7957747E-01  0.3428939E+00
         13   -1    0    0    0    0  0.00000000000E+00  0.00000000000E+00  0.14999999963E+04  0.15000000000E+04  0.10566000000E+00 0.  1.
        994   -1    0    0    0    0 -0.00000000000E+00 -0.00000000000E+00  0.11368683772E-12  0.17120000000E+03  0.17120000000E+03 0.  0.
         13    1    1    2    0    0 -0.82958250008E+01 -0.11211286288E+02  0.65391541371E+02  0.66862384788E+02  0.10566000000E+00 0.  1.
        994    1    1    2    0    0  0.10998118522E+02 -0.32924128994E+01  0.19775912461E+01  0.17159588999E+03  0.17120000000E+03 0.  0.
        998    1    1    2    0    0 -0.27022935212E+01  0.14503699188E+02  0.14326308637E+04  0.14327417252E+04  0.10000000000E+02 0.  1.
</event>
<event>
 5    1  0.7732857E-009  0.3815981E+03  0.7957747E-01  0.3444229E+00
         13   -1    0    0    0    0  0.00000000000E+00  0.00000000000E+00  0.14999999963E+04  0.15000000000E+04  0.10566000000E+00 0.  1.
        994   -1    0    0    0    0 -0.00000000000E+00 -0.00000000000E+00  0.11368683772E-12  0.17120000000E+03  0.17120000000E+03 0.  0.
         13    1    1    2    0    0  0.17416060647E+01  0.10396038558E+02  0.15264845193E+02  0.18550942622E+02  0.10566000000E+00 0.  1.
        994    1    1    2    0    0 -0.19514554864E+01 -0.83474490175E+01  0.35730084949E+01  0.17145172636E+03  0.17120000000E+03 0.  0.
        998    1    1    2    0    0  0.20984942170E+00 -0.20485895406E+01  0.14811621426E+04  0.14811973310E+04  0.10000000000E+02 0.  1.
</event>
<event>
 5    1  0.7732857E-009  0.3723564E+03  0.7957747E-01  0.3485131E+00
         13   -1    0    0    0    0  0.00000000000E+00  0.00000000000E+00  0.14999999963E+04  0.15000000000E+04  0.10566000000E+00 0.  1.
        994   -1    0    0    0    0 -0.00000000000E+00 -0.00000000000E+00  0.11368683772E-12  0.17120000000E+03  0.17120000000E+03 0.  0.
         13    1    1    2    0    0 -0.16047416015E+02  0.10928487716E+02  0.19838260481E+02  0.27758226663E+02  0.10566000000E+00 0.  1.
        994    1    1    2    0    0  0.17878146258E+02 -0.39465420088E+01  0.91931124788E+01  0.17242145059E+03  0.17120000000E+03 0.  0.
        998    1    1    2    0    0 -0.18307302436E+01 -0.69819457074E+01  0.14709686233E+04  0.14710203227E+04  0.10000000000E+02 0.  1.
</event>
<event>
 5    1  0.7732857E-009  0.3813492E+03  0.7957747E-01  0.3445305E+00
         13   -1    0    0    0    0  0.00000000000E+00  0.00000000000E+00  0.14999999963E+04  0.15000000000E+04  0.10566000000E+00 0. -1.
        994   -1    0    0    0    0 -0.00000000000E+00 -0.00000000000E+00  0.11368683772E-12  0.17120000000E+03  0.17120000000E+03 0.  0.
         13    1    1    2    0    0  0.22398419572E+02  0.38507565857E+01  0.80064255581E+02  0.83227481707E+02  0.10566000000E+00 0. -1.
        994    1    1    2    0    0  0.12969613795E+01  0.62314766138E+01  0.35884538702E+01  0.17135585899E+03  0.17120000000E+03 0.  0.
        998    1    1    2    0    0 -0.23695380952E+02 -0.10082233199E+02  0.14163472868E+04  0.14166166593E+04  0.10000000000E+02 0. -1.
</event>
<event>
 5    1  0.7732857E-009  0.3750938E+03  0.7957747E-01  0.3472803E+00
         13   -1    0    0    0    0  0.00000000000E+00  0.00000000000E+00  0.14999999963E+04  0.15000000000E+04  0.10566000000E+00 0.  1.
        994   -1    0    0    0    0 -0.00000000000E+00 -0.00000000000E+00  0.11368683772E-12  0.17120000000E+03  0.17120000000E+03 0.  0.
         13    1    1    2    0    0  0.27908282246E+02  0.10470474157E+02  0.68910929205E+02  0.75081491560E+02  0.10566000000E+00 0.  1.
        994    1    1    2    0    0 -0.44790429359E+01  0.98038656823E+01  0.70254497342E+01  0.17168277302E+03  0.17120000000E+03 0.  0.
        998    1    1    2    0    0 -0.23429239310E+02 -0.20274339839E+02  0.14240636173E+04  0.14244357354E+04  0.10000000000E+02 0.  1.
</event>
<event>
 5    1  0.7732857E-009  0.3822056E+03  0.7957747E-01  0.3441611E+00
         13   -1    0    0    0    0  0.00000000000E+00  0.00000000000E+00  0.14999999963E+04  0.15000000000E+04  0.10566000000E+00 0. -1.
        994   -1    0    0    0    0 -0.00000000000E+00 -0.00000000000E+00  0.11368683772E-12  0.17120000000E+03  0.17120000000E+03 0.  0.
         13    1    1    2    0    0 -0.12504818829E+02 -0.14193507754E+02  0.59539429330E+02  0.62472241558E+02  0.10566000000E+00 0. -1.
        994    1    1    2    0    0  0.24320768343E+01  0.75161847046E+01  0.32310272602E+01  0.17141262371E+03  0.17120000000E+03 0.  0.
        998    1    1    2    0    0  0.10072741995E+02  0.66773230491E+01  0.14372295397E+04  0.14373151347E+04  0.10000000000E+02 0. -1.
</event>
<event>
 5    1  0.7732857E-009  0.3847251E+03  0.7957747E-01  0.3430839E+00
         13   -1    0    0    0    0  0.00000000000E+00  0.00000000000E+00  0.14999999963E+04  0.15000000000E+04  0.10566000000E+00 0. -1.
        994   -1    0    0    0    0 -0.00000000000E+00 -0.00000000000E+00  0.11368683772E-12  0.17120000000E+03  0.17120000000E+03 0.  0.
         13    1    1    2    0    0  0.87013030069E+01  0.10098694027E+02  0.50413167351E+02  0.52145900141E+02  0.10566000000E+00 0. -1.
        994    1    1    2    0    0 -0.30945771295E+01 -0.76040515679E+01  0.19885375527E+01  0.17140826202E+03  0.17120000000E+03 0.  0.
        998    1    1    2    0    0 -0.56067258774E+01 -0.24946424590E+01  0.14475982914E+04  0.14476458378E+04  0.10000000000E+02 0. -1.
</event>
<event>
 5    1  0.7732857E-009  0.3788923E+03  0.7957747E-01  0.3455996E+00
         13   -1    0    0    0    0  0.00000000000E+00  0.00000000000E+00  0.14999999963E+04  0.15000000000E+04  0.10566000000E+00 0. -1.
        994   -1    0    0    0    0 -0.00000000000E+00 -0.00000000000E+00  0.11368683772E-12  0.17120000000E+03  0.17120000000E+03 0.  0.
         13    1    1    2    0    0  0.62033592858E+02 -0.43752182849E+02  0.41932879784E+03  0.42614442623E+03  0.10566000000E+00 0. -1.
        994    1    1    2    0    0 -0.52678992058E+02  0.66806956688E+02  0.29375803460E+02  0.19341826050E+03  0.17120000000E+03 0.  0.
        998    1    1    2    0    0 -0.93546007993E+01 -0.23054773840E+02  0.10512953950E+04  0.10516373133E+04  0.10000000000E+02 0. -1.
</event>
<event>
 5    1  0.7732857E-009  0.3848199E+03  0.7957747E-01  0.3430437E+00
         13   -1    0    0    0    0  0.00000000000E+00  0.00000000000E+00  0.14999999963E+04  0.15000000000E+04  0.10566000000E+00 0. -1.
        994   -1    0    0    0    0 -0.00000000000E+00 -0.00000000000E+00  0.11368683772E-12  0.17120000000E+03  0.17120000000E+03 0.  0.
         13    1    1    2    0    0 -0.38899454308E+01 -0.16670361148E+02  0.80202642275E+02  0.82009192218E+02  0.10566000000E+00 0. -1.
        994    1    1    2    0    0  0.57350706113E+01  0.19098780979E+02  0.30291984864E+01  0.17238407848E+03  0.17120000000E+03 0.  0.
        998    1    1    2    0    0 -0.18451251805E+01 -0.24284198313E+01  0.14167681555E+04  0.14168067293E+04  0.10000000000E+02 0. -1.
</event>
<event>
 5    1  0.7732857E-009  0.3834777E+03  0.7957747E-01  0.3436154E+00
         13   -1    0    0    0    0  0.00000000000E+00  0.00000000000E+00  0.14999999963E+04  0.15000000000E+04  0.10566000000E+00 0. -1.
        994   -1    0    0    0    0 -0.00000000000E+00 -0.00000000000E+00  0.11368683772E-12  0.17120000000E+03  0.17120000000E+03 0.  0.
         13    1    1    2    0    0 -0.90039021658E+01  0.20648662216E+02  0.10114831258E+03  0.10362639532E+03  0.10566000000E+00 0. -1.
        994    1    1    2    0    0  0.20560576554E+02 -0.13773480991E+02  0.44145298514E+01  0.17303575977E+03  0.17120000000E+03 0.  0.
        998    1    1    2    0    0 -0.11556674388E+02 -0.68751812248E+01  0.13944371539E+04  0.13945378449E+04  0.10000000000E+02 0. -1.
</event>
<event>
 5    1  0.7732857E-009  0.3845633E+03  0.7957747E-01  0.3431526E+00
         13   -1    0    0    0    0  0.00000000000E+00  0.00000000000E+00  0.14999999963E+04  0.15000000000E+04  0.10566000000E+00 0. -1.
        994   -1    0    0    0    0 -0.00000000000E+00 -0.00000000000E+00  0.11368683772E-12  0.17120000000E+03  0.17120000000E+03 0.  0.
         13    1    1    2    0    0 -0.22319531166E+02 -0.25648315297E+01  0.12576565442E+03  0.12775660777E+03  0.10566000000E+00 0. -1.
        994    1    1    2    0    0  0.23459067112E+02  0.41376182408E+01  0.37181137732E+01  0.17288930587E+03  0.17120000000E+03 0.  0.
        998    1    1    2    0    0 -0.11395359460E+01 -0.15727867111E+01  0.13705162281E+04  0.13705540864E+04  0.10000000000E+02 0. -1.
</event>
<event>
 5    1  0.7732857E-009  0.3789393E+03  0.7957747E-01  0.3455790E+00
         13   -1    0    0    0    0  0.00000000000E+00  0.00000000000E+00  0.14999999963E+04  0.15000000000E+04  0.10566000000E+00 0.  1.
        994   -1    0    0    0    0 -0.00000000000E+00 -0.00000000000E+00  0.11368683772E-12  0.17120000000E+03  0.17120000000E+03 0.  0.
         13    1    1    2    0    0  0.27915368556E+00 -0.27698900533E+02  0.76305326734E+02  0.81177712887E+02  0.10566000000E+00 0.  1.
        994    1    1    2    0    0  0.52159083036E+01  0.29740404694E+02  0.77340600105E+01  0.17401423233E+03  0.17120000000E+03 0.  0.
        998    1    1    2    0    0 -0.54950619891E+01 -0.20415041613E+01  0.14159606095E+04  0.14160080548E+04  0.10000000000E+02 0.  1.
</event>
<event>
 5    1  0.7732857E-009  0.3851547E+03  0.7957747E-01  0.3429016E+00
         13   -1    0    0    0    0  0.00000000000E+00  0.00000000000E+00  0.14999999963E+04  0.15000000000E+04  0.10566000000E+00 0. -1.
        994   -1    0    0    0    0 -0.00000000000E+00 -0.00000000000E+00  0.11368683772E-12  0.17120000000E+03  0.17120000000E+03 0.  0.
         13    1    1    2    0    0 -0.14035686443E+02 -0.88061974085E+00  0.71797566204E+02  0.73161996022E+02  0.10566000000E+00 0. -1.
        994    1    1    2    0    0 -0.84578837401E+01  0.20421162969E+02  0.31608763682E+01  0.17264990829E+03  0.17120000000E+03 0.  0.
        998    1    1    2    0    0  0.22493570183E+02 -0.19540543228E+02  0.14250415537E+04  0.14253880957E+04  0.10000000000E+02 0. -1.
</event>
<event>
 5    1  0.7732857E-009  0.3692397E+03  0.7957747E-01  0.3499393E+00
         13   -1    0    0    0    0  0.00000000000E+00  0.00000000000E+00  0.14999999963E+04  0.15000000000E+04  0.10566000000E+00 0. -1.
        994   -1    0    0    0    0 -0.00000000000E+00 -0.00000000000E+00  0.11368683772E-12  0.17120000000E+03  0.17120000000E+03 0.  0.
         13    1    1    2    0    0 -0.17892012725E+02  0.27131827613E+02  0.53458420909E+02  0.62562561641E+02  0.10566000000E+00 0. -1.
        994    1    1    2    0    0  0.11197832666E+02  0.45573939794E+02  0.18256032182E+02  0.17845194915E+03  0.17120000000E+03 0.  0.
        998    1    1    2    0    0  0.66941800589E+01 -0.72705767407E+02  0.14282855432E+04  0.14301854892E+04  0.10000000000E+02 0. -1.
</event>
<event>
 5    1  0.7732857E-009  0.3785761E+03  0.7957747E-01  0.3457382E+00
         13   -1    0    0    0    0  0.00000000000E+00  0.00000000000E+00  0.14999999963E+04  0.15000000000E+04  0.10566000000E+00 0.  1.
        994   -1    0    0    0    0 -0.00000000000E+00 -0.00000000000E+00  0.11368683772E-12  0.17120000000E+03  0.17120000000E+03 0.  0.
         13    1    1    2    0    0 -0.58061038106E+01  0.15725573889E+02  0.26716833887E+02  0.31540527779E+02  0.10566000000E+00 0.  1.
        994    1    1    2    0    0  0.38284379702E+01 -0.14251495892E+02  0.55853907404E+01  0.17192556140E+03  0.17120000000E+03 0.  0.
        998    1    1    2    0    0  0.19776658404E+01 -0.14740779967E+01  0.14676977717E+04  0.14677339108E+04  0.10000000000E+02 0.  1.
</event>
<event>
 5    1  0.7732857E-009  0.3851075E+03  0.7957747E-01  0.3429216E+00
         13   -1    0    0    0    0  0.00000000000E+00  0.00000000000E+00  0.14999999963E+04  0.15000000000E+04  0.10566000000E+00 0. -1.
        994   -1    0    0    0    0 -0.00000000000E+00 -0.00000000000E+00  0.11368683772E-12  0.17120000000E+03  0.17120000000E+03 0.  0.
         13    1    1    2    0    0  0.14491695462E+02  0.14224032652E+02  0.12166789548E+03  0.12335080177E+03  0.10566000000E+00 0. -1.
        994    1    1    2    0    0 -0.14895126678E+02 -0.14936846994E+02  0.30409840009E+01  0.17252148208E+03  0.17120000000E+03 0.  0.
        998    1    1    2    0    0  0.40343121575E+00  0.71281434195E+00  0.13752911168E+04  0.13753277161E+04  0.10000000000E+02 0.  0.
</event>
<event>
 5    1  0.7732857E-009  0.3776935E+03  0.7957747E-01  0.3461263E+00
         13   -1    0    0    0    0  0.00000000000E+00  0.00000000000E+00  0.14999999963E+04  0.15000000000E+04  0.10566000000E+00 0. -1.
        994   -1    0    0    0    0 -0.00000000000E+00 -0.00000000000E+00  0.11368683772E-12  0.17120000000E+03  0.17120000000E+03 0.  0.
         13    1    1    2    0    0  0.30464785788E+02  0.44856513397E+02  0.22106903034E+03  0.22762191746E+03  0.10566000000E+00 0. -1.
        994    1    1    2    0    0 -0.24776744890E+02 -0.60288493441E+02  0.19750083234E+02  0.18425008905E+03  0.17120000000E+03 0.  0.
        998    1    1    2    0    0 -0.56880408988E+01  0.15431980044E+02  0.12591808827E+04  0.12593279935E+04  0.10000000000E+02 0. -1.
</event>
<event>
 5    1  0.7732857E-009  0.3819651E+03  0.7957747E-01  0.3442646E+00
         13   -1    0    0    0    0  0.00000000000E+00  0.00000000000E+00  0.14999999963E+04  0.15000000000E+04  0.10566000000E+00 0. -1.
        994   -1    0    0    0    0 -0.00000000000E+00 -0.00000000000E+00  0.11368683772E-12  0.17120000000E+03  0.17120000000E+03 0.  0.
         13    1    1    2    0    0 -0.57394350408E+00  0.29929145939E+02  0.12803711898E+03  0.13148991668E+03  0.10566000000E+00 0. -1.
        994    1    1    2    0    0  0.30526936197E+01 -0.33244318200E+02  0.68549527873E+01  0.17455925644E+03  0.17120000000E+03 0.  0.
        998    1    1    2    0    0 -0.24787501156E+01  0.33151722609E+01  0.13651079245E+04  0.13651508269E+04  0.10000000000E+02 0. -1.
</event>
<event>
 5    1  0.7732857E-009  0.4151523E+03  0.7957747E-01  0.3311063E+00
         13   -1    0    0    0    0  0.00000000000E+00  0.00000000000E+00  0.14999999963E+04  0.15000000000E+04  0.10566000000E+00 0.  1.
        994   -1    0    0    0    0 -0.00000000000E+00 -0.00000000000E+00  0.11368683772E-12  0.17120000000E+03  0.17120000000E+03 0.  0.
         13    1    1    2    0    0 -0.12734794590E+02 -0.78036452080E+02  0.59176362238E+02  0.98760902478E+02  0.10566000000E+00 0.  1.
        994    1    1    2    0    0  0.49621504362E+02  0.11945964363E+03  0.11130306179E+03  0.24172445411E+03  0.17120000000E+03 0.  0.
        998    1    1    2    0    0 -0.36886709772E+02 -0.41423191546E+02  0.13295205723E+04  0.13307146434E+04  0.10000000000E+02 0.  1.
</event>
<event>
 5    1  0.7732857E-009  0.3844054E+03  0.7957747E-01  0.3432198E+00
         13   -1    0    0    0    0  0.00000000000E+00  0.00000000000E+00  0.14999999963E+04  0.15000000000E+04  0.10566000000E+00 0. -1.
        994   -1    0    0    0    0 -0.00000000000E+00 -0.00000000000E+00  0.11368683772E-12  0.17120000000E+03  0.17120000000E+03 0.  0.
         13    1    1    2    0    0  0.16711873183E+01  0.15411801731E+02  0.59747871732E+02  0.61726297800E+02  0.10566000000E+00 0. -1.
        994    1    1    2    0    0 -0.58063304405E+01 -0.16638120012E+02  0.29495158978E+01  0.17212983517E+03  0.17120000000E+03 0.  0.
        998    1    1    2    0    0  0.41351431222E+01  0.12263182811E+01  0.14373026086E+04  0.14373438670E+04  0.10000000000E+02 0.  0.
</event>
<event>
 5    1  0.8044605E-009  0.3841758E+03  0.7957747E-01  0.3433175E+00
         13   -1    0    0    0    0  0.00000000000E+00  0.00000000000E+00  0.14999999963E+04  0.15000000000E+04  0.10566000000E+00 0.  1.
        994   -1    0    0    0    0 -0.00000000000E+00 -0.00000000000E+00  0.11368683772E-12  0.17120000000E+03  0.17120000000E+03 0.  0.
         13    1    1    2    0    0 -0.83818239581E+01  0.54787963644E+01  0.23582173588E+02  0.25620348507E+02  0.10566000000E+00 0.  1.
        994    1    1    2    0    0  0.10539179045E+02 -0.50042133912E+01  0.24888733878E+01  0.17161512444E+03  0.17120000000E+03 0.  0.
        998    1    1    2    0    0 -0.21573550869E+01 -0.47458297328E+00  0.14739289493E+04  0.14739645271E+04  0.10000000000E+02 0.  1.
</event>
<event>
 5    1  0.7732857E-009  0.3809408E+03  0.7957747E-01  0.3447072E+00
         13   -1    0    0    0    0  0.00000000000E+00  0.00000000000E+00  0.14999999963E+04  0.15000000000E+04  0.10566000000E+00 0.  1.
        994   -1    0    0    0    0 -0.00000000000E+00 -0.00000000000E+00  0.11368683772E-12  0.17120000000E+03  0.17120000000E+03 0.  0.
         13    1    1    2    0    0  0.19242344596E+01  0.11627118467E+02  0.17350197516E+02  0.20974581759E+02  0.10566000000E+00 0.  1.
        994    1    1    2    0    0 -0.24494408651E+01 -0.10391854403E+02  0.40389420170E+01  0.17158013711E+03  0.17120000000E+03 0.  0.
        998    1    1    2    0    0  0.52520640550E+00 -0.12352640643E+01  0.14786108567E+04  0.14786452811E+04  0.10000000000E+02 0.  1.
</event>
<event>
 5    1  0.7732857E-009  0.3458304E+03  0.7957747E-01  0.3614921E+00
         13   -1    0    0    0    0  0.00000000000E+00  0.00000000000E+00  0.14999999963E+04  0.15000000000E+04  0.10566000000E+00 0.  1.
        994   -1    0    0    0    0 -0.00000000000E+00 -0.00000000000E+00  0.11368683772E-12  0.17120000000E+03  0.17120000000E+03 0.  0.
         13    1    1    2    0    0 -0.96028167877E+02  0.16218563778E+03  0.10634666091E+04  0.10800401983E+04  0.10566000000E+00 0.  1.
        994    1    1    2    0    0  0.70923149140E+02 -0.13201893088E+03  0.93901057515E+02  0.24614211301E+03  0.17120000000E+03 0.  0.
        998    1    1    2    0    0  0.25105018737E+02 -0.30166706900E+02  0.34263232968E+03  0.34501768869E+03  0.10000000000E+02 0.  1.
</event>
<event>
 5    1  0.7732857E-009  0.3852353E+03  0.7957747E-01  0.3428675E+00
         13   -1    0    0    0    0  0.00000000000E+00  0.00000000000E+00  0.14999999963E+04  0.15000000000E+04  0.10566000000E+00 0. -1.
        994   -1    0    0    0    0 -0.00000000000E+00 -0.00000000000E+00  0.11368683772E-12  0.17120000000E+03  0.17120000000E+03 0.  0.
         13    1    1    2    0    0 -0.13968340590E+02  0.36371212905E+01  0.68436320851E+02  0.69942007162E+02  0.10566000000E+00 0. -1.
        994    1    1    2    0    0  0.87850919142E+01 -0.90712675295E+01  0.20375732207E+01  0.17167718963E+03  0.17120000000E+03 0.  0.
        998    1    1    2    0    0  0.51832486757E+01  0.54341462390E+01  0.14295261022E+04  0.14295808032E+04  0.10000000000E+02 0. -1.
</event>
<event>
 5    1  0.7732857E-009  0.3688529E+03  0.7957747E-01  0.3501179E+00
         13   -1    0    0    0    0  0.00000000000E+00  0.00000000000E+00  0.14999999963E+04  0.15000000000E+04  0.10566000000E+00 0.  1.
        994   -1    0    0    0    0 -0.00000000000E+00 -0.00000000000E+00  0.11368683772E-12  0.17120000000E+03  0.17120000000E+03 0.  0.
         13    1    1    2    0    0 -0.15457741649E+02 -0.63037241112E+02  0.29511279065E+03  0.30216585828E+03  0.10566000000E+00 0.  1.
        994    1    1    2    0    0  0.21395575519E+02 -0.18067324086E+02  0.12596952234E+02  0.17393194663E+03  0.17120000000E+03 0.  0.
        998    1    1    2    0    0 -0.59378338705E+01  0.81104565198E+02  0.11922902534E+04  0.11951021951E+04  0.10000000000E+02 0.  1.
</event>
<event>
 5    1  0.7732857E-009  0.3828241E+03  0.7957747E-01  0.3438953E+00
         13   -1    0    0    0    0  0.00000000000E+00  0.00000000000E+00  0.14999999963E+04  0.15000000000E+04  0.10566000000E+00 0.  1.
        994   -1    0    0    0    0 -0.00000000000E+00 -0.00000000000E+00  0.11368683772E-12  0.17120000000E+03  0.17120000000E+03 0.  0.
         13    1    1    2    0    0  0.17682242725E+02  0.15387986784E+02  0.11017630417E+03  0.11264227009E+03  0.10566000000E+00 0.  1.
        994    1    1    2    0    0 -0.15969078648E+02  0.16656296821E+02  0.44797716797E+01  0.17280611115E+03  0.17120000000E+03 0.  0.
        998    1    1    2    0    0 -0.17131640770E+01 -0.32044283604E+02  0.13853439204E+04  0.13857516188E+04  0.10000000000E+02 0.  1.
</event>
<event>
 5    1  0.7732857E-009  0.3732360E+03  0.7957747E-01  0.3481150E+00
         13   -1    0    0    0    0  0.00000000000E+00  0.00000000000E+00  0.14999999963E+04  0.15000000000E+04  0.10566000000E+00 0.  1.
        994   -1    0    0    0    0 -0.00000000000E+00 -0.00000000000E+00  0.11368683772E-12  0.17120000000E+03  0.17120000000E+03 0.  0.
         13    1    1    2    0    0 -0.36838567611E+02  0.33099979259E+02  0.14277363212E+03  0.15111919098E+03  0.10566000000E+00 0.  1.
        994    1    1    2    0    0  0.37230441427E+02 -0.36917514329E+02  0.17046746665E+02  0.17985838931E+03  0.17120000000E+03 0.  0.
        998    1    1    2    0    0 -0.39187381618E+00  0.38175350699E+01  0.13401796175E+04  0.13402224197E+04  0.10000000000E+02 0.  1.
</event>
<event>
 5    1  0.7732857E-009  0.3793301E+03  0.7957747E-01  0.3454081E+00
         13   -1    0    0    0    0  0.00000000000E+00  0.00000000000E+00  0.14999999963E+04  0.15000000000E+04  0.10566000000E+00 0. -1.
        994   -1    0    0    0    0 -0.00000000000E+00 -0.00000000000E+00  0.11368683772E-12  0.17120000000E+03  0.17120000000E+03 0.  0.
         13    1    1    2    0    0 -0.13581050945E+02  0.24352203767E+02  0.86577452077E+02  0.90956809229E+02  0.10566000000E+00 0. -1.
        994    1    1    2    0    0  0.35516365416E+02  0.28904804723E+01  0.87375841492E+01  0.17508727100E+03  0.17120000000E+03 0.  0.
        998    1    1    2    0    0 -0.21935314470E+02 -0.27242684240E+02  0.14046849601E+04  0.14051559198E+04  0.10000000000E+02 0. -1.
</event>
<event>
 5    1  0.7732857E-009  0.3825221E+03  0.7957747E-01  0.3440250E+00
         13   -1    0    0    0    0  0.00000000000E+00  0.00000000000E+00  0.14999999963E+04  0.15000000000E+04  0.10566000000E+00 0.  1.
        994   -1    0    0    0    0 -0.00000000000E+00 -0.00000000000E+00  0.11368683772E-12  0.17120000000E+03  0.17120000000E+03 0.  0.
         13    1    1    2    0    0 -0.20757416578E+02 -0.23798590211E+02  0.17753159996E+03  0.18031839448E+03  0.10566000000E+00 0.  1.
        994    1    1    2    0    0  0.94682800678E+01  0.12293029732E+02  0.36639832909E+01  0.17194077958E+03  0.17120000000E+03 0.  0.
        998    1    1    2    0    0  0.11289136511E+02  0.11505560479E+02  0.13188044130E+04  0.13189408259E+04  0.10000000000E+02 0.  1.
</event>
<event>
 5    1  0.7732857E-009  0.3927835E+03  0.7957747E-01  0.3397318E+00
         13   -1    0    0    0    0  0.00000000000E+00  0.00000000000E+00  0.14999999963E+04  0.15000000000E+04  0.10566000000E+00 0.  1.
        994   -1    0    0    0    0 -0.00000000000E+00 -0.00000000000E+00  0.11368683772E-12  0.17120000000E+03  0.17120000000E+03 0.  0.
         13    1    1    2    0    0 -0.59143539199E+02  0.15100150614E+02  0.62897015773E+02  0.87647125079E+02  0.10566000000E+00 0.  1.
        994    1    1    2    0    0  0.89110414891E+02 -0.92308756996E+01  0.54755458232E+02  0.20083195790E+03  0.17120000000E+03 0.  0.
        998    1    1    2    0    0 -0.29966875692E+02 -0.58692749148E+01  0.13823475223E+04  0.13827209170E+04  0.10000000000E+02 0.  1.
</event>
<event>
 5    1  0.7732857E-009  0.3795793E+03  0.7957747E-01  0.3452992E+00
         13   -1    0    0    0    0  0.00000000000E+00  0.00000000000E+00  0.14999999963E+04  0.15000000000E+04  0.10566000000E+00 0. -1.
        994   -1    0    0    0    0 -0.00000000000E+00 -0.00000000000E+00  0.11368683772E-12  0.17120000000E+03  0.17120000000E+03 0.  0.
         13    1    1    2    0    0 -0.14258915981E+02 -0.10852098826E+02  0.34447415432E+02  0.38829374549E+02  0.10566000000E+00 0. -1.
        994    1    1    2    0    0  0.13580252551E+02  0.13823633649E+02  0.56037159949E+01  0.17238433148E+03  0.17120000000E+03 0.  0.
        998    1    1    2    0    0  0.67866342959E+00 -0.29715348231E+01  0.14599488649E+04  0.14599862940E+04  0.10000000000E+02 0. -1.
</event>
<event>
 5    1  0.7732857E-009  0.3818914E+03  0.7957747E-01  0.3442964E+00
         13   -1    0    0    0    0  0.00000000000E+00  0.00000000000E+00  0.14999999963E+04  0.15000000000E+04  0.10566000000E+00 0.  1.
        994   -1    0    0    0    0 -0.00000000000E+00 -0.00000000000E+00  0.11368683772E-12  0.17120000000E+03  0.17120000000E+03 0.  0.
         13    1    1    2    0    0 -0.17279686539E+02 -0.34988566104E+00  0.44357498125E+02  0.47605764260E+02  0.10566000000E+00 0.  1.
        994    1    1    2    0    0  0.19666346690E+02  0.50544355504E+01  0.45523802792E+01  0.17246007270E+03  0.17120000000E+03 0.  0.
        998    1    1    2    0    0 -0.23866601510E+01 -0.47045498893E+01  0.14510901179E+04  0.14511341630E+04  0.10000000000E+02 0.  1.
</event>
<event>
 5    1  0.7732857E-009  0.3857692E+03  0.7957747E-01  0.3426416E+00
         13   -1    0    0    0    0  0.00000000000E+00  0.00000000000E+00  0.14999999963E+04  0.15000000000E+04  0.10566000000E+00 0. -1.
        994   -1    0    0    0    0 -0.00000000000E+00 -0.00000000000E+00  0.11368683772E-12  0.17120000000E+03  0.17120000000E+03 0.  0.
         13    1    1    2    0    0 -0.71981186003E+01  0.99161331579E+01  0.60438525681E+02  0.61668218385E+02  0.10566000000E+00 0. -1.
        994    1    1    2    0    0  0.56565260897E+01 -0.65356510196E+01  0.14938249310E+01  0.17142456806E+03  0.17120000000E+03 0.  0.
        998    1    1    2    0    0  0.15415925106E+01 -0.33804821383E+01  0.14380676457E+04  0.14381072136E+04  0.10000000000E+02 0. -1.
</event>
<event>
 5    1  0.7732857E-009  0.3826450E+03  0.7957747E-01  0.3439722E+00
         13   -1    0    0    0    0  0.00000000000E+00  0.00000000000E+00  0.14999999963E+04  0.15000000000E+04  0.10566000000E+00 0. -1.
        994   -1    0    0    0    0 -0.00000000000E+00 -0.00000000000E+00  0.11368683772E-12  0.17120000000E+03  0.17120000000E+03 0.  0.
         13    1    1    2    0    0 -0.16557046783E+02  0.53218568757E+01  0.51541299923E+02  0.54396458713E+02  0.10566000000E+00 0. -1.
        994    1    1    2    0    0  0.17017590534E+02 -0.55739382135E+01  0.38672792070E+01  0.17217741729E+03  0.17120000000E+03 0.  0.
        998    1    1    2    0    0 -0.46054375080E+00  0.25208133784E+00  0.14445914171E+04  0.14446261240E+04  0.10000000000E+02 0.  0.
</event>
<event>
 5    1  0.7732857E-009  0.3814714E+03  0.7957747E-01  0.3444777E+00
         13   -1    0    0    0    0  0.00000000000E+00  0.00000000000E+00  0.14999999963E+04  0.15000000000E+04  0.10566000000E+00 0.  1.
        994   -1    0    0    0    0 -0.00000000000E+00 -0.00000000000E+00  0.11368683772E-12  0.17120000000E+03  0.17120000000E+03 0.  0.
         13    1    1    2    0    0 -0.12198986632E+02  0.16628412790E+02  0.60677562953E+02  0.64086638207E+02  0.10566000000E+00 0.  1.
        994    1    1    2    0    0  0.78894813646E+01 -0.14534921498E+02  0.43026621449E+01  0.17205075054E+03  0.17120000000E+03 0.  0.
        998    1    1    2    0    0  0.43095052676E+01 -0.20934912922E+01  0.14350197712E+04  0.14350626113E+04  0.10000000000E+02 0.  1.
</event>
<event>
 5    1  0.7732857E-009  0.3848779E+03  0.7957747E-01  0.3430190E+00
         13   -1    0    0    0    0  0.00000000000E+00  0.00000000000E+00  0.14999999963E+04  0.15000000000E+04  0.10566000000E+00 0. -1.
        994   -1    0    0    0    0 -0.00000000000E+00 -0.00000000000E+00  0.11368683772E-12  0.17120000000E+03  0.17120000000E+03 0.  0.
         13    1    1    2    0    0  0.25424419980E+01  0.11394655489E+02  0.35433269830E+02  0.37307237367E+02  0.10566000000E+00 0. -1.
        994    1    1    2    0    0 -0.59928555924E+02 -0.23951794296E+02  0.15515957802E+02  0.18361727917E+03  0.17120000000E+03 0.  0.
        998    1    1    2    0    0  0.57386113926E+02  0.12557138808E+02  0.14490507686E+04  0.14502754835E+04  0.10000000000E+02 0. -1.
</event>
<event>
 5    1  0.7732857E-009  0.3850595E+03  0.7957747E-01  0.3429420E+00
         13   -1    0    0    0    0  0.00000000000E+00  0.00000000000E+00  0.14999999963E+04  0.15000000000E+04  0.10566000000E+00 0.  1.
        994   -1    0    0    0    0 -0.00000000000E+00 -0.00000000000E+00  0.11368683772E-12  0.17120000000E+03  0.17120000000E+03 0.  0.
         13    1    1    2    0    0  0.12816666563E+02  0.11420615711E+02  0.87302531159E+02  0.88974381233E+02  0.10566000000E+00 0.  1.
        994    1    1    2    0    0 -0.20746051065E+02 -0.46923776417E+01  0.30895900129E+01  0.17254391502E+03  0.17120000000E+03 0.  0.
        998    1    1    2    0    0  0.79293845016E+01 -0.67282380692E+01  0.14096078751E+04  0.14096817038E+04  0.10000000000E+02 0.  1.
</event>
<event>
 5    1  0.7732857E-009  0.3855739E+03  0.7957747E-01  0.3427242E+00
         13   -1    0    0    0    0  0.00000000000E+00  0.00000000000E+00  0.14999999963E+04  0.15000000000E+04  0.10566000000E+00 0.  1.
        994   -1    0    0    0    0 -0.00000000000E+00 -0.00000000000E+00  0.11368683772E-12  0.17120000000E+03  0.17120000000E+03 0.  0.
         13    1    1    2    0    0  0.90880260340E+01 -0.10604553376E+02  0.77163523180E+02  0.78417276433E+02  0.10566000000E+00 0.  1.
        994    1    1    2    0    0 -0.10450379522E+02 -0.63166168932E+01  0.18350727917E+01  0.17164474234E+03  0.17120000000E+03 0.  0.
        998    1    1    2    0    0  0.13623534881E+01  0.16921170270E+02  0.14210014003E+04  0.14211379812E+04  0.10000000000E+02 0.  1.
</event>
<event>
 5    1  0.7732857E-009  0.3765568E+03  0.7957747E-01  0.3466289E+00
         13   -1    0    0    0    0  0.00000000000E+00  0.00000000000E+00  0.14999999963E+04  0.15000000000E+04  0.10566000000E+00 0.  1.
        994   -1    0    0    0    0 -0.00000000000E+00 -0.00000000000E+00  0.11368683772E-12  0.17120000000E+03  0.17120000000E+03 0.  0.
         13    1    1    2    0    0  0.51912632977E+02 -0.30090547983E+02  0.33678155747E+03  0.34208506421E+03  0.10566000000E+00 0.  1.
        994    1    1    2    0    0 -0.10313061070E+02  0.28405147328E+02  0.89755956361E+01  0.17407818054E+03  0.17120000000E+03 0.  0.
        998    1    1    2    0    0 -0.41599571907E+02  0.16854006549E+01  0.11542428432E+04  0.11550367553E+04  0.10000000000E+02 0.  1.
</event>
<event>
 5    1  0.7732857E-009  0.3784815E+03  0.7957747E-01  0.3457797E+00
         13   -1    0    0    0    0  0.00000000000E+00  0.00000000000E+00  0.14999999963E+04  0.15000000000E+04  0.10566000000E+00 0. -1.
        994   -1    0    0    0    0 -0.00000000000E+00 -0.00000000000E+00  0.11368683772E-12  0.17120000000E+03  0.17120000000E+03 0.  0.
         13    1    1    2    0    0 -0.34515935563E+02  0.21568862090E+02  0.17494032270E+03  0.17961262007E+03  0.10566000000E+00 0. -1.
        994    1    1    2    0    0  0.99852967872E+01 -0.15738374141E+02  0.60697237605E+01  0.17231855419E+03  0.17120000000E+03 0.  0.
        998    1    1    2    0    0  0.24530638776E+02 -0.58304879492E+01  0.13189899498E+04  0.13192688257E+04  0.10000000000E+02 0. -1.
</event>
<event>
 5    1  0.7732857E-009  0.3826164E+03  0.7957747E-01  0.3439845E+00
         13   -1    0    0    0    0  0.00000000000E+00  0.00000000000E+00  0.14999999963E+04  0.15000000000E+04  0.10566000000E+00 0. -1.
        994   -1    0    0    0    0 -0.00000000000E+00 -0.00000000000E+00  0.11368683772E-12  0.17120000000E+03  0.17120000000E+03 0.  0.
         13    1    1    2    0    0  0.89931309727E+01 -0.13677850493E+02  0.45785264095E+02  0.48623672949E+02  0.10566000000E+00 0. -1.
        994    1    1    2    0    0 -0.47994560411E+01  0.15029894311E+02  0.36436573268E+01  0.17196409143E+03  0.17120000000E+03 0.  0.
        998    1    1    2    0    0 -0.41936749316E+01 -0.13520438175E+01  0.14505710749E+04  0.14506122356E+04  0.10000000000E+02 0. -1.
</event>
<event>
 5    1  0.7732857E-009  0.3823785E+03  0.7957747E-01  0.3440867E+00
         13   -1    0    0    0    0  0.00000000000E+00  0.00000000000E+00  0.14999999963E+04  0.15000000000E+04  0.10566000000E+00 0.  1.
        994   -1    0    0    0    0 -0.00000000000E+00 -0.00000000000E+00  0.11368683772E-12  0.17120000000E+03  0.17120000000E+03 0.  0.
         13    1    1    2    0    0 -0.69439095320E+01 -0.82726299532E+01  0.18782870508E+02  0.21667064280E+02  0.10566000000E+00 0.  1.
        994    1    1    2    0    0  0.24507507668E+01  0.60380387348E+01  0.30781581588E+01  0.17135162430E+03  0.17120000000E+03 0.  0.
        998    1    1    2    0    0  0.44931587652E+01  0.22345912184E+01  0.14781389676E+04  0.14781813114E+04  0.10000000000E+02 0.  1.
</event>
<event>
 5    1  0.7732857E-009  0.3832774E+03  0.7957747E-01  0.3437011E+00
         13   -1    0    0    0    0  0.00000000000E+00  0.00000000000E+00  0.14999999963E+04  0.15000000000E+04  0.10566000000E+00 0.  1.
        994   -1    0    0    0    0 -0.00000000000E+00 -0.00000000000E+00  0.11368683772E-12  0.17120000000E+03  0.17120000000E+03 0.  0.
         13    1    1    2    0    0 -0.91721873743E+01 -0.53714759481E+01  0.20648562854E+02  0.23224041144E+02  0.10566000000E+00 0.  1.
        994    1    1    2    0    0  0.32506452933E+02 -0.67474109252E+01  0.61414665977E+01  0.17449743450E+03  0.17120000000E+03 0.  0.
        998    1    1    2    0    0 -0.23334265559E+02  0.12118886873E+02  0.14732099668E+04  0.14734785244E+04  0.10000000000E+02 0.  1.
</event>
<event>
 5    1  0.7732857E-009  0.3854078E+03  0.7957747E-01  0.3427944E+00
         13   -1    0    0    0    0  0.00000000000E+00  0.00000000000E+00  0.14999999963E+04  0.15000000000E+04  0.10566000000E+00 0. -1.
        994   -1    0    0    0    0 -0.00000000000E+00 -0.00000000000E+00  0.11368683772E-12  0.17120000000E+03  0.17120000000E+03 0.  0.
         13    1    1    2    0    0 -0.87661964213E+01 -0.98022482317E+01  0.58617131331E+02  0.60074200116E+02  0.10566000000E+00 0. -1.
        994    1    1    2    0    0  0.40038654268E+01  0.15939814173E+02  0.23154217032E+01  0.17200264472E+03  0.17120000000E+03 0.  0.
        998    1    1    2    0    0  0.47623309945E+01 -0.61375659415E+01  0.14390674432E+04  0.14391231552E+04  0.10000000000E+02 0. -1.
</event>
<event>
 5    1  0.7732857E-009  0.4149553E+03  0.7957747E-01  0.3311783E+00
         13   -1    0    0    0    0  0.00000000000E+00  0.00000000000E+00  0.14999999963E+04  0.15000000000E+04  0.10566000000E+00 0. -1.
        994   -1    0    0    0    0 -0.00000000000E+00 -0.00000000000E+00  0.11368683772E-12  0.17120000000E+03  0.17120000000E+03 0.  0.
         13    1    1    2    0    0  0.23285395716E+02  0.27088376810E+02  0.20911592895E+01  0.35782312992E+02  0.10566000000E+00 0. -1.
        994    1    1    2    0    0 -0.27054335270E+02 -0.27842948103E+02  0.43350636134E+02  0.18082003337E+03  0.17120000000E+03 0.  0.
        998    1    1    2    0    0  0.37689395547E+01  0.75457129321E+00  0.14545582009E+04  0.14545976536E+04  0.10000000000E+02 0. -1.
</event>
<event>
 5    1  0.7732857E-009  0.3754282E+03  0.7957747E-01  0.3471310E+00
         13   -1    0    0    0    0  0.00000000000E+00  0.00000000000E+00  0.14999999963E+04  0.15000000000E+04  0.10566000000E+00 0.  1.
        994   -1    0    0    0    0 -0.00000000000E+00 -0.00000000000E+00  0.11368683772E-12  0.17120000000E+03  0.17120000000E+03 0.  0.
         13    1    1    2    0    0 -0.65373199095E+01 -0.18144927694E+02  0.72006990731E+01  0.20587282089E+02  0.10566000000E+00 0.  1.
        994    1    1    2    0    0  0.40960587970E+01  0.19345795048E+02  0.15233111029E+02  0.17301018801E+03  0.17120000000E+03 0.  0.
        998    1    1    2    0    0  0.24412611125E+01 -0.12008673540E+01  0.14775661862E+04  0.14776025299E+04  0.10000000000E+02 0.  1.
</event>
<event>
 5    1  0.7732857E-009  0.3760014E+03  0.7957747E-01  0.3468756E+00
         13   -1    0    0    0    0  0.00000000000E+00  0.00000000000E+00  0.14999999963E+04  0.15000000000E+04  0.10566000000E+00 0. -1.
        994   -1    0    0    0    0 -0.00000000000E+00 -0.00000000000E+00  0.11368683772E-12  0.17120000000E+03  0.17120000000E+03 0.  0.
         13    1    1    2    0    0 -0.65430171421E+02  0.65607879653E+02  0.25429264891E+03  0.27064785915E+03  0.10566000000E+00 0. -1.
        994    1    1    2    0    0  0.58431194701E+02 -0.65072985046E+02  0.41995707993E+02  0.19677849828E+03  0.17120000000E+03 0.  0.
        998    1    1    2    0    0  0.69989767197E+01 -0.53489460667E+00  0.12037116394E+04  0.12037736426E+04  0.10000000000E+02 0. -1.
</event>
<event>
 5    1  0.7732857E-009  0.3793146E+03  0.7957747E-01  0.3454148E+00
         13   -1    0    0    0    0  0.00000000000E+00  0.00000000000E+00  0.14999999963E+04  0.15000000000E+04  0.10566000000E+00 0. -1.
        994   -1    0    0    0    0 -0.00000000000E+00 -0.00000000000E+00  0.11368683772E-12  0.17120000000E+03  0.17120000000E+03 0.  0.
         13    1    1    2    0    0  0.15620210392E+01 -0.17925534432E+02  0.35130584781E+02  0.39470670700E+02  0.10566000000E+00 0. -1.
        994    1    1    2    0    0  0.24452200499E+01  0.54436622244E+01  0.45988599434E+01  0.17136569689E+03  0.17120000000E+03 0.  0.
        998    1    1    2    0    0 -0.40072410892E+01  0.12481872208E+02  0.14602705516E+04  0.14603636324E+04  0.10000000000E+02 0. -1.
</event>
<event>
 5    1  0.7732857E-009  0.3812430E+03  0.7957747E-01  0.3445764E+00
         13   -1    0    0    0    0  0.00000000000E+00  0.00000000000E+00  0.14999999963E+04  0.15000000000E+04  0.10566000000E+00 0. -1.
        994   -1    0    0    0    0 -0.00000000000E+00 -0.00000000000E+00  0.11368683772E-12  0.17120000000E+03  0.17120000000E+03 0.  0.
         13    1    1    2    0    0 -0.11762215797E+02 -0.46971207933E+01  0.22127982143E+02  0.25496498230E+02  0.10566000000E+00 0. -1.
        994    1    1    2    0    0  0.18112054060E+01 -0.90534101833E+01  0.37908329285E+01  0.17149068521E+03  0.17120000000E+03 0.  0.
        998    1    1    2    0    0  0.99510103913E+01  0.13750530977E+02  0.14740811812E+04  0.14742128166E+04  0.10000000000E+02 0. -1.
</event>
<event>
 5    1  0.7732857E-009  0.3722430E+03  0.7957747E-01  0.3485646E+00
         13   -1    0    0    0    0  0.00000000000E+00  0.00000000000E+00  0.14999999963E+04  0.15000000000E+04  0.10566000000E+00 0. -1.
        994   -1    0    0    0    0 -0.00000000000E+00 -0.00000000000E+00  0.11368683772E-12  0.17120000000E+03  0.17120000000E+03 0.  0.
         13    1    1    2    0    0 -0.42802628849E+02  0.78856852786E+02  0.50581819637E+03  0.51371444131E+03  0.10566000000E+00 0. -1.
        994    1    1    2    0    0  0.17327041922E+02 -0.47019439930E+02  0.16766747016E+02  0.17916924379E+03  0.17120000000E+03 0.  0.
        998    1    1    2    0    0  0.25475586927E+02 -0.31837412856E+02  0.97741505289E+03  0.97831631490E+03  0.10000000000E+02 0. -1.
</event>
<event>
 5    1  0.7732857E-009  0.3835857E+03  0.7957747E-01  0.3435692E+00
         13   -1    0    0    0    0  0.00000000000E+00  0.00000000000E+00  0.14999999963E+04  0.15000000000E+04  0.10566000000E+00 0. -1.
        994   -1    0    0    0    0 -0.00000000000E+00 -0.00000000000E+00  0.11368683772E-12  0.17120000000E+03  0.17120000000E+03 0.  0.
         13    1    1    2    0    0  0.14645085345E+02 -0.99605955529E+01  0.70133138865E+02  0.72335055952E+02  0.10566000000E+00 0. -1.
        994    1    1    2    0    0  0.16680331769E+01  0.66601511173E+01  0.24896787982E+01  0.17135570737E+03  0.17120000000E+03 0.  0.
        998    1    1    2    0    0 -0.16313118522E+02  0.33004444357E+01  0.14273771786E+04  0.14275092367E+04  0.10000000000E+02 0. -1.
</event>
<event>
 5    1  0.7732857E-009  0.3846926E+03  0.7957747E-01  0.3430977E+00
         13   -1    0    0    0    0  0.00000000000E+00  0.00000000000E+00  0.14999999963E+04  0.15000000000E+04  0.10566000000E+00 0.  1.
        994   -1    0    0    0    0 -0.00000000000E+00 -0.00000000000E+00  0.11368683772E-12  0.17120000000E+03  0.17120000000E+03 0.  0.
         13    1    1    2    0    0  0.29044569441E+01  0.12382748837E+02  0.46319024915E+02  0.48033650414E+02  0.10566000000E+00 0.  1.
        994    1    1    2    0    0 -0.75211874749E+01 -0.19470567261E+01  0.19815601072E+01  0.17138764795E+03  0.17120000000E+03 0.  0.
        998    1    1    2    0    0  0.46167305308E+01 -0.10435692111E+02  0.14516994113E+04  0.14517787016E+04  0.10000000000E+02 0.  1.
</event>
<event>
 5    1  0.7732857E-009  0.3810502E+03  0.7957747E-01  0.3446598E+00
         13   -1    0    0    0    0  0.00000000000E+00  0.00000000000E+00  0.14999999963E+04  0.15000000000E+04  0.10566000000E+00 0. -1.
        994   -1    0    0    0    0 -0.00000000000E+00 -0.00000000000E+00  0.11368683772E-12  0.17120000000E+03  0.17120000000E+03 0.  0.
         13    1    1    2    0    0  0.17736863209E+02  0.10558804489E+02  0.56601827024E+02  0.60248341515E+02  0.10566000000E+00 0. -1.
        994    1    1    2    0    0 -0.16458560826E+02 -0.85124496729E+01  0.47485929806E+01  0.17226530457E+03  0.17120000000E+03 0.  0.
        998    1    1    2    0    0 -0.12783023835E+01 -0.20463548158E+01  0.14386495763E+04  0.14386863539E+04  0.10000000000E+02 0. -1.
</event>
<event>
 5    1  0.7732857E-009  0.3810216E+03  0.7957747E-01  0.3446722E+00
         13   -1    0    0    0    0  0.00000000000E+00  0.00000000000E+00  0.14999999963E+04  0.15000000000E+04  0.10566000000E+00 0. -1.
        994   -1    0    0    0    0 -0.00000000000E+00 -0.00000000000E+00  0.11368683772E-12  0.17120000000E+03  0.17120000000E+03 0.  0.
         13    1    1    2    0    0  0.10140718935E+02  0.56149103609E+02  0.32688566531E+03  0.33182797557E+03  0.10566000000E+00 0. -1.
        994    1    1    2    0    0 -0.16830501589E+02 -0.62480861625E+02  0.17696519085E+02  0.18387422506E+03  0.17120000000E+03 0.  0.
        998    1    1    2    0    0  0.66897826533E+01  0.63317580158E+01  0.11554178119E+04  0.11554977994E+04  0.10000000000E+02 0. -1.
</event>
<event>
 5    1  0.7732857E-009  0.3845076E+03  0.7957747E-01  0.3431763E+00
         13   -1    0    0    0    0  0.00000000000E+00  0.00000000000E+00  0.14999999963E+04  0.15000000000E+04  0.10566000000E+00 0. -1.
        994   -1    0    0    0    0 -0.00000000000E+00 -0.00000000000E+00  0.11368683772E-12  0.17120000000E+03  0.17120000000E+03 0.  0.
         13    1    1    2    0    0  0.11623622184E+02 -0.23793504423E+01  0.36475096214E+02  0.38356403756E+02  0.10566000000E+00 0. -1.
        994    1    1    2    0    0 -0.13193891208E+02 -0.30325483100E+01  0.24787113059E+01  0.17175231912E+03  0.17120000000E+03 0.  0.
        998    1    1    2    0    0  0.15702690239E+01  0.54118987524E+01  0.14610461888E+04  0.14610912771E+04  0.10000000000E+02 0. -1.
</event>
<event>
 5    1  0.7732857E-009  0.3856411E+03  0.7957747E-01  0.3426958E+00
         13   -1    0    0    0    0  0.00000000000E+00  0.00000000000E+00  0.14999999963E+04  0.15000000000E+04  0.10566000000E+00 0. -1.
        994   -1    0    0    0    0 -0.00000000000E+00 -0.00000000000E+00  0.11368683772E-12  0.17120000000E+03  0.17120000000E+03 0.  0.
         13    1    1    2    0    0 -0.10643695200E+02  0.32645253082E+01  0.46671035104E+02  0.47980642500E+02  0.10566000000E+00 0. -1.
        994    1    1    2    0    0  0.90105057698E+01 -0.64485969488E+01  0.17152256257E+01  0.17156676722E+03  0.17120000000E+03 0.  0.
        998    1    1    2    0    0  0.16331894302E+01  0.31840716405E+01  0.14516137355E+04  0.14516525903E+04  0.10000000000E+02 0. -1.
</event>
<event>
 5    1  0.7732857E-009  0.3847389E+03  0.7957747E-01  0.3430780E+00
         13   -1    0    0    0    0  0.00000000000E+00  0.00000000000E+00  0.14999999963E+04  0.15000000000E+04  0.10566000000E+00 0. -1.
        994   -1    0    0    0    0 -0.00000000000E+00 -0.00000000000E+00  0.11368683772E-12  0.17120000000E+03  0.17120000000E+03 0.  0.
         13    1    1    2    0    0 -0.70024861119E+01  0.88339830806E+01  0.36409636203E+02  0.38114916257E+02  0.10566000000E+00 0. -1.
        994    1    1    2    0    0 -0.58033297157E+01 -0.10034306036E+02  0.22021936693E+01  0.17160610592E+03  0.17120000000E+03 0.  0.
        998    1    1    2    0    0  0.12805815828E+02  0.12003229557E+01  0.14613881664E+04  0.14614789778E+04  0.10000000000E+02 0. -1.
</event>
<event>
 5    1  0.7732857E-009  0.3748113E+03  0.7957747E-01  0.3474067E+00
         13   -1    0    0    0    0  0.00000000000E+00  0.00000000000E+00  0.14999999963E+04  0.15000000000E+04  0.10566000000E+00 0.  1.
        994   -1    0    0    0    0 -0.00000000000E+00 -0.00000000000E+00  0.11368683772E-12  0.17120000000E+03  0.17120000000E+03 0.  0.
         13    1    1    2    0    0  0.13994837411E+02  0.98138160386E+01  0.19011295231E+02  0.25565738201E+02  0.10566000000E+00 0.  1.
        994    1    1    2    0    0 -0.49361117265E+01  0.19072205917E+00  0.68586632398E+01  0.17140852615E+03  0.17120000000E+03 0.  0.
        998    1    1    2    0    0 -0.90587256847E+01 -0.10004538098E+02  0.14741300378E+04  0.14742257357E+04  0.10000000000E+02 0.  1.
</event>
<event>
 5    1  0.7732857E-009  0.3841306E+03  0.7957747E-01  0.3433368E+00
         13   -1    0    0    0    0  0.00000000000E+00  0.00000000000E+00  0.14999999963E+04  0.15000000000E+04  0.10566000000E+00 0.  1.
        994   -1    0    0    0    0 -0.00000000000E+00 -0.00000000000E+00  0.11368683772E-12  0.17120000000E+03  0.17120000000E+03 0.  0.
         13    1    1    2    0    0  0.15811383706E+02  0.63528919579E+01  0.80615615325E+02  0.82396891260E+02  0.10566000000E+00 0.  1.
        994    1    1    2    0    0  0.99544894459E+01  0.40556886575E+01  0.24435353235E+01  0.17155451418E+03  0.17120000000E+03 0.  0.
        998    1    1    2    0    0 -0.25765873152E+02 -0.10408580615E+02  0.14169408456E+04  0.14172485946E+04  0.10000000000E+02 0.  1.
</event>
<event>
 5    1  0.7732857E-009  0.3798150E+03  0.7957747E-01  0.3451964E+00
         13   -1    0    0    0    0  0.00000000000E+00  0.00000000000E+00  0.14999999963E+04  0.15000000000E+04  0.10566000000E+00 0. -1.
        994   -1    0    0    0    0 -0.00000000000E+00 -0.00000000000E+00  0.11368683772E-12  0.17120000000E+03  0.17120000000E+03 0.  0.
         13    1    1    2    0    0  0.24035623325E+02 -0.86473849731E+01  0.74798747211E+02  0.79040193597E+02  0.10566000000E+00 0. -1.
        994    1    1    2    0    0 -0.16238651035E+02  0.99314208614E+01  0.54394583157E+01  0.17234080949E+03  0.17120000000E+03 0.  0.
        998    1    1    2    0    0 -0.77969722899E+01 -0.12840358883E+01  0.14197617908E+04  0.14198189969E+04  0.10000000000E+02 0. -1.
</event>
<event>
 5    1  0.7732857E-009  0.3729492E+03  0.7957747E-01  0.3482446E+00
         13   -1    0    0    0    0  0.00000000000E+00  0.00000000000E+00  0.14999999963E+04  0.15000000000E+04  0.10566000000E+00 0.  1.
        994   -1    0    0    0    0 -0.00000000000E+00 -0.00000000000E+00  0.11368683772E-12  0.17120000000E+03  0.17120000000E+03 0.  0.
         13    1    1    2    0    0  0.71937228956E+02 -0.41835881023E+02  0.48374657372E+03  0.49085228389E+03  0.10566000000E+00 0.  1.
        994    1    1    2    0    0 -0.18990062795E+02  0.50786307607E+02  0.17866244082E+02  0.18046748794E+03  0.17120000000E+03 0.  0.
        998    1    1    2    0    0 -0.52947166160E+02 -0.89504265834E+01  0.99838717847E+03  0.99988022817E+03  0.10000000000E+02 0.  1.
</event>
<event>
 5    1  0.7732857E-009  0.3808491E+03  0.7957747E-01  0.3447469E+00
         13   -1    0    0    0    0  0.00000000000E+00  0.00000000000E+00  0.14999999963E+04  0.15000000000E+04  0.10566000000E+00 0.  1.
        994   -1    0    0    0    0 -0.00000000000E+00 -0.00000000000E+00  0.11368683772E-12  0.17120000000E+03  0.17120000000E+03 0.  0.
         13    1    1    2    0    0  0.31899009825E+02  0.28450349993E+02  0.25800245658E+03  0.26151911595E+03  0.10566000000E+00 0.  1.
        994    1    1    2    0    0 -0.11042115009E+02 -0.16063368610E+02  0.49727570183E+01  0.17237786525E+03  0.17120000000E+03 0.  0.
        998    1    1    2    0    0 -0.20856894816E+02 -0.12386981382E+02  0.12370247827E+04  0.12373030188E+04  0.10000000000E+02 0.  1.
</event>
<event>
 5    1  0.7732857E-009  0.3803416E+03  0.7957747E-01  0.3449672E+00
         13   -1    0    0    0    0  0.00000000000E+00  0.00000000000E+00  0.14999999963E+04  0.15000000000E+04  0.10566000000E+00 0. -1.
        994   -1    0    0    0    0 -0.00000000000E+00 -0.00000000000E+00  0.11368683772E-12  0.17120000000E+03  0.17120000000E+03 0.  0.
         13    1    1    2    0    0  0.10101292130E+02 -0.11448836941E+02  0.28077574155E+02  0.31960495998E+02  0.10566000000E+00 0. -1.
        994    1    1    2    0    0 -0.70828409342E+01  0.41744409422E+01  0.41865304435E+01  0.17144841682E+03  0.17120000000E+03 0.  0.
        998    1    1    2    0    0 -0.30184511955E+01  0.72743959985E+01  0.14677358917E+04  0.14677910872E+04  0.10000000000E+02 0. -1.
</event>
<event>
 5    1  0.7732857E-009  0.3792606E+03  0.7957747E-01  0.3454384E+00
         13   -1    0    0    0    0  0.00000000000E+00  0.00000000000E+00  0.14999999963E+04  0.15000000000E+04  0.10566000000E+00 0.  1.
        994   -1    0    0    0    0 -0.00000000000E+00 -0.00000000000E+00  0.11368683772E-12  0.17120000000E+03  0.17120000000E+03 0.  0.
         13    1    1    2    0    0 -0.10231498781E+02 -0.39046812747E+01  0.12096814887E+02  0.16317910333E+02  0.10566000000E+00 0.  1.
        994    1    1    2    0    0 -0.74893563499E+01 -0.42309723406E+02  0.10718661957E+02  0.17683476148E+03  0.17120000000E+03 0.  0.
        998    1    1    2    0    0  0.17720855131E+02  0.46214404681E+02  0.14771845194E+04  0.14780473282E+04  0.10000000000E+02 0.  1.
</event>
<event>
 5    1  0.7732857E-009  0.3807255E+03  0.7957747E-01  0.3448006E+00
         13   -1    0    0    0    0  0.00000000000E+00  0.00000000000E+00  0.14999999963E+04  0.15000000000E+04  0.10566000000E+00 0.  1.
        994   -1    0    0    0    0 -0.00000000000E+00 -0.00000000000E+00  0.11368683772E-12  0.17120000000E+03  0.17120000000E+03 0.  0.
         13    1    1    2    0    0  0.20533501394E+02 -0.94570653374E+00  0.51991457517E+02  0.55907440105E+02  0.10566000000E+00 0.  1.
        994    1    1    2    0    0 -0.26353220169E+02 -0.12604085554E+01  0.60922022163E+01  0.17332811593E+03  0.17120000000E+03 0.  0.
        998    1    1    2    0    0  0.58197187744E+01  0.22061150891E+01  0.14419163365E+04  0.14419644440E+04  0.10000000000E+02 0.  1.
</event>
<event>
 5    1  0.7732857E-009  0.3848761E+03  0.7957747E-01  0.3430198E+00
         13   -1    0    0    0    0  0.00000000000E+00  0.00000000000E+00  0.14999999963E+04  0.15000000000E+04  0.10566000000E+00 0.  1.
        994   -1    0    0    0    0 -0.00000000000E+00 -0.00000000000E+00  0.11368683772E-12  0.17120000000E+03  0.17120000000E+03 0.  0.
         13    1    1    2    0    0 -0.71898795656E+01  0.10134743669E+02  0.46605373028E+02  0.48233591579E+02  0.10566000000E+00 0.  1.
        994    1    1    2    0    0 -0.25078574522E+02 -0.23732787425E+02  0.56237954683E+01  0.17473765242E+03  0.17120000000E+03 0.  0.
        998    1    1    2    0    0  0.32268454087E+02  0.13598043756E+02  0.14477708278E+04  0.14482287560E+04  0.10000000000E+02 0.  1.
</event>
<event>
 5    1  0.7732857E-009  0.3746829E+03  0.7957747E-01  0.3474642E+00
         13   -1    0    0    0    0  0.00000000000E+00  0.00000000000E+00  0.14999999963E+04  0.15000000000E+04  0.10566000000E+00 0. -1.
        994   -1    0    0    0    0 -0.00000000000E+00 -0.00000000000E+00  0.11368683772E-12  0.17120000000E+03  0.17120000000E+03 0.  0.
         13    1    1    2    0    0  0.28230620351E+02  0.48607930471E+02  0.18934111313E+03  0.19750890389E+03  0.10566000000E+00 0. -1.
        994    1    1    2    0    0 -0.31335635392E+02 -0.58280301539E+02  0.21890158974E+02  0.18484354101E+03  0.17120000000E+03 0.  0.
        998    1    1    2    0    0  0.31050150417E+01  0.96723710677E+01  0.12887687242E+04  0.12888475551E+04  0.10000000000E+02 0. -1.
</event>
<event>
 5    1  0.7732857E-009  0.3849755E+03  0.7957747E-01  0.3429776E+00
         13   -1    0    0    0    0  0.00000000000E+00  0.00000000000E+00  0.14999999963E+04  0.15000000000E+04  0.10566000000E+00 0. -1.
        994   -1    0    0    0    0 -0.00000000000E+00 -0.00000000000E+00  0.11368683772E-12  0.17120000000E+03  0.17120000000E+03 0.  0.
         13    1    1    2    0    0 -0.11379062392E+02 -0.52971807177E+01  0.47438004379E+02  0.49070547255E+02  0.10566000000E+00 0. -1.
        994    1    1    2    0    0  0.96039087805E+01  0.33797890632E+01  0.19833008077E+01  0.17151393973E+03  0.17120000000E+03 0.  0.
        998    1    1    2    0    0  0.17751536119E+01  0.19173916545E+01  0.14505786911E+04  0.14506155130E+04  0.10000000000E+02 0. -1.
</event>
<event>
 5    1  0.7732857E-009  0.3787056E+03  0.7957747E-01  0.3456814E+00
         13   -1    0    0    0    0  0.00000000000E+00  0.00000000000E+00  0.14999999963E+04  0.15000000000E+04  0.10566000000E+00 0. -1.
        994   -1    0    0    0    0 -0.00000000000E+00 -0.00000000000E+00  0.11368683772E-12  0.17120000000E+03  0.17120000000E+03 0.  0.
         13    1    1    2    0    0  0.28765986714E+02  0.95480559396E+02  0.25443821706E+03  0.27328160692E+03  0.10566000000E+00 0. -1.
        994    1    1    2    0    0 -0.46717707913E+02 -0.92994949426E+02  0.55798125801E+02  0.20797469965E+03  0.17120000000E+03 0.  0.
        998    1    1    2    0    0  0.17951721199E+02 -0.24856099698E+01  0.11897636534E+04  0.11899436934E+04  0.10000000000E+02 0. -1.
</event>
<event>
 5    1  0.7732857E-009  0.3820178E+03  0.7957747E-01  0.3442419E+00
         13   -1    0    0    0    0  0.00000000000E+00  0.00000000000E+00  0.14999999963E+04  0.15000000000E+04  0.10566000000E+00 0. -1.
        994   -1    0    0    0    0 -0.00000000000E+00 -0.00000000000E+00  0.11368683772E-12  0.17120000000E+03  0.17120000000E+03 0.  0.
         13    1    1    2    0    0 -0.14281805431E+02  0.59076025370E+01  0.37179973730E+02  0.40264517192E+02  0.10566000000E+00 0. -1.
        994    1    1    2    0    0  0.12307123866E+02  0.22345657222E+01  0.36377366311E+01  0.17169487968E+03  0.17120000000E+03 0.  0.
        998    1    1    2    0    0  0.19746815652E+01 -0.81421682593E+01  0.14591822859E+04  0.14592406031E+04  0.10000000000E+02 0. -1.
</event>
<event>
 5    1  0.7732857E-009  0.3738592E+03  0.7957747E-01  0.3478341E+00
         13   -1    0    0    0    0  0.00000000000E+00  0.00000000000E+00  0.14999999963E+04  0.15000000000E+04  0.10566000000E+00 0. -1.
        994   -1    0    0    0    0 -0.00000000000E+00 -0.00000000000E+00  0.11368683772E-12  0.17120000000E+03  0.17120000000E+03 0.  0.
         13    1    1    2    0    0  0.33090986375E+01 -0.49725249402E+02  0.16145992405E+03  0.16897594148E+03  0.10566000000E+00 0. -1.
        994    1    1    2    0    0 -0.38309426440E+02  0.36129092526E+02  0.16787542215E+02  0.17990048653E+03  0.17120000000E+03 0.  0.
        998    1    1    2    0    0  0.35000327803E+02  0.13596156876E+02  0.13217525300E+04  0.13223235720E+04  0.10000000000E+02 0. -1.
</event>
<event>
 5    1  0.7732857E-009  0.3697762E+03  0.7957747E-01  0.3496920E+00
         13   -1    0    0    0    0  0.00000000000E+00  0.00000000000E+00  0.14999999963E+04  0.15000000000E+04  0.10566000000E+00 0.  1.
        994   -1    0    0    0    0 -0.00000000000E+00 -0.00000000000E+00  0.11368683772E-12  0.17120000000E+03  0.17120000000E+03 0.  0.
         13    1    1    2    0    0 -0.19583995584E+02  0.39718930575E+02  0.95975949006E+02  0.10570014324E+03  0.10566000000E+00 0.  1.
        994    1    1    2    0    0  0.26021248825E+02  0.13281161486E+02  0.13807745681E+02  0.17422281275E+03  0.17120000000E+03 0.  0.
        998    1    1    2    0    0 -0.64372532411E+01 -0.53000092061E+02  0.13902163016E+04  0.13912770440E+04  0.10000000000E+02 0.  1.
</event>
<event>
 5    1  0.7732857E-009  0.3701146E+03  0.7957747E-01  0.3495364E+00
         13   -1    0    0    0    0  0.00000000000E+00  0.00000000000E+00  0.14999999963E+04  0.15000000000E+04  0.10566000000E+00 0.  1.
        994   -1    0    0    0    0 -0.00000000000E+00 -0.00000000000E+00  0.11368683772E-12  0.17120000000E+03  0.17120000000E+03 0.  0.
         13    1    1    2    0    0 -0.13486185777E+01  0.36677767955E+02  0.55439525644E+02  0.66487815439E+02  0.10566000000E+00 0.  1.
        994    1    1    2    0    0  0.29290391823E+02 -0.33547343628E+02  0.17968276946E+02  0.17780790279E+03  0.17120000000E+03 0.  0.
        998    1    1    2    0    0 -0.27941773245E+02 -0.31304243268E+01  0.14265921937E+04  0.14269042818E+04  0.10000000000E+02 0.  1.
</event>
<event>
 5    1  0.7732857E-009  0.3813314E+03  0.7957747E-01  0.3445382E+00
         13   -1    0    0    0    0  0.00000000000E+00  0.00000000000E+00  0.14999999963E+04  0.15000000000E+04  0.10566000000E+00 0.  1.
        994   -1    0    0    0    0 -0.00000000000E+00 -0.00000000000E+00  0.11368683772E-12  0.17120000000E+03  0.17120000000E+03 0.  0.
         13    1    1    2    0    0  0.34456276796E+02  0.10039611609E+02  0.17956851741E+03  0.18311988538E+03  0.10566000000E+00 0.  1.
        994    1    1    2    0    0 -0.24363571223E+02 -0.48661576449E+01  0.55196951539E+01  0.17308139740E+03  0.17120000000E+03 0.  0.
        998    1    1    2    0    0 -0.10092705573E+02 -0.51734539645E+01  0.13149117837E+04  0.13149987172E+04  0.10000000000E+02 0.  1.
</event>
<event>
 5    1  0.7732857E-009  0.3843823E+03  0.7957747E-01  0.3432296E+00
         13   -1    0    0    0    0  0.00000000000E+00  0.00000000000E+00  0.14999999963E+04  0.15000000000E+04  0.10566000000E+00 0. -1.
        994   -1    0    0    0    0 -0.00000000000E+00 -0.00000000000E+00  0.11368683772E-12  0.17120000000E+03  0.17120000000E+03 0.  0.
         13    1    1    2    0    0 -0.56841138005E+02 -0.14662911260E+03  0.45642363425E+03  0.48275620835E+03  0.10566000000E+00 0. -1.
        994    1    1    2    0    0  0.58883199893E+02  0.13514125786E+03  0.10394250646E+03  0.24868428872E+03  0.17120000000E+03 0.  0.
        998    1    1    2    0    0 -0.20420618875E+01  0.11487854743E+02  0.93963385557E+03  0.93975950294E+03  0.10000000000E+02 0. -1.
</event>
<event>
 5    1  0.7732857E-009  0.3847148E+03  0.7957747E-01  0.3430882E+00
         13   -1    0    0    0    0  0.00000000000E+00  0.00000000000E+00  0.14999999963E+04  0.15000000000E+04  0.10566000000E+00 0.  1.
        994   -1    0    0    0    0 -0.00000000000E+00 -0.00000000000E+00  0.11368683772E-12  0.17120000000E+03  0.17120000000E+03 0.  0.
         13    1    1    2    0    0  0.10369714918E+02  0.17258781663E+02  0.12011861082E+03  0.12179445128E+03  0.10566000000E+00 0.  1.
        994    1    1    2    0    0  0.11236758108E+01 -0.85406337948E+01  0.20160758945E+01  0.17142843882E+03  0.17120000000E+03 0.  0.
        998    1    1    2    0    0 -0.11493390729E+02 -0.87181478684E+01  0.13778653096E+04  0.13779771099E+04  0.10000000000E+02 0.  1.
</event>
<event>
 5    1  0.7732857E-009  0.3699258E+03  0.7957747E-01  0.3496232E+00
         13   -1    0    0    0    0  0.00000000000E+00  0.00000000000E+00  0.14999999963E+04  0.15000000000E+04  0.10566000000E+00 0. -1.
        994   -1    0    0    0    0 -0.00000000000E+00 -0.00000000000E+00  0.11368683772E-12  0.17120000000E+03  0.17120000000E+03 0.  0.
         13    1    1    2    0    0  0.58379469830E+02 -0.72091627459E+02  0.33693396639E+03  0.34947084874E+03  0.10566000000E+00 0. -1.
        994    1    1    2    0    0 -0.65689868633E+02  0.74010322948E+02  0.43981823804E+02  0.20257474563E+03  0.17120000000E+03 0.  0.
        998    1    1    2    0    0  0.73103988026E+01 -0.19186954893E+01  0.11190842061E+04  0.11191544056E+04  0.10000000000E+02 0. -1.
</event>
<event>
 5    1  0.7732857E-009  0.3767041E+03  0.7957747E-01  0.3465636E+00
         13   -1    0    0    0    0  0.00000000000E+00  0.00000000000E+00  0.14999999963E+04  0.15000000000E+04  0.10566000000E+00 0. -1.
        994   -1    0    0    0    0 -0.00000000000E+00 -0.00000000000E+00  0.11368683772E-12  0.17120000000E+03  0.17120000000E+03 0.  0.
         13    1    1    2    0    0 -0.11631519800E+03 -0.45692771177E+02  0.74377775841E+03  0.75420316871E+03  0.10566000000E+00 0. -1.
        994    1    1    2    0    0  0.10805386726E+03  0.43287463851E+02  0.53065970389E+02  0.21371682192E+03  0.17120000000E+03 0.  0.
        998    1    1    2    0    0  0.82613307387E+01  0.24053073267E+01  0.70315626748E+03  0.70328000937E+03  0.10000000000E+02 0.  0.
</event>
<event>
 5    1  0.7732857E-009  0.3836883E+03  0.7957747E-01  0.3435254E+00
         13   -1    0    0    0    0  0.00000000000E+00  0.00000000000E+00  0.14999999963E+04  0.15000000000E+04  0.10566000000E+00 0. -1.
        994   -1    0    0    0    0 -0.00000000000E+00 -0.00000000000E+00  0.11368683772E-12  0.17120000000E+03  0.17120000000E+03 0.  0.
         13    1    1    2    0    0 -0.10181948731E+02  0.62232650385E+01  0.30819881078E+02  0.33049619384E+02  0.10566000000E+00 0. -1.
        994    1    1    2    0    0  0.26471330206E+01 -0.62573352277E+01  0.24352469176E+01  0.17135207027E+03  0.17120000000E+03 0.  0.
        998    1    1    2    0    0  0.75348157101E+01  0.34070189194E-01  0.14667448683E+04  0.14667983103E+04  0.10000000000E+02 0. -1.
</event>
<event>
 5    1  0.7732857E-009  0.3841784E+03  0.7957747E-01  0.3433164E+00
         13   -1    0    0    0    0  0.00000000000E+00  0.00000000000E+00  0.14999999963E+04  0.15000000000E+04  0.10566000000E+00 0. -1.
        994   -1    0    0    0    0 -0.00000000000E+00 -0.00000000000E+00  0.11368683772E-12  0.17120000000E+03  0.17120000000E+03 0.  0.
         13    1    1    2    0    0  0.13280204444E+02 -0.42024042344E+01  0.47656779964E+02  0.49650819449E+02  0.10566000000E+00 0. -1.
        994    1    1    2    0    0 -0.66663612265E+01  0.28580990528E+01  0.22120769632E+01  0.17136785692E+03  0.17120000000E+03 0.  0.
        998    1    1    2    0    0 -0.66138432179E+01  0.13443051816E+01  0.14501311394E+04  0.14501813236E+04  0.10000000000E+02 0. -1.
</event>
<event>
 5    1  0.7732857E-009  0.3748355E+03  0.7957747E-01  0.3473959E+00
         13   -1    0    0    0    0  0.00000000000E+00  0.00000000000E+00  0.14999999963E+04  0.15000000000E+04  0.10566000000E+00 0.  1.
        994   -1    0    0    0    0 -0.00000000000E+00 -0.00000000000E+00  0.11368683772E-12  0.17120000000E+03  0.17120000000E+03 0.  0.
         13    1    1    2    0    0  0.50886380046E+02  0.15229509834E+02  0.19260397345E+03  0.19979405246E+03  0.10566000000E+00 0.  1.
        994    1    1    2    0    0 -0.39862155864E+02 -0.16067245231E+02  0.13071553222E+02  0.17699563086E+03  0.17120000000E+03 0.  0.
        998    1    1    2    0    0 -0.11024224182E+02  0.83773539620E+00  0.12943244696E+04  0.12944103167E+04  0.10000000000E+02 0.  1.
</event>
<event>
 5    1  0.7732857E-009  0.3738672E+03  0.7957747E-01  0.3478305E+00
         13   -1    0    0    0    0  0.00000000000E+00  0.00000000000E+00  0.14999999963E+04  0.15000000000E+04  0.10566000000E+00 0. -1.
        994   -1    0    0    0    0 -0.00000000000E+00 -0.00000000000E+00  0.11368683772E-12  0.17120000000E+03  0.17120000000E+03 0.  0.
         13    1    1    2    0    0 -0.36817748904E+02 -0.16284897310E+02  0.11081642173E+03  0.11790265054E+03  0.10566000000E+00 0. -1.
        994    1    1    2    0    0  0.71585396062E+01  0.36261891597E+02  0.11937570009E+02  0.17555089020E+03  0.17120000000E+03 0.  0.
        998    1    1    2    0    0  0.29659209297E+02 -0.19976994287E+02  0.13772460045E+04  0.13777464593E+04  0.10000000000E+02 0. -1.
</event>
<event>
 5    1  0.7732857E-009  0.3840419E+03  0.7957747E-01  0.3433746E+00
         13   -1    0    0    0    0  0.00000000000E+00  0.00000000000E+00  0.14999999963E+04  0.15000000000E+04  0.10566000000E+00 0.  1.
        994   -1    0    0    0    0 -0.00000000000E+00 -0.00000000000E+00  0.11368683772E-12  0.17120000000E+03  0.17120000000E+03 0.  0.
         13    1    1    2    0    0  0.82979466323E+01 -0.84537624885E+01  0.32288789925E+02  0.34393300763E+02  0.10566000000E+00 0.  1.
        994    1    1    2    0    0 -0.10164081881E+02  0.62055520405E+01  0.25745436605E+01  0.17163299715E+03  0.17120000000E+03 0.  0.
        998    1    1    2    0    0  0.18661352484E+01  0.22482104480E+01  0.14651366627E+04  0.14651737021E+04  0.10000000000E+02 0.  1.
</event>
<event>
 5    1  0.7732857E-009  0.3818405E+03  0.7957747E-01  0.3443184E+00
         13   -1    0    0    0    0  0.00000000000E+00  0.00000000000E+00  0.14999999963E+04  0.15000000000E+04  0.10566000000E+00 0. -1.
        994   -1    0    0    0    0 -0.00000000000E+00 -0.00000000000E+00  0.11368683772E-12  0.17120000000E+03  0.17120000000E+03 0.  0.
         13    1    1    2    0    0 -0.27420038948E+01  0.10218670100E+02  0.16100448078E+02  0.19265912808E+02  0.10566000000E+00 0. -1.
        994    1    1    2    0    0  0.37702475094E+01 -0.76695380819E+01  0.34496694169E+01  0.17144788363E+03  0.17120000000E+03 0.  0.
        998    1    1    2    0    0 -0.10282436146E+01 -0.25491320186E+01  0.14804498788E+04  0.14804862036E+04  0.10000000000E+02 0. -1.
</event>
<event>
 5    1  0.7732857E-009  0.3776133E+03  0.7957747E-01  0.3461617E+00
         13   -1    0    0    0    0  0.00000000000E+00  0.00000000000E+00  0.14999999963E+04  0.15000000000E+04  0.10566000000E+00 0.  1.
        994   -1    0    0    0    0 -0.00000000000E+00 -0.00000000000E+00  0.11368683772E-12  0.17120000000E+03  0.17120000000E+03 0.  0.
         13    1    1    2    0    0  0.15202502158E+02 -0.37075238431E+01  0.20245213935E+02  0.25587920123E+02  0.10566000000E+00 0.  1.
        994    1    1    2    0    0 -0.17539745793E+02  0.68017980065E+01  0.65362326088E+01  0.17235448783E+03  0.17120000000E+03 0.  0.
        998    1    1    2    0    0  0.23372436356E+01 -0.30942741633E+01  0.14732185497E+04  0.14732575920E+04  0.10000000000E+02 0.  1.
</event>
<event>
 5    1  0.7732857E-009  0.3842828E+03  0.7957747E-01  0.3432720E+00
         13   -1    0    0    0    0  0.00000000000E+00  0.00000000000E+00  0.14999999963E+04  0.15000000000E+04  0.10566000000E+00 0. -1.
        994   -1    0    0    0    0 -0.00000000000E+00 -0.00000000000E+00  0.11368683772E-12  0.17120000000E+03  0.17120000000E+03 0.  0.
         13    1    1    2    0    0  0.12475746270E+02 -0.11619128458E+02  0.72092359031E+02  0.74080819284E+02  0.10566000000E+00 0. -1.
        994    1    1    2    0    0 -0.20018001347E+01  0.16751099622E+02  0.29253499640E+01  0.17205407352E+03  0.17120000000E+03 0.  0.
        998    1    1    2    0    0 -0.10473946136E+02 -0.51319711639E+01  0.14249822873E+04  0.14250651072E+04  0.10000000000E+02 0. -1.
</event>
<event>
 5    1  0.7732857E-009  0.3846335E+03  0.7957747E-01  0.3431228E+00
         13   -1    0    0    0    0  0.00000000000E+00  0.00000000000E+00  0.14999999963E+04  0.15000000000E+04  0.10566000000E+00 0.  1.
        994   -1    0    0    0    0 -0.00000000000E+00 -0.00000000000E+00  0.11368683772E-12  0.17120000000E+03  0.17120000000E+03 0.  0.
         13    1    1    2    0    0 -0.36924365653E+00 -0.10523461548E+02  0.32054782313E+02  0.33740181046E+02  0.10566000000E+00 0.  1.
        994    1    1    2    0    0 -0.25335511949E+01 -0.61963248022E+01  0.19597534614E+01  0.17134203791E+03  0.17120000000E+03 0.  0.
        998    1    1    2    0    0  0.29027948514E+01  0.16719786351E+02  0.14659854605E+04  0.14661177810E+04  0.10000000000E+02 0.  1.
</event>
<event>
 5    1  0.7732857E-009  0.3849771E+03  0.7957747E-01  0.3429769E+00
         13   -1    0    0    0    0  0.00000000000E+00  0.00000000000E+00  0.14999999963E+04  0.15000000000E+04  0.10566000000E+00 0. -1.
        994   -1    0    0    0    0 -0.00000000000E+00 -0.00000000000E+00  0.11368683772E-12  0.17120000000E+03  0.17120000000E+03 0.  0.
         13    1    1    2    0    0 -0.12826459364E+02 -0.10901797464E+02  0.80880359695E+02  0.82613624761E+02  0.10566000000E+00 0. -1.
        994    1    1    2    0    0  0.17390925623E+02  0.10931779965E+02  0.30304760525E+01  0.17245455022E+03  0.17120000000E+03 0.  0.
        998    1    1    2    0    0 -0.45644662586E+01 -0.29982501033E-01  0.14160891605E+04  0.14161318250E+04  0.10000000000E+02 0. -1.
</event>
<event>
 5    1  0.7732857E-009  0.3845397E+03  0.7957747E-01  0.3431627E+00
         13   -1    0    0    0    0  0.00000000000E+00  0.00000000000E+00  0.14999999963E+04  0.15000000000E+04  0.10566000000E+00 0.  1.
        994   -1    0    0    0    0 -0.00000000000E+00 -0.00000000000E+00  0.11368683772E-12  0.17120000000E+03  0.17120000000E+03 0.  0.
         13    1    1    2    0    0  0.11145047190E+02  0.57491383970E+01  0.41627258979E+02  0.43475332354E+02  0.10566000000E+00 0.  1.
        994    1    1    2    0    0 -0.71841948844E+01 -0.84629194952E+01  0.22648054931E+01  0.17157448239E+03  0.17120000000E+03 0.  0.
        998    1    1    2    0    0 -0.39608523051E+01  0.27137810982E+01  0.14561079318E+04  0.14561501853E+04  0.10000000000E+02 0.  1.
</event>
<event>
 5    1  0.7732857E-009  0.3794348E+03  0.7957747E-01  0.3453623E+00
         13   -1    0    0    0    0  0.00000000000E+00  0.00000000000E+00  0.14999999963E+04  0.15000000000E+04  0.10566000000E+00 0.  1.
        994   -1    0    0    0    0 -0.00000000000E+00 -0.00000000000E+00  0.11368683772E-12  0.17120000000E+03  0.17120000000E+03 0.  0.
         13    1    1    2    0    0  0.65431058029E+02 -0.72291581417E+02  0.48740990275E+03  0.49706711877E+03  0.10566000000E+00 0.  1.
        994    1    1    2    0    0  0.54945985529E+01 -0.60307525561E+01  0.16258078471E+02  0.17216365965E+03  0.17120000000E+03 0.  0.
        998    1    1    2    0    0 -0.70925656582E+02  0.78322333973E+02  0.99633201506E+03  0.10019692216E+04  0.10000000000E+02 0.  1.
</event>
<event>
 5    1  0.7732857E-009  0.3818196E+03  0.7957747E-01  0.3443274E+00
         13   -1    0    0    0    0  0.00000000000E+00  0.00000000000E+00  0.14999999963E+04  0.15000000000E+04  0.10566000000E+00 0. -1.
        994   -1    0    0    0    0 -0.00000000000E+00 -0.00000000000E+00  0.11368683772E-12  0.17120000000E+03  0.17120000000E+03 0.  0.
         13    1    1    2    0    0  0.31812515015E+01  0.14287455373E+02  0.34000898321E+02  0.37017887471E+02  0.10566000000E+00 0. -1.
        994    1    1    2    0    0 -0.18602212044E+01  0.68384059082E+01  0.33843653833E+01  0.17138004011E+03  0.17120000000E+03 0.  0.
        998    1    1    2    0    0 -0.13210302970E+01 -0.21125861281E+02  0.14626147326E+04  0.14628020724E+04  0.10000000000E+02 0. -1.
</event>
<event>
 5    1  0.7732857E-009  0.3815102E+03  0.7957747E-01  0.3444609E+00
         13   -1    0    0    0    0  0.00000000000E+00  0.00000000000E+00  0.14999999963E+04  0.15000000000E+04  0.10566000000E+00 0. -1.
        994   -1    0    0    0    0 -0.00000000000E+00 -0.00000000000E+00  0.11368683772E-12  0.17120000000E+03  0.17120000000E+03 0.  0.
         13    1    1    2    0    0 -0.10903946244E+02 -0.81290766146E+01  0.26184238870E+02  0.29505990231E+02  0.10566000000E+00 0. -1.
        994    1    1    2    0    0  0.81627498145E+01  0.33502543672E+01  0.36317733213E+01  0.17146569472E+03  0.17120000000E+03 0.  0.
        998    1    1    2    0    0  0.27411964291E+01  0.47788222474E+01  0.14701839841E+04  0.14702283150E+04  0.10000000000E+02 0. -1.
</event>
<event>
 5    1  0.7732857E-009  0.3806524E+03  0.7957747E-01  0.3448323E+00
         13   -1    0    0    0    0  0.00000000000E+00  0.00000000000E+00  0.14999999963E+04  0.15000000000E+04  0.10566000000E+00 0. -1.
        994   -1    0    0    0    0 -0.00000000000E+00 -0.00000000000E+00  0.11368683772E-12  0.17120000000E+03  0.17120000000E+03 0.  0.
         13    1    1    2    0    0 -0.41404154842E+02 -0.78518781797E+00  0.22126109872E+03  0.22510309978E+03  0.10566000000E+00 0. -1.
        994    1    1    2    0    0  0.26013487994E+02 -0.14192303806E+02  0.67388981285E+01  0.17387632327E+03  0.17120000000E+03 0.  0.
        998    1    1    2    0    0  0.15390666848E+02  0.14977491624E+02  0.12719999994E+04  0.12722205770E+04  0.10000000000E+02 0. -1.
</event>
<event>
 5    1  0.7732857E-009  0.3837120E+03  0.7957747E-01  0.3435153E+00
         13   -1    0    0    0    0  0.00000000000E+00  0.00000000000E+00  0.14999999963E+04  0.15000000000E+04  0.10566000000E+00 0.  1.
        994   -1    0    0    0    0 -0.00000000000E+00 -0.00000000000E+00  0.11368683772E-12  0.17120000000E+03  0.17120000000E+03 0.  0.
         13    1    1    2    0    0  0.22608790981E+01  0.14433963672E+02  0.49363004174E+02  0.51479784641E+02  0.10566000000E+00 0.  1.
        994    1    1    2    0    0  0.75366542678E+01  0.18770063484E+01  0.24701853163E+01  0.17139389174E+03  0.17120000000E+03 0.  0.
        998    1    1    2    0    0 -0.97975333659E+01 -0.16310970020E+02  0.14481668068E+04  0.14483263236E+04  0.10000000000E+02 0.  1.
</event>
<event>
 5    1  0.7732857E-009  0.3716299E+03  0.7957747E-01  0.3488434E+00
         13   -1    0    0    0    0  0.00000000000E+00  0.00000000000E+00  0.14999999963E+04  0.15000000000E+04  0.10566000000E+00 0.  1.
        994   -1    0    0    0    0 -0.00000000000E+00 -0.00000000000E+00  0.11368683772E-12  0.17120000000E+03  0.17120000000E+03 0.  0.
         13    1    1    2    0    0 -0.47552242727E+01 -0.16292778972E+02  0.13415327440E+02  0.21634439647E+02  0.10566000000E+00 0.  1.
        994    1    1    2    0    0  0.46624415588E+01  0.10948978126E+02  0.89066894880E+01  0.17184407933E+03  0.17120000000E+03 0.  0.
        998    1    1    2    0    0  0.92782713896E-01  0.53438008453E+01  0.14776779794E+04  0.14777214810E+04  0.10000000000E+02 0.  1.
</event>
<event>
 5    1  0.7732857E-009  0.3791850E+03  0.7957747E-01  0.3454715E+00
         13   -1    0    0    0    0  0.00000000000E+00  0.00000000000E+00  0.14999999963E+04  0.15000000000E+04  0.10566000000E+00 0.  1.
        994   -1    0    0    0    0 -0.00000000000E+00 -0.00000000000E+00  0.11368683772E-12  0.17120000000E+03  0.17120000000E+03 0.  0.
         13    1    1    2    0    0  0.42578953403E+01  0.12813865481E+02  0.19210746754E+02  0.23481668940E+02  0.10566000000E+00 0.  1.
        994    1    1    2    0    0  0.10199306944E+02  0.10342457573E+02  0.52526877072E+01  0.17189538394E+03  0.17120000000E+03 0.  0.
        998    1    1    2    0    0 -0.14457202284E+02 -0.23156323055E+02  0.14755365618E+04  0.14758229471E+04  0.10000000000E+02 0.  1.
</event>
<event>
 5    1  0.7732857E-009  0.3838804E+03  0.7957747E-01  0.3434435E+00
         13   -1    0    0    0    0  0.00000000000E+00  0.00000000000E+00  0.14999999963E+04  0.15000000000E+04  0.10566000000E+00 0. -1.
        994   -1    0    0    0    0 -0.00000000000E+00 -0.00000000000E+00  0.11368683772E-12  0.17120000000E+03  0.17120000000E+03 0.  0.
         13    1    1    2    0    0  0.17396289168E+01 -0.14111645813E+02  0.41866221454E+02  0.44214890243E+02  0.10566000000E+00 0. -1.
        994    1    1    2    0    0  0.12584621117E+02  0.30944432712E+02  0.58790203134E+01  0.17452774417E+03  0.17120000000E+03 0.  0.
        998    1    1    2    0    0 -0.14324250034E+02 -0.16832786900E+02  0.14522547545E+04  0.14524573656E+04  0.10000000000E+02 0. -1.
</event>
<event>
 5    1  0.7732857E-009  0.3815831E+03  0.7957747E-01  0.3444294E+00
         13   -1    0    0    0    0  0.00000000000E+00  0.00000000000E+00  0.14999999963E+04  0.15000000000E+04  0.10566000000E+00 0. -1.
        994   -1    0    0    0    0 -0.00000000000E+00 -0.00000000000E+00  0.11368683772E-12  0.17120000000E+03  0.17120000000E+03 0.  0.
         13    1    1    2    0    0 -0.13912701205E+02 -0.15461337043E+02  0.60236921792E+02  0.63726871169E+02  0.10566000000E+00 0. -1.
        994    1    1    2    0    0  0.19239817464E+02  0.17666494674E+02  0.56083492039E+01  0.17327195154E+03  0.17120000000E+03 0.  0.
        998    1    1    2    0    0 -0.53271162591E+01 -0.22051576311E+01  0.14341547253E+04  0.14342011773E+04  0.10000000000E+02 0. -1.
</event>
<event>
 5    1  0.7732857E-009  0.3834024E+03  0.7957747E-01  0.3436476E+00
         13   -1    0    0    0    0  0.00000000000E+00  0.00000000000E+00  0.14999999963E+04  0.15000000000E+04  0.10566000000E+00 0. -1.
        994   -1    0    0    0    0 -0.00000000000E+00 -0.00000000000E+00  0.11368683772E-12  0.17120000000E+03  0.17120000000E+03 0.  0.
         13    1    1    2    0    0  0.10053889205E+02 -0.17503071149E+02  0.84062736691E+02  0.86452258801E+02  0.10566000000E+00 0. -1.
        994    1    1    2    0    0 -0.62518324673E+01  0.95519155479E+01  0.28563576876E+01  0.17160397221E+03  0.17120000000E+03 0.  0.
        998    1    1    2    0    0 -0.38020567373E+01  0.79511556012E+01  0.14130809019E+04  0.14131437690E+04  0.10000000000E+02 0. -1.
</event>
<event>
 5    1  0.7732857E-009  0.3758490E+03  0.7957747E-01  0.3469435E+00
         13   -1    0    0    0    0  0.00000000000E+00  0.00000000000E+00  0.14999999963E+04  0.15000000000E+04  0.10566000000E+00 0. -1.
        994   -1    0    0    0    0 -0.00000000000E+00 -0.00000000000E+00  0.11368683772E-12  0.17120000000E+03  0.17120000000E+03 0.  0.
         13    1    1    2    0    0  0.18657601897E+02 -0.50169232685E+02  0.13605369223E+03  0.14620422822E+03  0.10566000000E+00 0. -1.
        994    1    1    2    0    0 -0.14501884157E+03  0.94826712314E+02  0.11592677835E+03  0.26976105671E+03  0.17120000000E+03 0.  0.
        998    1    1    2    0    0  0.12636123967E+03 -0.44657479629E+02  0.12480195257E+04  0.12552347151E+04  0.10000000000E+02 0. -1.
</event>
<event>
 5    1  0.7732857E-009  0.3704267E+03  0.7957747E-01  0.3493932E+00
         13   -1    0    0    0    0  0.00000000000E+00  0.00000000000E+00  0.14999999963E+04  0.15000000000E+04  0.10566000000E+00 0.  1.
        994   -1    0    0    0    0 -0.00000000000E+00 -0.00000000000E+00  0.11368683772E-12  0.17120000000E+03  0.17120000000E+03 0.  0.
         13    1    1    2    0    0 -0.12561533868E+02  0.25014294181E+02  0.38757612159E+02  0.47808688654E+02  0.10566000000E+00 0.  1.
        994    1    1    2    0    0  0.17269208123E+02 -0.22665929286E+02  0.11854722779E+02  0.17395960552E+03  0.17120000000E+03 0.  0.
        998    1    1    2    0    0 -0.47076742542E+01 -0.23483648958E+01  0.14493876613E+04  0.14494317058E+04  0.10000000000E+02 0.  1.
</event>
<event>
 5    1  0.1318670E-008  0.3862421E+03  0.7957747E-01  0.3424421E+00
         13   -1    0    0    0    0  0.00000000000E+00  0.00000000000E+00  0.14999999963E+04  0.15000000000E+04  0.10566000000E+00 0.  1.
        994   -1    0    0    0    0 -0.00000000000E+00 -0.00000000000E+00  0.11368683772E-12  0.17120000000E+03  0.17120000000E+03 0.  0.
         13    1    1    2    0    0  0.70743905355E+01 -0.10611815073E+02  0.64536371249E+02  0.65784587850E+02  0.10566000000E+00 0.  1.
        994    1    1    2    0    0 -0.34515727863E+02  0.24374384590E+02  0.68847890574E+01  0.17647177229E+03  0.17120000000E+03 0.  0.
        998    1    1    2    0    0  0.27441337327E+02 -0.13762569517E+02  0.14285788360E+04  0.14289436399E+04  0.10000000000E+02 0.  1.
</event>
<event>
 5    1  0.7732857E-009  0.3847972E+03  0.7957747E-01  0.3430533E+00
         13   -1    0    0    0    0  0.00000000000E+00  0.00000000000E+00  0.14999999963E+04  0.15000000000E+04  0.10566000000E+00 0. -1.
        994   -1    0    0    0    0 -0.00000000000E+00 -0.00000000000E+00  0.11368683772E-12  0.17120000000E+03  0.17120000000E+03 0.  0.
         13    1    1    2    0    0 -0.18381647533E+02 -0.62941296360E+01  0.10561144432E+03  0.10738384128E+03  0.10566000000E+00 0. -1.
        994    1    1    2    0    0  0.14905075038E+02  0.68285864840E+01  0.26158840357E+01  0.17200312121E+03  0.17120000000E+03 0.  0.
        998    1    1    2    0    0  0.34765724953E+01 -0.53445684808E+00  0.13917726679E+04  0.13918130375E+04  0.10000000000E+02 0.  0.
</event>
<event>
 5    1  0.7732857E-009  0.3839068E+03  0.7957747E-01  0.3434322E+00
         13   -1    0    0    0    0  0.00000000000E+00  0.00000000000E+00  0.14999999963E+04  0.15000000000E+04  0.10566000000E+00 0.  1.
        994   -1    0    0    0    0 -0.00000000000E+00 -0.00000000000E+00  0.11368683772E-12  0.17120000000E+03  0.17120000000E+03 0.  0.
         13    1    1    2    0    0 -0.18923312927E+02  0.43695174390E+01  0.10773527642E+03  0.10947184754E+03  0.10566000000E+00 0.  1.
        994    1    1    2    0    0 -0.22569474230E+02 -0.26154421220E+02  0.61226099266E+01  0.17475800774E+03  0.17120000000E+03 0.  0.
        998    1    1    2    0    0  0.41492787157E+02  0.21784903781E+02  0.13861421099E+04  0.13869701447E+04  0.10000000000E+02 0.  1.
</event>
<event>
 5    1  0.7732857E-009  0.3770172E+03  0.7957747E-01  0.3464250E+00
         13   -1    0    0    0    0  0.00000000000E+00  0.00000000000E+00  0.14999999963E+04  0.15000000000E+04  0.10566000000E+00 0.  1.
        994   -1    0    0    0    0 -0.00000000000E+00 -0.00000000000E+00  0.11368683772E-12  0.17120000000E+03  0.17120000000E+03 0.  0.
         13    1    1    2    0    0 -0.21101327959E+02 -0.30094086934E+01  0.38509202607E+02  0.44014684275E+02  0.10566000000E+00 0.  1.
        994    1    1    2    0    0  0.98738614026E+01 -0.42197403426E+00  0.59762990614E+01  0.17158912364E+03  0.17120000000E+03 0.  0.
        998    1    1    2    0    0  0.11227466557E+02  0.34313827277E+01  0.14555144946E+04  0.14555961921E+04  0.10000000000E+02 0.  1.
</event>
<event>
 5    1  0.7732857E-009  0.3853849E+03  0.7957747E-01  0.3428041E+00
         13   -1    0    0    0    0  0.00000000000E+00  0.00000000000E+00  0.14999999963E+04  0.15000000000E+04  0.10566000000E+00 0. -1.
        994   -1    0    0    0    0 -0.00000000000E+00 -0.00000000000E+00  0.11368683772E-12  0.17120000000E+03  0.17120000000E+03 0.  0.
         13    1    1    2    0    0 -0.11455675841E+02 -0.35741519078E+01  0.47400212721E+02  0.48895791239E+02  0.10566000000E+00 0. -1.
        994    1    1    2    0    0  0.22214813998E+02 -0.97959817628E+01  0.33776503349E+01  0.17294596769E+03  0.17120000000E+03 0.  0.
        998    1    1    2    0    0 -0.10759138157E+02  0.13370133671E+02  0.14492221332E+04  0.14493582411E+04  0.10000000000E+02 0. -1.
</event>
<event>
 5    1  0.7732857E-009  0.3881248E+03  0.7957747E-01  0.3416527E+00
         13   -1    0    0    0    0  0.00000000000E+00  0.00000000000E+00  0.14999999963E+04  0.15000000000E+04  0.10566000000E+00 0.  1.
        994   -1    0    0    0    0 -0.00000000000E+00 -0.00000000000E+00  0.11368683772E-12  0.17120000000E+03  0.17120000000E+03 0.  0.
         13    1    1    2    0    0  0.39658460036E+02  0.42435181784E+02  0.73844439653E+02  0.93949723454E+02  0.10566000000E+00 0.  1.
        994    1    1    2    0    0 -0.63268764015E+02  0.51506785186E+01  0.36074913438E+02  0.18611906235E+03  0.17120000000E+03 0.  0.
        998    1    1    2    0    0  0.23610303979E+02 -0.47585860302E+02  0.13900806432E+04  0.13911312142E+04  0.10000000000E+02 0.  1.
</event>
<event>
 5    1  0.7732857E-009  0.3697925E+03  0.7957747E-01  0.3496845E+00
         13   -1    0    0    0    0  0.00000000000E+00  0.00000000000E+00  0.14999999963E+04  0.15000000000E+04  0.10566000000E+00 0.  1.
        994   -1    0    0    0    0 -0.00000000000E+00 -0.00000000000E+00  0.11368683772E-12  0.17120000000E+03  0.17120000000E+03 0.  0.
         13    1    1    2    0    0  0.90512286663E+00  0.68239300839E+02  0.26942736816E+03  0.27793621445E+03  0.10566000000E+00 0.  1.
        994    1    1    2    0    0 -0.20399312602E+02 -0.24670748897E+02  0.12931659757E+02  0.17464663074E+03  0.17120000000E+03 0.  0.
        998    1    1    2    0    0  0.19494189736E+02 -0.43568551942E+02  0.12176409684E+04  0.12186171548E+04  0.10000000000E+02 0.  1.
</event>
<event>
 5    1  0.7732857E-009  0.3848868E+03  0.7957747E-01  0.3430152E+00
         13   -1    0    0    0    0  0.00000000000E+00  0.00000000000E+00  0.14999999963E+04  0.15000000000E+04  0.10566000000E+00 0. -1.
        994   -1    0    0    0    0 -0.00000000000E+00 -0.00000000000E+00  0.11368683772E-12  0.17120000000E+03  0.17120000000E+03 0.  0.
         13    1    1    2    0    0  0.16289468739E+02 -0.42652171532E+01  0.80841208978E+02  0.82576335001E+02  0.10566000000E+00 0. -1.
        994    1    1    2    0    0 -0.16573104132E+02  0.20850362919E+01  0.26047965389E+01  0.17203267167E+03  0.17120000000E+03 0.  0.
        998    1    1    2    0    0  0.28363539347E+00  0.21801808613E+01  0.14165539908E+04  0.14165909933E+04  0.10000000000E+02 0. -1.
</event>
<event>
 5    1  0.7732857E-009  0.3808740E+03  0.7957747E-01  0.3447362E+00
         13   -1    0    0    0    0  0.00000000000E+00  0.00000000000E+00  0.14999999963E+04  0.15000000000E+04  0.10566000000E+00 0. -1.
        994   -1    0    0    0    0 -0.00000000000E+00 -0.00000000000E+00  0.11368683772E-12  0.17120000000E+03  0.17120000000E+03 0.  0.
         13    1    1    2    0    0  0.36606276549E+02  0.10842282682E+02  0.21695966937E+03  0.22029317710E+03  0.10566000000E+00 0. -1.
        994    1    1    2    0    0 -0.10470064366E+02  0.54817694170E+00  0.40590763698E+01  0.17156875836E+03  0.17120000000E+03 0.  0.
        998    1    1    2    0    0 -0.26136212183E+02 -0.11390459624E+02  0.12789812505E+04  0.12793380645E+04  0.10000000000E+02 0. -1.
</event>
<event>
 5    1  0.7732857E-009  0.3850502E+03  0.7957747E-01  0.3429459E+00
         13   -1    0    0    0    0  0.00000000000E+00  0.00000000000E+00  0.14999999963E+04  0.15000000000E+04  0.10566000000E+00 0. -1.
        994   -1    0    0    0    0 -0.00000000000E+00 -0.00000000000E+00  0.11368683772E-12  0.17120000000E+03  0.17120000000E+03 0.  0.
         13    1    1    2    0    0 -0.32220046790E+00  0.11051726289E+02  0.38015813604E+02  0.39591131774E+02  0.10566000000E+00 0. -1.
        994    1    1    2    0    0 -0.19005882075E+00 -0.71381465920E+01  0.17729141445E+01  0.17135802428E+03  0.17120000000E+03 0.  0.
        998    1    1    2    0    0  0.51225928866E+00 -0.39135796973E+01  0.14602112685E+04  0.14602508440E+04  0.10000000000E+02 0. -1.
</event>
<event>
 5    1  0.7732857E-009  0.3840085E+03  0.7957747E-01  0.3433888E+00
         13   -1    0    0    0    0  0.00000000000E+00  0.00000000000E+00  0.14999999963E+04  0.15000000000E+04  0.10566000000E+00 0. -1.
        994   -1    0    0    0    0 -0.00000000000E+00 -0.00000000000E+00  0.11368683772E-12  0.17120000000E+03  0.17120000000E+03 0.  0.
         13    1    1    2    0    0  0.16400081965E+02 -0.13814551457E+02  0.10480140978E+03  0.10697266555E+03  0.10566000000E+00 0. -1.
        994    1    1    2    0    0 -0.14960728026E+02  0.93287356279E+01  0.31494131406E+01  0.17213427170E+03  0.17120000000E+03 0.  0.
        998    1    1    2    0    0 -0.14393539391E+01  0.44858158286E+01  0.13920491734E+04  0.13920930627E+04  0.10000000000E+02 0. -1.
</event>
<event>
 5    1  0.7732857E-009  0.3848992E+03  0.7957747E-01  0.3430100E+00
         13   -1    0    0    0    0  0.00000000000E+00  0.00000000000E+00  0.14999999963E+04  0.15000000000E+04  0.10566000000E+00 0. -1.
        994   -1    0    0    0    0 -0.00000000000E+00 -0.00000000000E+00  0.11368683772E-12  0.17120000000E+03  0.17120000000E+03 0.  0.
         13    1    1    2    0    0  0.10364921087E+01 -0.16256083524E+02  0.76503751911E+02  0.78218730416E+02  0.10566000000E+00 0. -1.
        994    1    1    2    0    0  0.52937757069E+00  0.15334571482E+02  0.24550637356E+01  0.17190374243E+03  0.17120000000E+03 0.  0.
        998    1    1    2    0    0 -0.15658696794E+01  0.92151204149E+00  0.14210411806E+04  0.14210775272E+04  0.10000000000E+02 0. -1.
</event>
<event>
 5    1  0.7732857E-009  0.3830349E+03  0.7957747E-01  0.3438049E+00
         13   -1    0    0    0    0  0.00000000000E+00  0.00000000000E+00  0.14999999963E+04  0.15000000000E+04  0.10566000000E+00 0.  1.
        994   -1    0    0    0    0 -0.00000000000E+00 -0.00000000000E+00  0.11368683772E-12  0.17120000000E+03  0.17120000000E+03 0.  0.
         13    1    1    2    0    0  0.14413569636E+02  0.23745510057E+01  0.39781591849E+02  0.42378953458E+02  0.10566000000E+00 0.  1.
        994    1    1    2    0    0 -0.12324533056E+02  0.33113472815E+01  0.31481071448E+01  0.17170384304E+03  0.17120000000E+03 0.  0.
        998    1    1    2    0    0 -0.20890365799E+01 -0.56858982872E+01  0.14570702973E+04  0.14571172035E+04  0.10000000000E+02 0.  1.
</event>
<event>
 5    1  0.7732857E-009  0.3833579E+03  0.7957747E-01  0.3436667E+00
         13   -1    0    0    0    0  0.00000000000E+00  0.00000000000E+00  0.14999999963E+04  0.15000000000E+04  0.10566000000E+00 0. -1.
        994   -1    0    0    0    0 -0.00000000000E+00 -0.00000000000E+00  0.11368683772E-12  0.17120000000E+03  0.17120000000E+03 0.  0.
         13    1    1    2    0    0 -0.70481196758E+01  0.85948941464E+01  0.24275872125E+02  0.26699762692E+02  0.10566000000E+00 0. -1.
        994    1    1    2    0    0  0.68842971447E+01 -0.63008659629E+01  0.27356250980E+01  0.17147599862E+03  0.17120000000E+03 0.  0.
        998    1    1    2    0    0  0.16382253107E+00 -0.22940281835E+01  0.14729884991E+04  0.14730242387E+04  0.10000000000E+02 0. -1.
</event>
<event>
 5    1  0.7732857E-009  0.3823154E+03  0.7957747E-01  0.3441138E+00
         13   -1    0    0    0    0  0.00000000000E+00  0.00000000000E+00  0.14999999963E+04  0.15000000000E+04  0.10566000000E+00 0. -1.
        994   -1    0    0    0    0 -0.00000000000E+00 -0.00000000000E+00  0.11368683772E-12  0.17120000000E+03  0.17120000000E+03 0.  0.
         13    1    1    2    0    0  0.22181599724E+02 -0.16085453176E+02  0.11950001983E+03  0.12260110552E+03  0.10566000000E+00 0. -1.
        994    1    1    2    0    0 -0.20033088703E+02  0.13484046496E+02  0.49058746975E+01  0.17296430776E+03  0.17120000000E+03 0.  0.
        998    1    1    2    0    0 -0.21485110214E+01  0.26014066800E+01  0.13755941017E+04  0.13756345867E+04  0.10000000000E+02 0. -1.
</event>
<event>
 5    1  0.7732857E-009  0.3741805E+03  0.7957747E-01  0.3476896E+00
         13   -1    0    0    0    0  0.00000000000E+00  0.00000000000E+00  0.14999999963E+04  0.15000000000E+04  0.10566000000E+00 0. -1.
        994   -1    0    0    0    0 -0.00000000000E+00 -0.00000000000E+00  0.11368683772E-12  0.17120000000E+03  0.17120000000E+03 0.  0.
         13    1    1    2    0    0  0.10488695012E+02  0.29604503910E+01  0.52698156562E+01  0.12106160029E+02  0.10566000000E+00 0. -1.
        994    1    1    2    0    0  0.37207793892E+01  0.91155101140E+01  0.74306451309E+01  0.17164379165E+03  0.17120000000E+03 0.  0.
        998    1    1    2    0    0 -0.14209474401E+02 -0.12075960505E+02  0.14872995355E+04  0.14874500483E+04  0.10000000000E+02 0. -1.
</event>
<event>
 5    1  0.7732857E-009  0.3848514E+03  0.7957747E-01  0.3430303E+00
         13   -1    0    0    0    0  0.00000000000E+00  0.00000000000E+00  0.14999999963E+04  0.15000000000E+04  0.10566000000E+00 0. -1.
        994   -1    0    0    0    0 -0.00000000000E+00 -0.00000000000E+00  0.11368683772E-12  0.17120000000E+03  0.17120000000E+03 0.  0.
         13    1    1    2    0    0 -0.17602045515E+02  0.65583007933E+01  0.10317936361E+03  0.10487533340E+03  0.10566000000E+00 0. -1.
        994    1    1    2    0    0  0.15736460566E+02  0.62938479526E+01  0.26495975261E+01  0.17205728430E+03  0.17120000000E+03 0.  0.
        998    1    1    2    0    0  0.18655849486E+01 -0.12852148746E+02  0.13941710351E+04  0.13942673823E+04  0.10000000000E+02 0. -1.
</event>
<event>
 5    1  0.7732857E-009  0.3759764E+03  0.7957747E-01  0.3468867E+00
         13   -1    0    0    0    0  0.00000000000E+00  0.00000000000E+00  0.14999999963E+04  0.15000000000E+04  0.10566000000E+00 0. -1.
        994   -1    0    0    0    0 -0.00000000000E+00 -0.00000000000E+00  0.11368683772E-12  0.17120000000E+03  0.17120000000E+03 0.  0.
         13    1    1    2    0    0  0.24284246305E+02 -0.41009472174E+01  0.15203632589E+02  0.28943116532E+02  0.10566000000E+00 0. -1.
        994    1    1    2    0    0 -0.22074746641E+02  0.15720067067E+02  0.16761347893E+02  0.17414016691E+03  0.17120000000E+03 0.  0.
        998    1    1    2    0    0 -0.22094996638E+01 -0.11619119850E+02  0.14680350158E+04  0.14681167166E+04  0.10000000000E+02 0. -1.
</event>
<event>
 5    1  0.7732857E-009  0.3821910E+03  0.7957747E-01  0.3441674E+00
         13   -1    0    0    0    0  0.00000000000E+00  0.00000000000E+00  0.14999999963E+04  0.15000000000E+04  0.10566000000E+00 0. -1.
        994   -1    0    0    0    0 -0.00000000000E+00 -0.00000000000E+00  0.11368683772E-12  0.17120000000E+03  0.17120000000E+03 0.  0.
         13    1    1    2    0    0 -0.12831527669E+02  0.30339937971E+02  0.17534837167E+03  0.17841586967E+03  0.10566000000E+00 0. -1.
        994    1    1    2    0    0  0.32125803632E+02 -0.10601818927E+02  0.68388864968E+01  0.17464442789E+03  0.17120000000E+03 0.  0.
        998    1    1    2    0    0 -0.19294275963E+02 -0.19738119044E+02  0.13178127381E+04  0.13181397024E+04  0.10000000000E+02 0. -1.
</event>
<event>
 5    1  0.7732857E-009  0.3746617E+03  0.7957747E-01  0.3474737E+00
         13   -1    0    0    0    0  0.00000000000E+00  0.00000000000E+00  0.14999999963E+04  0.15000000000E+04  0.10566000000E+00 0.  1.
        994   -1    0    0    0    0 -0.00000000000E+00 -0.00000000000E+00  0.11368683772E-12  0.17120000000E+03  0.17120000000E+03 0.  0.
         13    1    1    2    0    0  0.22273833108E+00  0.62068006166E+02  0.37416801979E+03  0.37928116905E+03  0.10566000000E+00 0.  1.
        994    1    1    2    0    0  0.65320501596E+01 -0.30514595350E+01  0.70294752264E+01  0.17149586761E+03  0.17120000000E+03 0.  0.
        998    1    1    2    0    0 -0.67547884907E+01 -0.59016546630E+02  0.11188025013E+04  0.11204229633E+04  0.10000000000E+02 0.  1.
</event>
<event>
 5    1  0.7732857E-009  0.3761450E+03  0.7957747E-01  0.3468118E+00
         13   -1    0    0    0    0  0.00000000000E+00  0.00000000000E+00  0.14999999963E+04  0.15000000000E+04  0.10566000000E+00 0. -1.
        994   -1    0    0    0    0 -0.00000000000E+00 -0.00000000000E+00  0.11368683772E-12  0.17120000000E+03  0.17120000000E+03 0.  0.
         13    1    1    2    0    0  0.34178590523E+01  0.83650316170E+02  0.38804537959E+03  0.39697390965E+03  0.10566000000E+00 0. -1.
        994    1    1    2    0    0 -0.23816648629E+01 -0.92491476216E+02  0.35652313684E+02  0.19784052409E+03  0.17120000000E+03 0.  0.
        998    1    1    2    0    0 -0.10361941894E+01  0.88411600464E+01  0.10763023030E+04  0.10763855663E+04  0.10000000000E+02 0. -1.
</event>
<event>
 5    1  0.7732857E-009  0.3834235E+03  0.7957747E-01  0.3436386E+00
         13   -1    0    0    0    0  0.00000000000E+00  0.00000000000E+00  0.14999999963E+04  0.15000000000E+04  0.10566000000E+00 0.  1.
        994   -1    0    0    0    0 -0.00000000000E+00 -0.00000000000E+00  0.11368683772E-12  0.17120000000E+03  0.17120000000E+03 0.  0.
         13    1    1    2    0    0 -0.86552733258E+00  0.11263030955E+02  0.25877668294E+02  0.28235967917E+02  0.10566000000E+00 0.  1.
        994    1    1    2    0    0  0.46544269332E+01 -0.45835927155E+01  0.25559576546E+01  0.17134364865E+03  0.17120000000E+03 0.  0.
        998    1    1    2    0    0 -0.37888996006E+01 -0.66794382399E+01  0.14715663703E+04  0.14716203834E+04  0.10000000000E+02 0.  1.
</event>
<event>
 5    1  0.7732857E-009  0.3746858E+03  0.7957747E-01  0.3474629E+00
         13   -1    0    0    0    0  0.00000000000E+00  0.00000000000E+00  0.14999999963E+04  0.15000000000E+04  0.10566000000E+00 0. -1.
        994   -1    0    0    0    0 -0.00000000000E+00 -0.00000000000E+00  0.11368683772E-12  0.17120000000E+03  0.17120000000E+03 0.  0.
         13    1    1    2    0    0 -0.21519765344E+02 -0.11846944685E+02  0.40418260858E+02  0.47297963737E+02  0.10566000000E+00 0. -1.
        994    1    1    2    0    0  0.21160150730E+02  0.12493792755E+02  0.88976530667E+01  0.17318329904E+03  0.17120000000E+03 0.  0.
        998    1    1    2    0    0  0.35961461399E+00 -0.64684806906E+00  0.14506840824E+04  0.14507187372E+04  0.10000000000E+02 0.  0.
</event>
<event>
 5    1  0.7732857E-009  0.3850767E+03  0.7957747E-01  0.3429347E+00
         13   -1    0    0    0    0  0.00000000000E+00  0.00000000000E+00  0.14999999963E+04  0.15000000000E+04  0.10566000000E+00 0.  1.
        994   -1    0    0    0    0 -0.00000000000E+00 -0.00000000000E+00  0.11368683772E-12  0.17120000000E+03  0.17120000000E+03 0.  0.
         13    1    1    2    0    0 -0.95803776448E+01  0.15454517401E+02  0.95524327154E+02  0.97239570064E+02  0.10566000000E+00 0.  1.
        994    1    1    2    0    0  0.13422148360E+02 -0.18374021000E+02  0.32962093836E+01  0.17273697841E+03  0.17120000000E+03 0.  0.
        998    1    1    2    0    0 -0.38417707151E+01  0.29195035991E+01  0.14011794597E+04  0.14012234515E+04  0.10000000000E+02 0.  1.
</event>
<event>
 5    1  0.7732857E-009  0.2512427E+03  0.7957747E-01  0.4320229E+00
         13   -1    0    0    0    0  0.00000000000E+00  0.00000000000E+00  0.14999999963E+04  0.15000000000E+04  0.10566000000E+00 0. -1.
        994   -1    0    0    0    0 -0.00000000000E+00 -0.00000000000E+00  0.11368683772E-12  0.17120000000E+03  0.17120000000E+03 0.  0.
         13    1    1    2    0    0 -0.78171056377E+02 -0.12788054188E+03  0.63219019846E+03  0.64971424891E+03  0.10566000000E+00 0. -1.
        994    1    1    2    0    0 -0.52833654197E+02 -0.14570474530E+02  0.58108885942E+02  0.18891737974E+03  0.17120000000E+03 0.  0.
        998    1    1    2    0    0  0.13100471057E+03  0.14245101641E+03  0.80970091188E+03  0.83256837135E+03  0.10000000000E+02 0. -1.
</event>
<event>
 5    1  0.7732857E-009  0.3841824E+03  0.7957747E-01  0.3433147E+00
         13   -1    0    0    0    0  0.00000000000E+00  0.00000000000E+00  0.14999999963E+04  0.15000000000E+04  0.10566000000E+00 0.  1.
        994   -1    0    0    0    0 -0.00000000000E+00 -0.00000000000E+00  0.11368683772E-12  0.17120000000E+03  0.17120000000E+03 0.  0.
         13    1    1    2    0    0 -0.53095608174E+01 -0.17090597389E+02  0.92203959229E+02  0.93924763597E+02  0.10566000000E+00 0.  1.
        994    1    1    2    0    0  0.20973930305E+02 -0.18036523812E+02  0.45639418102E+01  0.17348052199E+03  0.17120000000E+03 0.  0.
        998    1    1    2    0    0 -0.15664369487E+02  0.35127121202E+02  0.14032320952E+04  0.14037947144E+04  0.10000000000E+02 0.  1.
</event>
<event>
 5    1  0.7732857E-009  0.3813228E+03  0.7957747E-01  0.3445419E+00
         13   -1    0    0    0    0  0.00000000000E+00  0.00000000000E+00  0.14999999963E+04  0.15000000000E+04  0.10566000000E+00 0.  1.
        994   -1    0    0    0    0 -0.00000000000E+00 -0.00000000000E+00  0.11368683772E-12  0.17120000000E+03  0.17120000000E+03 0.  0.
         13    1    1    2    0    0 -0.77140884706E+01 -0.29930001111E+02  0.20614298543E+02  0.37152020079E+02  0.10566000000E+00 0.  1.
        994    1    1    2    0    0  0.27273206648E+02  0.24585735439E+02  0.21980860032E+02  0.17646779988E+03  0.17120000000E+03 0.  0.
        998    1    1    2    0    0 -0.19559118178E+02  0.53442656718E+01  0.14574048377E+04  0.14575801800E+04  0.10000000000E+02 0.  1.
</event>
<event>
 5    1  0.7732857E-009  0.3827249E+03  0.7957747E-01  0.3439379E+00
         13   -1    0    0    0    0  0.00000000000E+00  0.00000000000E+00  0.14999999963E+04  0.15000000000E+04  0.10566000000E+00 0.  1.
        994   -1    0    0    0    0 -0.00000000000E+00 -0.00000000000E+00  0.11368683772E-12  0.17120000000E+03  0.17120000000E+03 0.  0.
         13    1    1    2    0    0  0.15883752707E+00 -0.10033972430E+02  0.17299549421E+02  0.19999785157E+02  0.10566000000E+00 0.  1.
        994    1    1    2    0    0 -0.50270618918E+01  0.38136963500E+01  0.28958174702E+01  0.17134071726E+03  0.17120000000E+03 0.  0.
        998    1    1    2    0    0  0.48682243647E+01  0.62202760804E+01  0.14798046294E+04  0.14798594976E+04  0.10000000000E+02 0.  1.
</event>
<event>
 5    1  0.7732857E-009  0.3690075E+03  0.7957747E-01  0.3500465E+00
         13   -1    0    0    0    0  0.00000000000E+00  0.00000000000E+00  0.14999999963E+04  0.15000000000E+04  0.10566000000E+00 0. -1.
        994   -1    0    0    0    0 -0.00000000000E+00 -0.00000000000E+00  0.11368683772E-12  0.17120000000E+03  0.17120000000E+03 0.  0.
         13    1    1    2    0    0 -0.20721747979E+02  0.41112710582E+02  0.10042912278E+03  0.11047925451E+03  0.10566000000E+00 0. -1.
        994    1    1    2    0    0  0.25686420360E+02 -0.32514881846E+02  0.15769637143E+02  0.17684776275E+03  0.17120000000E+03 0.  0.
        998    1    1    2    0    0 -0.49646723808E+01 -0.85978287361E+01  0.13838012364E+04  0.13838729827E+04  0.10000000000E+02 0. -1.
</event>
<event>
 5    1  0.7732857E-009  0.3818013E+03  0.7957747E-01  0.3443352E+00
         13   -1    0    0    0    0  0.00000000000E+00  0.00000000000E+00  0.14999999963E+04  0.15000000000E+04  0.10566000000E+00 0. -1.
        994   -1    0    0    0    0 -0.00000000000E+00 -0.00000000000E+00  0.11368683772E-12  0.17120000000E+03  0.17120000000E+03 0.  0.
         13    1    1    2    0    0  0.14514037106E+02  0.17337621680E+02  0.76869185565E+02  0.80125734019E+02  0.10566000000E+00 0. -1.
        994    1    1    2    0    0 -0.43568567960E+01 -0.19294024140E+02  0.45278264082E+01  0.17239832592E+03  0.17120000000E+03 0.  0.
        998    1    1    2    0    0 -0.10157180310E+02  0.19564024605E+01  0.14186029843E+04  0.14186759401E+04  0.10000000000E+02 0. -1.
</event>
<event>
 5    1  0.7732857E-009  0.3854510E+03  0.7957747E-01  0.3427762E+00
         13   -1    0    0    0    0  0.00000000000E+00  0.00000000000E+00  0.14999999963E+04  0.15000000000E+04  0.10566000000E+00 0. -1.
        994   -1    0    0    0    0 -0.00000000000E+00 -0.00000000000E+00  0.11368683772E-12  0.17120000000E+03  0.17120000000E+03 0.  0.
         13    1    1    2    0    0 -0.87388005818E+01 -0.98054232054E+01  0.68160568988E+02  0.69414604290E+02  0.10566000000E+00 0. -1.
        994    1    1    2    0    0  0.34023006375E+01 -0.10292955541E+02  0.17924219907E+01  0.17155224674E+03  0.17120000000E+03 0.  0.
        998    1    1    2    0    0  0.53364999443E+01  0.20098378747E+02  0.14300470053E+04  0.14302331490E+04  0.10000000000E+02 0. -1.
</event>
<event>
 5    1  0.7732857E-009  0.3814135E+03  0.7957747E-01  0.3445027E+00
         13   -1    0    0    0    0  0.00000000000E+00  0.00000000000E+00  0.14999999963E+04  0.15000000000E+04  0.10566000000E+00 0. -1.
        994   -1    0    0    0    0 -0.00000000000E+00 -0.00000000000E+00  0.11368683772E-12  0.17120000000E+03  0.17120000000E+03 0.  0.
         13    1    1    2    0    0  0.82924110691E+02 -0.65712429735E+02  0.22950818894E+03  0.25272228139E+03  0.10566000000E+00 0. -1.
        994    1    1    2    0    0 -0.13574693244E+03  0.50325369284E+02  0.98061945530E+02  0.24471505394E+03  0.17120000000E+03 0.  0.
        998    1    1    2    0    0  0.52822821753E+02  0.15387060451E+02  0.11724298618E+04  0.11737626647E+04  0.10000000000E+02 0. -1.
</event>
<event>
 5    1  0.7732857E-009  0.3703181E+03  0.7957747E-01  0.3494430E+00
         13   -1    0    0    0    0  0.00000000000E+00  0.00000000000E+00  0.14999999963E+04  0.15000000000E+04  0.10566000000E+00 0. -1.
        994   -1    0    0    0    0 -0.00000000000E+00 -0.00000000000E+00  0.11368683772E-12  0.17120000000E+03  0.17120000000E+03 0.  0.
         13    1    1    2    0    0 -0.27407683503E+02  0.21231554815E+01  0.37221813586E+02  0.46272707667E+02  0.10566000000E+00 0. -1.
        994    1    1    2    0    0  0.25386154292E+02  0.77557846599E+00  0.11334037365E+02  0.17344439672E+03  0.17120000000E+03 0.  0.
        998    1    1    2    0    0  0.20215292110E+01 -0.28987339475E+01  0.14514441453E+04  0.14514828956E+04  0.10000000000E+02 0. -1.
</event>
<event>
 5    1  0.7732857E-009  0.3744884E+03  0.7957747E-01  0.3475514E+00
         13   -1    0    0    0    0  0.00000000000E+00  0.00000000000E+00  0.14999999963E+04  0.15000000000E+04  0.10566000000E+00 0.  1.
        994   -1    0    0    0    0 -0.00000000000E+00 -0.00000000000E+00  0.11368683772E-12  0.17120000000E+03  0.17120000000E+03 0.  0.
         13    1    1    2    0    0  0.39698655362E+02  0.90622990748E+01  0.66466158662E+02  0.77947866638E+02  0.10566000000E+00 0.  1.
        994    1    1    2    0    0  0.25710813320E+02  0.13465752170E+00  0.15683563339E+02  0.17382887624E+03  0.17120000000E+03 0.  0.
        998    1    1    2    0    0 -0.65409468682E+02 -0.91969565965E+01  0.14178502743E+04  0.14194232571E+04  0.10000000000E+02 0.  1.
</event>
<event>
 5    1  0.7732857E-009  0.3794583E+03  0.7957747E-01  0.3453521E+00
         13   -1    0    0    0    0  0.00000000000E+00  0.00000000000E+00  0.14999999963E+04  0.15000000000E+04  0.10566000000E+00 0.  1.
        994   -1    0    0    0    0 -0.00000000000E+00 -0.00000000000E+00  0.11368683772E-12  0.17120000000E+03  0.17120000000E+03 0.  0.
         13    1    1    2    0    0 -0.14509355734E+02  0.20937196506E+02  0.70758205175E+02  0.75203872008E+02  0.10566000000E+00 0.  1.
        994    1    1    2    0    0  0.70029932030E+01 -0.19760131743E+02  0.58800960314E+01  0.17257902610E+03  0.17120000000E+03 0.  0.
        998    1    1    2    0    0  0.75063625314E+01 -0.11770647625E+01  0.14233616951E+04  0.14234171019E+04  0.10000000000E+02 0.  1.
</event>
<event>
 5    1  0.7732857E-009  0.3718450E+03  0.7957747E-01  0.3487454E+00
         13   -1    0    0    0    0  0.00000000000E+00  0.00000000000E+00  0.14999999963E+04  0.15000000000E+04  0.10566000000E+00 0.  1.
        994   -1    0    0    0    0 -0.00000000000E+00 -0.00000000000E+00  0.11368683772E-12  0.17120000000E+03  0.17120000000E+03 0.  0.
         13    1    1    2    0    0 -0.41764843679E+02  0.14295058201E+02  0.73996841623E+02  0.86163766113E+02  0.10566000000E+00 0.  1.
        994    1    1    2    0    0  0.46575693336E+02  0.59934574830E+00  0.19591437016E+02  0.17850187346E+03  0.17120000000E+03 0.  0.
        998    1    1    2    0    0 -0.48108496573E+01 -0.14894403949E+02  0.14064117176E+04  0.14065343604E+04  0.10000000000E+02 0.  1.
</event>
<event>
 5    1  0.7732857E-009  0.3777623E+03  0.7957747E-01  0.3460960E+00
         13   -1    0    0    0    0  0.00000000000E+00  0.00000000000E+00  0.14999999963E+04  0.15000000000E+04  0.10566000000E+00 0.  1.
        994   -1    0    0    0    0 -0.00000000000E+00 -0.00000000000E+00  0.11368683772E-12  0.17120000000E+03  0.17120000000E+03 0.  0.
         13    1    1    2    0    0  0.78310287016E+02 -0.59833622503E+02  0.33913928665E+03  0.35316855798E+03  0.10566000000E+00 0.  1.
        994    1    1    2    0    0 -0.53930299594E+02  0.75464209627E+01  0.25839301111E+02  0.18150078558E+03  0.17120000000E+03 0.  0.
        998    1    1    2    0    0 -0.24379987423E+02  0.52287201540E+02  0.11350214085E+04  0.11365306564E+04  0.10000000000E+02 0.  1.
</event>
<event>
 5    1  0.7732857E-009  0.3837388E+03  0.7957747E-01  0.3435039E+00
         13   -1    0    0    0    0  0.00000000000E+00  0.00000000000E+00  0.14999999963E+04  0.15000000000E+04  0.10566000000E+00 0. -1.
        994   -1    0    0    0    0 -0.00000000000E+00 -0.00000000000E+00  0.11368683772E-12  0.17120000000E+03  0.17120000000E+03 0.  0.
         13    1    1    2    0    0  0.99232914915E+01 -0.43116591283E+01  0.23723141518E+02  0.26074139027E+02  0.10566000000E+00 0. -1.
        994    1    1    2    0    0 -0.27850881342E+02 -0.17194853700E+01  0.48329794780E+01  0.17352644154E+03  0.17120000000E+03 0.  0.
        998    1    1    2    0    0  0.17927589851E+02  0.60311444983E+01  0.14714438753E+04  0.14715994194E+04  0.10000000000E+02 0. -1.
</event>
<event>
 5    1  0.7732857E-009  0.3818432E+03  0.7957747E-01  0.3443172E+00
         13   -1    0    0    0    0  0.00000000000E+00  0.00000000000E+00  0.14999999963E+04  0.15000000000E+04  0.10566000000E+00 0. -1.
        994   -1    0    0    0    0 -0.00000000000E+00 -0.00000000000E+00  0.11368683772E-12  0.17120000000E+03  0.17120000000E+03 0.  0.
         13    1    1    2    0    0 -0.69666032194E+01 -0.14371089866E+02  0.38625021658E+02  0.41796713345E+02  0.10566000000E+00 0. -1.
        994    1    1    2    0    0  0.70159361474E+01  0.85854906686E+01  0.36141943897E+01  0.17159672611E+03  0.17120000000E+03 0.  0.
        998    1    1    2    0    0 -0.49332928030E-01  0.57855991978E+01  0.14577607802E+04  0.14578065605E+04  0.10000000000E+02 0. -1.
</event>
<event>
 5    1  0.7732857E-009  0.3849653E+03  0.7957747E-01  0.3429819E+00
         13   -1    0    0    0    0  0.00000000000E+00  0.00000000000E+00  0.14999999963E+04  0.15000000000E+04  0.10566000000E+00 0. -1.
        994   -1    0    0    0    0 -0.00000000000E+00 -0.00000000000E+00  0.11368683772E-12  0.17120000000E+03  0.17120000000E+03 0.  0.
         13    1    1    2    0    0  0.88814085461E+01 -0.62712984559E+01  0.35314181650E+02  0.36950117614E+02  0.10566000000E+00 0. -1.
        994    1    1    2    0    0 -0.69613597231E+01  0.68319653303E+01  0.19603130562E+01  0.17148883085E+03  0.17120000000E+03 0.  0.
        998    1    1    2    0    0 -0.19200488230E+01 -0.56066687435E+00  0.14627255016E+04  0.14627610515E+04  0.10000000000E+02 0. -1.
</event>
<event>
 5    1  0.7732857E-009  0.3752683E+03  0.7957747E-01  0.3472024E+00
         13   -1    0    0    0    0  0.00000000000E+00  0.00000000000E+00  0.14999999963E+04  0.15000000000E+04  0.10566000000E+00 0. -1.
        994   -1    0    0    0    0 -0.00000000000E+00 -0.00000000000E+00  0.11368683772E-12  0.17120000000E+03  0.17120000000E+03 0.  0.
         13    1    1    2    0    0 -0.35224696995E+02  0.12484190612E+02  0.63701536719E+02  0.73854798342E+02  0.10566000000E+00 0. -1.
        994    1    1    2    0    0  0.15273280364E+03 -0.37911819065E+02  0.95913931485E+02  0.25154231768E+03  0.17120000000E+03 0.  0.
        998    1    1    2    0    0 -0.11750810664E+03  0.25427628453E+02  0.13403845281E+04  0.13458028840E+04  0.10000000000E+02 0. -1.
</event>
<event>
 5    1  0.7732857E-009  0.3805334E+03  0.7957747E-01  0.3448839E+00
         13   -1    0    0    0    0  0.00000000000E+00  0.00000000000E+00  0.14999999963E+04  0.15000000000E+04  0.10566000000E+00 0.  1.
        994   -1    0    0    0    0 -0.00000000000E+00 -0.00000000000E+00  0.11368683772E-12  0.17120000000E+03  0.17120000000E+03 0.  0.
         13    1    1    2    0    0  0.55139450527E+01  0.97064144988E+01 -0.40009233831E+01  0.11859031344E+02  0.10566000000E+00 0.  1.
        994    1    1    2    0    0 -0.15714008079E+02 -0.77078690848E+01  0.17733580181E+02  0.17300364494E+03  0.17120000000E+03 0.  0.
        998    1    1    2    0    0  0.10200063026E+02 -0.19985454140E+01  0.14862673395E+04  0.14863373237E+04  0.10000000000E+02 0.  1.
</event>
<event>
 5    1  0.7732857E-009  0.3852530E+03  0.7957747E-01  0.3428600E+00
         13   -1    0    0    0    0  0.00000000000E+00  0.00000000000E+00  0.14999999963E+04  0.15000000000E+04  0.10566000000E+00 0. -1.
        994   -1    0    0    0    0 -0.00000000000E+00 -0.00000000000E+00  0.11368683772E-12  0.17120000000E+03  0.17120000000E+03 0.  0.
         13    1    1    2    0    0 -0.69932810412E+01  0.97968939222E+01  0.46623722895E+02  0.48152547294E+02  0.10566000000E+00 0. -1.
        994    1    1    2    0    0  0.15006081694E+02 -0.66691823343E+01  0.23911525703E+01  0.17200237816E+03  0.17120000000E+03 0.  0.
        998    1    1    2    0    0 -0.80128006527E+01 -0.31277115878E+01  0.14509851208E+04  0.14510450746E+04  0.10000000000E+02 0. -1.
</event>
<event>
 5    1  0.7732857E-009  0.3821450E+03  0.7957747E-01  0.3441871E+00
         13   -1    0    0    0    0  0.00000000000E+00  0.00000000000E+00  0.14999999963E+04  0.15000000000E+04  0.10566000000E+00 0.  1.
        994   -1    0    0    0    0 -0.00000000000E+00 -0.00000000000E+00  0.11368683772E-12  0.17120000000E+03  0.17120000000E+03 0.  0.
         13    1    1    2    0    0  0.21746813371E+02 -0.12403361734E+02  0.98605300486E+02  0.10173388679E+03  0.10566000000E+00 0.  1.
        994    1    1    2    0    0 -0.16996362562E+02  0.11783173609E+02  0.44753084989E+01  0.17250271855E+03  0.17120000000E+03 0.  0.
        998    1    1    2    0    0 -0.47504508091E+01  0.62018812560E+00  0.13969193873E+04  0.13969633947E+04  0.10000000000E+02 0.  1.
</event>
<event>
 5    1  0.7920306E-009  0.3858580E+03  0.7957747E-01  0.3426041E+00
         13   -1    0    0    0    0  0.00000000000E+00  0.00000000000E+00  0.14999999963E+04  0.15000000000E+04  0.10566000000E+00 0.  1.
        994   -1    0    0    0    0 -0.00000000000E+00 -0.00000000000E+00  0.11368683772E-12  0.17120000000E+03  0.17120000000E+03 0.  0.
         13    1    1    2    0    0  0.11992058140E+02 -0.19368434728E+01  0.62327744471E+02  0.63500548942E+02  0.10566000000E+00 0.  1.
        994    1    1    2    0    0 -0.59398044369E+01  0.74068508000E+01  0.15004136885E+01  0.17146962984E+03  0.17120000000E+03 0.  0.
        998    1    1    2    0    0 -0.60522537028E+01 -0.54700073272E+01  0.14361718381E+04  0.14362298212E+04  0.10000000000E+02 0.  1.
</event>
<event>
 5    1  0.7732857E-009  0.3852975E+03  0.7957747E-01  0.3428412E+00
         13   -1    0    0    0    0  0.00000000000E+00  0.00000000000E+00  0.14999999963E+04  0.15000000000E+04  0.10566000000E+00 0.  1.
        994   -1    0    0    0    0 -0.00000000000E+00 -0.00000000000E+00  0.11368683772E-12  0.17120000000E+03  0.17120000000E+03 0.  0.
         13    1    1    2    0    0 -0.98003954516E+01  0.83081793163E+01  0.56565707899E+02  0.58006586426E+02  0.10566000000E+00 0.  1.
        994    1    1    2    0    0  0.69634426038E+01 -0.17154162435E+01  0.16515211292E+01  0.17135810371E+03  0.17120000000E+03 0.  0.
        998    1    1    2    0    0  0.28369528478E+01 -0.65927630728E+01  0.14417827672E+04  0.14418353099E+04  0.10000000000E+02 0.  1.
</event>
<event>
 5    1  0.7732857E-009  0.3792477E+03  0.7957747E-01  0.3454441E+00
         13   -1    0    0    0    0  0.00000000000E+00  0.00000000000E+00  0.14999999963E+04  0.15000000000E+04  0.10566000000E+00 0. -1.
        994   -1    0    0    0    0 -0.00000000000E+00 -0.00000000000E+00  0.11368683772E-12  0.17120000000E+03  0.17120000000E+03 0.  0.
         13    1    1    2    0    0 -0.21423401160E+02 -0.34733112923E+02  0.17198025006E+03  0.17675567551E+03  0.10566000000E+00 0. -1.
        994    1    1    2    0    0  0.17750716809E+02  0.28142616801E+02  0.82324299427E+01  0.17459755935E+03  0.17120000000E+03 0.  0.
        998    1    1    2    0    0  0.36726843509E+01  0.65904961223E+01  0.13197873163E+04  0.13198467651E+04  0.10000000000E+02 0. -1.
</event>
<event>
 5    1  0.7732857E-009  0.3755951E+03  0.7957747E-01  0.3470566E+00
         13   -1    0    0    0    0  0.00000000000E+00  0.00000000000E+00  0.14999999963E+04  0.15000000000E+04  0.10566000000E+00 0.  1.
        994   -1    0    0    0    0 -0.00000000000E+00 -0.00000000000E+00  0.11368683772E-12  0.17120000000E+03  0.17120000000E+03 0.  0.
         13    1    1    2    0    0 -0.54903056835E+02 -0.17598250358E+02  0.34189190766E+03  0.34671909632E+03  0.10566000000E+00 0.  1.
        994    1    1    2    0    0 -0.42541136690E+01  0.19395882319E+02  0.77122071393E+01  0.17252018975E+03  0.17120000000E+03 0.  0.
        998    1    1    2    0    0  0.59157170504E+02 -0.17976319606E+01  0.11503958815E+04  0.11519607139E+04  0.10000000000E+02 0.  1.
</event>
<event>
 5    1  0.7732857E-009  0.3827203E+03  0.7957747E-01  0.3439398E+00
         13   -1    0    0    0    0  0.00000000000E+00  0.00000000000E+00  0.14999999963E+04  0.15000000000E+04  0.10566000000E+00 0.  1.
        994   -1    0    0    0    0 -0.00000000000E+00 -0.00000000000E+00  0.11368683772E-12  0.17120000000E+03  0.17120000000E+03 0.  0.
         13    1    1    2    0    0  0.37366543996E+01  0.17342933844E+02  0.55103682298E+02  0.57889264179E+02  0.10566000000E+00 0.  1.
        994    1    1    2    0    0 -0.40560363319E+01 -0.14691646891E+02  0.35362095902E+01  0.17191346863E+03  0.17120000000E+03 0.  0.
        998    1    1    2    0    0  0.31938193228E+00 -0.26512869525E+01  0.14413601044E+04  0.14413972672E+04  0.10000000000E+02 0.  1.
</event>
<event>
 5    1  0.7732857E-009  0.3738187E+03  0.7957747E-01  0.3478523E+00
         13   -1    0    0    0    0  0.00000000000E+00  0.00000000000E+00  0.14999999963E+04  0.15000000000E+04  0.10566000000E+00 0.  1.
        994   -1    0    0    0    0 -0.00000000000E+00 -0.00000000000E+00  0.11368683772E-12  0.17120000000E+03  0.17120000000E+03 0.  0.
         13    1    1    2    0    0  0.44167612522E+01 -0.94769852723E+01 -0.18473694318E+01  0.10618143325E+02  0.10566000000E+00 0.  1.
        994    1    1    2    0    0 -0.27602025150E+01  0.69737560292E+01  0.13171806350E+02  0.17186968457E+03  0.17120000000E+03 0.  0.
        998    1    1    2    0    0 -0.16565587372E+01  0.25032292432E+01  0.14886755594E+04  0.14887121721E+04  0.10000000000E+02 0.  1.
</event>
<event>
 5    1  0.7732857E-009  0.3704914E+03  0.7957747E-01  0.3493636E+00
         13   -1    0    0    0    0  0.00000000000E+00  0.00000000000E+00  0.14999999963E+04  0.15000000000E+04  0.10566000000E+00 0. -1.
        994   -1    0    0    0    0 -0.00000000000E+00 -0.00000000000E+00  0.11368683772E-12  0.17120000000E+03  0.17120000000E+03 0.  0.
         13    1    1    2    0    0 -0.18028024188E+02 -0.75764926869E+02  0.31807314458E+03  0.32746888443E+03  0.10566000000E+00 0. -1.
        994    1    1    2    0    0  0.93380779384E-01  0.53426994872E+02  0.18930782616E+02  0.18033931083E+03  0.17120000000E+03 0.  0.
        998    1    1    2    0    0  0.17934643408E+02  0.22337931997E+02  0.11629960691E+04  0.11633918047E+04  0.10000000000E+02 0.  0.
</event>
<event>
 5    1  0.7732857E-009  0.3823419E+03  0.7957747E-01  0.3441024E+00
         13   -1    0    0    0    0  0.00000000000E+00  0.00000000000E+00  0.14999999963E+04  0.15000000000E+04  0.10566000000E+00 0.  1.
        994   -1    0    0    0    0 -0.00000000000E+00 -0.00000000000E+00  0.11368683772E-12  0.17120000000E+03  0.17120000000E+03 0.  0.
         13    1    1    2    0    0  0.19078524831E+02 -0.12468905266E+03  0.65629962102E+03  0.66831171895E+03  0.10566000000E+00 0.  1.
        994    1    1    2    0    0 -0.17579545407E+02  0.16863695656E+03  0.10503624316E+03  0.26284884613E+03  0.17120000000E+03 0.  0.
        998    1    1    2    0    0 -0.14989794240E+01 -0.43947903905E+02  0.73866413209E+03  0.74003943492E+03  0.10000000000E+02 0. -1.
</event>
<event>
 5    1  0.7732857E-009  0.3832790E+03  0.7957747E-01  0.3437004E+00
         13   -1    0    0    0    0  0.00000000000E+00  0.00000000000E+00  0.14999999963E+04  0.15000000000E+04  0.10566000000E+00 0.  1.
        994   -1    0    0    0    0 -0.00000000000E+00 -0.00000000000E+00  0.11368683772E-12  0.17120000000E+03  0.17120000000E+03 0.  0.
         13    1    1    2    0    0  0.14983436363E+02  0.65658995538E+01  0.53169286224E+02  0.55629116152E+02  0.10566000000E+00 0.  1.
        994    1    1    2    0    0 -0.87084648054E+01 -0.63081368275E+01  0.28694803922E+01  0.17156137056E+03  0.17120000000E+03 0.  0.
        998    1    1    2    0    0 -0.62749715575E+01 -0.25776272631E+00  0.14439612297E+04  0.14440095133E+04  0.10000000000E+02 0.  1.
</event>
<event>
 5    1  0.7732857E-009  0.2433932E+03  0.7957747E-01  0.4406880E+00
         13   -1    0    0    0    0  0.00000000000E+00  0.00000000000E+00  0.14999999963E+04  0.15000000000E+04  0.10566000000E+00 0. -1.
        994   -1    0    0    0    0 -0.00000000000E+00 -0.00000000000E+00  0.11368683772E-12  0.17120000000E+03  0.17120000000E+03 0.  0.
         13    1    1    2    0    0  0.26750749091E+02 -0.18441217559E+03  0.26729587376E+03  0.32583822424E+03  0.10566000000E+00 0. -1.
        994    1    1    2    0    0  0.94503370951E+00  0.14139442564E+03  0.16562408383E+03  0.27700912230E+03  0.17120000000E+03 0.  0.
        998    1    1    2    0    0 -0.27695782801E+02  0.43017749946E+02  0.10670800387E+04  0.10683526535E+04  0.10000000000E+02 0. -1.
</event>
<event>
 5    1  0.7732857E-009  0.3842386E+03  0.7957747E-01  0.3432908E+00
         13   -1    0    0    0    0  0.00000000000E+00  0.00000000000E+00  0.14999999963E+04  0.15000000000E+04  0.10566000000E+00 0. -1.
        994   -1    0    0    0    0 -0.00000000000E+00 -0.00000000000E+00  0.11368683772E-12  0.17120000000E+03  0.17120000000E+03 0.  0.
         13    1    1    2    0    0  0.13188844750E+02 -0.93487491386E+01  0.62400907420E+02  0.64461066910E+02  0.10566000000E+00 0. -1.
        994    1    1    2    0    0 -0.16787675485E+02  0.58685909889E+01  0.30519981125E+01  0.17214825326E+03  0.17120000000E+03 0.  0.
        998    1    1    2    0    0  0.35988307351E+01  0.34801581497E+01  0.14345470907E+04  0.14345906798E+04  0.10000000000E+02 0. -1.
</event>
<event>
 5    1  0.7732857E-009  0.3842456E+03  0.7957747E-01  0.3432878E+00
         13   -1    0    0    0    0  0.00000000000E+00  0.00000000000E+00  0.14999999963E+04  0.15000000000E+04  0.10566000000E+00 0.  1.
        994   -1    0    0    0    0 -0.00000000000E+00 -0.00000000000E+00  0.11368683772E-12  0.17120000000E+03  0.17120000000E+03 0.  0.
         13    1    1    2    0    0 -0.14997447356E+02  0.62461017071E+01  0.77878621583E+02  0.79555188878E+02  0.10566000000E+00 0.  1.
        994    1    1    2    0    0 -0.62724231762E+01  0.25494642457E+02  0.42809462679E+01  0.17325439846E+03  0.17120000000E+03 0.  0.
        998    1    1    2    0    0  0.21269870533E+02 -0.31740744164E+02  0.14178404284E+04  0.14183904127E+04  0.10000000000E+02 0.  1.
</event>
<event>
 5    1  0.7732857E-009  0.3704432E+03  0.7957747E-01  0.3493857E+00
         13   -1    0    0    0    0  0.00000000000E+00  0.00000000000E+00  0.14999999963E+04  0.15000000000E+04  0.10566000000E+00 0. -1.
        994   -1    0    0    0    0 -0.00000000000E+00 -0.00000000000E+00  0.11368683772E-12  0.17120000000E+03  0.17120000000E+03 0.  0.
         13    1    1    2    0    0 -0.12781155967E+02 -0.24356959596E+02  0.33040652934E+02  0.42992038088E+02  0.10566000000E+00 0. -1.
        994    1    1    2    0    0 -0.57309822595E+02  0.10495177835E+03  0.60153927412E+02  0.21731826091E+03  0.17120000000E+03 0.  0.
        998    1    1    2    0    0  0.70090978562E+02 -0.80594818749E+02  0.14068054159E+04  0.14108897010E+04  0.10000000000E+02 0. -1.
</event>
<event>
 5    1  0.7732857E-009  0.3815638E+03  0.7957747E-01  0.3444378E+00
         13   -1    0    0    0    0  0.00000000000E+00  0.00000000000E+00  0.14999999963E+04  0.15000000000E+04  0.10566000000E+00 0.  1.
        994   -1    0    0    0    0 -0.00000000000E+00 -0.00000000000E+00  0.11368683772E-12  0.17120000000E+03  0.17120000000E+03 0.  0.
         13    1    1    2    0    0  0.18904684059E+02 -0.90370976383E+01  0.62754206481E+02  0.66160092263E+02  0.10566000000E+00 0.  1.
        994    1    1    2    0    0 -0.18995091354E+02  0.52861661157E+01  0.46397933887E+01  0.17239409715E+03  0.17120000000E+03 0.  0.
        998    1    1    2    0    0  0.90407295254E-01  0.37509315226E+01  0.14326059964E+04  0.14326458106E+04  0.10000000000E+02 0.  1.
</event>
<event>
 5    1  0.7732857E-009  0.3771024E+03  0.7957747E-01  0.3463873E+00
         13   -1    0    0    0    0  0.00000000000E+00  0.00000000000E+00  0.14999999963E+04  0.15000000000E+04  0.10566000000E+00 0. -1.
        994   -1    0    0    0    0 -0.00000000000E+00 -0.00000000000E+00  0.11368683772E-12  0.17120000000E+03  0.17120000000E+03 0.  0.
         13    1    1    2    0    0 -0.82735491730E+01  0.28272005374E+02  0.73365504242E+02  0.79058625592E+02  0.10566000000E+00 0. -1.
        994    1    1    2    0    0  0.12130761556E+02 -0.22892916227E+02  0.78719521543E+01  0.17332815299E+03  0.17120000000E+03 0.  0.
        998    1    1    2    0    0 -0.38572123833E+01 -0.53790891467E+01  0.14187625399E+04  0.14188132214E+04  0.10000000000E+02 0. -1.
</event>
<event>
 5    1  0.7732857E-009  0.3742176E+03  0.7957747E-01  0.3476729E+00
         13   -1    0    0    0    0  0.00000000000E+00  0.00000000000E+00  0.14999999963E+04  0.15000000000E+04  0.10566000000E+00 0.  1.
        994   -1    0    0    0    0 -0.00000000000E+00 -0.00000000000E+00  0.11368683772E-12  0.17120000000E+03  0.17120000000E+03 0.  0.
         13    1    1    2    0    0 -0.22906596748E+02 -0.42393159975E+01  0.34160671914E+02  0.41347873517E+02  0.10566000000E+00 0.  1.
        994    1    1    2    0    0  0.29891257017E+02 -0.96199821382E+00  0.10135444389E+02  0.17408785115E+03  0.17120000000E+03 0.  0.
        998    1    1    2    0    0 -0.69846602691E+01  0.52013142113E+01  0.14557038800E+04  0.14557642753E+04  0.10000000000E+02 0.  1.
</event>
<event>
 5    1  0.7732857E-009  0.3753324E+03  0.7957747E-01  0.3471738E+00
         13   -1    0    0    0    0  0.00000000000E+00  0.00000000000E+00  0.14999999963E+04  0.15000000000E+04  0.10566000000E+00 0. -1.
        994   -1    0    0    0    0 -0.00000000000E+00 -0.00000000000E+00  0.11368683772E-12  0.17120000000E+03  0.17120000000E+03 0.  0.
         13    1    1    2    0    0  0.27823023800E+02 -0.27720317324E+02  0.15703066823E+03  0.16186778115E+03  0.10566000000E+00 0. -1.
        994    1    1    2    0    0  0.92515147420E+00 -0.41591196464E+02  0.12407207769E+02  0.17661840882E+03  0.17120000000E+03 0.  0.
        998    1    1    2    0    0 -0.28748175274E+02  0.69311513788E+02  0.13305621203E+04  0.13327138100E+04  0.10000000000E+02 0. -1.
</event>
<event>
 5    1  0.7732857E-009  0.3844005E+03  0.7957747E-01  0.3432219E+00
         13   -1    0    0    0    0  0.00000000000E+00  0.00000000000E+00  0.14999999963E+04  0.15000000000E+04  0.10566000000E+00 0. -1.
        994   -1    0    0    0    0 -0.00000000000E+00 -0.00000000000E+00  0.11368683772E-12  0.17120000000E+03  0.17120000000E+03 0.  0.
         13    1    1    2    0    0 -0.27512285011E+00  0.12198013292E+02  0.41472569922E+02  0.43230226010E+02  0.10566000000E+00 0. -1.
        994    1    1    2    0    0 -0.37527992516E+01  0.87032889014E+01  0.22241145126E+01  0.17147657982E+03  0.17120000000E+03 0.  0.
        998    1    1    2    0    0  0.40279221017E+01 -0.20901302193E+02  0.14563033118E+04  0.14564931942E+04  0.10000000000E+02 0. -1.
</event>
<event>
 5    1  0.7732857E-009  0.3789855E+03  0.7957747E-01  0.3455588E+00
         13   -1    0    0    0    0  0.00000000000E+00  0.00000000000E+00  0.14999999963E+04  0.15000000000E+04  0.10566000000E+00 0.  1.
        994   -1    0    0    0    0 -0.00000000000E+00 -0.00000000000E+00  0.11368683772E-12  0.17120000000E+03  0.17120000000E+03 0.  0.
         13    1    1    2    0    0  0.80115255073E+00  0.17399906953E+02  0.30341085907E+02  0.34985586538E+02  0.10566000000E+00 0.  1.
        994    1    1    2    0    0  0.88190542288E-01 -0.16706005309E+02  0.55828492280E+01  0.17210376694E+03  0.17120000000E+03 0.  0.
        998    1    1    2    0    0 -0.88934309302E+00 -0.69390164442E+00  0.14640760611E+04  0.14641106465E+04  0.10000000000E+02 0.  1.
</event>
<event>
 5    1  0.7732857E-009  0.3827311E+03  0.7957747E-01  0.3439352E+00
         13   -1    0    0    0    0  0.00000000000E+00  0.00000000000E+00  0.14999999963E+04  0.15000000000E+04  0.10566000000E+00 0.  1.
        994   -1    0    0    0    0 -0.00000000000E+00 -0.00000000000E+00  0.11368683772E-12  0.17120000000E+03  0.17120000000E+03 0.  0.
         13    1    1    2    0    0 -0.23682077656E+02  0.87408478190E+01  0.12685776269E+03  0.12934506694E+03  0.10566000000E+00 0.  1.
        994    1    1    2    0    0 -0.39569212223E+01 -0.14413108261E+02  0.35012498867E+01  0.17188686298E+03  0.17120000000E+03 0.  0.
        998    1    1    2    0    0  0.27638998879E+02  0.56722604419E+01  0.13696409837E+04  0.13699680701E+04  0.10000000000E+02 0.  1.
</event>
<event>
 5    1  0.7732857E-009  0.3844992E+03  0.7957747E-01  0.3431799E+00
         13   -1    0    0    0    0  0.00000000000E+00  0.00000000000E+00  0.14999999963E+04  0.15000000000E+04  0.10566000000E+00 0.  1.
        994   -1    0    0    0    0 -0.00000000000E+00 -0.00000000000E+00  0.11368683772E-12  0.17120000000E+03  0.17120000000E+03 0.  0.
         13    1    1    2    0    0 -0.14800666378E+02 -0.10582466223E+02  0.71692084139E+02  0.73964953923E+02  0.10566000000E+00 0.  1.
        994    1    1    2    0    0  0.63329058845E+02 -0.69730497702E+01  0.15366352087E+02  0.18331600556E+03  0.17120000000E+03 0.  0.
        998    1    1    2    0    0 -0.48528392467E+02  0.17555515993E+02  0.14129415601E+04  0.14139190405E+04  0.10000000000E+02 0.  1.
</event>
<event>
 5    1  0.7732857E-009  0.3849321E+03  0.7957747E-01  0.3429960E+00
         13   -1    0    0    0    0  0.00000000000E+00  0.00000000000E+00  0.14999999963E+04  0.15000000000E+04  0.10566000000E+00 0. -1.
        994   -1    0    0    0    0 -0.00000000000E+00 -0.00000000000E+00  0.11368683772E-12  0.17120000000E+03  0.17120000000E+03 0.  0.
         13    1    1    2    0    0 -0.74255096386E+01 -0.15193216272E+02  0.88343983916E+02  0.89947999823E+02  0.10566000000E+00 0. -1.
        994    1    1    2    0    0  0.72261416820E+01  0.44841129169E+01  0.19018145687E+01  0.17142164767E+03  0.17120000000E+03 0.  0.
        998    1    1    2    0    0  0.19936795657E+00  0.10709103355E+02  0.14097541978E+04  0.14098303525E+04  0.10000000000E+02 0. -1.
</event>
<event>
 5    1  0.7732857E-009  0.3848998E+03  0.7957747E-01  0.3430097E+00
         13   -1    0    0    0    0  0.00000000000E+00  0.00000000000E+00  0.14999999963E+04  0.15000000000E+04  0.10566000000E+00 0. -1.
        994   -1    0    0    0    0 -0.00000000000E+00 -0.00000000000E+00  0.11368683772E-12  0.17120000000E+03  0.17120000000E+03 0.  0.
         13    1    1    2    0    0  0.25912769902E+01  0.13689874819E+02  0.53043646893E+02  0.54843112865E+02  0.10566000000E+00 0. -1.
        994    1    1    2    0    0 -0.22078532139E+02 -0.20904297555E+02  0.47270155442E+01  0.17394319738E+03  0.17120000000E+03 0.  0.
        998    1    1    2    0    0  0.19487255149E+02  0.72144227363E+01  0.14422293338E+04  0.14424136898E+04  0.10000000000E+02 0. -1.
</event>
<event>
 5    1  0.7732857E-009  0.3853143E+03  0.7957747E-01  0.3428340E+00
         13   -1    0    0    0    0  0.00000000000E+00  0.00000000000E+00  0.14999999963E+04  0.15000000000E+04  0.10566000000E+00 0.  1.
        994   -1    0    0    0    0 -0.00000000000E+00 -0.00000000000E+00  0.11368683772E-12  0.17120000000E+03  0.17120000000E+03 0.  0.
         13    1    1    2    0    0  0.74324624842E+01  0.11008128632E+02  0.63286262626E+02  0.64665157510E+02  0.10566000000E+00 0.  1.
        994    1    1    2    0    0 -0.64344072648E+01  0.33018458398E+01  0.16460167025E+01  0.17136059394E+03  0.17120000000E+03 0.  0.
        998    1    1    2    0    0 -0.99805521942E+00 -0.14309974472E+02  0.14350677170E+04  0.14351742486E+04  0.10000000000E+02 0.  1.
</event>
<event>
 5    1  0.7732857E-009  0.3826258E+03  0.7957747E-01  0.3439804E+00
         13   -1    0    0    0    0  0.00000000000E+00  0.00000000000E+00  0.14999999963E+04  0.15000000000E+04  0.10566000000E+00 0.  1.
        994   -1    0    0    0    0 -0.00000000000E+00 -0.00000000000E+00  0.11368683772E-12  0.17120000000E+03  0.17120000000E+03 0.  0.
         13    1    1    2    0    0 -0.17751042059E+01 -0.12116279265E+02  0.25782157088E+02  0.28542704958E+02  0.10566000000E+00 0.  1.
        994    1    1    2    0    0  0.11191481995E+02  0.50600788339E+01  0.33135944116E+01  0.17167199415E+03  0.17120000000E+03 0.  0.
        998    1    1    2    0    0 -0.94163777887E+01  0.70562004313E+01  0.14709042448E+04  0.14709853009E+04  0.10000000000E+02 0.  1.
</event>
<event>
 5    1  0.7732857E-009  0.3839840E+03  0.7957747E-01  0.3433992E+00
         13   -1    0    0    0    0  0.00000000000E+00  0.00000000000E+00  0.14999999963E+04  0.15000000000E+04  0.10566000000E+00 0. -1.
        994   -1    0    0    0    0 -0.00000000000E+00 -0.00000000000E+00  0.11368683772E-12  0.17120000000E+03  0.17120000000E+03 0.  0.
         13    1    1    2    0    0  0.90396095582E-01  0.11926882977E+02  0.33036117186E+02  0.35123423976E+02  0.10566000000E+00 0. -1.
        994    1    1    2    0    0 -0.37202803686E+01 -0.58781532012E+01  0.22950746484E+01  0.17135664720E+03  0.17120000000E+03 0.  0.
        998    1    1    2    0    0  0.36298842731E+01 -0.60487297754E+01  0.14646688044E+04  0.14647199288E+04  0.10000000000E+02 0. -1.
</event>
<event>
 5    1  0.7732857E-009  0.3750935E+03  0.7957747E-01  0.3472805E+00
         13   -1    0    0    0    0  0.00000000000E+00  0.00000000000E+00  0.14999999963E+04  0.15000000000E+04  0.10566000000E+00 0.  1.
        994   -1    0    0    0    0 -0.00000000000E+00 -0.00000000000E+00  0.11368683772E-12  0.17120000000E+03  0.17120000000E+03 0.  0.
         13    1    1    2    0    0  0.58894482506E+01 -0.14254326832E+02  0.14630353955E+02  0.21258641891E+02  0.10566000000E+00 0.  1.
        994    1    1    2    0    0 -0.81775330397E+01  0.20994435388E+02  0.83576502724E+01  0.17287836383E+03  0.17120000000E+03 0.  0.
        998    1    1    2    0    0  0.22880847891E+01 -0.67401085561E+01  0.14770119921E+04  0.14770629943E+04  0.10000000000E+02 0.  1.
</event>
<event>
 5    1  0.7732857E-009  0.3782251E+03  0.7957747E-01  0.3458923E+00
         13   -1    0    0    0    0  0.00000000000E+00  0.00000000000E+00  0.14999999963E+04  0.15000000000E+04  0.10566000000E+00 0.  1.
        994   -1    0    0    0    0 -0.00000000000E+00 -0.00000000000E+00  0.11368683772E-12  0.17120000000E+03  0.17120000000E+03 0.  0.
         13    1    1    2    0    0 -0.26385467654E+02  0.55119212614E+00  0.65136475969E+02  0.70279928727E+02  0.10566000000E+00 0.  1.
        994    1    1    2    0    0  0.25369142964E+02  0.23408806475E+01  0.72174536897E+01  0.17323569140E+03  0.17120000000E+03 0.  0.
        998    1    1    2    0    0  0.10163246903E+01 -0.28920727737E+01  0.14276460666E+04  0.14276843799E+04  0.10000000000E+02 0.  0.
</event>
<event>
 5    1  0.7732857E-009  0.3857624E+03  0.7957747E-01  0.3426445E+00
         13   -1    0    0    0    0  0.00000000000E+00  0.00000000000E+00  0.14999999963E+04  0.15000000000E+04  0.10566000000E+00 0.  1.
        994   -1    0    0    0    0 -0.00000000000E+00 -0.00000000000E+00  0.11368683772E-12  0.17120000000E+03  0.17120000000E+03 0.  0.
         13    1    1    2    0    0  0.13388351753E+02 -0.95461025612E-01  0.71979473347E+02  0.73214157256E+02  0.10566000000E+00 0.  1.
        994    1    1    2    0    0 -0.91849065055E+01  0.16368839411E+01  0.15376746333E+01  0.17146091782E+03  0.17120000000E+03 0.  0.
        998    1    1    2    0    0 -0.42034452479E+01 -0.15414229155E+01  0.14264828483E+04  0.14265249249E+04  0.10000000000E+02 0.  1.
</event>
<event>
 5    1  0.7732857E-009  0.3829507E+03  0.7957747E-01  0.3438410E+00
         13   -1    0    0    0    0  0.00000000000E+00  0.00000000000E+00  0.14999999963E+04  0.15000000000E+04  0.10566000000E+00 0. -1.
        994   -1    0    0    0    0 -0.00000000000E+00 -0.00000000000E+00  0.11368683772E-12  0.17120000000E+03  0.17120000000E+03 0.  0.
         13    1    1    2    0    0 -0.16783162213E+02  0.64815279261E+02  0.39737589607E+03  0.40297680938E+03  0.10566000000E+00 0. -1.
        994    1    1    2    0    0  0.62884834137E+02 -0.93052570719E+02  0.45595519427E+02  0.20976576144E+03  0.17120000000E+03 0.  0.
        998    1    1    2    0    0 -0.46101671925E+02  0.28237291457E+02  0.10570285808E+04  0.10584574292E+04  0.10000000000E+02 0. -1.
</event>
<event>
 5    1  0.7732857E-009  0.3718095E+03  0.7957747E-01  0.3487616E+00
         13   -1    0    0    0    0  0.00000000000E+00  0.00000000000E+00  0.14999999963E+04  0.15000000000E+04  0.10566000000E+00 0.  1.
        994   -1    0    0    0    0 -0.00000000000E+00 -0.00000000000E+00  0.11368683772E-12  0.17120000000E+03  0.17120000000E+03 0.  0.
         13    1    1    2    0    0  0.20025460498E+02 -0.11924007580E+01  0.19541217443E+02  0.28005557143E+02  0.10566000000E+00 0.  1.
        994    1    1    2    0    0 -0.33205032599E+02  0.35221248598E+02  0.16421050170E+02  0.17866785226E+03  0.17120000000E+03 0.  0.
        998    1    1    2    0    0  0.13179572102E+02 -0.34028847840E+02  0.14640377287E+04  0.14645265906E+04  0.10000000000E+02 0.  1.
</event>
<event>
 5    1  0.7732857E-009  0.3782384E+03  0.7957747E-01  0.3458865E+00
         13   -1    0    0    0    0  0.00000000000E+00  0.00000000000E+00  0.14999999963E+04  0.15000000000E+04  0.10566000000E+00 0. -1.
        994   -1    0    0    0    0 -0.00000000000E+00 -0.00000000000E+00  0.11368683772E-12  0.17120000000E+03  0.17120000000E+03 0.  0.
         13    1    1    2    0    0 -0.36058461917E+01 -0.14340623286E+02  0.19720488013E+02  0.24648821767E+02  0.10566000000E+00 0. -1.
        994    1    1    2    0    0  0.98472047306E+00  0.84549144878E+01  0.52687326715E+01  0.17149243364E+03  0.17120000000E+03 0.  0.
        998    1    1    2    0    0  0.26211257186E+01  0.58857087980E+01  0.14750107756E+04  0.14750587446E+04  0.10000000000E+02 0. -1.
</event>
<event>
 5    1  0.7732857E-009  0.3718653E+03  0.7957747E-01  0.3487362E+00
         13   -1    0    0    0    0  0.00000000000E+00  0.00000000000E+00  0.14999999963E+04  0.15000000000E+04  0.10566000000E+00 0. -1.
        994   -1    0    0    0    0 -0.00000000000E+00 -0.00000000000E+00  0.11368683772E-12  0.17120000000E+03  0.17120000000E+03 0.  0.
         13    1    1    2    0    0 -0.97495708729E+02 -0.16926977487E+02  0.56627291378E+03  0.57485385955E+03  0.10566000000E+00 0. -1.
        994    1    1    2    0    0  0.58827960758E+02  0.19349467808E+02  0.21590423804E+02  0.18333225922E+03  0.17120000000E+03 0.  0.
        998    1    1    2    0    0  0.38667747972E+02 -0.24224903208E+01  0.91213665869E+03  0.91301388123E+03  0.10000000000E+02 0. -1.
</event>
<event>
 5    1  0.7732857E-009  0.3793127E+03  0.7957747E-01  0.3454157E+00
         13   -1    0    0    0    0  0.00000000000E+00  0.00000000000E+00  0.14999999963E+04  0.15000000000E+04  0.10566000000E+00 0.  1.
        994   -1    0    0    0    0 -0.00000000000E+00 -0.00000000000E+00  0.11368683772E-12  0.17120000000E+03  0.17120000000E+03 0.  0.
         13    1    1    2    0    0  0.11982567706E+02  0.18520100507E+02  0.52939693716E+02  0.57351533427E+02  0.10566000000E+00 0.  1.
        994    1    1    2    0    0  0.35069392660E+01 -0.17404968121E+02  0.55374099417E+01  0.17220724273E+03  0.17120000000E+03 0.  0.
        998    1    1    2    0    0 -0.15489506972E+02 -0.11151323855E+01  0.14415228926E+04  0.14416412238E+04  0.10000000000E+02 0.  1.
</event>
<event>
 5    1  0.7732857E-009  0.3736353E+03  0.7957747E-01  0.3479349E+00
         13   -1    0    0    0    0  0.00000000000E+00  0.00000000000E+00  0.14999999963E+04  0.15000000000E+04  0.10566000000E+00 0. -1.
        994   -1    0    0    0    0 -0.00000000000E+00 -0.00000000000E+00  0.11368683772E-12  0.17120000000E+03  0.17120000000E+03 0.  0.
         13    1    1    2    0    0  0.28848523083E+02 -0.86603120984E+01  0.29430241629E+02  0.42111620440E+02  0.10566000000E+00 0. -1.
        994    1    1    2    0    0 -0.26466617785E+02  0.15652910585E+02  0.16229482204E+02  0.17469496718E+03  0.17120000000E+03 0.  0.
        998    1    1    2    0    0 -0.23819052970E+01 -0.69925984869E+01  0.14543402724E+04  0.14543934124E+04  0.10000000000E+02 0. -1.
</event>
<event>
 5    1  0.7732857E-009  0.3721345E+03  0.7957747E-01  0.3486138E+00
         13   -1    0    0    0    0  0.00000000000E+00  0.00000000000E+00  0.14999999963E+04  0.15000000000E+04  0.10566000000E+00 0. -1.
        994   -1    0    0    0    0 -0.00000000000E+00 -0.00000000000E+00  0.11368683772E-12  0.17120000000E+03  0.17120000000E+03 0.  0.
         13    1    1    2    0    0 -0.29849542921E+02 -0.54386263257E+02  0.14941778038E+03  0.16178549101E+03  0.10566000000E+00 0. -1.
        994    1    1    2    0    0  0.25155164578E+02  0.40863319230E+02  0.20226868833E+02  0.17894457071E+03  0.17120000000E+03 0.  0.
        998    1    1    2    0    0  0.46943783435E+01  0.13522944027E+02  0.13303553471E+04  0.13304699383E+04  0.10000000000E+02 0. -1.
</event>
<event>
 5    1  0.7732857E-009  0.3808387E+03  0.7957747E-01  0.3447515E+00
         13   -1    0    0    0    0  0.00000000000E+00  0.00000000000E+00  0.14999999963E+04  0.15000000000E+04  0.10566000000E+00 0. -1.
        994   -1    0    0    0    0 -0.00000000000E+00 -0.00000000000E+00  0.11368683772E-12  0.17120000000E+03  0.17120000000E+03 0.  0.
         13    1    1    2    0    0  0.20696578925E+01 -0.10436153647E+02  0.13531395280E+02  0.17213558870E+02  0.10566000000E+00 0. -1.
        994    1    1    2    0    0 -0.69235552518E+01  0.10450071481E+02  0.42343798868E+01  0.17171054011E+03  0.17120000000E+03 0.  0.
        998    1    1    2    0    0  0.48538973593E+01 -0.13917834600E-01  0.14822342211E+04  0.14822759010E+04  0.10000000000E+02 0. -1.
</event>
<event>
 5    1  0.7732857E-009  0.3770214E+03  0.7957747E-01  0.3464232E+00
         13   -1    0    0    0    0  0.00000000000E+00  0.00000000000E+00  0.14999999963E+04  0.15000000000E+04  0.10566000000E+00 0.  1.
        994   -1    0    0    0    0 -0.00000000000E+00 -0.00000000000E+00  0.11368683772E-12  0.17120000000E+03  0.17120000000E+03 0.  0.
         13    1    1    2    0    0  0.22422988768E+02 -0.18986226852E+02  0.72231108639E+02  0.77978275530E+02  0.10566000000E+00 0.  1.
        994    1    1    2    0    0 -0.15940096136E+02  0.21494297784E+02  0.80657878194E+01  0.17346638993E+03  0.17120000000E+03 0.  0.
        998    1    1    2    0    0 -0.64828926322E+01 -0.25080709325E+01  0.14197030998E+04  0.14197553345E+04  0.10000000000E+02 0.  1.
</event>
<event>
 5    1  0.7732857E-009  0.3847164E+03  0.7957747E-01  0.3430876E+00
         13   -1    0    0    0    0  0.00000000000E+00  0.00000000000E+00  0.14999999963E+04  0.15000000000E+04  0.10566000000E+00 0. -1.
        994   -1    0    0    0    0 -0.00000000000E+00 -0.00000000000E+00  0.11368683772E-12  0.17120000000E+03  0.17120000000E+03 0.  0.
         13    1    1    2    0    0  0.33329577372E+01  0.16160665105E+02  0.78663144454E+02  0.80375227298E+02  0.10566000000E+00 0. -1.
        994    1    1    2    0    0 -0.22090733553E+02 -0.32520023746E+01  0.34138889026E+01  0.17268373017E+03  0.17120000000E+03 0.  0.
        998    1    1    2    0    0  0.18757775815E+02 -0.12908662730E+02  0.14179229629E+04  0.14181410425E+04  0.10000000000E+02 0. -1.
</event>
<event>
 5    1  0.7732857E-009  0.3842213E+03  0.7957747E-01  0.3432982E+00
         13   -1    0    0    0    0  0.00000000000E+00  0.00000000000E+00  0.14999999963E+04  0.15000000000E+04  0.10566000000E+00 0.  1.
        994   -1    0    0    0    0 -0.00000000000E+00 -0.00000000000E+00  0.11368683772E-12  0.17120000000E+03  0.17120000000E+03 0.  0.
         13    1    1    2    0    0  0.93089032035E+01 -0.67606370296E+01  0.32249488419E+02  0.34240364473E+02  0.10566000000E+00 0.  1.
        994    1    1    2    0    0 -0.90969649786E+01  0.15783368757E+01  0.22983590734E+01  0.17146418977E+03  0.17120000000E+03 0.  0.
        998    1    1    2    0    0 -0.21193822491E+00  0.51823001539E+01  0.14654521488E+04  0.14654954458E+04  0.10000000000E+02 0.  1.
</event>
<event>
 5    1  0.7732857E-009  0.3843476E+03  0.7957747E-01  0.3432444E+00
         13   -1    0    0    0    0  0.00000000000E+00  0.00000000000E+00  0.14999999963E+04  0.15000000000E+04  0.10566000000E+00 0. -1.
        994   -1    0    0    0    0 -0.00000000000E+00 -0.00000000000E+00  0.11368683772E-12  0.17120000000E+03  0.17120000000E+03 0.  0.
         13    1    1    2    0    0  0.14907066750E+02 -0.45628578985E+01  0.72519122697E+02  0.74175970719E+02  0.10566000000E+00 0. -1.
        994    1    1    2    0    0  0.16323334211E+02  0.26034479596E+01  0.28553835899E+01  0.17201983140E+03  0.17120000000E+03 0.  0.
        998    1    1    2    0    0 -0.31230400961E+02  0.19594099388E+01  0.14246254900E+04  0.14250041979E+04  0.10000000000E+02 0. -1.
</event>
<event>
 5    1  0.7732857E-009  0.3749841E+03  0.7957747E-01  0.3473294E+00
         13   -1    0    0    0    0  0.00000000000E+00  0.00000000000E+00  0.14999999963E+04  0.15000000000E+04  0.10566000000E+00 0. -1.
        994   -1    0    0    0    0 -0.00000000000E+00 -0.00000000000E+00  0.11368683772E-12  0.17120000000E+03  0.17120000000E+03 0.  0.
         13    1    1    2    0    0  0.29137613722E+02  0.14545697516E+02  0.95135624068E+02  0.10055533790E+03  0.10566000000E+00 0. -1.
        994    1    1    2    0    0 -0.28895561386E+01  0.69599597827E+02  0.23365291933E+02  0.18630037686E+03  0.17120000000E+03 0.  0.
        998    1    1    2    0    0 -0.26248057583E+02 -0.84145295342E+02  0.13814990803E+04  0.13843442852E+04  0.10000000000E+02 0. -1.
</event>
<event>
 5    1  0.7732857E-009  0.3808357E+03  0.7957747E-01  0.3447528E+00
         13   -1    0    0    0    0  0.00000000000E+00  0.00000000000E+00  0.14999999963E+04  0.15000000000E+04  0.10566000000E+00 0. -1.
        994   -1    0    0    0    0 -0.00000000000E+00 -0.00000000000E+00  0.11368683772E-12  0.17120000000E+03  0.17120000000E+03 0.  0.
         13    1    1    2    0    0 -0.27320511245E+01  0.10401807486E+02  0.13726787957E+02  0.17438393675E+02  0.10566000000E+00 0. -1.
        994    1    1    2    0    0  0.90745898468E+01 -0.13515269694E+02  0.45958301970E+01  0.17203363727E+03  0.17120000000E+03 0.  0.
        998    1    1    2    0    0 -0.63425387224E+01  0.31134622077E+01  0.14816773781E+04  0.14817279691E+04  0.10000000000E+02 0. -1.
</event>
<event>
 5    1  0.7732857E-009  0.3843611E+03  0.7957747E-01  0.3432386E+00
         13   -1    0    0    0    0  0.00000000000E+00  0.00000000000E+00  0.14999999963E+04  0.15000000000E+04  0.10566000000E+00 0. -1.
        994   -1    0    0    0    0 -0.00000000000E+00 -0.00000000000E+00  0.11368683772E-12  0.17120000000E+03  0.17120000000E+03 0.  0.
         13    1    1    2    0    0 -0.13341044623E+02  0.32417586012E+01  0.47496178393E+02  0.49440778680E+02  0.10566000000E+00 0. -1.
        994    1    1    2    0    0  0.11007789321E+02 -0.31858406610E+01  0.23805698568E+01  0.17159961573E+03  0.17120000000E+03 0.  0.
        998    1    1    2    0    0  0.23332553017E+01 -0.55917940196E-01  0.14501232480E+04  0.14501596056E+04  0.10000000000E+02 0. -1.
</event>
<event>
 5    1  0.7732857E-009  0.3799626E+03  0.7957747E-01  0.3451321E+00
         13   -1    0    0    0    0  0.00000000000E+00  0.00000000000E+00  0.14999999963E+04  0.15000000000E+04  0.10566000000E+00 0.  1.
        994   -1    0    0    0    0 -0.00000000000E+00 -0.00000000000E+00  0.11368683772E-12  0.17120000000E+03  0.17120000000E+03 0.  0.
         13    1    1    2    0    0  0.90621617883E+01  0.48887860093E+01  0.10805747262E+02  0.14926431015E+02  0.10566000000E+00 0.  1.
        994    1    1    2    0    0 -0.10428440957E+02 -0.72202550353E+01  0.46901065608E+01  0.17173328612E+03  0.17120000000E+03 0.  0.
        998    1    1    2    0    0  0.13662791682E+01  0.23314690260E+01  0.14845041425E+04  0.14845402829E+04  0.10000000000E+02 0.  1.
</event>
<event>
 5    1  0.7732857E-009  0.3742688E+03  0.7957747E-01  0.3476499E+00
         13   -1    0    0    0    0  0.00000000000E+00  0.00000000000E+00  0.14999999963E+04  0.15000000000E+04  0.10566000000E+00 0. -1.
        994   -1    0    0    0    0 -0.00000000000E+00 -0.00000000000E+00  0.11368683772E-12  0.17120000000E+03  0.17120000000E+03 0.  0.
         13    1    1    2    0    0  0.10302510963E+03  0.24242071640E+03  0.11051855517E+04  0.11361413168E+04  0.10566000000E+00 0. -1.
        994    1    1    2    0    0 -0.97029438741E+02 -0.23991283110E+03  0.27489438605E+03  0.41454703230E+03  0.17120000000E+03 0.  0.
        998    1    1    2    0    0 -0.59956708934E+01 -0.25078853038E+01  0.11992005855E+03  0.12051165089E+03  0.10000000000E+02 0.  0.
</event>
<event>
 5    1  0.7732857E-009  0.3841663E+03  0.7957747E-01  0.3433216E+00
         13   -1    0    0    0    0  0.00000000000E+00  0.00000000000E+00  0.14999999963E+04  0.15000000000E+04  0.10566000000E+00 0. -1.
        994   -1    0    0    0    0 -0.00000000000E+00 -0.00000000000E+00  0.11368683772E-12  0.17120000000E+03  0.17120000000E+03 0.  0.
         13    1    1    2    0    0  0.12191751900E-01 -0.11192402517E+02  0.29924860128E+02  0.31949623479E+02  0.10566000000E+00 0. -1.
        994    1    1    2    0    0  0.37862220837E+01  0.90985490832E+01  0.23649488720E+01  0.17149971445E+03  0.17120000000E+03 0.  0.
        998    1    1    2    0    0 -0.37984138356E+01  0.20938534336E+01  0.14677101873E+04  0.14677506621E+04  0.10000000000E+02 0. -1.
</event>
<event>
 5    1  0.7732857E-009  0.3693607E+03  0.7957747E-01  0.3498834E+00
         13   -1    0    0    0    0  0.00000000000E+00  0.00000000000E+00  0.14999999963E+04  0.15000000000E+04  0.10566000000E+00 0. -1.
        994   -1    0    0    0    0 -0.00000000000E+00 -0.00000000000E+00  0.11368683772E-12  0.17120000000E+03  0.17120000000E+03 0.  0.
         13    1    1    2    0    0 -0.80877075156E+00 -0.32981261291E+02  0.49271180348E+02  0.59296526739E+02  0.10566000000E+00 0. -1.
        994    1    1    2    0    0 -0.24370359299E+02  0.47599026347E+02  0.19579127300E+02  0.18042273678E+03  0.17120000000E+03 0.  0.
        998    1    1    2    0    0  0.25179130050E+02 -0.14617765056E+02  0.14311496886E+04  0.14314807365E+04  0.10000000000E+02 0. -1.
</event>
<event>
 5    1  0.7732857E-009  0.3830015E+03  0.7957747E-01  0.3438193E+00
         13   -1    0    0    0    0  0.00000000000E+00  0.00000000000E+00  0.14999999963E+04  0.15000000000E+04  0.10566000000E+00 0. -1.
        994   -1    0    0    0    0 -0.00000000000E+00 -0.00000000000E+00  0.11368683772E-12  0.17120000000E+03  0.17120000000E+03 0.  0.
         13    1    1    2    0    0  0.26614242944E+02  0.17588414991E+02  0.17889140826E+03  0.18171355860E+03  0.10566000000E+00 0. -1.
        994    1    1    2    0    0 -0.25559695557E+02 -0.11687979873E+02  0.52446843663E+01  0.17357088934E+03  0.17120000000E+03 0.  0.
        998    1    1    2    0    0 -0.10545473867E+01 -0.59004351182E+01  0.13158639037E+04  0.13159155521E+04  0.10000000000E+02 0. -1.
</event>
<event>
 5    1  0.1191719E-008  0.3858308E+03  0.7957747E-01  0.3426156E+00
         13   -1    0    0    0    0  0.00000000000E+00  0.00000000000E+00  0.14999999963E+04  0.15000000000E+04  0.10566000000E+00 0.  1.
        994   -1    0    0    0    0 -0.00000000000E+00 -0.00000000000E+00  0.11368683772E-12  0.17120000000E+03  0.17120000000E+03 0.  0.
         13    1    1    2    0    0  0.10758727628E+02  0.32833173522E+01  0.61099056287E+02  0.62125970706E+02  0.10566000000E+00 0.  1.
        994    1    1    2    0    0  0.17965621237E+02 -0.14298098416E+02  0.29492579234E+01  0.17275803103E+03  0.17120000000E+03 0.  0.
        998    1    1    2    0    0 -0.28724348865E+02  0.11014781064E+02  0.14359516821E+04  0.14363159983E+04  0.10000000000E+02 0.  1.
</event>
<event>
 5    1  0.7732857E-009  0.3830356E+03  0.7957747E-01  0.3438046E+00
         13   -1    0    0    0    0  0.00000000000E+00  0.00000000000E+00  0.14999999963E+04  0.15000000000E+04  0.10566000000E+00 0. -1.
        994   -1    0    0    0    0 -0.00000000000E+00 -0.00000000000E+00  0.11368683772E-12  0.17120000000E+03  0.17120000000E+03 0.  0.
         13    1    1    2    0    0 -0.15747743986E+02 -0.20817576709E+02  0.14600572677E+03  0.14832075497E+03  0.10566000000E+00 0. -1.
        994    1    1    2    0    0 -0.25042514503E+02  0.22246547960E+02  0.63310782209E+01  0.17456104657E+03  0.17120000000E+03 0.  0.
        998    1    1    2    0    0  0.40790258489E+02 -0.14289712509E+01  0.13476631913E+04  0.13483181985E+04  0.10000000000E+02 0. -1.
</event>
<event>
 5    1  0.7732857E-009  0.3700192E+03  0.7957747E-01  0.3495803E+00
         13   -1    0    0    0    0  0.00000000000E+00  0.00000000000E+00  0.14999999963E+04  0.15000000000E+04  0.10566000000E+00 0. -1.
        994   -1    0    0    0    0 -0.00000000000E+00 -0.00000000000E+00  0.11368683772E-12  0.17120000000E+03  0.17120000000E+03 0.  0.
         13    1    1    2    0    0 -0.30016369458E+02 -0.30152290533E+02  0.90591719482E+02  0.10008503316E+03  0.10566000000E+00 0. -1.
        994    1    1    2    0    0  0.16038716587E+02  0.38351084641E+02  0.15257373744E+02  0.17683402833E+03  0.17120000000E+03 0.  0.
        998    1    1    2    0    0  0.13977652871E+02 -0.81987941083E+01  0.13941509031E+04  0.13942809385E+04  0.10000000000E+02 0. -1.
</event>
<event>
 5    1  0.7732857E-009  0.3775374E+03  0.7957747E-01  0.3461952E+00
         13   -1    0    0    0    0  0.00000000000E+00  0.00000000000E+00  0.14999999963E+04  0.15000000000E+04  0.10566000000E+00 0.  1.
        994   -1    0    0    0    0 -0.00000000000E+00 -0.00000000000E+00  0.11368683772E-12  0.17120000000E+03  0.17120000000E+03 0.  0.
         13    1    1    2    0    0 -0.20528824203E+02 -0.45127796618E+02  0.19933874292E+03  0.20541152899E+03  0.10566000000E+00 0.  1.
        994    1    1    2    0    0  0.24971300501E+02  0.41920152891E+02  0.13448244837E+02  0.17852495724E+03  0.17120000000E+03 0.  0.
        998    1    1    2    0    0 -0.44424762984E+01  0.32076437267E+01  0.12872130085E+04  0.12872635138E+04  0.10000000000E+02 0.  1.
</event>
<event>
 5    1  0.7732857E-009  0.3857928E+03  0.7957747E-01  0.3426317E+00
         13   -1    0    0    0    0  0.00000000000E+00  0.00000000000E+00  0.14999999963E+04  0.15000000000E+04  0.10566000000E+00 0. -1.
        994   -1    0    0    0    0 -0.00000000000E+00 -0.00000000000E+00  0.11368683772E-12  0.17120000000E+03  0.17120000000E+03 0.  0.
         13    1    1    2    0    0 -0.81422080184E+01  0.58484907175E+01  0.40977993309E+02  0.42186579558E+02  0.10566000000E+00 0. -1.
        994    1    1    2    0    0  0.74106805755E+01 -0.93836973791E+00  0.14201088732E+01  0.17136877030E+03  0.17120000000E+03 0.  0.
        998    1    1    2    0    0  0.73152744286E+00 -0.49101209796E+01  0.14576018941E+04  0.14576446501E+04  0.10000000000E+02 0. -1.
</event>
<event>
 5    1  0.7732857E-009  0.3725317E+03  0.7957747E-01  0.3484336E+00
         13   -1    0    0    0    0  0.00000000000E+00  0.00000000000E+00  0.14999999963E+04  0.15000000000E+04  0.10566000000E+00 0.  1.
        994   -1    0    0    0    0 -0.00000000000E+00 -0.00000000000E+00  0.11368683772E-12  0.17120000000E+03  0.17120000000E+03 0.  0.
         13    1    1    2    0    0 -0.25454136951E+02  0.56574163567E+01  0.37700076839E+02  0.45839136177E+02  0.10566000000E+00 0.  1.
        994    1    1    2    0    0  0.34702348832E+02 -0.57866338317E+01  0.12206258925E+02  0.17520322743E+03  0.17120000000E+03 0.  0.
        998    1    1    2    0    0 -0.92482118806E+01  0.12921747503E+00  0.14500936605E+04  0.14501576364E+04  0.10000000000E+02 0.  1.
</event>
<event>
 5    1  0.7732857E-009  0.3815167E+03  0.7957747E-01  0.3444581E+00
         13   -1    0    0    0    0  0.00000000000E+00  0.00000000000E+00  0.14999999963E+04  0.15000000000E+04  0.10566000000E+00 0.  1.
        994   -1    0    0    0    0 -0.00000000000E+00 -0.00000000000E+00  0.11368683772E-12  0.17120000000E+03  0.17120000000E+03 0.  0.
         13    1    1    2    0    0 -0.13102351714E+02 -0.23649537366E+02  0.10324517668E+03  0.10672651924E+03  0.10566000000E+00 0.  1.
        994    1    1    2    0    0  0.15119023171E+02  0.18328494410E+02  0.52494516229E+01  0.17292054624E+03  0.17120000000E+03 0.  0.
        998    1    1    2    0    0 -0.20166714578E+01  0.53210429563E+01  0.13915053680E+04  0.13915529345E+04  0.10000000000E+02 0.  1.
</event>
<event>
 5    1  0.7732857E-009  0.3840670E+03  0.7957747E-01  0.3433639E+00
         13   -1    0    0    0    0  0.00000000000E+00  0.00000000000E+00  0.14999999963E+04  0.15000000000E+04  0.10566000000E+00 0. -1.
        994   -1    0    0    0    0 -0.00000000000E+00 -0.00000000000E+00  0.11368683772E-12  0.17120000000E+03  0.17120000000E+03 0.  0.
         13    1    1    2    0    0  0.18461665042E+02 -0.23644478295E+01  0.77899825821E+02  0.80092557186E+02  0.10566000000E+00 0. -1.
        994    1    1    2    0    0 -0.21446217445E+02 -0.21987691061E+01  0.36286701943E+01  0.17259021431E+03  0.17120000000E+03 0.  0.
        998    1    1    2    0    0  0.29845524034E+01  0.45632169356E+01  0.14184715003E+04  0.14185172285E+04  0.10000000000E+02 0. -1.
</event>
<event>
 5    1  0.7732857E-009  0.3850369E+03  0.7957747E-01  0.3429516E+00
         13   -1    0    0    0    0  0.00000000000E+00  0.00000000000E+00  0.14999999963E+04  0.15000000000E+04  0.10566000000E+00 0.  1.
        994   -1    0    0    0    0 -0.00000000000E+00 -0.00000000000E+00  0.11368683772E-12  0.17120000000E+03  0.17120000000E+03 0.  0.
         13    1    1    2    0    0 -0.60876703332E+01 -0.14868801394E+02  0.84378683694E+02  0.85894786867E+02  0.10566000000E+00 0.  1.
        994    1    1    2    0    0  0.90772194462E+01  0.79351960579E-01  0.18828110108E+01  0.17145083023E+03  0.17120000000E+03 0.  0.
        998    1    1    2    0    0 -0.29895491130E+01  0.14789449434E+02  0.14137385016E+04  0.14138543829E+04  0.10000000000E+02 0.  1.
</event>
<event>
 5    1  0.7732857E-009  0.3254696E+03  0.7957747E-01  0.3729449E+00
         13   -1    0    0    0    0  0.00000000000E+00  0.00000000000E+00  0.14999999963E+04  0.15000000000E+04  0.10566000000E+00 0.  1.
        994   -1    0    0    0    0 -0.00000000000E+00 -0.00000000000E+00  0.11368683772E-12  0.17120000000E+03  0.17120000000E+03 0.  0.
         13    1    1    2    0    0  0.38892562260E+02 -0.22265549787E+03  0.10274945528E+04  0.10520613904E+04  0.10566000000E+00 0.  1.
        994    1    1    2    0    0 -0.53431713622E+02  0.11290993552E+03  0.10759795305E+03  0.23767700995E+03  0.17120000000E+03 0.  0.
        998    1    1    2    0    0  0.14539151362E+02  0.10974556235E+03  0.36490749046E+03  0.38146159960E+03  0.10000000000E+02 0.  1.
</event>
<event>
 5    1  0.7732857E-009  0.3791727E+03  0.7957747E-01  0.3454768E+00
         13   -1    0    0    0    0  0.00000000000E+00  0.00000000000E+00  0.14999999963E+04  0.15000000000E+04  0.10566000000E+00 0. -1.
        994   -1    0    0    0    0 -0.00000000000E+00 -0.00000000000E+00  0.11368683772E-12  0.17120000000E+03  0.17120000000E+03 0.  0.
         13    1    1    2    0    0 -0.50493158996E+02 -0.17025440456E+02  0.20554961201E+03  0.21234424619E+03  0.10566000000E+00 0. -1.
        994    1    1    2    0    0  0.89964479168E+02  0.19311906897E+02  0.33476318123E+02  0.19722236469E+03  0.17120000000E+03 0.  0.
        998    1    1    2    0    0 -0.39471320172E+02 -0.22864664411E+01  0.12609740661E+04  0.12616333891E+04  0.10000000000E+02 0. -1.
</event>
<event>
 5    1  0.7732857E-009  0.3823273E+03  0.7957747E-01  0.3441087E+00
         13   -1    0    0    0    0  0.00000000000E+00  0.00000000000E+00  0.14999999963E+04  0.15000000000E+04  0.10566000000E+00 0. -1.
        994   -1    0    0    0    0 -0.00000000000E+00 -0.00000000000E+00  0.11368683772E-12  0.17120000000E+03  0.17120000000E+03 0.  0.
         13    1    1    2    0    0  0.14173664702E+02 -0.22877592587E+01  0.35035534827E+02  0.37863260269E+02  0.10566000000E+00 0. -1.
        994    1    1    2    0    0  0.14955586247E+01  0.62213658223E+01  0.30987422003E+01  0.17134755409E+03  0.17120000000E+03 0.  0.
        998    1    1    2    0    0 -0.15669223326E+02 -0.39336065636E+01  0.14618657193E+04  0.14619891856E+04  0.10000000000E+02 0. -1.
</event>
<event>
 5    1  0.7732857E-009  0.3825754E+03  0.7957747E-01  0.3440021E+00
         13   -1    0    0    0    0  0.00000000000E+00  0.00000000000E+00  0.14999999963E+04  0.15000000000E+04  0.10566000000E+00 0.  1.
        994   -1    0    0    0    0 -0.00000000000E+00 -0.00000000000E+00  0.11368683772E-12  0.17120000000E+03  0.17120000000E+03 0.  0.
         13    1    1    2    0    0 -0.11619734006E+02 -0.17873196754E+01  0.23848321303E+02  0.26588838316E+02  0.10566000000E+00 0.  1.
        994    1    1    2    0    0 -0.26790480406E+00  0.68319276384E+01  0.29936766580E+01  0.17136262460E+03  0.17120000000E+03 0.  0.
        998    1    1    2    0    0  0.11887638810E+02 -0.50446079630E+01  0.14731579983E+04  0.14732485371E+04  0.10000000000E+02 0.  1.
</event>
<event>
 5    1  0.7732857E-009  0.3792468E+03  0.7957747E-01  0.3454445E+00
         13   -1    0    0    0    0  0.00000000000E+00  0.00000000000E+00  0.14999999963E+04  0.15000000000E+04  0.10566000000E+00 0.  1.
        994   -1    0    0    0    0 -0.00000000000E+00 -0.00000000000E+00  0.11368683772E-12  0.17120000000E+03  0.17120000000E+03 0.  0.
         13    1    1    2    0    0 -0.44052719498E+02 -0.53915098835E+02  0.37445801563E+03  0.38087569706E+03  0.10566000000E+00 0.  1.
        994    1    1    2    0    0  0.56937623112E+02  0.52453600145E+02  0.24868221101E+02  0.18952873533E+03  0.17120000000E+03 0.  0.
        998    1    1    2    0    0 -0.12884903614E+02  0.14614986899E+01  0.11006737595E+04  0.11007955676E+04  0.10000000000E+02 0.  1.
</event>
<event>
 5    1  0.7732857E-009  0.3701428E+03  0.7957747E-01  0.3495235E+00
         13   -1    0    0    0    0  0.00000000000E+00  0.00000000000E+00  0.14999999963E+04  0.15000000000E+04  0.10566000000E+00 0.  1.
        994   -1    0    0    0    0 -0.00000000000E+00 -0.00000000000E+00  0.11368683772E-12  0.17120000000E+03  0.17120000000E+03 0.  0.
         13    1    1    2    0    0 -0.24561789984E+02 -0.51737284309E+02  0.16963664349E+03  0.17904365415E+03  0.10566000000E+00 0.  1.
        994    1    1    2    0    0  0.25508717541E+02  0.33337471592E+02  0.15308756996E+02  0.17693467643E+03  0.17120000000E+03 0.  0.
        998    1    1    2    0    0 -0.94692755773E+00  0.18399812718E+02  0.13150545958E+04  0.13152216694E+04  0.10000000000E+02 0.  1.
</event>
<event>
 5    1  0.7732857E-009  0.4472234E+03  0.7957747E-01  0.3202212E+00
         13   -1    0    0    0    0  0.00000000000E+00  0.00000000000E+00  0.14999999963E+04  0.15000000000E+04  0.10566000000E+00 0. -1.
        994   -1    0    0    0    0 -0.00000000000E+00 -0.00000000000E+00  0.11368683772E-12  0.17120000000E+03  0.17120000000E+03 0.  0.
         13    1    1    2    0    0  0.43549928056E+02 -0.14032686434E+01 -0.73748759589E+01  0.44192367621E+02  0.10566000000E+00 0. -1.
        994    1    1    2    0    0 -0.63244832631E+02  0.17973007895E+02  0.81197091076E+02  0.20056257245E+03  0.17120000000E+03 0.  0.
        998    1    1    2    0    0  0.19694904575E+02 -0.16569739252E+02  0.14261777812E+04  0.14264450599E+04  0.10000000000E+02 0. -1.
</event>
<event>
 5    1  0.7732857E-009  0.3828729E+03  0.7957747E-01  0.3438744E+00
         13   -1    0    0    0    0  0.00000000000E+00  0.00000000000E+00  0.14999999963E+04  0.15000000000E+04  0.10566000000E+00 0.  1.
        994   -1    0    0    0    0 -0.00000000000E+00 -0.00000000000E+00  0.11368683772E-12  0.17120000000E+03  0.17120000000E+03 0.  0.
         13    1    1    2    0    0 -0.97511539439E+01  0.14480342354E+02  0.57232230919E+02  0.59835647719E+02  0.10566000000E+00 0.  1.
        994    1    1    2    0    0  0.11380749493E+02  0.84946119260E-01  0.31189677757E+01  0.17160622551E+03  0.17120000000E+03 0.  0.
        998    1    1    2    0    0 -0.16295955490E+01 -0.14565288473E+02  0.14396487976E+04  0.14397581268E+04  0.10000000000E+02 0.  1.
</event>
<event>
 5    1  0.7732857E-009  0.3839083E+03  0.7957747E-01  0.3434316E+00
         13   -1    0    0    0    0  0.00000000000E+00  0.00000000000E+00  0.14999999963E+04  0.15000000000E+04  0.10566000000E+00 0.  1.
        994   -1    0    0    0    0 -0.00000000000E+00 -0.00000000000E+00  0.11368683772E-12  0.17120000000E+03  0.17120000000E+03 0.  0.
         13    1    1    2    0    0 -0.12522429769E+02  0.65810412319E+01  0.44539687334E+02  0.46732389869E+02  0.10566000000E+00 0.  1.
        994    1    1    2    0    0  0.13663018768E+02 -0.44387386337E+01  0.28545492579E+01  0.17182540247E+03  0.17120000000E+03 0.  0.
        998    1    1    2    0    0 -0.11405889993E+01 -0.21423025982E+01  0.14526057597E+04  0.14526422077E+04  0.10000000000E+02 0.  1.
</event>
<event>
 5    1  0.7732857E-009  0.3823768E+03  0.7957747E-01  0.3440874E+00
         13   -1    0    0    0    0  0.00000000000E+00  0.00000000000E+00  0.14999999963E+04  0.15000000000E+04  0.10566000000E+00 0. -1.
        994   -1    0    0    0    0 -0.00000000000E+00 -0.00000000000E+00  0.11368683772E-12  0.17120000000E+03  0.17120000000E+03 0.  0.
         13    1    1    2    0    0 -0.10307205739E+02  0.14702767036E+02  0.52305609657E+02  0.55301878940E+02  0.10566000000E+00 0. -1.
        994    1    1    2    0    0  0.10123002577E+02 -0.15666388056E+02  0.40929629988E+01  0.17226172890E+03  0.17120000000E+03 0.  0.
        998    1    1    2    0    0  0.18420316177E+00  0.96362102006E+00  0.14436014236E+04  0.14436363922E+04  0.10000000000E+02 0. -1.
</event>
<event>
 5    1  0.7732857E-009  0.3852925E+03  0.7957747E-01  0.3428433E+00
         13   -1    0    0    0    0  0.00000000000E+00  0.00000000000E+00  0.14999999963E+04  0.15000000000E+04  0.10566000000E+00 0. -1.
        994   -1    0    0    0    0 -0.00000000000E+00 -0.00000000000E+00  0.11368683772E-12  0.17120000000E+03  0.17120000000E+03 0.  0.
         13    1    1    2    0    0 -0.45631340854E+01  0.15358379992E+02  0.83481229954E+02  0.85004876021E+02  0.10566000000E+00 0. -1.
        994    1    1    2    0    0  0.74517698763E+01 -0.13937391474E+02  0.23060755489E+01  0.17194341435E+03  0.17120000000E+03 0.  0.
        998    1    1    2    0    0 -0.28886357908E+01 -0.14209885183E+01  0.14142126908E+04  0.14142517096E+04  0.10000000000E+02 0. -1.
</event>
<event>
 5    1  0.7732857E-009  0.3847099E+03  0.7957747E-01  0.3430903E+00
         13   -1    0    0    0    0  0.00000000000E+00  0.00000000000E+00  0.14999999963E+04  0.15000000000E+04  0.10566000000E+00 0.  1.
        994   -1    0    0    0    0 -0.00000000000E+00 -0.00000000000E+00  0.11368683772E-12  0.17120000000E+03  0.17120000000E+03 0.  0.
         13    1    1    2    0    0 -0.14593149854E+02 -0.30035520045E+01  0.59179244820E+02  0.61026023373E+02  0.10566000000E+00 0.  1.
        994    1    1    2    0    0  0.18722547412E+02  0.35510379652E+01  0.29705111767E+01  0.17228292890E+03  0.17120000000E+03 0.  0.
        998    1    1    2    0    0 -0.41293975581E+01 -0.54748596075E+00  0.14378502403E+04  0.14378910477E+04  0.10000000000E+02 0.  1.
</event>
<event>
 5    1  0.7732857E-009  0.3811527E+03  0.7957747E-01  0.3446155E+00
         13   -1    0    0    0    0  0.00000000000E+00  0.00000000000E+00  0.14999999963E+04  0.15000000000E+04  0.10566000000E+00 0.  1.
        994   -1    0    0    0    0 -0.00000000000E+00 -0.00000000000E+00  0.11368683772E-12  0.17120000000E+03  0.17120000000E+03 0.  0.
         13    1    1    2    0    0 -0.23017704398E+02  0.16494139774E+02  0.15803793965E+03  0.16055489060E+03  0.10566000000E+00 0.  1.
        994    1    1    2    0    0 -0.34120988350E+02  0.28029181528E+01  0.74656179540E+01  0.17474917352E+03  0.17120000000E+03 0.  0.
        998    1    1    2    0    0  0.57138692748E+02 -0.19297057926E+02  0.13344964387E+04  0.13358959359E+04  0.10000000000E+02 0.  1.
</event>
<event>
 5    1  0.7732857E-009  0.3690198E+03  0.7957747E-01  0.3500408E+00
         13   -1    0    0    0    0  0.00000000000E+00  0.00000000000E+00  0.14999999963E+04  0.15000000000E+04  0.10566000000E+00 0.  1.
        994   -1    0    0    0    0 -0.00000000000E+00 -0.00000000000E+00  0.11368683772E-12  0.17120000000E+03  0.17120000000E+03 0.  0.
         13    1    1    2    0    0  0.24887440938E+02 -0.22643194033E+02  0.57068866605E+02  0.66249269068E+02  0.10566000000E+00 0.  1.
        994    1    1    2    0    0 -0.47209226113E+01 -0.36980365715E+02  0.15279214359E+02  0.17587702792E+03  0.17120000000E+03 0.  0.
        998    1    1    2    0    0 -0.20166518327E+02  0.59623559747E+02  0.14276519153E+04  0.14290737030E+04  0.10000000000E+02 0.  1.
</event>
<event>
 5    1  0.7732857E-009  0.3848428E+03  0.7957747E-01  0.3430339E+00
         13   -1    0    0    0    0  0.00000000000E+00  0.00000000000E+00  0.14999999963E+04  0.15000000000E+04  0.10566000000E+00 0.  1.
        994   -1    0    0    0    0 -0.00000000000E+00 -0.00000000000E+00  0.11368683772E-12  0.17120000000E+03  0.17120000000E+03 0.  0.
         13    1    1    2    0    0 -0.21380988693E+02  0.44647461013E+00  0.12730215780E+03  0.12908600452E+03  0.10566000000E+00 0.  1.
        994    1    1    2    0    0  0.19153768280E+02 -0.14850147315E+02  0.36433301619E+01  0.17294538898E+03  0.17120000000E+03 0.  0.
        998    1    1    2    0    0  0.22272204132E+01  0.14403672705E+02  0.13690545083E+04  0.13691686065E+04  0.10000000000E+02 0.  1.
</event>
<event>
 5    1  0.7732857E-009  0.3768622E+03  0.7957747E-01  0.3464936E+00
         13   -1    0    0    0    0  0.00000000000E+00  0.00000000000E+00  0.14999999963E+04  0.15000000000E+04  0.10566000000E+00 0.  1.
        994   -1    0    0    0    0 -0.00000000000E+00 -0.00000000000E+00  0.11368683772E-12  0.17120000000E+03  0.17120000000E+03 0.  0.
         13    1    1    2    0    0  0.19907125490E+02 -0.24203577849E+02  0.83305452621E+02  0.89005148314E+02  0.10566000000E+00 0.  1.
        994    1    1    2    0    0 -0.18833615648E+02  0.11164769062E+02  0.73464850022E+01  0.17275059476E+03  0.17120000000E+03 0.  0.
        998    1    1    2    0    0 -0.10735098414E+01  0.13038808787E+02  0.14093480587E+04  0.14094442569E+04  0.10000000000E+02 0.  1.
</event>
<event>
 5    1  0.7732857E-009  0.3831956E+03  0.7957747E-01  0.3437361E+00
         13   -1    0    0    0    0  0.00000000000E+00  0.00000000000E+00  0.14999999963E+04  0.15000000000E+04  0.10566000000E+00 0.  1.
        994   -1    0    0    0    0 -0.00000000000E+00 -0.00000000000E+00  0.11368683772E-12  0.17120000000E+03  0.17120000000E+03 0.  0.
         13    1    1    2    0    0 -0.30689967591E+01  0.20891563876E+02  0.81615724794E+02  0.84303107179E+02  0.10566000000E+00 0.  1.
        994    1    1    2    0    0 -0.11105370731E+02 -0.27549935048E+02  0.54528732903E+01  0.17384332604E+03  0.17120000000E+03 0.  0.
        998    1    1    2    0    0  0.14174367490E+02  0.66583711722E+01  0.14129313982E+04  0.14130535668E+04  0.10000000000E+02 0.  1.
</event>
<event>
 5    1  0.7732857E-009  0.3737971E+03  0.7957747E-01  0.3478620E+00
         13   -1    0    0    0    0  0.00000000000E+00  0.00000000000E+00  0.14999999963E+04  0.15000000000E+04  0.10566000000E+00 0. -1.
        994   -1    0    0    0    0 -0.00000000000E+00 -0.00000000000E+00  0.11368683772E-12  0.17120000000E+03  0.17120000000E+03 0.  0.
         13    1    1    2    0    0 -0.92226102180E+02  0.13632780392E+03  0.54336308111E+03  0.56774498952E+03  0.10566000000E+00 0. -1.
        994    1    1    2    0    0  0.91528113436E+02 -0.14892378068E+03  0.13076263594E+03  0.27742385434E+03  0.17120000000E+03 0.  0.
        998    1    1    2    0    0  0.69798874463E+00  0.12595976759E+02  0.82587427923E+03  0.82603115614E+03  0.10000000000E+02 0. -1.
</event>
<event>
 5    1  0.7732857E-009  0.3752467E+03  0.7957747E-01  0.3472120E+00
         13   -1    0    0    0    0  0.00000000000E+00  0.00000000000E+00  0.14999999963E+04  0.15000000000E+04  0.10566000000E+00 0.  1.
        994   -1    0    0    0    0 -0.00000000000E+00 -0.00000000000E+00  0.11368683772E-12  0.17120000000E+03  0.17120000000E+03 0.  0.
         13    1    1    2    0    0  0.29366669292E+02  0.12009070990E+01  0.63114893471E+02  0.69622872571E+02  0.10566000000E+00 0.  1.
        994    1    1    2    0    0 -0.20476708945E+02  0.19676761159E+01  0.79906384499E+01  0.17261650460E+03  0.17120000000E+03 0.  0.
        998    1    1    2    0    0 -0.88899603469E+01 -0.31685832149E+01  0.14288944644E+04  0.14289606228E+04  0.10000000000E+02 0.  1.
</event>
<event>
 5    1  0.7738763E-009  0.3846989E+03  0.7957747E-01  0.3430950E+00
         13   -1    0    0    0    0  0.00000000000E+00  0.00000000000E+00  0.14999999963E+04  0.15000000000E+04  0.10566000000E+00 0. -1.
        994   -1    0    0    0    0 -0.00000000000E+00 -0.00000000000E+00  0.11368683772E-12  0.17120000000E+03  0.17120000000E+03 0.  0.
         13    1    1    2    0    0 -0.66976329666E+01 -0.87145236188E+01  0.33768279241E+02  0.35512097322E+02  0.10566000000E+00 0. -1.
        994    1    1    2    0    0  0.96290605896E+01  0.85994798667E+00  0.20874041895E+01  0.17148543837E+03  0.17120000000E+03 0.  0.
        998    1    1    2    0    0 -0.29314276230E+01  0.78545756321E+01  0.14641443128E+04  0.14642024643E+04  0.10000000000E+02 0. -1.
</event>
<event>
 5    1  0.8267711E-009  0.3844909E+03  0.7957747E-01  0.3431834E+00
         13   -1    0    0    0    0  0.00000000000E+00  0.00000000000E+00  0.14999999963E+04  0.15000000000E+04  0.10566000000E+00 0.  1.
        994   -1    0    0    0    0 -0.00000000000E+00 -0.00000000000E+00  0.11368683772E-12  0.17120000000E+03  0.17120000000E+03 0.  0.
         13    1    1    2    0    0  0.78093228800E+01 -0.73539993547E+01  0.29846260351E+02  0.31715567965E+02  0.10566000000E+00 0.  1.
        994    1    1    2    0    0 -0.64189979310E+01  0.71745149422E+01  0.21884542667E+01  0.17148442067E+03  0.17120000000E+03 0.  0.
        998    1    1    2    0    0 -0.13903249490E+01  0.17948441248E+00  0.14679652817E+04  0.14680000114E+04  0.10000000000E+02 0.  1.
</event>
<event>
 5    1  0.7732857E-009  0.3844842E+03  0.7957747E-01  0.3431863E+00
         13   -1    0    0    0    0  0.00000000000E+00  0.00000000000E+00  0.14999999963E+04  0.15000000000E+04  0.10566000000E+00 0. -1.
        994   -1    0    0    0    0 -0.00000000000E+00 -0.00000000000E+00  0.11368683772E-12  0.17120000000E+03  0.17120000000E+03 0.  0.
         13    1    1    2    0    0  0.16130044078E+02  0.32945008078E+01  0.73976592060E+02  0.75786406396E+02  0.10566000000E+00 0. -1.
        994    1    1    2    0    0 -0.30138142092E+01 -0.14164260012E+02  0.25775721923E+01  0.17183071092E+03  0.17120000000E+03 0.  0.
        998    1    1    2    0    0 -0.13116229869E+02  0.10869759205E+02  0.14234458320E+04  0.14235828827E+04  0.10000000000E+02 0. -1.
</event>
<event>
 5    1  0.7732857E-009  0.3850018E+03  0.7957747E-01  0.3429664E+00
         13   -1    0    0    0    0  0.00000000000E+00  0.00000000000E+00  0.14999999963E+04  0.15000000000E+04  0.10566000000E+00 0.  1.
        994   -1    0    0    0    0 -0.00000000000E+00 -0.00000000000E+00  0.11368683772E-12  0.17120000000E+03  0.17120000000E+03 0.  0.
         13    1    1    2    0    0  0.13202853790E+02 -0.11804705834E+02  0.10026023570E+03  0.10181253584E+03  0.10566000000E+00 0.  1.
        994    1    1    2    0    0 -0.10348634968E+01  0.83448115976E+01  0.18617926158E+01  0.17141649015E+03  0.17120000000E+03 0.  0.
        998    1    1    2    0    0 -0.12167990294E+02  0.34598942362E+01  0.13978779680E+04  0.13979709740E+04  0.10000000000E+02 0.  1.
</event>
<event>
 5    1  0.7732857E-009  0.3849726E+03  0.7957747E-01  0.3429788E+00
         13   -1    0    0    0    0  0.00000000000E+00  0.00000000000E+00  0.14999999963E+04  0.15000000000E+04  0.10566000000E+00 0. -1.
        994   -1    0    0    0    0 -0.00000000000E+00 -0.00000000000E+00  0.11368683772E-12  0.17120000000E+03  0.17120000000E+03 0.  0.
         13    1    1    2    0    0 -0.37373818121E+01  0.11003039713E+02  0.41319168838E+02  0.42922252774E+02  0.10566000000E+00 0. -1.
        994    1    1    2    0    0 -0.91010511636E+01 -0.95784952298E+01  0.22181188805E+01  0.17172343100E+03  0.17120000000E+03 0.  0.
        998    1    1    2    0    0  0.12838432976E+02 -0.14245444828E+01  0.14564627086E+04  0.14565543162E+04  0.10000000000E+02 0. -1.
</event>
<event>
 5    1  0.7732857E-009  0.3712414E+03  0.7957747E-01  0.3490205E+00
         13   -1    0    0    0    0  0.00000000000E+00  0.00000000000E+00  0.14999999963E+04  0.15000000000E+04  0.10566000000E+00 0.  1.
        994   -1    0    0    0    0 -0.00000000000E+00 -0.00000000000E+00  0.11368683772E-12  0.17120000000E+03  0.17120000000E+03 0.  0.
         13    1    1    2    0    0 -0.50490700328E+02 -0.61998282215E+02  0.20832689299E+03  0.22314390721E+03  0.10566000000E+00 0.  1.
        994    1    1    2    0    0  0.35469288403E+02  0.10358847373E+03  0.54970499769E+02  0.21052277348E+03  0.17120000000E+03 0.  0.
        998    1    1    2    0    0  0.15021411925E+02 -0.41590191518E+02  0.12367026035E+04  0.12375333193E+04  0.10000000000E+02 0.  1.
</event>
<event>
 5    1  0.7732857E-009  0.3831407E+03  0.7957747E-01  0.3437596E+00
         13   -1    0    0    0    0  0.00000000000E+00  0.00000000000E+00  0.14999999963E+04  0.15000000000E+04  0.10566000000E+00 0.  1.
        994   -1    0    0    0    0 -0.00000000000E+00 -0.00000000000E+00  0.11368683772E-12  0.17120000000E+03  0.17120000000E+03 0.  0.
         13    1    1    2    0    0 -0.73393247410E+01 -0.96076362765E+01  0.28491923854E+02  0.30951142974E+02  0.10566000000E+00 0.  1.
        994    1    1    2    0    0  0.83424705958E+01 -0.54258763931E+01  0.28837891577E+01  0.17151324494E+03  0.17120000000E+03 0.  0.
        998    1    1    2    0    0 -0.10031458548E+01  0.15033512670E+02  0.14686242833E+04  0.14687356121E+04  0.10000000000E+02 0.  1.
</event>
<event>
 5    1  0.7732857E-009  0.3972372E+03  0.7957747E-01  0.3379375E+00
         13   -1    0    0    0    0  0.00000000000E+00  0.00000000000E+00  0.14999999963E+04  0.15000000000E+04  0.10566000000E+00 0.  1.
        994   -1    0    0    0    0 -0.00000000000E+00 -0.00000000000E+00  0.11368683772E-12  0.17120000000E+03  0.17120000000E+03 0.  0.
         13    1    1    2    0    0 -0.16857804846E+02  0.48877554156E+02  0.39942688522E+02  0.65334756561E+02  0.10566000000E+00 0.  1.
        994    1    1    2    0    0  0.30612053172E+02 -0.49069259454E+02  0.39202335370E+02  0.18490849932E+03  0.17120000000E+03 0.  0.
        998    1    1    2    0    0 -0.13754248325E+02  0.19170529828E+00  0.14208549724E+04  0.14209567441E+04  0.10000000000E+02 0.  1.
</event>
<event>
 5    1  0.7732857E-009  0.3829110E+03  0.7957747E-01  0.3438580E+00
         13   -1    0    0    0    0  0.00000000000E+00  0.00000000000E+00  0.14999999963E+04  0.15000000000E+04  0.10566000000E+00 0.  1.
        994   -1    0    0    0    0 -0.00000000000E+00 -0.00000000000E+00  0.11368683772E-12  0.17120000000E+03  0.17120000000E+03 0.  0.
         13    1    1    2    0    0  0.46063978519E+01  0.22541114552E+02  0.99213038717E+02  0.10184576065E+03  0.10566000000E+00 0.  1.
        994    1    1    2    0    0  0.42659827328E+01 -0.14004256292E+02  0.33807828052E+01  0.17185804460E+03  0.17120000000E+03 0.  0.
        998    1    1    2    0    0 -0.88723805848E+01 -0.85368582600E+01  0.13974061748E+04  0.13974961947E+04  0.10000000000E+02 0.  1.
</event>
<event>
 5    1  0.7732857E-009  0.3692354E+03  0.7957747E-01  0.3499412E+00
         13   -1    0    0    0    0  0.00000000000E+00  0.00000000000E+00  0.14999999963E+04  0.15000000000E+04  0.10566000000E+00 0.  1.
        994   -1    0    0    0    0 -0.00000000000E+00 -0.00000000000E+00  0.11368683772E-12  0.17120000000E+03  0.17120000000E+03 0.  0.
         13    1    1    2    0    0  0.46817685834E+02 -0.95319585783E+01  0.18690870194E+03  0.19291870818E+03  0.10566000000E+00 0.  1.
        994    1    1    2    0    0  0.62582385979E+02 -0.10922704290E+02  0.23794051314E+02  0.18415063774E+03  0.17120000000E+03 0.  0.
        998    1    1    2    0    0 -0.10940007181E+03  0.20454662869E+02  0.12892972430E+04  0.12941306541E+04  0.10000000000E+02 0.  1.
</event>
<event>
 5    1  0.7732857E-009  0.3743606E+03  0.7957747E-01  0.3476087E+00
         13   -1    0    0    0    0  0.00000000000E+00  0.00000000000E+00  0.14999999963E+04  0.15000000000E+04  0.10566000000E+00 0. -1.
        994   -1    0    0    0    0 -0.00000000000E+00 -0.00000000000E+00  0.11368683772E-12  0.17120000000E+03  0.17120000000E+03 0.  0.
         13    1    1    2    0    0  0.46429577710E+02  0.85256835350E+01  0.16521148266E+03  0.17182327588E+03  0.10566000000E+00 0. -1.
        994    1    1    2    0    0 -0.13637911401E+02 -0.27013024568E+02  0.10133130092E+02  0.17414883419E+03  0.17120000000E+03 0.  0.
        998    1    1    2    0    0 -0.32791666308E+02  0.18487341033E+02  0.13246553835E+04  0.13252278899E+04  0.10000000000E+02 0. -1.
</event>
<event>
 5    1  0.7732857E-009  0.3838742E+03  0.7957747E-01  0.3434461E+00
         13   -1    0    0    0    0  0.00000000000E+00  0.00000000000E+00  0.14999999963E+04  0.15000000000E+04  0.10566000000E+00 0. -1.
        994   -1    0    0    0    0 -0.00000000000E+00 -0.00000000000E+00  0.11368683772E-12  0.17120000000E+03  0.17120000000E+03 0.  0.
         13    1    1    2    0    0  0.59619650956E+01 -0.22579473149E+02  0.66370078982E+01  0.24278358127E+02  0.10566000000E+00 0. -1.
        994    1    1    2    0    0  0.22705043399E+00  0.23608541434E+02  0.20523311579E+02  0.17403465488E+03  0.17120000000E+03 0.  0.
        998    1    1    2    0    0 -0.61890155296E+01 -0.10290682848E+01  0.14728396768E+04  0.14728869870E+04  0.10000000000E+02 0. -1.
</event>
<event>
 5    1  0.7732857E-009  0.3808523E+03  0.7957747E-01  0.3447456E+00
         13   -1    0    0    0    0  0.00000000000E+00  0.00000000000E+00  0.14999999963E+04  0.15000000000E+04  0.10566000000E+00 0.  1.
        994   -1    0    0    0    0 -0.00000000000E+00 -0.00000000000E+00  0.11368683772E-12  0.17120000000E+03  0.17120000000E+03 0.  0.
         13    1    1    2    0    0  0.29196697936E+02 -0.21376589906E+02  0.17265772388E+03  0.17640891856E+03  0.10566000000E+00 0.  1.
        994    1    1    2    0    0 -0.18649194639E+02  0.14151748572E+02  0.55326349722E+01  0.17288179343E+03  0.17120000000E+03 0.  0.
        998    1    1    2    0    0 -0.10547503297E+02  0.72248413343E+01  0.13218096374E+04  0.13219092880E+04  0.10000000000E+02 0.  1.
</event>
<event>
 5    1  0.7732857E-009  0.3739431E+03  0.7957747E-01  0.3477963E+00
         13   -1    0    0    0    0  0.00000000000E+00  0.00000000000E+00  0.14999999963E+04  0.15000000000E+04  0.10566000000E+00 0. -1.
        994   -1    0    0    0    0 -0.00000000000E+00 -0.00000000000E+00  0.11368683772E-12  0.17120000000E+03  0.17120000000E+03 0.  0.
         13    1    1    2    0    0 -0.10636471040E+02  0.67044429877E+01  0.77045806689E+01  0.14746382583E+02  0.10566000000E+00 0. -1.
        994    1    1    2    0    0  0.36208048708E+01 -0.70402361312E+01  0.74362850817E+01  0.17154420272E+03  0.17120000000E+03 0.  0.
        998    1    1    2    0    0  0.70156661694E+01  0.33579314350E+00  0.14848591305E+04  0.14849094147E+04  0.10000000000E+02 0. -1.
</event>
<event>
 5    1  0.7732857E-009  0.3845857E+03  0.7957747E-01  0.3431431E+00
         13   -1    0    0    0    0  0.00000000000E+00  0.00000000000E+00  0.14999999963E+04  0.15000000000E+04  0.10566000000E+00 0.  1.
        994   -1    0    0    0    0 -0.00000000000E+00 -0.00000000000E+00  0.11368683772E-12  0.17120000000E+03  0.17120000000E+03 0.  0.
         13    1    1    2    0    0 -0.13652247443E+02 -0.34987856168E+00  0.50087681207E+02  0.51916213730E+02  0.10566000000E+00 0.  1.
        994    1    1    2    0    0  0.10879124411E+02 -0.11808836907E+01  0.22304105898E+01  0.17156387897E+03  0.17120000000E+03 0.  0.
        998    1    1    2    0    0  0.27731230318E+01  0.15307622524E+01  0.14476819045E+04  0.14477199073E+04  0.10000000000E+02 0.  1.
</event>
<event>
 5    1  0.7732857E-009  0.3821647E+03  0.7957747E-01  0.3441787E+00
         13   -1    0    0    0    0  0.00000000000E+00  0.00000000000E+00  0.14999999963E+04  0.15000000000E+04  0.10566000000E+00 0.  1.
        994   -1    0    0    0    0 -0.00000000000E+00 -0.00000000000E+00  0.11368683772E-12  0.17120000000E+03  0.17120000000E+03 0.  0.
         13    1    1    2    0    0 -0.50756108393E+01 -0.12845492509E+02  0.30673970852E+02  0.33640335240E+02  0.10566000000E+00 0.  1.
        994    1    1    2    0    0  0.90268486153E+01  0.19441874617E+01  0.33274448934E+01  0.17148112360E+03  0.17120000000E+03 0.  0.
        998    1    1    2    0    0 -0.39512377760E+01  0.10901305047E+02  0.14659985805E+04  0.14660785412E+04  0.10000000000E+02 0.  1.
</event>
<event>
 5    1  0.7732857E-009  0.3706583E+03  0.7957747E-01  0.3492871E+00
         13   -1    0    0    0    0  0.00000000000E+00  0.00000000000E+00  0.14999999963E+04  0.15000000000E+04  0.10566000000E+00 0. -1.
        994   -1    0    0    0    0 -0.00000000000E+00 -0.00000000000E+00  0.11368683772E-12  0.17120000000E+03  0.17120000000E+03 0.  0.
         13    1    1    2    0    0  0.23204777505E+02  0.66721609258E+02  0.22957077552E+03  0.24019364474E+03  0.10566000000E+00 0. -1.
        994    1    1    2    0    0 -0.48191356025E+02 -0.62407915334E+02  0.30689597077E+02  0.19096713346E+03  0.17120000000E+03 0.  0.
        998    1    1    2    0    0  0.24986578520E+02 -0.43136939235E+01  0.12397396237E+04  0.12400392218E+04  0.10000000000E+02 0. -1.
</event>
<event>
 5    1  0.7732857E-009  0.3808420E+03  0.7957747E-01  0.3447500E+00
         13   -1    0    0    0    0  0.00000000000E+00  0.00000000000E+00  0.14999999963E+04  0.15000000000E+04  0.10566000000E+00 0.  1.
        994   -1    0    0    0    0 -0.00000000000E+00 -0.00000000000E+00  0.11368683772E-12  0.17120000000E+03  0.17120000000E+03 0.  0.
         13    1    1    2    0    0 -0.92644070179E+01  0.84330640423E+01  0.19811627672E+02  0.23440511120E+02  0.10566000000E+00 0.  1.
        994    1    1    2    0    0  0.28202309908E+01 -0.51733983674E+01  0.38244606921E+01  0.17134405228E+03  0.17120000000E+03 0.  0.
        998    1    1    2    0    0  0.64441760271E+01 -0.32596656749E+01  0.14763639079E+04  0.14764154366E+04  0.10000000000E+02 0.  1.
</event>
<event>
 5    1  0.7732857E-009  0.2287617E+03  0.7957747E-01  0.4587407E+00
         13   -1    0    0    0    0  0.00000000000E+00  0.00000000000E+00  0.14999999963E+04  0.15000000000E+04  0.10566000000E+00 0. -1.
        994   -1    0    0    0    0 -0.00000000000E+00 -0.00000000000E+00  0.11368683772E-12  0.17120000000E+03  0.17120000000E+03 0.  0.
         13    1    1    2    0    0  0.22907099736E+01 -0.59158347322E+02 -0.13729878007E+02  0.60773992169E+02  0.10566000000E+00 0. -1.
        994    1    1    2    0    0 -0.68291338291E+01  0.51214064321E+02  0.11715536059E+03  0.21378572442E+03  0.17120000000E+03 0.  0.
        998    1    1    2    0    0  0.45384238555E+01  0.79442830015E+01  0.13965745137E+04  0.13966402834E+04  0.10000000000E+02 0. -1.
</event>
<event>
 5    1  0.1035848E-008  0.3863119E+03  0.7957747E-01  0.3424127E+00
         13   -1    0    0    0    0  0.00000000000E+00  0.00000000000E+00  0.14999999963E+04  0.15000000000E+04  0.10566000000E+00 0. -1.
        994   -1    0    0    0    0 -0.00000000000E+00 -0.00000000000E+00  0.11368683772E-12  0.17120000000E+03  0.17120000000E+03 0.  0.
         13    1    1    2    0    0 -0.10803955621E+02  0.18788494620E+01  0.65096660260E+02  0.66013952112E+02  0.10566000000E+00 0. -1.
        994    1    1    2    0    0  0.42162975562E+00 -0.11748340014E+02  0.14328715287E+01  0.17160913258E+03  0.17120000000E+03 0.  0.
        998    1    1    2    0    0  0.10382325865E+02  0.98694905525E+01  0.14334704645E+04  0.14335769153E+04  0.10000000000E+02 0. -1.
</event>
<event>
 5    1  0.7732857E-009  0.3850405E+03  0.7957747E-01  0.3429501E+00
         13   -1    0    0    0    0  0.00000000000E+00  0.00000000000E+00  0.14999999963E+04  0.15000000000E+04  0.10566000000E+00 0. -1.
        994   -1    0    0    0    0 -0.00000000000E+00 -0.00000000000E+00  0.11368683772E-12  0.17120000000E+03  0.17120000000E+03 0.  0.
         13    1    1    2    0    0  0.60096925610E+01 -0.87521101744E+01  0.36146843533E+02  0.37673880854E+02  0.10566000000E+00 0. -1.
        994    1    1    2    0    0  0.35335151031E+02  0.25481194775E+02  0.78756956237E+01  0.17683136251E+03  0.17120000000E+03 0.  0.
        998    1    1    2    0    0 -0.41344843592E+02 -0.16729084600E+02  0.14559774571E+04  0.14566947566E+04  0.10000000000E+02 0. -1.
</event>
<event>
 5    1  0.7732857E-009  0.3860099E+03  0.7957747E-01  0.3425401E+00
         13   -1    0    0    0    0  0.00000000000E+00  0.00000000000E+00  0.14999999963E+04  0.15000000000E+04  0.10566000000E+00 0.  1.
        994   -1    0    0    0    0 -0.00000000000E+00 -0.00000000000E+00  0.11368683772E-12  0.17120000000E+03  0.17120000000E+03 0.  0.
         13    1    1    2    0    0  0.89445676353E+01  0.85583320262E+01  0.68622537169E+02  0.69730295488E+02  0.10566000000E+00 0.  1.
        994    1    1    2    0    0 -0.57252840634E+01 -0.59427774220E+01  0.13528344672E+01  0.17140410042E+03  0.17120000000E+03 0.  0.
        998    1    1    2    0    0 -0.32192835719E+01 -0.26155546042E+01  0.14300246246E+04  0.14300656041E+04  0.10000000000E+02 0.  1.
</event>
<event>
 5    1  0.7732857E-009  0.3755103E+03  0.7957747E-01  0.3470944E+00
         13   -1    0    0    0    0  0.00000000000E+00  0.00000000000E+00  0.14999999963E+04  0.15000000000E+04  0.10566000000E+00 0. -1.
        994   -1    0    0    0    0 -0.00000000000E+00 -0.00000000000E+00  0.11368683772E-12  0.17120000000E+03  0.17120000000E+03 0.  0.
         13    1    1    2    0    0 -0.31914354008E+02  0.58574967517E+02  0.28578821357E+03  0.29346970370E+03  0.10566000000E+00 0. -1.
        994    1    1    2    0    0  0.36235725674E+02 -0.53027943177E+02  0.20545582074E+02  0.18400149868E+03  0.17120000000E+03 0.  0.
        998    1    1    2    0    0 -0.43213716659E+01 -0.55470243408E+01  0.11936662006E+04  0.11937287976E+04  0.10000000000E+02 0. -1.
</event>
<event>
 5    1  0.7732857E-009  0.3777782E+03  0.7957747E-01  0.3460890E+00
         13   -1    0    0    0    0  0.00000000000E+00  0.00000000000E+00  0.14999999963E+04  0.15000000000E+04  0.10566000000E+00 0.  1.
        994   -1    0    0    0    0 -0.00000000000E+00 -0.00000000000E+00  0.11368683772E-12  0.17120000000E+03  0.17120000000E+03 0.  0.
         13    1    1    2    0    0  0.77153961639E+01  0.21114217394E+02  0.50874063692E+02  0.55619412391E+02  0.10566000000E+00 0.  1.
        994    1    1    2    0    0  0.24947785995E+01  0.14324583594E+02  0.59712245224E+01  0.17192007776E+03  0.17120000000E+03 0.  0.
        998    1    1    2    0    0 -0.10210174763E+02 -0.35438800988E+02  0.14431547081E+04  0.14436605098E+04  0.10000000000E+02 0.  1.
</event>
<event>
 5    1  0.7732857E-009  0.3829354E+03  0.7957747E-01  0.3438476E+00
         13   -1    0    0    0    0  0.00000000000E+00  0.00000000000E+00  0.14999999963E+04  0.15000000000E+04  0.10566000000E+00 0. -1.
        994   -1    0    0    0    0 -0.00000000000E+00 -0.00000000000E+00  0.11368683772E-12  0.17120000000E+03  0.17120000000E+03 0.  0.
         13    1    1    2    0    0  0.56859489279E+01  0.95745650761E+01  0.22026017077E+02  0.24681144704E+02  0.10566000000E+00 0. -1.
        994    1    1    2    0    0 -0.33180646781E+01 -0.12358999004E+02  0.32009840666E+01  0.17170742765E+03  0.17120000000E+03 0.  0.
        998    1    1    2    0    0 -0.23678842498E+01  0.27844339280E+01  0.14747729951E+04  0.14748114277E+04  0.10000000000E+02 0. -1.
</event>
<event>
 5    1  0.7756346E-009  0.3860925E+03  0.7957747E-01  0.3425052E+00
         13   -1    0    0    0    0  0.00000000000E+00  0.00000000000E+00  0.14999999963E+04  0.15000000000E+04  0.10566000000E+00 0. -1.
        994   -1    0    0    0    0 -0.00000000000E+00 -0.00000000000E+00  0.11368683772E-12  0.17120000000E+03  0.17120000000E+03 0.  0.
         13    1    1    2    0    0 -0.10691604971E+02  0.22714326404E+01  0.51363606141E+02  0.52513817448E+02  0.10566000000E+00 0. -1.
        994    1    1    2    0    0  0.16569822022E+02 -0.14707882666E+02  0.26990071496E+01  0.17264879222E+03  0.17120000000E+03 0.  0.
        998    1    1    2    0    0 -0.58782170511E+01  0.12436450026E+02  0.14459373830E+04  0.14460373903E+04  0.10000000000E+02 0. -1.
</event>
<event>
 5    1  0.7732857E-009  0.3825847E+03  0.7957747E-01  0.3439981E+00
         13   -1    0    0    0    0  0.00000000000E+00  0.00000000000E+00  0.14999999963E+04  0.15000000000E+04  0.10566000000E+00 0.  1.
        994   -1    0    0    0    0 -0.00000000000E+00 -0.00000000000E+00  0.11368683772E-12  0.17120000000E+03  0.17120000000E+03 0.  0.
         13    1    1    2    0    0 -0.21547741433E+01 -0.26582210054E+02  0.15484656221E+03  0.15712646478E+03  0.10566000000E+00 0.  1.
        994    1    1    2    0    0  0.54801738952E+00 -0.11365225745E+02  0.32632926636E+01  0.17160873450E+03  0.17120000000E+03 0.  0.
        998    1    1    2    0    0  0.16067567538E+01  0.37947435799E+02  0.13418901414E+04  0.13424648007E+04  0.10000000000E+02 0.  1.
</event>
<event>
 5    1  0.7732857E-009  0.3775983E+03  0.7957747E-01  0.3461683E+00
         13   -1    0    0    0    0  0.00000000000E+00  0.00000000000E+00  0.14999999963E+04  0.15000000000E+04  0.10566000000E+00 0. -1.
        994   -1    0    0    0    0 -0.00000000000E+00 -0.00000000000E+00  0.11368683772E-12  0.17120000000E+03  0.17120000000E+03 0.  0.
         13    1    1    2    0    0  0.10984001411E+02 -0.32207212865E+02  0.11962377844E+03  0.12436966020E+03  0.10566000000E+00 0. -1.
        994    1    1    2    0    0  0.12253154716E+02  0.15883852267E+01  0.58650463427E+01  0.17174545565E+03  0.17120000000E+03 0.  0.
        998    1    1    2    0    0 -0.23237156127E+02  0.30618827638E+02  0.13745111715E+04  0.13750848841E+04  0.10000000000E+02 0. -1.
</event>
<event>
 5    1  0.7732857E-009  0.3754200E+03  0.7957747E-01  0.3471347E+00
         13   -1    0    0    0    0  0.00000000000E+00  0.00000000000E+00  0.14999999963E+04  0.15000000000E+04  0.10566000000E+00 0. -1.
        994   -1    0    0    0    0 -0.00000000000E+00 -0.00000000000E+00  0.11368683772E-12  0.17120000000E+03  0.17120000000E+03 0.  0.
         13    1    1    2    0    0  0.17932502387E+02 -0.17026283501E+02  0.45237480027E+02  0.51554919600E+02  0.10566000000E+00 0. -1.
        994    1    1    2    0    0 -0.14720500204E+02  0.33134552381E+01  0.72364133680E+01  0.17201592307E+03  0.17120000000E+03 0.  0.
        998    1    1    2    0    0 -0.32120021833E+01  0.13712828263E+02  0.14475261029E+04  0.14476291573E+04  0.10000000000E+02 0. -1.
</event>
<event>
 5    1  0.7732857E-009  0.3850516E+03  0.7957747E-01  0.3429453E+00
         13   -1    0    0    0    0  0.00000000000E+00  0.00000000000E+00  0.14999999963E+04  0.15000000000E+04  0.10566000000E+00 0. -1.
        994   -1    0    0    0    0 -0.00000000000E+00 -0.00000000000E+00  0.11368683772E-12  0.17120000000E+03  0.17120000000E+03 0.  0.
         13    1    1    2    0    0 -0.10262303108E+02 -0.13170445077E+02  0.90779056592E+02  0.92301808045E+02  0.10566000000E+00 0. -1.
        994    1    1    2    0    0 -0.22782332743E+01  0.83686973498E+01  0.18518976416E+01  0.17142956270E+03  0.17120000000E+03 0.  0.
        998    1    1    2    0    0  0.12540536382E+02  0.48017477270E+01  0.14073690420E+04  0.14074686293E+04  0.10000000000E+02 0. -1.
</event>
<event>
 5    1  0.7732857E-009  0.3811026E+03  0.7957747E-01  0.3446372E+00
         13   -1    0    0    0    0  0.00000000000E+00  0.00000000000E+00  0.14999999963E+04  0.15000000000E+04  0.10566000000E+00 0.  1.
        994   -1    0    0    0    0 -0.00000000000E+00 -0.00000000000E+00  0.11368683772E-12  0.17120000000E+03  0.17120000000E+03 0.  0.
         13    1    1    2    0    0  0.39680584122E+02  0.12194618795E+03  0.49994424053E+03  0.51612951506E+03  0.10566000000E+00 0.  1.
        994    1    1    2    0    0 -0.21166318575E+01 -0.73915118994E+02  0.37108906638E+02  0.19014319840E+03  0.17120000000E+03 0.  0.
        998    1    1    2    0    0 -0.37563952264E+02 -0.48031068960E+02  0.96294684911E+03  0.96492728654E+03  0.10000000000E+02 0. -1.
</event>
<event>
 5    1  0.7732857E-009  0.3690673E+03  0.7957747E-01  0.3500189E+00
         13   -1    0    0    0    0  0.00000000000E+00  0.00000000000E+00  0.14999999963E+04  0.15000000000E+04  0.10566000000E+00 0. -1.
        994   -1    0    0    0    0 -0.00000000000E+00 -0.00000000000E+00  0.11368683772E-12  0.17120000000E+03  0.17120000000E+03 0.  0.
         13    1    1    2    0    0  0.11591751662E+02 -0.21798824107E+02  0.26907337274E+02  0.36518124298E+02  0.10566000000E+00 0. -1.
        994    1    1    2    0    0  0.19706182670E+02  0.34104665678E+02  0.15158382973E+02  0.17632549002E+03  0.17120000000E+03 0.  0.
        998    1    1    2    0    0 -0.31297934333E+02 -0.12305841570E+02  0.14579342760E+04  0.14583563857E+04  0.10000000000E+02 0. -1.
</event>
<event>
 5    1  0.7732857E-009  0.3840408E+03  0.7957747E-01  0.3433751E+00
         13   -1    0    0    0    0  0.00000000000E+00  0.00000000000E+00  0.14999999963E+04  0.15000000000E+04  0.10566000000E+00 0.  1.
        994   -1    0    0    0    0 -0.00000000000E+00 -0.00000000000E+00  0.11368683772E-12  0.17120000000E+03  0.17120000000E+03 0.  0.
         13    1    1    2    0    0  0.24410311789E+01 -0.10534755187E+02  0.27162241016E+02  0.29235906025E+02  0.10566000000E+00 0.  1.
        994    1    1    2    0    0 -0.58394423631E+00  0.73158620688E+01  0.22848265014E+01  0.17137246938E+03  0.17120000000E+03 0.  0.
        998    1    1    2    0    0 -0.18570869426E+01  0.32188931183E+01  0.14705529288E+04  0.14705916246E+04  0.10000000000E+02 0.  1.
</event>
<event>
 5    1  0.7732857E-009  0.3830173E+03  0.7957747E-01  0.3438125E+00
         13   -1    0    0    0    0  0.00000000000E+00  0.00000000000E+00  0.14999999963E+04  0.15000000000E+04  0.10566000000E+00 0. -1.
        994   -1    0    0    0    0 -0.00000000000E+00 -0.00000000000E+00  0.11368683772E-12  0.17120000000E+03  0.17120000000E+03 0.  0.
         13    1    1    2    0    0 -0.11022968798E+02 -0.18243925665E+02  0.97156195562E+02  0.99467000381E+02  0.10566000000E+00 0. -1.
        994    1    1    2    0    0  0.12527917012E+02 -0.13896852760E+02  0.37772627051E+01  0.17226078757E+03  0.17120000000E+03 0.  0.
        998    1    1    2    0    0 -0.15049482150E+01  0.32140778426E+02  0.13990665380E+04  0.13994722120E+04  0.10000000000E+02 0. -1.
</event>
<event>
 5    1  0.7732857E-009  0.3824385E+03  0.7957747E-01  0.3440609E+00
         13   -1    0    0    0    0  0.00000000000E+00  0.00000000000E+00  0.14999999963E+04  0.15000000000E+04  0.10566000000E+00 0. -1.
        994   -1    0    0    0    0 -0.00000000000E+00 -0.00000000000E+00  0.11368683772E-12  0.17120000000E+03  0.17120000000E+03 0.  0.
         13    1    1    2    0    0  0.11699809898E+01 -0.24666586570E+02  0.11038241782E+03  0.11311100157E+03  0.10566000000E+00 0. -1.
        994    1    1    2    0    0  0.12316940930E+02  0.65482897750E+01  0.35527728211E+01  0.17180410160E+03  0.17120000000E+03 0.  0.
        998    1    1    2    0    0 -0.13486921920E+02  0.18118296795E+02  0.13860648056E+04  0.13862848968E+04  0.10000000000E+02 0. -1.
</event>
<event>
 5    1  0.7732857E-009  0.3837375E+03  0.7957747E-01  0.3435044E+00
         13   -1    0    0    0    0  0.00000000000E+00  0.00000000000E+00  0.14999999963E+04  0.15000000000E+04  0.10566000000E+00 0. -1.
        994   -1    0    0    0    0 -0.00000000000E+00 -0.00000000000E+00  0.11368683772E-12  0.17120000000E+03  0.17120000000E+03 0.  0.
         13    1    1    2    0    0 -0.19837917825E+01 -0.10734028376E+02  0.25184456298E+02  0.27448548196E+02  0.10566000000E+00 0. -1.
        994    1    1    2    0    0  0.50425022961E+01  0.12148931182E+02  0.28298120573E+01  0.17172789871E+03  0.17120000000E+03 0.  0.
        998    1    1    2    0    0 -0.30587105137E+01 -0.14149028060E+01  0.14719857279E+04  0.14720235531E+04  0.10000000000E+02 0. -1.
</event>
<event>
 5    1  0.7732857E-009  0.3697601E+03  0.7957747E-01  0.3496994E+00
         13   -1    0    0    0    0  0.00000000000E+00  0.00000000000E+00  0.14999999963E+04  0.15000000000E+04  0.10566000000E+00 0. -1.
        994   -1    0    0    0    0 -0.00000000000E+00 -0.00000000000E+00  0.11368683772E-12  0.17120000000E+03  0.17120000000E+03 0.  0.
         13    1    1    2    0    0  0.28339928334E+02 -0.57240885807E-01  0.33092125453E+02  0.43568965394E+02  0.10566000000E+00 0. -1.
        994    1    1    2    0    0 -0.15825185240E+02  0.16120671281E+02  0.12596555826E+02  0.17314279006E+03  0.17120000000E+03 0.  0.
        998    1    1    2    0    0 -0.12514743094E+02 -0.16063430396E+02  0.14543113150E+04  0.14544882445E+04  0.10000000000E+02 0. -1.
</event>
<event>
 5    1  0.7732857E-009  0.3685621E+03  0.7957747E-01  0.3502525E+00
         13   -1    0    0    0    0  0.00000000000E+00  0.00000000000E+00  0.14999999963E+04  0.15000000000E+04  0.10566000000E+00 0. -1.
        994   -1    0    0    0    0 -0.00000000000E+00 -0.00000000000E+00  0.11368683772E-12  0.17120000000E+03  0.17120000000E+03 0.  0.
         13    1    1    2    0    0  0.40414654107E+02 -0.48801558556E+02  0.15458097216E+03  0.16706353433E+03  0.10566000000E+00 0. -1.
        994    1    1    2    0    0 -0.64142587520E+02  0.62949821676E+02  0.38828583614E+02  0.19721574605E+03  0.17120000000E+03 0.  0.
        998    1    1    2    0    0  0.23727933413E+02 -0.14148263120E+02  0.13065904405E+04  0.13069207196E+04  0.10000000000E+02 0. -1.
</event>
<event>
 5    1  0.7732857E-009  0.3826336E+03  0.7957747E-01  0.3439771E+00
         13   -1    0    0    0    0  0.00000000000E+00  0.00000000000E+00  0.14999999963E+04  0.15000000000E+04  0.10566000000E+00 0.  1.
        994   -1    0    0    0    0 -0.00000000000E+00 -0.00000000000E+00  0.11368683772E-12  0.17120000000E+03  0.17120000000E+03 0.  0.
         13    1    1    2    0    0  0.11452432756E+02 -0.77785716895E+01  0.33921214439E+02  0.36637744835E+02  0.10566000000E+00 0.  1.
        994    1    1    2    0    0  0.51644529806E+01  0.13274925112E+02  0.34822628283E+01  0.17182683541E+03  0.17120000000E+03 0.  0.
        998    1    1    2    0    0 -0.16616885736E+02 -0.54963534226E+01  0.14625965190E+04  0.14627354198E+04  0.10000000000E+02 0.  1.
</event>
<event>
 5    1  0.7732857E-009  0.3763292E+03  0.7957747E-01  0.3467299E+00
         13   -1    0    0    0    0  0.00000000000E+00  0.00000000000E+00  0.14999999963E+04  0.15000000000E+04  0.10566000000E+00 0. -1.
        994   -1    0    0    0    0 -0.00000000000E+00 -0.00000000000E+00  0.11368683772E-12  0.17120000000E+03  0.17120000000E+03 0.  0.
         13    1    1    2    0    0  0.54019650575E+02 -0.35577160689E+02  0.27985801533E+03  0.28723575147E+03  0.10566000000E+00 0. -1.
        994    1    1    2    0    0 -0.56165359575E+02  0.34821865024E+02  0.20922109558E+02  0.18470052671E+03  0.17120000000E+03 0.  0.
        998    1    1    2    0    0  0.21457089998E+01  0.75529566553E+00  0.11992198714E+04  0.11992637218E+04  0.10000000000E+02 0. -1.
</event>
<event>
 5    1  0.7732857E-009  0.4278035E+03  0.7957747E-01  0.3266223E+00
         13   -1    0    0    0    0  0.00000000000E+00  0.00000000000E+00  0.14999999963E+04  0.15000000000E+04  0.10566000000E+00 0.  1.
        994   -1    0    0    0    0 -0.00000000000E+00 -0.00000000000E+00  0.11368683772E-12  0.17120000000E+03  0.17120000000E+03 0.  0.
         13    1    1    2    0    0 -0.31192586691E+01  0.10366922977E+03  0.10943586877E+03  0.15077552691E+03  0.10566000000E+00 0.  1.
        994    1    1    2    0    0  0.96892337167E+01 -0.68877260195E+02  0.67322715271E+02  0.19667167110E+03  0.17120000000E+03 0.  0.
        998    1    1    2    0    0 -0.65699750476E+01 -0.34791969580E+02  0.13232414122E+04  0.13237528020E+04  0.10000000000E+02 0.  1.
</event>
<event>
 5    1  0.7732857E-009  0.3733907E+03  0.7957747E-01  0.3480451E+00
         13   -1    0    0    0    0  0.00000000000E+00  0.00000000000E+00  0.14999999963E+04  0.15000000000E+04  0.10566000000E+00 0.  1.
        994   -1    0    0    0    0 -0.00000000000E+00 -0.00000000000E+00  0.11368683772E-12  0.17120000000E+03  0.17120000000E+03 0.  0.
         13    1    1    2    0    0 -0.93701250943E+00 -0.47992386534E+02  0.17052856707E+03  0.17715572389E+03  0.10566000000E+00 0.  1.
        994    1    1    2    0    0 -0.16057492164E+02  0.58791221035E+01  0.85074491333E+01  0.17226207889E+03  0.17120000000E+03 0.  0.
        998    1    1    2    0    0  0.16994504674E+02  0.42113264430E+02  0.13209639801E+04  0.13217821972E+04  0.10000000000E+02 0.  1.
</event>
<event>
 5    1  0.7732857E-009  0.3809373E+03  0.7957747E-01  0.3447087E+00
         13   -1    0    0    0    0  0.00000000000E+00  0.00000000000E+00  0.14999999963E+04  0.15000000000E+04  0.10566000000E+00 0.  1.
        994   -1    0    0    0    0 -0.00000000000E+00 -0.00000000000E+00  0.11368683772E-12  0.17120000000E+03  0.17120000000E+03 0.  0.
         13    1    1    2    0    0 -0.17491498987E+01 -0.29373094335E+02  0.14034855285E+03  0.14340001969E+03  0.10566000000E+00 0.  1.
        994    1    1    2    0    0  0.19632068980E+02 -0.10401223242E+02  0.53074349402E+01  0.17271714577E+03  0.17120000000E+03 0.  0.
        998    1    1    2    0    0 -0.17882919081E+02  0.39774317577E+02  0.13543440085E+04  0.13550828345E+04  0.10000000000E+02 0.  1.
</event>
<event>
 5    1  0.7732857E-009  0.3822219E+03  0.7957747E-01  0.3441540E+00
         13   -1    0    0    0    0  0.00000000000E+00  0.00000000000E+00  0.14999999963E+04  0.15000000000E+04  0.10566000000E+00 0. -1.
        994   -1    0    0    0    0 -0.00000000000E+00 -0.00000000000E+00  0.11368683772E-12  0.17120000000E+03  0.17120000000E+03 0.  0.
         13    1    1    2    0    0  0.30199233948E+02  0.59649661133E+01  0.13160380392E+03  0.13515600957E+03  0.10566000000E+00 0. -1.
        994    1    1    2    0    0 -0.44608002071E+02 -0.22973723175E+01  0.96651740185E+01  0.17719482881E+03  0.17120000000E+03 0.  0.
        998    1    1    2    0    0  0.14408768123E+02 -0.36675937958E+01  0.13587310183E+04  0.13588491616E+04  0.10000000000E+02 0. -1.
</event>
<event>
 5    1  0.1495723E-008  0.3863513E+03  0.7957747E-01  0.3423961E+00
         13   -1    0    0    0    0  0.00000000000E+00  0.00000000000E+00  0.14999999963E+04  0.15000000000E+04  0.10566000000E+00 0. -1.
        994   -1    0    0    0    0 -0.00000000000E+00 -0.00000000000E+00  0.11368683772E-12  0.17120000000E+03  0.17120000000E+03 0.  0.
         13    1    1    2    0    0 -0.35710015043E+00  0.10279404490E+02  0.56011436246E+02  0.56948097699E+02  0.10566000000E+00 0. -1.
        994    1    1    2    0    0  0.84497440010E+01 -0.69064122927E+01  0.13507509265E+01  0.17155279430E+03  0.17120000000E+03 0.  0.
        998    1    1    2    0    0 -0.80926438505E+01 -0.33729921968E+01  0.14426378091E+04  0.14426991080E+04  0.10000000000E+02 0. -1.
</event>
<event>
 5    1  0.7732857E-009  0.3833491E+03  0.7957747E-01  0.3436704E+00
         13   -1    0    0    0    0  0.00000000000E+00  0.00000000000E+00  0.14999999963E+04  0.15000000000E+04  0.10566000000E+00 0.  1.
        994   -1    0    0    0    0 -0.00000000000E+00 -0.00000000000E+00  0.11368683772E-12  0.17120000000E+03  0.17120000000E+03 0.  0.
         13    1    1    2    0    0  0.10993742726E+02 -0.64457298746E+01  0.31904962263E+02  0.34356187125E+02  0.10566000000E+00 0.  1.
        994    1    1    2    0    0 -0.96586089607E+01  0.77780140586E+01  0.29606469317E+01  0.17167408558E+03  0.17120000000E+03 0.  0.
        998    1    1    2    0    0 -0.13351337648E+01 -0.13322841840E+01  0.14651343871E+04  0.14651697273E+04  0.10000000000E+02 0.  1.
</event>
<event>
 5    1  0.7732857E-009  0.3846184E+03  0.7957747E-01  0.3431292E+00
         13   -1    0    0    0    0  0.00000000000E+00  0.00000000000E+00  0.14999999963E+04  0.15000000000E+04  0.10566000000E+00 0. -1.
        994   -1    0    0    0    0 -0.00000000000E+00 -0.00000000000E+00  0.11368683772E-12  0.17120000000E+03  0.17120000000E+03 0.  0.
         13    1    1    2    0    0 -0.10558664682E+02  0.84182059850E+00  0.30311521630E+02  0.32109088579E+02  0.10566000000E+00 0. -1.
        994    1    1    2    0    0  0.83862057407E+01  0.47780044108E+00  0.20520567730E+01  0.17141822446E+03  0.17120000000E+03 0.  0.
        998    1    1    2    0    0  0.21724589416E+01 -0.13196210396E+01  0.14676364179E+04  0.14676726870E+04  0.10000000000E+02 0. -1.
</event>
<event>
 5    1  0.1127113E-008  0.3859770E+03  0.7957747E-01  0.3425539E+00
         13   -1    0    0    0    0  0.00000000000E+00  0.00000000000E+00  0.14999999963E+04  0.15000000000E+04  0.10566000000E+00 0. -1.
        994   -1    0    0    0    0 -0.00000000000E+00 -0.00000000000E+00  0.11368683772E-12  0.17120000000E+03  0.17120000000E+03 0.  0.
         13    1    1    2    0    0 -0.11342353694E+02  0.61261578327E+00  0.55493555833E+02  0.56644242324E+02  0.10566000000E+00 0. -1.
        994    1    1    2    0    0  0.11872560650E+02  0.75018779317E+01  0.17926834519E+01  0.17178442765E+03  0.17120000000E+03 0.  0.
        998    1    1    2    0    0 -0.53020695590E+00 -0.81144937149E+01  0.14427137570E+04  0.14427713300E+04  0.10000000000E+02 0. -1.
</event>
<event>
 5    1  0.7732857E-009  0.2880357E+03  0.7957747E-01  0.3985318E+00
         13   -1    0    0    0    0  0.00000000000E+00  0.00000000000E+00  0.14999999963E+04  0.15000000000E+04  0.10566000000E+00 0.  1.
        994   -1    0    0    0    0 -0.00000000000E+00 -0.00000000000E+00  0.11368683772E-12  0.17120000000E+03  0.17120000000E+03 0.  0.
         13    1    1    2    0    0  0.60207603556E+02 -0.12949804735E+03  0.65542744111E+03  0.67080536784E+03  0.10566000000E+00 0.  1.
        994    1    1    2    0    0 -0.57740525267E+02  0.93483317150E+02  0.56083549238E+02  0.21101635799E+03  0.17120000000E+03 0.  0.
        998    1    1    2    0    0 -0.24670782897E+01  0.36014730201E+02  0.78848900593E+03  0.78937827417E+03  0.10000000000E+02 0. -1.
</event>
<event>
 5    1  0.7732857E-009  0.3727442E+03  0.7957747E-01  0.3483373E+00
         13   -1    0    0    0    0  0.00000000000E+00  0.00000000000E+00  0.14999999963E+04  0.15000000000E+04  0.10566000000E+00 0.  1.
        994   -1    0    0    0    0 -0.00000000000E+00 -0.00000000000E+00  0.11368683772E-12  0.17120000000E+03  0.17120000000E+03 0.  0.
         13    1    1    2    0    0  0.12660472320E+02  0.50410328684E+01  0.82214781946E+01  0.15915509401E+02  0.10566000000E+00 0.  1.
        994    1    1    2    0    0 -0.10638416333E+02 -0.10099510667E+02  0.85790637465E+01  0.17204132164E+03  0.17120000000E+03 0.  0.
        998    1    1    2    0    0 -0.20220559869E+01  0.50584777991E+01  0.14831994543E+04  0.14832431690E+04  0.10000000000E+02 0.  1.
</event>
<event>
 5    1  0.7732857E-009  0.3755413E+03  0.7957747E-01  0.3470806E+00
         13   -1    0    0    0    0  0.00000000000E+00  0.00000000000E+00  0.14999999963E+04  0.15000000000E+04  0.10566000000E+00 0.  1.
        994   -1    0    0    0    0 -0.00000000000E+00 -0.00000000000E+00  0.11368683772E-12  0.17120000000E+03  0.17120000000E+03 0.  0.
         13    1    1    2    0    0  0.15751936160E+02  0.15049410853E+02  0.34651019265E+02  0.40930582208E+02  0.10566000000E+00 0.  1.
        994    1    1    2    0    0 -0.11242109980E+02 -0.70591708053E+01  0.69991727022E+01  0.17185646729E+03  0.17120000000E+03 0.  0.
        998    1    1    2    0    0 -0.45098261800E+01 -0.79902400474E+01  0.14583498043E+04  0.14584129505E+04  0.10000000000E+02 0.  1.
</event>
<event>
 5    1  0.7732857E-009  0.3825780E+03  0.7957747E-01  0.3440009E+00
         13   -1    0    0    0    0  0.00000000000E+00  0.00000000000E+00  0.14999999963E+04  0.15000000000E+04  0.10566000000E+00 0.  1.
        994   -1    0    0    0    0 -0.00000000000E+00 -0.00000000000E+00  0.11368683772E-12  0.17120000000E+03  0.17120000000E+03 0.  0.
         13    1    1    2    0    0 -0.13167746735E+02  0.48661249968E+01  0.34026901537E+02  0.36809101032E+02  0.10566000000E+00 0.  1.
        994    1    1    2    0    0  0.42744138081E+01 -0.95018504931E+01  0.31973052329E+01  0.17154654918E+03  0.17120000000E+03 0.  0.
        998    1    1    2    0    0  0.88933329266E+01  0.46357254963E+01  0.14627757895E+04  0.14628443498E+04  0.10000000000E+02 0.  1.
</event>
<event>
 5    1  0.7732857E-009  0.3818176E+03  0.7957747E-01  0.3443282E+00
         13   -1    0    0    0    0  0.00000000000E+00  0.00000000000E+00  0.14999999963E+04  0.15000000000E+04  0.10566000000E+00 0. -1.
        994   -1    0    0    0    0 -0.00000000000E+00 -0.00000000000E+00  0.11368683772E-12  0.17120000000E+03  0.17120000000E+03 0.  0.
         13    1    1    2    0    0  0.96438047154E+01 -0.50377206215E+01  0.17085469062E+02  0.20256011837E+02  0.10566000000E+00 0. -1.
        994    1    1    2    0    0 -0.55834133860E+01  0.57589911620E+01  0.34322531487E+01  0.17142217140E+03  0.17120000000E+03 0.  0.
        998    1    1    2    0    0 -0.40603913294E+01 -0.72127054052E+00  0.14794822741E+04  0.14795218168E+04  0.10000000000E+02 0. -1.
</event>
<event>
 5    1  0.7732857E-009  0.3852485E+03  0.7957747E-01  0.3428619E+00
         13   -1    0    0    0    0  0.00000000000E+00  0.00000000000E+00  0.14999999963E+04  0.15000000000E+04  0.10566000000E+00 0.  1.
        994   -1    0    0    0    0 -0.00000000000E+00 -0.00000000000E+00  0.11368683772E-12  0.17120000000E+03  0.17120000000E+03 0.  0.
         13    1    1    2    0    0  0.15823345251E+01 -0.13377117141E+02  0.58717314549E+02  0.60242719373E+02  0.10566000000E+00 0.  1.
        994    1    1    2    0    0 -0.16556895257E+02  0.11746243188E+02  0.28621607529E+01  0.17242313352E+03  0.17120000000E+03 0.  0.
        998    1    1    2    0    0  0.14974560732E+02  0.16308739531E+01  0.14384205210E+04  0.14385341471E+04  0.10000000000E+02 0.  1.
</event>
<event>
 5    1  0.7732857E-009  0.3791795E+03  0.7957747E-01  0.3454739E+00
         13   -1    0    0    0    0  0.00000000000E+00  0.00000000000E+00  0.14999999963E+04  0.15000000000E+04  0.10566000000E+00 0.  1.
        994   -1    0    0    0    0 -0.00000000000E+00 -0.00000000000E+00  0.11368683772E-12  0.17120000000E+03  0.17120000000E+03 0.  0.
         13    1    1    2    0    0  0.18863473660E+02  0.34913506475E+02  0.20469347736E+03  0.20850471077E+03  0.10566000000E+00 0.  1.
        994    1    1    2    0    0  0.57777703385E+01 -0.21623125837E+01  0.46754710616E+01  0.17137490556E+03  0.17120000000E+03 0.  0.
        998    1    1    2    0    0 -0.24641243999E+02 -0.32751193891E+02  0.12906310479E+04  0.12913203837E+04  0.10000000000E+02 0.  1.
</event>
<event>
 5    1  0.7732857E-009  0.3822043E+03  0.7957747E-01  0.3441616E+00
         13   -1    0    0    0    0  0.00000000000E+00  0.00000000000E+00  0.14999999963E+04  0.15000000000E+04  0.10566000000E+00 0.  1.
        994   -1    0    0    0    0 -0.00000000000E+00 -0.00000000000E+00  0.11368683772E-12  0.17120000000E+03  0.17120000000E+03 0.  0.
         13    1    1    2    0    0 -0.23548601738E+02 -0.73985243007E+01  0.94342542062E+02  0.97518209645E+02  0.10566000000E+00 0.  1.
        994    1    1    2    0    0  0.25116751220E+02  0.36705848640E+01  0.51658410290E+01  0.17314863643E+03  0.17120000000E+03 0.  0.
        998    1    1    2    0    0 -0.15681494824E+01  0.37279394367E+01  0.14004916132E+04  0.14005331539E+04  0.10000000000E+02 0.  1.
</event>
<event>
 5    1  0.8323820E-009  0.3852331E+03  0.7957747E-01  0.3428684E+00
         13   -1    0    0    0    0  0.00000000000E+00  0.00000000000E+00  0.14999999963E+04  0.15000000000E+04  0.10566000000E+00 0.  1.
        994   -1    0    0    0    0 -0.00000000000E+00 -0.00000000000E+00  0.11368683772E-12  0.17120000000E+03  0.17120000000E+03 0.  0.
         13    1    1    2    0    0  0.74480626145E+01 -0.94459194391E+01  0.47549056636E+02  0.49047150598E+02  0.10566000000E+00 0.  1.
        994    1    1    2    0    0 -0.94253499495E+00  0.10873025107E+02  0.19059554234E+01  0.17155810594E+03  0.17120000000E+03 0.  0.
        998    1    1    2    0    0 -0.65055276195E+01 -0.14271056681E+01  0.14505449842E+04  0.14505947435E+04  0.10000000000E+02 0.  1.
</event>
<event>
 5    1  0.7732857E-009  0.3811938E+03  0.7957747E-01  0.3445977E+00
         13   -1    0    0    0    0  0.00000000000E+00  0.00000000000E+00  0.14999999963E+04  0.15000000000E+04  0.10566000000E+00 0. -1.
        994   -1    0    0    0    0 -0.00000000000E+00 -0.00000000000E+00  0.11368683772E-12  0.17120000000E+03  0.17120000000E+03 0.  0.
         13    1    1    2    0    0  0.18933854744E+02 -0.43172424875E+02  0.63037298209E+02  0.78715063709E+02  0.10566000000E+00 0. -1.
        994    1    1    2    0    0 -0.15456739021E+02  0.45997466710E+01  0.17931688781E+02  0.17289029444E+03  0.17120000000E+03 0.  0.
        998    1    1    2    0    0 -0.34771157240E+01  0.38572678204E+02  0.14190310093E+04  0.14195946418E+04  0.10000000000E+02 0. -1.
</event>
<event>
 5    1  0.7732857E-009  0.3714520E+03  0.7957747E-01  0.3489244E+00
         13   -1    0    0    0    0  0.00000000000E+00  0.00000000000E+00  0.14999999963E+04  0.15000000000E+04  0.10566000000E+00 0. -1.
        994   -1    0    0    0    0 -0.00000000000E+00 -0.00000000000E+00  0.11368683772E-12  0.17120000000E+03  0.17120000000E+03 0.  0.
         13    1    1    2    0    0  0.56694772245E+02 -0.11496089472E+03  0.59732048650E+03  0.61091904477E+03  0.10566000000E+00 0. -1.
        994    1    1    2    0    0 -0.48303429383E+02  0.11164377597E+03  0.61281030722E+02  0.21877467570E+03  0.17120000000E+03 0.  0.
        998    1    1    2    0    0 -0.83913428617E+01  0.33171187465E+01  0.84139847906E+03  0.84150627952E+03  0.10000000000E+02 0. -1.
</event>
<event>
 5    1  0.7732857E-009  0.3846174E+03  0.7957747E-01  0.3431297E+00
         13   -1    0    0    0    0  0.00000000000E+00  0.00000000000E+00  0.14999999963E+04  0.15000000000E+04  0.10566000000E+00 0.  1.
        994   -1    0    0    0    0 -0.00000000000E+00 -0.00000000000E+00  0.11368683772E-12  0.17120000000E+03  0.17120000000E+03 0.  0.
         13    1    1    2    0    0 -0.14076452508E+02 -0.15766162323E+01  0.55284546840E+02  0.57070347093E+02  0.10566000000E+00 0.  1.
        994    1    1    2    0    0  0.88428131688E+01 -0.53531689997E+01  0.21721323544E+01  0.17152553723E+03  0.17120000000E+03 0.  0.
        998    1    1    2    0    0  0.52336393396E+01  0.69297852319E+01  0.14425433171E+04  0.14426041157E+04  0.10000000000E+02 0.  1.
</event>
<event>
 5    1  0.7732857E-009  0.3717332E+03  0.7957747E-01  0.3487963E+00
         13   -1    0    0    0    0  0.00000000000E+00  0.00000000000E+00  0.14999999963E+04  0.15000000000E+04  0.10566000000E+00 0. -1.
        994   -1    0    0    0    0 -0.00000000000E+00 -0.00000000000E+00  0.11368683772E-12  0.17120000000E+03  0.17120000000E+03 0.  0.
         13    1    1    2    0    0  0.16921267997E+02  0.10585810656E+02  0.20065428304E+02  0.28302319251E+02  0.10566000000E+00 0. -1.
        994    1    1    2    0    0 -0.15999058480E+02 -0.78727950164E+01  0.94595074532E+01  0.17238582614E+03  0.17120000000E+03 0.  0.
        998    1    1    2    0    0 -0.92220951780E+00 -0.27130156400E+01  0.14704750605E+04  0.14705118546E+04  0.10000000000E+02 0. -1.
</event>
<event>
 5    1  0.7732857E-009  0.3690382E+03  0.7957747E-01  0.3500323E+00
         13   -1    0    0    0    0  0.00000000000E+00  0.00000000000E+00  0.14999999963E+04  0.15000000000E+04  0.10566000000E+00 0. -1.
        994   -1    0    0    0    0 -0.00000000000E+00 -0.00000000000E+00  0.11368683772E-12  0.17120000000E+03  0.17120000000E+03 0.  0.
         13    1    1    2    0    0  0.72686993602E+01  0.27750710973E+02  0.37441143501E+02  0.47167640821E+02  0.10566000000E+00 0. -1.
        994    1    1    2    0    0 -0.84077025482E+01  0.59012176900E+01  0.10798864168E+02  0.17184751758E+03  0.17120000000E+03 0.  0.
        998    1    1    2    0    0  0.11390031881E+01 -0.33651928663E+02  0.14517599886E+04  0.14521848416E+04  0.10000000000E+02 0. -1.
</event>
<event>
 5    1  0.7732857E-009  0.3835296E+03  0.7957747E-01  0.3435932E+00
         13   -1    0    0    0    0  0.00000000000E+00  0.00000000000E+00  0.14999999963E+04  0.15000000000E+04  0.10566000000E+00 0. -1.
        994   -1    0    0    0    0 -0.00000000000E+00 -0.00000000000E+00  0.11368683772E-12  0.17120000000E+03  0.17120000000E+03 0.  0.
         13    1    1    2    0    0  0.11746039749E+02 -0.56252037813E+00  0.29987006262E+02  0.32210519828E+02  0.10566000000E+00 0. -1.
        994    1    1    2    0    0  0.53300265169E+01  0.48388973985E+01  0.25331695325E+01  0.17137001213E+03  0.17120000000E+03 0.  0.
        998    1    1    2    0    0 -0.17076066266E+02 -0.42763770204E+01  0.14674798205E+04  0.14676194680E+04  0.10000000000E+02 0. -1.
</event>
<event>
 5    1  0.7732857E-009  0.3771081E+03  0.7957747E-01  0.3463848E+00
         13   -1    0    0    0    0  0.00000000000E+00  0.00000000000E+00  0.14999999963E+04  0.15000000000E+04  0.10566000000E+00 0. -1.
        994   -1    0    0    0    0 -0.00000000000E+00 -0.00000000000E+00  0.11368683772E-12  0.17120000000E+03  0.17120000000E+03 0.  0.
         13    1    1    2    0    0  0.30168063296E+01  0.24520224833E+02  0.54509358512E+02  0.59846669713E+02  0.10566000000E+00 0. -1.
        994    1    1    2    0    0 -0.18965685286E+02 -0.21329724144E+01  0.68305107742E+01  0.17239588936E+03  0.17120000000E+03 0.  0.
        998    1    1    2    0    0  0.15948878956E+02 -0.22387252419E+02  0.14386601270E+04  0.14389574409E+04  0.10000000000E+02 0. -1.
</event>
<event>
 5    1  0.7732857E-009  0.3818637E+03  0.7957747E-01  0.3443083E+00
         13   -1    0    0    0    0  0.00000000000E+00  0.00000000000E+00  0.14999999963E+04  0.15000000000E+04  0.10566000000E+00 0. -1.
        994   -1    0    0    0    0 -0.00000000000E+00 -0.00000000000E+00  0.11368683772E-12  0.17120000000E+03  0.17120000000E+03 0.  0.
         13    1    1    2    0    0 -0.17563251346E+02 -0.88758260245E+01  0.55187837390E+02  0.58591438328E+02  0.10566000000E+00 0. -1.
        994    1    1    2    0    0  0.23558073912E+02  0.20452042637E+02  0.64356718313E+01  0.17413824039E+03  0.17120000000E+03 0.  0.
        998    1    1    2    0    0 -0.59948225656E+01 -0.11576216613E+02  0.14383764871E+04  0.14384703213E+04  0.10000000000E+02 0. -1.
</event>
<event>
 5    1  0.7732857E-009  0.3791725E+03  0.7957747E-01  0.3454770E+00
         13   -1    0    0    0    0  0.00000000000E+00  0.00000000000E+00  0.14999999963E+04  0.15000000000E+04  0.10566000000E+00 0.  1.
        994   -1    0    0    0    0 -0.00000000000E+00 -0.00000000000E+00  0.11368683772E-12  0.17120000000E+03  0.17120000000E+03 0.  0.
         13    1    1    2    0    0 -0.11927988247E+02 -0.19292903076E+02  0.57517609374E+02  0.61828630624E+02  0.10566000000E+00 0.  1.
        994    1    1    2    0    0  0.15757706509E+02 -0.71242275362E+01  0.55545566996E+01  0.17216083478E+03  0.17120000000E+03 0.  0.
        998    1    1    2    0    0 -0.38297182614E+01  0.26417130612E+02  0.14369278302E+04  0.14372105346E+04  0.10000000000E+02 0.  1.
</event>
<event>
 5    1  0.7732857E-009  0.3741801E+03  0.7957747E-01  0.3476898E+00
         13   -1    0    0    0    0  0.00000000000E+00  0.00000000000E+00  0.14999999963E+04  0.15000000000E+04  0.10566000000E+00 0.  1.
        994   -1    0    0    0    0 -0.00000000000E+00 -0.00000000000E+00  0.11368683772E-12  0.17120000000E+03  0.17120000000E+03 0.  0.
         13    1    1    2    0    0  0.24950279180E+02 -0.79635916206E+01  0.48751366483E+02  0.55341143109E+02  0.10566000000E+00 0.  1.
        994    1    1    2    0    0  0.10207777287E+02  0.15279731726E+02  0.82521912197E+01  0.17238099541E+03  0.17120000000E+03 0.  0.
        998    1    1    2    0    0 -0.35158056467E+02 -0.73161401055E+01  0.14429964386E+04  0.14434778615E+04  0.10000000000E+02 0.  1.
</event>
<event>
 5    1  0.7732857E-009  0.3793776E+03  0.7957747E-01  0.3453873E+00
         13   -1    0    0    0    0  0.00000000000E+00  0.00000000000E+00  0.14999999963E+04  0.15000000000E+04  0.10566000000E+00 0.  1.
        994   -1    0    0    0    0 -0.00000000000E+00 -0.00000000000E+00  0.11368683772E-12  0.17120000000E+03  0.17120000000E+03 0.  0.
         13    1    1    2    0    0 -0.35992185085E+02  0.45121775477E+02  0.29245558332E+03  0.29809678191E+03  0.10566000000E+00 0.  1.
        994    1    1    2    0    0  0.39232662727E+02 -0.47073922668E+02  0.17131129121E+02  0.18264192182E+03  0.17120000000E+03 0.  0.
        998    1    1    2    0    0 -0.32404776423E+01  0.19521471911E+01  0.11904132838E+04  0.11904612963E+04  0.10000000000E+02 0.  0.
</event>
<event>
 5    1  0.7732857E-009  0.3841216E+03  0.7957747E-01  0.3433406E+00
         13   -1    0    0    0    0  0.00000000000E+00  0.00000000000E+00  0.14999999963E+04  0.15000000000E+04  0.10566000000E+00 0.  1.
        994   -1    0    0    0    0 -0.00000000000E+00 -0.00000000000E+00  0.11368683772E-12  0.17120000000E+03  0.17120000000E+03 0.  0.
         13    1    1    2    0    0 -0.11083246907E+02 -0.78422877989E+01  0.43918242992E+02  0.45969153478E+02  0.10566000000E+00 0.  1.
        994    1    1    2    0    0  0.50100575690E+01  0.10557140383E+02  0.25173408540E+01  0.17161681414E+03  0.17120000000E+03 0.  0.
        998    1    1    2    0    0  0.60731893384E+01 -0.27148525840E+01  0.14535644124E+04  0.14536140324E+04  0.10000000000E+02 0.  1.
</event>
<event>
 5    1  0.7732857E-009  0.3836513E+03  0.7957747E-01  0.3435412E+00
         13   -1    0    0    0    0  0.00000000000E+00  0.00000000000E+00  0.14999999963E+04  0.15000000000E+04  0.10566000000E+00 0.  1.
        994   -1    0    0    0    0 -0.00000000000E+00 -0.00000000000E+00  0.11368683772E-12  0.17120000000E+03  0.17120000000E+03 0.  0.
         13    1    1    2    0    0 -0.94640982104E+01 -0.33795544379E+01  0.20570795875E+02  0.22894526640E+02  0.10566000000E+00 0.  1.
        994    1    1    2    0    0  0.15018136912E+02  0.42755009809E+01  0.31070174549E+01  0.17193870391E+03  0.17120000000E+03 0.  0.
        998    1    1    2    0    0 -0.55540387014E+01 -0.89594654296E+00  0.14763221829E+04  0.14763667694E+04  0.10000000000E+02 0.  1.
</event>
<event>
 5    1  0.7732857E-009  0.3784989E+03  0.7957747E-01  0.3457721E+00
         13   -1    0    0    0    0  0.00000000000E+00  0.00000000000E+00  0.14999999963E+04  0.15000000000E+04  0.10566000000E+00 0.  1.
        994   -1    0    0    0    0 -0.00000000000E+00 -0.00000000000E+00  0.11368683772E-12  0.17120000000E+03  0.17120000000E+03 0.  0.
         13    1    1    2    0    0  0.40504353546E+02  0.34618124903E+02  0.19103640668E+03  0.19832785248E+03  0.10566000000E+00 0.  1.
        994    1    1    2    0    0 -0.54805218183E+02 -0.84304796925E+02  0.39649235405E+02  0.20246583068E+03  0.17120000000E+03 0.  0.
        998    1    1    2    0    0  0.14300864638E+02  0.49686672022E+02  0.12693143542E+04  0.12704063168E+04  0.10000000000E+02 0.  1.
</event>
<event>
 5    1  0.7732857E-009  0.2868474E+03  0.7957747E-01  0.3994635E+00
         13   -1    0    0    0    0  0.00000000000E+00  0.00000000000E+00  0.14999999963E+04  0.15000000000E+04  0.10566000000E+00 0.  1.
        994   -1    0    0    0    0 -0.00000000000E+00 -0.00000000000E+00  0.11368683772E-12  0.17120000000E+03  0.17120000000E+03 0.  0.
         13    1    1    2    0    0 -0.15527377595E+03 -0.75810537043E+02  0.57058532802E+03  0.59617515106E+03  0.10566000000E+00 0.  1.
        994    1    1    2    0    0  0.15882099594E+03  0.58480781751E+02  0.12667793491E+03  0.27203097209E+03  0.17120000000E+03 0.  0.
        998    1    1    2    0    0 -0.35472199901E+01  0.17329755292E+02  0.80273673335E+03  0.80299387685E+03  0.10000000000E+02 0.  0.
</event>
<event>
 5    1  0.1267076E-008  0.3860370E+03  0.7957747E-01  0.3425286E+00
         13   -1    0    0    0    0  0.00000000000E+00  0.00000000000E+00  0.14999999963E+04  0.15000000000E+04  0.10566000000E+00 0.  1.
        994   -1    0    0    0    0 -0.00000000000E+00 -0.00000000000E+00  0.11368683772E-12  0.17120000000E+03  0.17120000000E+03 0.  0.
         13    1    1    2    0    0  0.94201271926E+01 -0.65089848437E+01  0.63641324146E+02  0.64663242906E+02  0.10566000000E+00 0.  1.
        994    1    1    2    0    0  0.49336069118E+01  0.50599864974E+01  0.12798492529E+01  0.17135058201E+03  0.17120000000E+03 0.  0.
        998    1    1    2    0    0 -0.14353734104E+02  0.14489983463E+01  0.14350788229E+04  0.14351861751E+04  0.10000000000E+02 0.  1.
</event>
<event>
 5    1  0.7732857E-009  0.3804958E+03  0.7957747E-01  0.3449002E+00
         13   -1    0    0    0    0  0.00000000000E+00  0.00000000000E+00  0.14999999963E+04  0.15000000000E+04  0.10566000000E+00 0. -1.
        994   -1    0    0    0    0 -0.00000000000E+00 -0.00000000000E+00  0.11368683772E-12  0.17120000000E+03  0.17120000000E+03 0.  0.
         13    1    1    2    0    0 -0.43829367850E+01 -0.27357575845E+02  0.11138224070E+03  0.11477657339E+03  0.10566000000E+00 0. -1.
        994    1    1    2    0    0  0.63497337577E+01 -0.75734746814E+01  0.42091281088E+01  0.17153668237E+03  0.17120000000E+03 0.  0.
        998    1    1    2    0    0 -0.19667969727E+01  0.34931050526E+02  0.13844086275E+04  0.13848867442E+04  0.10000000000E+02 0. -1.
</event>
<event>
 5    1  0.7732857E-009  0.3847670E+03  0.7957747E-01  0.3430661E+00
         13   -1    0    0    0    0  0.00000000000E+00  0.00000000000E+00  0.14999999963E+04  0.15000000000E+04  0.10566000000E+00 0.  1.
        994   -1    0    0    0    0 -0.00000000000E+00 -0.00000000000E+00  0.11368683772E-12  0.17120000000E+03  0.17120000000E+03 0.  0.
         13    1    1    2    0    0  0.25651379102E+02  0.36007443528E+02  0.25132958163E+03  0.25518835985E+03  0.10566000000E+00 0.  1.
        994    1    1    2    0    0 -0.53450036207E+02 -0.84773721782E+02  0.35530387263E+02  0.20153247553E+03  0.17120000000E+03 0.  0.
        998    1    1    2    0    0  0.27798657104E+02  0.48766278254E+02  0.12131400274E+04  0.12144791646E+04  0.10000000000E+02 0.  1.
</event>
<event>
 5    1  0.7732857E-009  0.3808710E+03  0.7957747E-01  0.3447375E+00
         13   -1    0    0    0    0  0.00000000000E+00  0.00000000000E+00  0.14999999963E+04  0.15000000000E+04  0.10566000000E+00 0. -1.
        994   -1    0    0    0    0 -0.00000000000E+00 -0.00000000000E+00  0.11368683772E-12  0.17120000000E+03  0.17120000000E+03 0.  0.
         13    1    1    2    0    0 -0.26699019633E+02  0.19878540123E+02  0.16409985701E+03  0.16744183540E+03  0.10566000000E+00 0. -1.
        994    1    1    2    0    0  0.80696546203E+01  0.12331453814E+01  0.39163083226E+01  0.17143925293E+03  0.17120000000E+03 0.  0.
        998    1    1    2    0    0  0.18629365012E+02 -0.21111685504E+02  0.13319838309E+04  0.13323189117E+04  0.10000000000E+02 0. -1.
</event>
<event>
 5    1  0.7732857E-009  0.3594217E+03  0.7957747E-01  0.3545966E+00
         13   -1    0    0    0    0  0.00000000000E+00  0.00000000000E+00  0.14999999963E+04  0.15000000000E+04  0.10566000000E+00 0.  1.
        994   -1    0    0    0    0 -0.00000000000E+00 -0.00000000000E+00  0.11368683772E-12  0.17120000000E+03  0.17120000000E+03 0.  0.
         13    1    1    2    0    0  0.13690500490E+03  0.14918037892E+03  0.12186691935E+04  0.12353754005E+04  0.10566000000E+00 0.  1.
        994    1    1    2    0    0 -0.13284449290E+03 -0.94262865330E+02  0.11994252862E+03  0.26500716452E+03  0.17120000000E+03 0.  0.
        998    1    1    2    0    0 -0.40605119992E+01 -0.54917513594E+02  0.16138827421E+03  0.17081743503E+03  0.10000000000E+02 0. -1.
</event>
<event>
 5    1  0.7732857E-009  0.3836973E+03  0.7957747E-01  0.3435216E+00
         13   -1    0    0    0    0  0.00000000000E+00  0.00000000000E+00  0.14999999963E+04  0.15000000000E+04  0.10566000000E+00 0.  1.
        994   -1    0    0    0    0 -0.00000000000E+00 -0.00000000000E+00  0.11368683772E-12  0.17120000000E+03  0.17120000000E+03 0.  0.
         13    1    1    2    0    0  0.14117355370E+02  0.35879132910E+01  0.46503801310E+02  0.48731791931E+02  0.10566000000E+00 0.  1.
        994    1    1    2    0    0 -0.66833229285E+01 -0.31306696136E+01  0.24581930464E+01  0.17137663379E+03  0.17120000000E+03 0.  0.
        998    1    1    2    0    0 -0.74340324420E+01 -0.45724367740E+00  0.14510380019E+04  0.14510915743E+04  0.10000000000E+02 0.  1.
</event>
<event>
 5    1  0.7732857E-009  0.3780473E+03  0.7957747E-01  0.3459705E+00
         13   -1    0    0    0    0  0.00000000000E+00  0.00000000000E+00  0.14999999963E+04  0.15000000000E+04  0.10566000000E+00 0.  1.
        994   -1    0    0    0    0 -0.00000000000E+00 -0.00000000000E+00  0.11368683772E-12  0.17120000000E+03  0.17120000000E+03 0.  0.
         13    1    1    2    0    0 -0.59108230105E+02  0.86886429490E+02  0.60362120655E+03  0.61270025841E+03  0.10566000000E+00 0.  1.
        994    1    1    2    0    0  0.60406587894E+02 -0.89016732949E+02  0.45105289439E+02  0.20716385240E+03  0.17120000000E+03 0.  0.
        998    1    1    2    0    0 -0.12983577888E+01  0.21303034586E+01  0.85127350029E+03  0.85133588919E+03  0.10000000000E+02 0.  0.
</event>
<event>
 5    1  0.7732857E-009  0.3835781E+03  0.7957747E-01  0.3435725E+00
         13   -1    0    0    0    0  0.00000000000E+00  0.00000000000E+00  0.14999999963E+04  0.15000000000E+04  0.10566000000E+00 0. -1.
        994   -1    0    0    0    0 -0.00000000000E+00 -0.00000000000E+00  0.11368683772E-12  0.17120000000E+03  0.17120000000E+03 0.  0.
         13    1    1    2    0    0 -0.26552016372E+01 -0.15458873616E+02  0.50633429507E+02  0.53007378891E+02  0.10566000000E+00 0. -1.
        994    1    1    2    0    0 -0.82926065906E+01  0.17748271166E+02  0.36067056239E+01  0.17235491516E+03  0.17120000000E+03 0.  0.
        998    1    1    2    0    0  0.10947808228E+02 -0.22893975499E+01  0.14457598611E+04  0.14458377060E+04  0.10000000000E+02 0. -1.
</event>
<event>
 5    1  0.7732857E-009  0.3817418E+03  0.7957747E-01  0.3443609E+00
         13   -1    0    0    0    0  0.00000000000E+00  0.00000000000E+00  0.14999999963E+04  0.15000000000E+04  0.10566000000E+00 0. -1.
        994   -1    0    0    0    0 -0.00000000000E+00 -0.00000000000E+00  0.11368683772E-12  0.17120000000E+03  0.17120000000E+03 0.  0.
         13    1    1    2    0    0 -0.10838322579E+02 -0.16136579234E+02  0.54427894283E+02  0.57795028037E+02  0.10566000000E+00 0. -1.
        994    1    1    2    0    0  0.65942087363E+01  0.23344623144E+02  0.52148284671E+01  0.17298869748E+03  0.17120000000E+03 0.  0.
        998    1    1    2    0    0  0.42441138422E+01 -0.72080439104E+01  0.14403572735E+04  0.14404162745E+04  0.10000000000E+02 0. -1.
</event>
<event>
 5    1  0.7732857E-009  0.3749078E+03  0.7957747E-01  0.3473635E+00
         13   -1    0    0    0    0  0.00000000000E+00  0.00000000000E+00  0.14999999963E+04  0.15000000000E+04  0.10566000000E+00 0. -1.
        994   -1    0    0    0    0 -0.00000000000E+00 -0.00000000000E+00  0.11368683772E-12  0.17120000000E+03  0.17120000000E+03 0.  0.
         13    1    1    2    0    0  0.27174265187E+02 -0.45213934156E+02  0.20806958533E+03  0.21465251928E+03  0.10566000000E+00 0. -1.
        994    1    1    2    0    0 -0.18913887005E+02  0.21130014785E+02  0.94654424631E+01  0.17379081462E+03  0.17120000000E+03 0.  0.
        998    1    1    2    0    0 -0.82603781815E+01  0.24083919371E+02  0.12824649685E+04  0.12827566661E+04  0.10000000000E+02 0. -1.
</event>
<event>
 5    1  0.7732857E-009  0.3845132E+03  0.7957747E-01  0.3431739E+00
         13   -1    0    0    0    0  0.00000000000E+00  0.00000000000E+00  0.14999999963E+04  0.15000000000E+04  0.10566000000E+00 0.  1.
        994   -1    0    0    0    0 -0.00000000000E+00 -0.00000000000E+00  0.11368683772E-12  0.17120000000E+03  0.17120000000E+03 0.  0.
         13    1    1    2    0    0  0.18248532137E+02  0.69746576827E+01  0.10627376881E+03  0.10805452271E+03  0.10566000000E+00 0.  1.
        994    1    1    2    0    0 -0.70446573674E+01 -0.14673576086E+00  0.20355539262E+01  0.17135703140E+03  0.17120000000E+03 0.  0.
        998    1    1    2    0    0 -0.11203874769E+02 -0.68279219218E+01  0.13916906735E+04  0.13917884459E+04  0.10000000000E+02 0.  1.
</event>
<event>
 5    1  0.7732857E-009  0.3831109E+03  0.7957747E-01  0.3437724E+00
         13   -1    0    0    0    0  0.00000000000E+00  0.00000000000E+00  0.14999999963E+04  0.15000000000E+04  0.10566000000E+00 0.  1.
        994   -1    0    0    0    0 -0.00000000000E+00 -0.00000000000E+00  0.11368683772E-12  0.17120000000E+03  0.17120000000E+03 0.  0.
         13    1    1    2    0    0  0.22808111758E+02 -0.14358773133E+02  0.13629672867E+03  0.13893593394E+03  0.10566000000E+00 0.  1.
        994    1    1    2    0    0 -0.15396256315E+02  0.13759483217E+02  0.39830376314E+01  0.17248673188E+03  0.17120000000E+03 0.  0.
        998    1    1    2    0    0 -0.74118554425E+01  0.59928991525E+00  0.13597202300E+04  0.13597773342E+04  0.10000000000E+02 0.  1.
</event>
<event>
 5    1  0.7732857E-009  0.3845052E+03  0.7957747E-01  0.3431773E+00
         13   -1    0    0    0    0  0.00000000000E+00  0.00000000000E+00  0.14999999963E+04  0.15000000000E+04  0.10566000000E+00 0. -1.
        994   -1    0    0    0    0 -0.00000000000E+00 -0.00000000000E+00  0.11368683772E-12  0.17120000000E+03  0.17120000000E+03 0.  0.
         13    1    1    2    0    0 -0.19019204533E+02  0.10122380983E+02  0.11889090342E+03  0.12082735956E+03  0.10566000000E+00 0. -1.
        994    1    1    2    0    0  0.18702735059E+02 -0.35985487079E+01  0.30717517936E+01  0.17228353813E+03  0.17120000000E+03 0.  0.
        998    1    1    2    0    0  0.31646947363E+00 -0.65238322747E+01  0.13780373411E+04  0.13780891023E+04  0.10000000000E+02 0. -1.
</event>
<event>
 5    1  0.7732857E-009  0.3776209E+03  0.7957747E-01  0.3461584E+00
         13   -1    0    0    0    0  0.00000000000E+00  0.00000000000E+00  0.14999999963E+04  0.15000000000E+04  0.10566000000E+00 0.  1.
        994   -1    0    0    0    0 -0.00000000000E+00 -0.00000000000E+00  0.11368683772E-12  0.17120000000E+03  0.17120000000E+03 0.  0.
         13    1    1    2    0    0 -0.62367954403E+01 -0.81890971688E+01  0.74489150668E+01  0.12706550654E+02  0.10566000000E+00 0.  1.
        994    1    1    2    0    0  0.78324185384E+01  0.67813779016E+01  0.57006830647E+01  0.17160790091E+03  0.17120000000E+03 0.  0.
        998    1    1    2    0    0 -0.15956230981E+01  0.14077192672E+01  0.14868503981E+04  0.14868855484E+04  0.10000000000E+02 0.  1.
</event>
<event>
 5    1  0.7732857E-009  0.3827559E+03  0.7957747E-01  0.3439246E+00
         13   -1    0    0    0    0  0.00000000000E+00  0.00000000000E+00  0.14999999963E+04  0.15000000000E+04  0.10566000000E+00 0.  1.
        994   -1    0    0    0    0 -0.00000000000E+00 -0.00000000000E+00  0.11368683772E-12  0.17120000000E+03  0.17120000000E+03 0.  0.
         13    1    1    2    0    0  0.24490718589E+02 -0.93862088823E+01  0.13146163093E+03  0.13405248146E+03  0.10566000000E+00 0.  1.
        994    1    1    2    0    0 -0.11027152483E+02 -0.59059128513E+01  0.32669641437E+01  0.17168748048E+03  0.17120000000E+03 0.  0.
        998    1    1    2    0    0 -0.13463566106E+02  0.15292121734E+02  0.13652714012E+04  0.13654600381E+04  0.10000000000E+02 0.  1.
</event>
<event>
 5    1  0.7732857E-009  0.2225888E+03  0.7957747E-01  0.4672240E+00
         13   -1    0    0    0    0  0.00000000000E+00  0.00000000000E+00  0.14999999963E+04  0.15000000000E+04  0.10566000000E+00 0.  1.
        994   -1    0    0    0    0 -0.00000000000E+00 -0.00000000000E+00  0.11368683772E-12  0.17120000000E+03  0.17120000000E+03 0.  0.
         13    1    1    2    0    0 -0.11527106830E+03  0.83055538787E+02  0.12298165650E+03  0.18790992712E+03  0.10566000000E+00 0.  1.
        994    1    1    2    0    0  0.11153763732E+03 -0.88703318256E+02  0.18047897505E+03  0.28668976899E+03  0.17120000000E+03 0.  0.
        998    1    1    2    0    0  0.37334309771E+01  0.56477794688E+01  0.11965393647E+04  0.11966003039E+04  0.10000000000E+02 0.  0.
</event>
<event>
 5    1  0.7732857E-009  0.3708667E+03  0.7957747E-01  0.3491917E+00
         13   -1    0    0    0    0  0.00000000000E+00  0.00000000000E+00  0.14999999963E+04  0.15000000000E+04  0.10566000000E+00 0.  1.
        994   -1    0    0    0    0 -0.00000000000E+00 -0.00000000000E+00  0.11368683772E-12  0.17120000000E+03  0.17120000000E+03 0.  0.
         13    1    1    2    0    0  0.21007281986E+02  0.18283848100E+02  0.39410327159E+02  0.48257538775E+02  0.10566000000E+00 0.  1.
        994    1    1    2    0    0 -0.22402919132E+02 -0.18023537828E+02  0.11672115172E+02  0.17398970364E+03  0.17120000000E+03 0.  0.
        998    1    1    2    0    0  0.13956371460E+01 -0.26031027190E+00  0.14489175539E+04  0.14489527576E+04  0.10000000000E+02 0.  1.
</event>
<event>
 5    1  0.7732857E-009  0.3705860E+03  0.7957747E-01  0.3493202E+00
         13   -1    0    0    0    0  0.00000000000E+00  0.00000000000E+00  0.14999999963E+04  0.15000000000E+04  0.10566000000E+00 0. -1.
        994   -1    0    0    0    0 -0.00000000000E+00 -0.00000000000E+00  0.11368683772E-12  0.17120000000E+03  0.17120000000E+03 0.  0.
         13    1    1    2    0    0 -0.32364242031E+01  0.18646732372E+02  0.11009808503E+02  0.21895253300E+02  0.10566000000E+00 0. -1.
        994    1    1    2    0    0 -0.16497968809E+02 -0.14792084775E+02  0.12970886702E+02  0.17311462286E+03  0.17120000000E+03 0.  0.
        998    1    1    2    0    0  0.19734393012E+02 -0.38546475966E+01  0.14760193011E+04  0.14761901238E+04  0.10000000000E+02 0. -1.
</event>
<event>
 5    1  0.7732857E-009  0.3848951E+03  0.7957747E-01  0.3430117E+00
         13   -1    0    0    0    0  0.00000000000E+00  0.00000000000E+00  0.14999999963E+04  0.15000000000E+04  0.10566000000E+00 0. -1.
        994   -1    0    0    0    0 -0.00000000000E+00 -0.00000000000E+00  0.11368683772E-12  0.17120000000E+03  0.17120000000E+03 0.  0.
         13    1    1    2    0    0  0.19959410587E+02  0.10243077471E+02  0.11434846062E+03  0.11652845282E+03  0.10566000000E+00 0. -1.
        994    1    1    2    0    0 -0.47215564262E+02 -0.13386751363E+02  0.96462259164E+01  0.17835639684E+03  0.17120000000E+03 0.  0.
        998    1    1    2    0    0  0.27256153675E+02  0.31436738926E+01  0.13760053097E+04  0.13763151503E+04  0.10000000000E+02 0. -1.
</event>
<event>
 5    1  0.7732857E-009  0.3796314E+03  0.7957747E-01  0.3452765E+00
         13   -1    0    0    0    0  0.00000000000E+00  0.00000000000E+00  0.14999999963E+04  0.15000000000E+04  0.10566000000E+00 0. -1.
        994   -1    0    0    0    0 -0.00000000000E+00 -0.00000000000E+00  0.11368683772E-12  0.17120000000E+03  0.17120000000E+03 0.  0.
         13    1    1    2    0    0  0.50777202718E+02  0.35238104024E+01  0.69093235463E+02  0.85817410276E+02  0.10566000000E+00 0. -1.
        994    1    1    2    0    0 -0.61849883637E+02 -0.34460382728E+01  0.30144762949E+02  0.18454113368E+03  0.17120000000E+03 0.  0.
        998    1    1    2    0    0  0.11072680918E+02 -0.77772129692E-01  0.14007619979E+04  0.14008414560E+04  0.10000000000E+02 0. -1.
</event>
<event>
 5    1  0.7732857E-009  0.3824479E+03  0.7957747E-01  0.3440569E+00
         13   -1    0    0    0    0  0.00000000000E+00  0.00000000000E+00  0.14999999963E+04  0.15000000000E+04  0.10566000000E+00 0. -1.
        994   -1    0    0    0    0 -0.00000000000E+00 -0.00000000000E+00  0.11368683772E-12  0.17120000000E+03  0.17120000000E+03 0.  0.
         13    1    1    2    0    0 -0.12331742943E+02  0.28022806253E+01  0.28642479666E+02  0.31310181509E+02  0.10566000000E+00 0. -1.
        994    1    1    2    0    0 -0.17200963169E+02 -0.12170483814E+02  0.43762634491E+01  0.17254734276E+03  0.17120000000E+03 0.  0.
        998    1    1    2    0    0  0.29532706113E+02  0.93682031891E+01  0.14669812532E+04  0.14673424757E+04  0.10000000000E+02 0. -1.
</event>
<event>
 5    1  0.7732857E-009  0.3685230E+03  0.7957747E-01  0.3502707E+00
         13   -1    0    0    0    0  0.00000000000E+00  0.00000000000E+00  0.14999999963E+04  0.15000000000E+04  0.10566000000E+00 0.  1.
        994   -1    0    0    0    0 -0.00000000000E+00 -0.00000000000E+00  0.11368683772E-12  0.17120000000E+03  0.17120000000E+03 0.  0.
         13    1    1    2    0    0 -0.27029204678E+01 -0.12587807289E+02  0.36332326878E+01  0.13377975004E+02  0.10566000000E+00 0.  1.
        994    1    1    2    0    0 -0.22294107105E+00  0.98907488998E+01  0.10383398338E+02  0.17179968445E+03  0.17120000000E+03 0.  0.
        998    1    1    2    0    0  0.29258615389E+01  0.26970583891E+01  0.14859833653E+04  0.14860223405E+04  0.10000000000E+02 0.  1.
</event>
<event>
 5    1  0.7732857E-009  0.3803421E+03  0.7957747E-01  0.3449670E+00
         13   -1    0    0    0    0  0.00000000000E+00  0.00000000000E+00  0.14999999963E+04  0.15000000000E+04  0.10566000000E+00 0. -1.
        994   -1    0    0    0    0 -0.00000000000E+00 -0.00000000000E+00  0.11368683772E-12  0.17120000000E+03  0.17120000000E+03 0.  0.
         13    1    1    2    0    0 -0.35332149207E+02 -0.45399853146E+01  0.15348727850E+03  0.15756690026E+03  0.10566000000E+00 0. -1.
        994    1    1    2    0    0  0.26129527718E+02  0.22829153381E+01  0.62611375710E+01  0.17331072028E+03  0.17120000000E+03 0.  0.
        998    1    1    2    0    0  0.92026214892E+01  0.22570699766E+01  0.13402515802E+04  0.13403223795E+04  0.10000000000E+02 0. -1.
</event>
<event>
 5    1  0.7732857E-009  0.3750642E+03  0.7957747E-01  0.3472936E+00
         13   -1    0    0    0    0  0.00000000000E+00  0.00000000000E+00  0.14999999963E+04  0.15000000000E+04  0.10566000000E+00 0.  1.
        994   -1    0    0    0    0 -0.00000000000E+00 -0.00000000000E+00  0.11368683772E-12  0.17120000000E+03  0.17120000000E+03 0.  0.
         13    1    1    2    0    0 -0.11767998747E+02 -0.20824512668E+00  0.74776671047E+01  0.13944742016E+02  0.10566000000E+00 0.  1.
        994    1    1    2    0    0  0.37646479904E+01  0.29509689131E+01  0.67235451968E+01  0.17139873644E+03  0.17120000000E+03 0.  0.
        998    1    1    2    0    0  0.80033507561E+01 -0.27427237864E+01  0.14857987840E+04  0.14858565215E+04  0.10000000000E+02 0.  1.
</event>
<event>
 5    1  0.7732857E-009  0.3120513E+03  0.7957747E-01  0.3813571E+00
         13   -1    0    0    0    0  0.00000000000E+00  0.00000000000E+00  0.14999999963E+04  0.15000000000E+04  0.10566000000E+00 0.  1.
        994   -1    0    0    0    0 -0.00000000000E+00 -0.00000000000E+00  0.11368683772E-12  0.17120000000E+03  0.17120000000E+03 0.  0.
         13    1    1    2    0    0  0.16830140633E+03  0.99458801004E+02  0.88994869969E+03  0.91116744659E+03  0.10566000000E+00 0.  1.
        994    1    1    2    0    0 -0.68172540401E+02 -0.85131830781E+02  0.76562322871E+02  0.21694735113E+03  0.17120000000E+03 0.  0.
        998    1    1    2    0    0 -0.10012886593E+03 -0.14326970223E+02  0.53348897371E+03  0.54308520229E+03  0.10000000000E+02 0. -1.
</event>
<event>
 5    1  0.7732857E-009  0.3787265E+03  0.7957747E-01  0.3456722E+00
         13   -1    0    0    0    0  0.00000000000E+00  0.00000000000E+00  0.14999999963E+04  0.15000000000E+04  0.10566000000E+00 0. -1.
        994   -1    0    0    0    0 -0.00000000000E+00 -0.00000000000E+00  0.11368683772E-12  0.17120000000E+03  0.17120000000E+03 0.  0.
         13    1    1    2    0    0 -0.15562409025E+02 -0.11015296504E+02  0.36736557044E+02  0.41389746547E+02  0.10566000000E+00 0. -1.
        994    1    1    2    0    0  0.14735368488E+02 -0.74317622702E+01  0.56922283097E+01  0.17208777887E+03  0.17120000000E+03 0.  0.
        998    1    1    2    0    0  0.82704053709E+00  0.18447058774E+02  0.14575712109E+04  0.14577224746E+04  0.10000000000E+02 0. -1.
</event>
<event>
 5    1  0.7732857E-009  0.3726561E+03  0.7957747E-01  0.3483772E+00
         13   -1    0    0    0    0  0.00000000000E+00  0.00000000000E+00  0.14999999963E+04  0.15000000000E+04  0.10566000000E+00 0.  1.
        994   -1    0    0    0    0 -0.00000000000E+00 -0.00000000000E+00  0.11368683772E-12  0.17120000000E+03  0.17120000000E+03 0.  0.
         13    1    1    2    0    0  0.80964946545E+01  0.33804381063E+02  0.62363117561E+02  0.71396491515E+02  0.10566000000E+00 0.  1.
        994    1    1    2    0    0 -0.77430251978E+01 -0.72680163660E+02  0.26419614582E+02  0.18801541603E+03  0.17120000000E+03 0.  0.
        998    1    1    2    0    0 -0.35346945676E+00  0.38875782597E+02  0.14112172641E+04  0.14117880925E+04  0.10000000000E+02 0.  1.
</event>
<event>
 5    1  0.7732857E-009  0.3753122E+03  0.7957747E-01  0.3471828E+00
         13   -1    0    0    0    0  0.00000000000E+00  0.00000000000E+00  0.14999999963E+04  0.15000000000E+04  0.10566000000E+00 0. -1.
        994   -1    0    0    0    0 -0.00000000000E+00 -0.00000000000E+00  0.11368683772E-12  0.17120000000E+03  0.17120000000E+03 0.  0.
         13    1    1    2    0    0 -0.77728533438E+01  0.39523935979E+02  0.13513823314E+03  0.14101387161E+03  0.10566000000E+00 0. -1.
        994    1    1    2    0    0 -0.11104087412E+02 -0.62614284130E+01  0.70704737701E+01  0.17181949203E+03  0.17120000000E+03 0.  0.
        998    1    1    2    0    0  0.18876940755E+02 -0.33262507566E+02  0.13577912894E+04  0.13583666364E+04  0.10000000000E+02 0. -1.
</event>
<event>
 5    1  0.7732857E-009  0.3960836E+03  0.7957747E-01  0.3383984E+00
         13   -1    0    0    0    0  0.00000000000E+00  0.00000000000E+00  0.14999999963E+04  0.15000000000E+04  0.10566000000E+00 0. -1.
        994   -1    0    0    0    0 -0.00000000000E+00 -0.00000000000E+00  0.11368683772E-12  0.17120000000E+03  0.17120000000E+03 0.  0.
         13    1    1    2    0    0  0.71555020087E+02 -0.48108774210E+02  0.13269521380E+03  0.15824855761E+03  0.10566000000E+00 0. -1.
        994    1    1    2    0    0 -0.41989851829E+02  0.66242305048E+02  0.49573492005E+02  0.19472586306E+03  0.17120000000E+03 0.  0.
        998    1    1    2    0    0 -0.29565168259E+02 -0.18133530837E+02  0.13177312905E+04  0.13182255793E+04  0.10000000000E+02 0. -1.
</event>
<event>
 5    1  0.7732857E-009  0.3855819E+03  0.7957747E-01  0.3427208E+00
         13   -1    0    0    0    0  0.00000000000E+00  0.00000000000E+00  0.14999999963E+04  0.15000000000E+04  0.10566000000E+00 0. -1.
        994   -1    0    0    0    0 -0.00000000000E+00 -0.00000000000E+00  0.11368683772E-12  0.17120000000E+03  0.17120000000E+03 0.  0.
         13    1    1    2    0    0 -0.13667363451E+02  0.13411244162E+01  0.68227539270E+02  0.69596003602E+02  0.10566000000E+00 0. -1.
        994    1    1    2    0    0  0.14105713406E+02 -0.98960159607E+00  0.19981365511E+01  0.17179459541E+03  0.17120000000E+03 0.  0.
        998    1    1    2    0    0 -0.43834995494E+00 -0.35152282009E+00  0.14297743205E+04  0.14298094010E+04  0.10000000000E+02 0. -1.
</event>
<event>
 5    1  0.7732857E-009  0.3794004E+03  0.7957747E-01  0.3453773E+00
         13   -1    0    0    0    0  0.00000000000E+00  0.00000000000E+00  0.14999999963E+04  0.15000000000E+04  0.10566000000E+00 0.  1.
        994   -1    0    0    0    0 -0.00000000000E+00 -0.00000000000E+00  0.11368683772E-12  0.17120000000E+03  0.17120000000E+03 0.  0.
         13    1    1    2    0    0  0.55238433273E+01  0.29014125160E+02  0.97214119841E+02  0.10160181378E+03  0.10566000000E+00 0.  1.
        994    1    1    2    0    0  0.52665692290E+00 -0.17504541625E+02  0.54640575006E+01  0.17218008674E+03  0.17120000000E+03 0.  0.
        998    1    1    2    0    0 -0.60505002502E+01 -0.11509583535E+02  0.13973218189E+04  0.13974180995E+04  0.10000000000E+02 0.  1.
</event>
<event>
 5    1  0.7732857E-009  0.3817396E+03  0.7957747E-01  0.3443619E+00
         13   -1    0    0    0    0  0.00000000000E+00  0.00000000000E+00  0.14999999963E+04  0.15000000000E+04  0.10566000000E+00 0. -1.
        994   -1    0    0    0    0 -0.00000000000E+00 -0.00000000000E+00  0.11368683772E-12  0.17120000000E+03  0.17120000000E+03 0.  0.
         13    1    1    2    0    0  0.18372621446E+03  0.75939229963E+02  0.10463906848E+04  0.10651082410E+04  0.10566000000E+00 0. -1.
        994    1    1    2    0    0 -0.18977107299E+03 -0.74738911533E+02  0.15674303614E+03  0.30899317859E+03  0.17120000000E+03 0.  0.
        998    1    1    2    0    0  0.60448585264E+01 -0.12003184301E+01  0.29686627531E+03  0.29709858043E+03  0.10000000000E+02 0.  1.
</event>
<event>
 5    1  0.7732857E-009  0.3798750E+03  0.7957747E-01  0.3451703E+00
         13   -1    0    0    0    0  0.00000000000E+00  0.00000000000E+00  0.14999999963E+04  0.15000000000E+04  0.10566000000E+00 0. -1.
        994   -1    0    0    0    0 -0.00000000000E+00 -0.00000000000E+00  0.11368683772E-12  0.17120000000E+03  0.17120000000E+03 0.  0.
         13    1    1    2    0    0  0.19589215647E+02 -0.27826870389E+02  0.12654706284E+03  0.13104290275E+03  0.10566000000E+00 0. -1.
        994    1    1    2    0    0 -0.14748532532E+02  0.30742487939E+02  0.80941873759E+01  0.17475003761E+03  0.17120000000E+03 0.  0.
        998    1    1    2    0    0 -0.48406831157E+01 -0.29156175506E+01  0.13653587461E+04  0.13654070596E+04  0.10000000000E+02 0. -1.
</event>
<event>
 5    1  0.7732857E-009  0.3739678E+03  0.7957747E-01  0.3477852E+00
         13   -1    0    0    0    0  0.00000000000E+00  0.00000000000E+00  0.14999999963E+04  0.15000000000E+04  0.10566000000E+00 0.  1.
        994   -1    0    0    0    0 -0.00000000000E+00 -0.00000000000E+00  0.11368683772E-12  0.17120000000E+03  0.17120000000E+03 0.  0.
         13    1    1    2    0    0 -0.42686706731E+02 -0.16106193259E+02  0.14013843886E+03  0.14737828064E+03  0.10566000000E+00 0.  1.
        994    1    1    2    0    0  0.34846399959E+02 -0.72441503720E+01  0.11542942222E+02  0.17524105917E+03  0.17120000000E+03 0.  0.
        998    1    1    2    0    0  0.78403067721E+01  0.23350343631E+02  0.13483186152E+04  0.13485806602E+04  0.10000000000E+02 0.  1.
</event>
<event>
 5    1  0.7732857E-009  0.3826329E+03  0.7957747E-01  0.3439774E+00
         13   -1    0    0    0    0  0.00000000000E+00  0.00000000000E+00  0.14999999963E+04  0.15000000000E+04  0.10566000000E+00 0. -1.
        994   -1    0    0    0    0 -0.00000000000E+00 -0.00000000000E+00  0.11368683772E-12  0.17120000000E+03  0.17120000000E+03 0.  0.
         13    1    1    2    0    0 -0.11885917162E+02 -0.43505439397E+01  0.27517391994E+02  0.30288946590E+02  0.10566000000E+00 0. -1.
        994    1    1    2    0    0  0.77647523616E+01  0.35353594841E+01  0.30511924480E+01  0.17143961013E+03  0.17120000000E+03 0.  0.
        998    1    1    2    0    0  0.41211648001E+01  0.81518445563E+00  0.14694314118E+04  0.14694714433E+04  0.10000000000E+02 0. -1.
</event>
<event>
 5    1  0.7732857E-009  0.3927592E+03  0.7957747E-01  0.3397417E+00
         13   -1    0    0    0    0  0.00000000000E+00  0.00000000000E+00  0.14999999963E+04  0.15000000000E+04  0.10566000000E+00 0. -1.
        994   -1    0    0    0    0 -0.00000000000E+00 -0.00000000000E+00  0.11368683772E-12  0.17120000000E+03  0.17120000000E+03 0.  0.
         13    1    1    2    0    0 -0.10285353568E+03  0.10632774737E+02  0.18513609933E+03  0.21205492718E+03  0.10566000000E+00 0. -1.
        994    1    1    2    0    0  0.11376041350E+03  0.11421701514E+02  0.75162376134E+02  0.21915909685E+03  0.17120000000E+03 0.  0.
        998    1    1    2    0    0 -0.10906877824E+02 -0.22054476251E+02  0.12397015208E+04  0.12399859760E+04  0.10000000000E+02 0. -1.
</event>
<event>
 5    1  0.7732857E-009  0.3808650E+03  0.7957747E-01  0.3447401E+00
         13   -1    0    0    0    0  0.00000000000E+00  0.00000000000E+00  0.14999999963E+04  0.15000000000E+04  0.10566000000E+00 0.  1.
        994   -1    0    0    0    0 -0.00000000000E+00 -0.00000000000E+00  0.11368683772E-12  0.17120000000E+03  0.17120000000E+03 0.  0.
         13    1    1    2    0    0 -0.19500311801E+02 -0.87435567372E+01  0.60388828544E+02  0.64058830162E+02  0.10566000000E+00 0.  1.
        994    1    1    2    0    0  0.11298418506E+02  0.89604133743E+01  0.43906176650E+01  0.17186233093E+03  0.17120000000E+03 0.  0.
        998    1    1    2    0    0  0.82018932957E+01 -0.21685663712E+00  0.14352205501E+04  0.14352788389E+04  0.10000000000E+02 0.  1.
</event>
<event>
 5    1  0.7732857E-009  0.3711380E+03  0.7957747E-01  0.3490677E+00
         13   -1    0    0    0    0  0.00000000000E+00  0.00000000000E+00  0.14999999963E+04  0.15000000000E+04  0.10566000000E+00 0. -1.
        994   -1    0    0    0    0 -0.00000000000E+00 -0.00000000000E+00  0.11368683772E-12  0.17120000000E+03  0.17120000000E+03 0.  0.
         13    1    1    2    0    0  0.39861312904E+02 -0.29830075929E+02  0.10415467999E+03  0.11544248016E+03  0.10566000000E+00 0. -1.
        994    1    1    2    0    0 -0.33115632264E+02  0.52880546249E+01  0.15499392216E+02  0.17514074278E+03  0.17120000000E+03 0.  0.
        998    1    1    2    0    0 -0.67456806393E+01  0.24542021304E+02  0.13803459241E+04  0.13806167771E+04  0.10000000000E+02 0. -1.
</event>
<event>
 5    1  0.7887927E-009  0.3854345E+03  0.7957747E-01  0.3427832E+00
         13   -1    0    0    0    0  0.00000000000E+00  0.00000000000E+00  0.14999999963E+04  0.15000000000E+04  0.10566000000E+00 0.  1.
        994   -1    0    0    0    0 -0.00000000000E+00 -0.00000000000E+00  0.11368683772E-12  0.17120000000E+03  0.17120000000E+03 0.  0.
         13    1    1    2    0    0  0.62452206443E+00 -0.12981562245E+02  0.69527294073E+02  0.70731653249E+02  0.10566000000E+00 0.  1.
        994    1    1    2    0    0  0.23620816481E+02 -0.99988629414E+01  0.35781782445E+01  0.17314780851E+03  0.17120000000E+03 0.  0.
        998    1    1    2    0    0 -0.24245338546E+02  0.22980425186E+02  0.14268945240E+04  0.14273205382E+04  0.10000000000E+02 0.  1.
</event>
<event>
 5    1  0.7732857E-009  0.3819380E+03  0.7957747E-01  0.3442763E+00
         13   -1    0    0    0    0  0.00000000000E+00  0.00000000000E+00  0.14999999963E+04  0.15000000000E+04  0.10566000000E+00 0.  1.
        994   -1    0    0    0    0 -0.00000000000E+00 -0.00000000000E+00  0.11368683772E-12  0.17120000000E+03  0.17120000000E+03 0.  0.
         13    1    1    2    0    0  0.15427433466E+02 -0.85881765420E+01  0.47898358831E+02  0.51049254866E+02  0.10566000000E+00 0.  1.
        994    1    1    2    0    0 -0.10976592727E+02  0.81128844137E+01  0.37771125139E+01  0.17178478122E+03  0.17120000000E+03 0.  0.
        998    1    1    2    0    0 -0.44508407394E+01  0.47529212831E+00  0.14483245249E+04  0.14483659639E+04  0.10000000000E+02 0.  1.
</event>
<event>
 5    1  0.7732857E-009  0.3759513E+03  0.7957747E-01  0.3468979E+00
         13   -1    0    0    0    0  0.00000000000E+00  0.00000000000E+00  0.14999999963E+04  0.15000000000E+04  0.10566000000E+00 0. -1.
        994   -1    0    0    0    0 -0.00000000000E+00 -0.00000000000E+00  0.11368683772E-12  0.17120000000E+03  0.17120000000E+03 0.  0.
         13    1    1    2    0    0 -0.58818828289E+02  0.13927559304E+02  0.15389776841E+03  0.16534257091E+03  0.10566000000E+00 0. -1.
        994    1    1    2    0    0 -0.23205117078E+02 -0.34721723171E+02  0.20374195187E+02  0.17739397777E+03  0.17120000000E+03 0.  0.
        998    1    1    2    0    0  0.82023945367E+02  0.20794163867E+02  0.13257280327E+04  0.13284634513E+04  0.10000000000E+02 0. -1.
</event>
<event>
 5    1  0.7732857E-009  0.3003974E+03  0.7957747E-01  0.3893186E+00
         13   -1    0    0    0    0  0.00000000000E+00  0.00000000000E+00  0.14999999963E+04  0.15000000000E+04  0.10566000000E+00 0.  1.
        994   -1    0    0    0    0 -0.00000000000E+00 -0.00000000000E+00  0.11368683772E-12  0.17120000000E+03  0.17120000000E+03 0.  0.
         13    1    1    2    0    0  0.13018236494E+03 -0.12847784535E+03  0.68401217084E+03  0.70804425420E+03  0.10566000000E+00 0.  1.
        994    1    1    2    0    0 -0.59182174580E+02  0.18397703633E+03  0.16615839676E+03  0.30703115884E+03  0.17120000000E+03 0.  0.
        998    1    1    2    0    0 -0.71000190362E+02 -0.55499190981E+02  0.64982942869E+03  0.65612458696E+03  0.10000000000E+02 0.  1.
</event>
<event>
 5    1  0.7732857E-009  0.3787876E+03  0.7957747E-01  0.3456455E+00
         13   -1    0    0    0    0  0.00000000000E+00  0.00000000000E+00  0.14999999963E+04  0.15000000000E+04  0.10566000000E+00 0. -1.
        994   -1    0    0    0    0 -0.00000000000E+00 -0.00000000000E+00  0.11368683772E-12  0.17120000000E+03  0.17120000000E+03 0.  0.
         13    1    1    2    0    0 -0.32156737488E+02  0.16812015745E+02  0.13981709212E+03  0.14444905694E+03  0.10566000000E+00 0. -1.
        994    1    1    2    0    0  0.15812292909E+02 -0.86241624147E+01  0.58359761120E+01  0.17224373255E+03  0.17120000000E+03 0.  0.
        998    1    1    2    0    0  0.16344444578E+02 -0.81878533307E+01  0.13543469280E+04  0.13545072105E+04  0.10000000000E+02 0. -1.
</event>
<event>
 5    1  0.7732857E-009  0.3810788E+03  0.7957747E-01  0.3446475E+00
         13   -1    0    0    0    0  0.00000000000E+00  0.00000000000E+00  0.14999999963E+04  0.15000000000E+04  0.10566000000E+00 0. -1.
        994   -1    0    0    0    0 -0.00000000000E+00 -0.00000000000E+00  0.11368683772E-12  0.17120000000E+03  0.17120000000E+03 0.  0.
         13    1    1    2    0    0 -0.29685375580E+02  0.11778779428E+02  0.13211637011E+03  0.13592169651E+03  0.10566000000E+00 0. -1.
        994    1    1    2    0    0  0.25866881584E+02 -0.14192524534E+02  0.64947185696E+01  0.17384517447E+03  0.17120000000E+03 0.  0.
        998    1    1    2    0    0  0.38184939965E+01  0.24137451066E+01  0.13613889076E+04  0.13614331290E+04  0.10000000000E+02 0. -1.
</event>
<event>
 5    1  0.7732857E-009  0.3803233E+03  0.7957747E-01  0.3449752E+00
         13   -1    0    0    0    0  0.00000000000E+00  0.00000000000E+00  0.14999999963E+04  0.15000000000E+04  0.10566000000E+00 0. -1.
        994   -1    0    0    0    0 -0.00000000000E+00 -0.00000000000E+00  0.11368683772E-12  0.17120000000E+03  0.17120000000E+03 0.  0.
         13    1    1    2    0    0  0.31437562871E+01  0.44173939210E+02  0.25458317999E+03  0.25840632115E+03  0.10566000000E+00 0. -1.
        994    1    1    2    0    0 -0.23836132403E+01 -0.21098618881E+02  0.54769668913E+01  0.17259858197E+03  0.17120000000E+03 0.  0.
        998    1    1    2    0    0 -0.76014304672E+00 -0.23075320329E+02  0.12399398494E+04  0.12401950969E+04  0.10000000000E+02 0. -1.
</event>
<event>
 5    1  0.7732857E-009  0.3856467E+03  0.7957747E-01  0.3426934E+00
         13   -1    0    0    0    0  0.00000000000E+00  0.00000000000E+00  0.14999999963E+04  0.15000000000E+04  0.10566000000E+00 0. -1.
        994   -1    0    0    0    0 -0.00000000000E+00 -0.00000000000E+00  0.11368683772E-12  0.17120000000E+03  0.17120000000E+03 0.  0.
         13    1    1    2    0    0 -0.10194731736E+02  0.90246428091E+01  0.69305686509E+02  0.70630489730E+02  0.10566000000E+00 0. -1.
        994    1    1    2    0    0  0.64849898667E+01 -0.12122048410E+02  0.19299066590E+01  0.17176193901E+03  0.17120000000E+03 0.  0.
        998    1    1    2    0    0  0.37097418694E+01  0.30974056007E+01  0.14287644031E+04  0.14288075713E+04  0.10000000000E+02 0. -1.
</event>
<event>
 5    1  0.7732857E-009  0.3842019E+03  0.7957747E-01  0.3433064E+00
         13   -1    0    0    0    0  0.00000000000E+00  0.00000000000E+00  0.14999999963E+04  0.15000000000E+04  0.10566000000E+00 0.  1.
        994   -1    0    0    0    0 -0.00000000000E+00 -0.00000000000E+00  0.11368683772E-12  0.17120000000E+03  0.17120000000E+03 0.  0.
         13    1    1    2    0    0 -0.12371892420E+02  0.66131515780E+01  0.47463145682E+02  0.49493018274E+02  0.10566000000E+00 0.  1.
        994    1    1    2    0    0  0.12800183232E+02 -0.20310603493E+01  0.25809185070E+01  0.17170926311E+03  0.17120000000E+03 0.  0.
        998    1    1    2    0    0 -0.42829081277E+00 -0.45820912286E+01  0.14499559321E+04  0.14499977186E+04  0.10000000000E+02 0.  1.
</event>
<event>
 5    1  0.7732857E-009  0.3765534E+03  0.7957747E-01  0.3466305E+00
         13   -1    0    0    0    0  0.00000000000E+00  0.00000000000E+00  0.14999999963E+04  0.15000000000E+04  0.10566000000E+00 0.  1.
        994   -1    0    0    0    0 -0.00000000000E+00 -0.00000000000E+00  0.11368683772E-12  0.17120000000E+03  0.17120000000E+03 0.  0.
         13    1    1    2    0    0 -0.10332648561E+03  0.18564326609E+03  0.10167569362E+04  0.10387177015E+04  0.10566000000E+00 0.  1.
        994    1    1    2    0    0  0.99596627149E+02 -0.18015662428E+03  0.16602877515E+03  0.31504109508E+03  0.17120000000E+03 0.  0.
        998    1    1    2    0    0  0.37298584600E+01 -0.54866418070E+01  0.31721428490E+03  0.31744120342E+03  0.10000000000E+02 0.  1.
</event>
<event>
 5    1  0.7732857E-009  0.3803308E+03  0.7957747E-01  0.3449719E+00
         13   -1    0    0    0    0  0.00000000000E+00  0.00000000000E+00  0.14999999963E+04  0.15000000000E+04  0.10566000000E+00 0.  1.
        994   -1    0    0    0    0 -0.00000000000E+00 -0.00000000000E+00  0.11368683772E-12  0.17120000000E+03  0.17120000000E+03 0.  0.
         13    1    1    2    0    0 -0.11321362038E+02 -0.47487856591E+00  0.14343606700E+02  0.18279741936E+02  0.10566000000E+00 0.  1.
        994    1    1    2    0    0  0.11915734032E+02  0.34567903654E+01  0.44804596021E+01  0.17170745073E+03  0.17120000000E+03 0.  0.
        998    1    1    2    0    0 -0.59437199452E+00 -0.29819117995E+01  0.14811759300E+04  0.14812128073E+04  0.10000000000E+02 0.  1.
</event>
<event>
 5    1  0.7732857E-009  0.3762831E+03  0.7957747E-01  0.3467504E+00
         13   -1    0    0    0    0  0.00000000000E+00  0.00000000000E+00  0.14999999963E+04  0.15000000000E+04  0.10566000000E+00 0.  1.
        994   -1    0    0    0    0 -0.00000000000E+00 -0.00000000000E+00  0.11368683772E-12  0.17120000000E+03  0.17120000000E+03 0.  0.
         13    1    1    2    0    0  0.93792277987E+02  0.14956919677E+03  0.86904774557E+03  0.88679869828E+03  0.10566000000E+00 0.  1.
        994    1    1    2    0    0 -0.98554873821E+02 -0.14874736843E+03  0.12274004817E+03  0.27606774928E+03  0.17120000000E+03 0.  0.
        998    1    1    2    0    0  0.47625958340E+01 -0.82182833614E+00  0.50821220254E+03  0.50833355244E+03  0.10000000000E+02 0.  0.
</event>
<event>
 5    1  0.7732857E-009  0.3802152E+03  0.7957747E-01  0.3450222E+00
         13   -1    0    0    0    0  0.00000000000E+00  0.00000000000E+00  0.14999999963E+04  0.15000000000E+04  0.10566000000E+00 0. -1.
        994   -1    0    0    0    0 -0.00000000000E+00 -0.00000000000E+00  0.11368683772E-12  0.17120000000E+03  0.17120000000E+03 0.  0.
         13    1    1    2    0    0  0.12817079471E+02  0.17285355802E+02  0.56098081618E+02  0.60083832906E+02  0.10566000000E+00 0. -1.
        994    1    1    2    0    0 -0.48032664546E+01 -0.13518141135E+02  0.47123804566E+01  0.17186465034E+03  0.17120000000E+03 0.  0.
        998    1    1    2    0    0 -0.80138130168E+01 -0.37672146670E+01  0.14391895342E+04  0.14392515168E+04  0.10000000000E+02 0. -1.
</event>
<event>
 5    1  0.7732857E-009  0.3804813E+03  0.7957747E-01  0.3449065E+00
         13   -1    0    0    0    0  0.00000000000E+00  0.00000000000E+00  0.14999999963E+04  0.15000000000E+04  0.10566000000E+00 0. -1.
        994   -1    0    0    0    0 -0.00000000000E+00 -0.00000000000E+00  0.11368683772E-12  0.17120000000E+03  0.17120000000E+03 0.  0.
         13    1    1    2    0    0  0.89008570011E+01 -0.35423775822E+02  0.14471420600E+03  0.14925240946E+03  0.10566000000E+00 0. -1.
        994    1    1    2    0    0  0.11257229446E+02  0.52389995899E+02  0.13534242343E+02  0.17990011840E+03  0.17120000000E+03 0.  0.
        998    1    1    2    0    0 -0.20158086447E+02 -0.16966220076E+02  0.13417515479E+04  0.13420474721E+04  0.10000000000E+02 0. -1.
</event>
<event>
 5    1  0.7732857E-009  0.3780840E+03  0.7957747E-01  0.3459544E+00
         13   -1    0    0    0    0  0.00000000000E+00  0.00000000000E+00  0.14999999963E+04  0.15000000000E+04  0.10566000000E+00 0. -1.
        994   -1    0    0    0    0 -0.00000000000E+00 -0.00000000000E+00  0.11368683772E-12  0.17120000000E+03  0.17120000000E+03 0.  0.
         13    1    1    2    0    0  0.14063371287E+02 -0.39449914071E+01  0.18971428479E+02  0.23943007993E+02  0.10566000000E+00 0. -1.
        994    1    1    2    0    0 -0.26215389790E+01  0.92736717022E+01  0.54159780799E+01  0.17155653958E+03  0.17120000000E+03 0.  0.
        998    1    1    2    0    0 -0.11441832308E+02 -0.53286802951E+01  0.14756125897E+04  0.14757004524E+04  0.10000000000E+02 0. -1.
</event>
<event>
 5    1  0.7732857E-009  0.3746791E+03  0.7957747E-01  0.3474659E+00
         13   -1    0    0    0    0  0.00000000000E+00  0.00000000000E+00  0.14999999963E+04  0.15000000000E+04  0.10566000000E+00 0.  1.
        994   -1    0    0    0    0 -0.00000000000E+00 -0.00000000000E+00  0.11368683772E-12  0.17120000000E+03  0.17120000000E+03 0.  0.
         13    1    1    2    0    0  0.30499630044E+02 -0.66517316800E+02  0.31452410488E+03  0.32292445646E+03  0.10566000000E+00 0.  1.
        994    1    1    2    0    0  0.27345669392E+02 -0.24275164450E+02  0.18201941069E+02  0.17600517010E+03  0.17120000000E+03 0.  0.
        998    1    1    2    0    0 -0.57845299437E+02  0.90792481250E+02  0.11672739503E+04  0.11722703734E+04  0.10000000000E+02 0.  1.
</event>
<event>
 5    1  0.7732857E-009  0.4052244E+03  0.7957747E-01  0.3348180E+00
         13   -1    0    0    0    0  0.00000000000E+00  0.00000000000E+00  0.14999999963E+04  0.15000000000E+04  0.10566000000E+00 0.  1.
        994   -1    0    0    0    0 -0.00000000000E+00 -0.00000000000E+00  0.11368683772E-12  0.17120000000E+03  0.17120000000E+03 0.  0.
         13    1    1    2    0    0 -0.52775797779E+02  0.29421154878E+02  0.48584428751E+02  0.77532877327E+02  0.10566000000E+00 0.  1.
        994    1    1    2    0    0  0.31597631557E+02 -0.37718052981E+02  0.40684961597E+02  0.18271772749E+03  0.17120000000E+03 0.  0.
        998    1    1    2    0    0  0.21178166222E+02  0.82968981037E+01  0.14107306059E+04  0.14109493952E+04  0.10000000000E+02 0.  1.
</event>
<event>
 5    1  0.7732857E-009  0.3823418E+03  0.7957747E-01  0.3441025E+00
         13   -1    0    0    0    0  0.00000000000E+00  0.00000000000E+00  0.14999999963E+04  0.15000000000E+04  0.10566000000E+00 0.  1.
        994   -1    0    0    0    0 -0.00000000000E+00 -0.00000000000E+00  0.11368683772E-12  0.17120000000E+03  0.17120000000E+03 0.  0.
         13    1    1    2    0    0  0.16421036410E+02 -0.21999060573E+02  0.14126181705E+03  0.14390455595E+03  0.10566000000E+00 0.  1.
        994    1    1    2    0    0 -0.82681902853E+01 -0.43265969318E+01  0.32445828529E+01  0.17148483819E+03  0.17120000000E+03 0.  0.
        998    1    1    2    0    0 -0.81528461251E+01  0.26325657505E+02  0.13554935964E+04  0.13558106059E+04  0.10000000000E+02 0. -1.
</event>
<event>
 5    1  0.7732857E-009  0.3807984E+03  0.7957747E-01  0.3447689E+00
         13   -1    0    0    0    0  0.00000000000E+00  0.00000000000E+00  0.14999999963E+04  0.15000000000E+04  0.10566000000E+00 0. -1.
        994   -1    0    0    0    0 -0.00000000000E+00 -0.00000000000E+00  0.11368683772E-12  0.17120000000E+03  0.17120000000E+03 0.  0.
         13    1    1    2    0    0  0.10564977037E+02  0.49953342419E+02  0.67894653248E+02  0.84950869697E+02  0.10566000000E+00 0. -1.
        994    1    1    2    0    0  0.42026080476E+01 -0.57351964071E+02  0.28884236544E+02  0.18289518533E+03  0.17120000000E+03 0.  0.
        998    1    1    2    0    0 -0.14767585084E+02  0.73986216513E+01  0.14032211065E+04  0.14033539450E+04  0.10000000000E+02 0. -1.
</event>
<event>
 5    1  0.7732857E-009  0.3693198E+03  0.7957747E-01  0.3499023E+00
         13   -1    0    0    0    0  0.00000000000E+00  0.00000000000E+00  0.14999999963E+04  0.15000000000E+04  0.10566000000E+00 0.  1.
        994   -1    0    0    0    0 -0.00000000000E+00 -0.00000000000E+00  0.11368683772E-12  0.17120000000E+03  0.17120000000E+03 0.  0.
         13    1    1    2    0    0 -0.53843226221E+02  0.47432626504E+02  0.22992152529E+03  0.24085860172E+03  0.10566000000E+00 0.  1.
        994    1    1    2    0    0  0.63103883527E+02 -0.59535692390E+01  0.24725839283E+02  0.18422364732E+03  0.17120000000E+03 0.  0.
        998    1    1    2    0    0 -0.92606573062E+01 -0.41479057265E+02  0.12453526317E+04  0.12461177510E+04  0.10000000000E+02 0.  1.
</event>
<event>
 5    1  0.7732857E-009  0.3837311E+03  0.7957747E-01  0.3435072E+00
         13   -1    0    0    0    0  0.00000000000E+00  0.00000000000E+00  0.14999999963E+04  0.15000000000E+04  0.10566000000E+00 0. -1.
        994   -1    0    0    0    0 -0.00000000000E+00 -0.00000000000E+00  0.11368683772E-12  0.17120000000E+03  0.17120000000E+03 0.  0.
         13    1    1    2    0    0 -0.14620949810E+02  0.78935639288E+01  0.60850687112E+02  0.63078505142E+02  0.10566000000E+00 0. -1.
        994    1    1    2    0    0  0.11330493465E+02  0.33810668289E+00  0.26858616430E+01  0.17159588646E+03  0.17120000000E+03 0.  0.
        998    1    1    2    0    0  0.32904563447E+01 -0.82316706117E+01  0.14364634475E+04  0.14365256084E+04  0.10000000000E+02 0. -1.
</event>
<event>
 5    1  0.7732857E-009  0.3745731E+03  0.7957747E-01  0.3475134E+00
         13   -1    0    0    0    0  0.00000000000E+00  0.00000000000E+00  0.14999999963E+04  0.15000000000E+04  0.10566000000E+00 0.  1.
        994   -1    0    0    0    0 -0.00000000000E+00 -0.00000000000E+00  0.11368683772E-12  0.17120000000E+03  0.17120000000E+03 0.  0.
         13    1    1    2    0    0  0.53730414314E+02  0.31624525192E+02  0.24022219646E+03  0.24818094780E+03  0.10566000000E+00 0.  1.
        994    1    1    2    0    0 -0.46684694008E+02 -0.38103152672E+02  0.19361666527E+02  0.18252568320E+03  0.17120000000E+03 0.  0.
        998    1    1    2    0    0 -0.70457203065E+01  0.64786274808E+01  0.12404161333E+04  0.12404933690E+04  0.10000000000E+02 0.  1.
</event>
<event>
 5    1  0.7732857E-009  0.3849652E+03  0.7957747E-01  0.3429820E+00
         13   -1    0    0    0    0  0.00000000000E+00  0.00000000000E+00  0.14999999963E+04  0.15000000000E+04  0.10566000000E+00 0.  1.
        994   -1    0    0    0    0 -0.00000000000E+00 -0.00000000000E+00  0.11368683772E-12  0.17120000000E+03  0.17120000000E+03 0.  0.
         13    1    1    2    0    0  0.84657963563E+01 -0.17328322923E+02  0.10432408841E+03  0.10609178606E+03  0.10566000000E+00 0.  1.
        994    1    1    2    0    0 -0.22496501567E+02  0.14163124964E+02  0.39751692062E+01  0.17329722635E+03  0.17120000000E+03 0.  0.
        998    1    1    2    0    0  0.14030705211E+02  0.31651979595E+01  0.13917007387E+04  0.13918109876E+04  0.10000000000E+02 0.  1.
</event>
<event>
 5    1  0.7732857E-009  0.3750558E+03  0.7957747E-01  0.3472973E+00
         13   -1    0    0    0    0  0.00000000000E+00  0.00000000000E+00  0.14999999963E+04  0.15000000000E+04  0.10566000000E+00 0.  1.
        994   -1    0    0    0    0 -0.00000000000E+00 -0.00000000000E+00  0.11368683772E-12  0.17120000000E+03  0.17120000000E+03 0.  0.
         13    1    1    2    0    0 -0.16240906596E+02 -0.39685642061E+02  0.59260528571E+02  0.73147376189E+02  0.10566000000E+00 0.  1.
        994    1    1    2    0    0  0.22116161312E+02  0.42508316328E+02  0.21854757903E+02  0.17911770429E+03  0.17120000000E+03 0.  0.
        998    1    1    2    0    0 -0.58752547154E+01 -0.28226742675E+01  0.14188847098E+04  0.14189349195E+04  0.10000000000E+02 0.  1.
</event>
<event>
 5    1  0.7732857E-009  0.3801334E+03  0.7957747E-01  0.3450578E+00
         13   -1    0    0    0    0  0.00000000000E+00  0.00000000000E+00  0.14999999963E+04  0.15000000000E+04  0.10566000000E+00 0. -1.
        994   -1    0    0    0    0 -0.00000000000E+00 -0.00000000000E+00  0.11368683772E-12  0.17120000000E+03  0.17120000000E+03 0.  0.
         13    1    1    2    0    0 -0.20719212083E+02  0.21955841810E+02  0.10311791759E+03  0.10744608337E+03  0.10566000000E+00 0. -1.
        994    1    1    2    0    0  0.32897971700E+02 -0.12962449662E+02  0.82549369765E+01  0.17500824446E+03  0.17120000000E+03 0.  0.
        998    1    1    2    0    0 -0.12178759617E+02 -0.89933921476E+01  0.13886271417E+04  0.13887456722E+04  0.10000000000E+02 0. -1.
</event>
<event>
 5    1  0.7732857E-009  0.3688747E+03  0.7957747E-01  0.3501079E+00
         13   -1    0    0    0    0  0.00000000000E+00  0.00000000000E+00  0.14999999963E+04  0.15000000000E+04  0.10566000000E+00 0. -1.
        994   -1    0    0    0    0 -0.00000000000E+00 -0.00000000000E+00  0.11368683772E-12  0.17120000000E+03  0.17120000000E+03 0.  0.
         13    1    1    2    0    0  0.13681497364E+02 -0.11872291025E+02  0.12260906828E+02  0.21874086600E+02  0.10566000000E+00 0. -1.
        994    1    1    2    0    0 -0.11674442136E+02  0.88813364953E+01  0.10605682349E+02  0.17215426581E+03  0.17120000000E+03 0.  0.
        998    1    1    2    0    0 -0.20070552281E+01  0.29909545296E+01  0.14771334071E+04  0.14771716476E+04  0.10000000000E+02 0. -1.
</event>
<event>
 5    1  0.7732857E-009  0.3712114E+03  0.7957747E-01  0.3490342E+00
         13   -1    0    0    0    0  0.00000000000E+00  0.00000000000E+00  0.14999999963E+04  0.15000000000E+04  0.10566000000E+00 0.  1.
        994   -1    0    0    0    0 -0.00000000000E+00 -0.00000000000E+00  0.11368683772E-12  0.17120000000E+03  0.17120000000E+03 0.  0.
         13    1    1    2    0    0  0.14973569240E+01 -0.13583396172E+02  0.68194878419E+01  0.15273090970E+02  0.10566000000E+00 0.  1.
        994    1    1    2    0    0 -0.80963218257E+01  0.12979488583E+02  0.94434196150E+01  0.17214132486E+03  0.17120000000E+03 0.  0.
        998    1    1    2    0    0  0.65989649018E+01  0.60390758847E+00  0.14837370888E+04  0.14837855842E+04  0.10000000000E+02 0.  1.
</event>
<event>
 5    1  0.7732857E-009  0.3821331E+03  0.7957747E-01  0.3441923E+00
         13   -1    0    0    0    0  0.00000000000E+00  0.00000000000E+00  0.14999999963E+04  0.15000000000E+04  0.10566000000E+00 0.  1.
        994   -1    0    0    0    0 -0.00000000000E+00 -0.00000000000E+00  0.11368683772E-12  0.17120000000E+03  0.17120000000E+03 0.  0.
         13    1    1    2    0    0 -0.19812911864E+02  0.20110038655E+02  0.13416149957E+03  0.13709954143E+03  0.10566000000E+00 0.  1.
        994    1    1    2    0    0  0.83046434599E+01 -0.79345396919E+01  0.34982646221E+01  0.17162051707E+03  0.17120000000E+03 0.  0.
        998    1    1    2    0    0  0.11508268405E+02 -0.12175498963E+02  0.13623402321E+04  0.13624799415E+04  0.10000000000E+02 0.  1.
</event>
<event>
 5    1  0.7732857E-009  0.3813267E+03  0.7957747E-01  0.3445402E+00
         13   -1    0    0    0    0  0.00000000000E+00  0.00000000000E+00  0.14999999963E+04  0.15000000000E+04  0.10566000000E+00 0. -1.
        994   -1    0    0    0    0 -0.00000000000E+00 -0.00000000000E+00  0.11368683772E-12  0.17120000000E+03  0.17120000000E+03 0.  0.
         13    1    1    2    0    0 -0.14652268236E+02 -0.50504180054E+02  0.31738816025E+03  0.32171511714E+03  0.10566000000E+00 0. -1.
        994    1    1    2    0    0  0.28047680218E+02  0.46824060359E+02  0.13444827886E+02  0.18019258695E+03  0.17120000000E+03 0.  0.
        998    1    1    2    0    0 -0.13395411982E+02  0.36801196948E+01  0.11691670081E+04  0.11692922959E+04  0.10000000000E+02 0. -1.
</event>
<event>
 5    1  0.7732857E-009  0.3684277E+03  0.7957747E-01  0.3503148E+00
         13   -1    0    0    0    0  0.00000000000E+00  0.00000000000E+00  0.14999999963E+04  0.15000000000E+04  0.10566000000E+00 0.  1.
        994   -1    0    0    0    0 -0.00000000000E+00 -0.00000000000E+00  0.11368683772E-12  0.17120000000E+03  0.17120000000E+03 0.  0.
         13    1    1    2    0    0 -0.16362868484E+02  0.48477395944E+02  0.14684265701E+03  0.15550105615E+03  0.10566000000E+00 0.  1.
        994    1    1    2    0    0 -0.19535280601E+02 -0.33001747410E+01  0.11458982978E+02  0.17272309235E+03  0.17120000000E+03 0.  0.
        998    1    1    2    0    0  0.35898149085E+02 -0.45177221203E+02  0.13416983563E+04  0.13429758515E+04  0.10000000000E+02 0.  1.
</event>
<event>
 5    1  0.7732857E-009  0.3806682E+03  0.7957747E-01  0.3448254E+00
         13   -1    0    0    0    0  0.00000000000E+00  0.00000000000E+00  0.14999999963E+04  0.15000000000E+04  0.10566000000E+00 0. -1.
        994   -1    0    0    0    0 -0.00000000000E+00 -0.00000000000E+00  0.11368683772E-12  0.17120000000E+03  0.17120000000E+03 0.  0.
         13    1    1    2    0    0 -0.13315337955E+02  0.39469812673E+02  0.19657324022E+03  0.20093833450E+03  0.10566000000E+00 0. -1.
        994    1    1    2    0    0  0.17450810712E+02 -0.40104860038E+02  0.10203402219E+02  0.17699288124E+03  0.17120000000E+03 0.  0.
        998    1    1    2    0    0 -0.41354727568E+01  0.63504736508E+00  0.12932233538E+04  0.12932687843E+04  0.10000000000E+02 0. -1.
</event>
<event>
 5    1  0.7732857E-009  0.3808365E+03  0.7957747E-01  0.3447524E+00
         13   -1    0    0    0    0  0.00000000000E+00  0.00000000000E+00  0.14999999963E+04  0.15000000000E+04  0.10566000000E+00 0.  1.
        994   -1    0    0    0    0 -0.00000000000E+00 -0.00000000000E+00  0.11368683772E-12  0.17120000000E+03  0.17120000000E+03 0.  0.
         13    1    1    2    0    0 -0.28224397883E+02 -0.23601875036E+02  0.18348626941E+03  0.18713868485E+03  0.10566000000E+00 0.  1.
        994    1    1    2    0    0  0.20720569300E+02  0.59895246522E+01  0.52638992796E+01  0.17263361502E+03  0.17120000000E+03 0.  0.
        998    1    1    2    0    0  0.75038285834E+01  0.17612350384E+02  0.13112498276E+04  0.13114277001E+04  0.10000000000E+02 0.  1.
</event>
<event>
 5    1  0.7732857E-009  0.3727578E+03  0.7957747E-01  0.3483312E+00
         13   -1    0    0    0    0  0.00000000000E+00  0.00000000000E+00  0.14999999963E+04  0.15000000000E+04  0.10566000000E+00 0. -1.
        994   -1    0    0    0    0 -0.00000000000E+00 -0.00000000000E+00  0.11368683772E-12  0.17120000000E+03  0.17120000000E+03 0.  0.
         13    1    1    2    0    0 -0.40929965301E+02 -0.14498938418E+03  0.69034037679E+03  0.70658830345E+03  0.10566000000E+00 0. -1.
        994    1    1    2    0    0  0.35009946776E+02  0.14886741960E+03  0.92732980763E+02  0.24758039243E+03  0.17120000000E+03 0.  0.
        998    1    1    2    0    0  0.59200185259E+01 -0.38780354208E+01  0.71692663872E+03  0.71703130412E+03  0.10000000000E+02 0.  0.
</event>
<event>
 5    1  0.7732857E-009  0.3847668E+03  0.7957747E-01  0.3430662E+00
         13   -1    0    0    0    0  0.00000000000E+00  0.00000000000E+00  0.14999999963E+04  0.15000000000E+04  0.10566000000E+00 0.  1.
        994   -1    0    0    0    0 -0.00000000000E+00 -0.00000000000E+00  0.11368683772E-12  0.17120000000E+03  0.17120000000E+03 0.  0.
         13    1    1    2    0    0 -0.19307637457E+01 -0.17868902951E+02  0.98855448396E+02  0.10047604880E+03  0.10566000000E+00 0.  1.
        994    1    1    2    0    0 -0.11195424732E+02  0.41529564748E+01  0.22153701108E+01  0.17163022009E+03  0.17120000000E+03 0.  0.
        998    1    1    2    0    0  0.13126188478E+02  0.13715946476E+02  0.13989291778E+04  0.13990937311E+04  0.10000000000E+02 0.  1.
</event>
<event>
 5    1  0.7732857E-009  0.3734118E+03  0.7957747E-01  0.3480357E+00
         13   -1    0    0    0    0  0.00000000000E+00  0.00000000000E+00  0.14999999963E+04  0.15000000000E+04  0.10566000000E+00 0. -1.
        994   -1    0    0    0    0 -0.00000000000E+00 -0.00000000000E+00  0.11368683772E-12  0.17120000000E+03  0.17120000000E+03 0.  0.
         13    1    1    2    0    0  0.98843829436E+01  0.15819958526E+01  0.32337319403E+01  0.10520072402E+02  0.10566000000E+00 0. -1.
        994    1    1    2    0    0 -0.16590371690E+01 -0.84216027754E+01  0.77484157583E+01  0.17159007473E+03  0.17120000000E+03 0.  0.
        998    1    1    2    0    0 -0.82253457746E+01  0.68396069228E+01  0.14890178486E+04  0.14890898529E+04  0.10000000000E+02 0. -1.
</event>
<event>
 5    1  0.7732857E-009  0.3855023E+03  0.7957747E-01  0.3427545E+00
         13   -1    0    0    0    0  0.00000000000E+00  0.00000000000E+00  0.14999999963E+04  0.15000000000E+04  0.10566000000E+00 0. -1.
        994   -1    0    0    0    0 -0.00000000000E+00 -0.00000000000E+00  0.11368683772E-12  0.17120000000E+03  0.17120000000E+03 0.  0.
         13    1    1    2    0    0 -0.13693032876E+02  0.80669634383E+01  0.89684120750E+02  0.91081434591E+02  0.10566000000E+00 0. -1.
        994    1    1    2    0    0  0.10064703048E+02 -0.91988104270E+01  0.19916106306E+01  0.17175366917E+03  0.17120000000E+03 0.  0.
        998    1    1    2    0    0  0.36283298279E+01  0.11318469887E+01  0.14083242649E+04  0.14083648962E+04  0.10000000000E+02 0. -1.
</event>
<event>
 5    1  0.7732857E-009  0.3821659E+03  0.7957747E-01  0.3441782E+00
         13   -1    0    0    0    0  0.00000000000E+00  0.00000000000E+00  0.14999999963E+04  0.15000000000E+04  0.10566000000E+00 0. -1.
        994   -1    0    0    0    0 -0.00000000000E+00 -0.00000000000E+00  0.11368683772E-12  0.17120000000E+03  0.17120000000E+03 0.  0.
         13    1    1    2    0    0 -0.11554803047E+01 -0.21358735456E+02  0.70024867536E+02  0.73219013599E+02  0.10566000000E+00 0. -1.
        994    1    1    2    0    0  0.87307412493E+01  0.24895927997E+02  0.53574791310E+01  0.17330370930E+03  0.17120000000E+03 0.  0.
        998    1    1    2    0    0 -0.75752609446E+01 -0.35371925408E+01  0.14246176496E+04  0.14246772771E+04  0.10000000000E+02 0. -1.
</event>
<event>
 5    1  0.7732857E-009  0.3817724E+03  0.7957747E-01  0.3443477E+00
         13   -1    0    0    0    0  0.00000000000E+00  0.00000000000E+00  0.14999999963E+04  0.15000000000E+04  0.10566000000E+00 0. -1.
        994   -1    0    0    0    0 -0.00000000000E+00 -0.00000000000E+00  0.11368683772E-12  0.17120000000E+03  0.17120000000E+03 0.  0.
         13    1    1    2    0    0 -0.24828185673E+02  0.17595707703E+02  0.12557748581E+03  0.12921208860E+03  0.10566000000E+00 0. -1.
        994    1    1    2    0    0  0.31102662927E+02 -0.20868377027E+02  0.79175372574E+01  0.17542802569E+03  0.17120000000E+03 0.  0.
        998    1    1    2    0    0 -0.62744772537E+01  0.32726693244E+01  0.13665049732E+04  0.13665598857E+04  0.10000000000E+02 0. -1.
</event>
<event>
 5    1  0.7732857E-009  0.3853699E+03  0.7957747E-01  0.3428105E+00
         13   -1    0    0    0    0  0.00000000000E+00  0.00000000000E+00  0.14999999963E+04  0.15000000000E+04  0.10566000000E+00 0. -1.
        994   -1    0    0    0    0 -0.00000000000E+00 -0.00000000000E+00  0.11368683772E-12  0.17120000000E+03  0.17120000000E+03 0.  0.
         13    1    1    2    0    0  0.29808761332E+01 -0.13882518603E+02  0.82629441967E+02  0.83840597500E+02  0.10566000000E+00 0. -1.
        994    1    1    2    0    0  0.13200306551E+01 -0.11990022928E+02  0.19246579667E+01  0.17163521620E+03  0.17120000000E+03 0.  0.
        998    1    1    2    0    0 -0.43009067884E+01  0.25872541531E+02  0.14154458963E+04  0.14157241863E+04  0.10000000000E+02 0. -1.
</event>
<event>
 5    1  0.7732857E-009  0.3847103E+03  0.7957747E-01  0.3430902E+00
         13   -1    0    0    0    0  0.00000000000E+00  0.00000000000E+00  0.14999999963E+04  0.15000000000E+04  0.10566000000E+00 0.  1.
        994   -1    0    0    0    0 -0.00000000000E+00 -0.00000000000E+00  0.11368683772E-12  0.17120000000E+03  0.17120000000E+03 0.  0.
         13    1    1    2    0    0  0.81957770295E+01  0.71240752768E+01  0.30992389207E+02  0.32839953752E+02  0.10566000000E+00 0.  1.
        994    1    1    2    0    0 -0.13909267554E+02 -0.16656025977E+02  0.33256310984E+01  0.17260182718E+03  0.17120000000E+03 0.  0.
        998    1    1    2    0    0  0.57134905243E+01  0.95319507001E+01  0.14656819760E+04  0.14657582191E+04  0.10000000000E+02 0.  1.
</event>
<event>
 5    1  0.7732857E-009  0.3853118E+03  0.7957747E-01  0.3428351E+00
         13   -1    0    0    0    0  0.00000000000E+00  0.00000000000E+00  0.14999999963E+04  0.15000000000E+04  0.10566000000E+00 0. -1.
        994   -1    0    0    0    0 -0.00000000000E+00 -0.00000000000E+00  0.11368683772E-12  0.17120000000E+03  0.17120000000E+03 0.  0.
         13    1    1    2    0    0 -0.10510728558E+02 -0.56576562232E+01  0.47494738584E+02  0.48971888323E+02  0.10566000000E+00 0. -1.
        994    1    1    2    0    0  0.10250818014E+02  0.47267202058E+01  0.18941286065E+01  0.17158219277E+03  0.17120000000E+03 0.  0.
        998    1    1    2    0    0  0.25991054357E+00  0.93093601735E+00  0.14506111291E+04  0.14506459189E+04  0.10000000000E+02 0. -1.
</event>
<event>
 5    1  0.7732857E-009  0.3799708E+03  0.7957747E-01  0.3451285E+00
         13   -1    0    0    0    0  0.00000000000E+00  0.00000000000E+00  0.14999999963E+04  0.15000000000E+04  0.10566000000E+00 0. -1.
        994   -1    0    0    0    0 -0.00000000000E+00 -0.00000000000E+00  0.11368683772E-12  0.17120000000E+03  0.17120000000E+03 0.  0.
         13    1    1    2    0    0  0.17081746115E+02 -0.22468351937E+01  0.33993401885E+02  0.38110324775E+02  0.10566000000E+00 0. -1.
        994    1    1    2    0    0 -0.12902507124E+02  0.27125539831E+01  0.47292391971E+01  0.17177205344E+03  0.17120000000E+03 0.  0.
        998    1    1    2    0    0 -0.41792389901E+01 -0.46571878936E+00  0.14612773552E+04  0.14613176218E+04  0.10000000000E+02 0. -1.
</event>
<event>
 5    1  0.7732857E-009  0.3830535E+03  0.7957747E-01  0.3437970E+00
         13   -1    0    0    0    0  0.00000000000E+00  0.00000000000E+00  0.14999999963E+04  0.15000000000E+04  0.10566000000E+00 0.  1.
        994   -1    0    0    0    0 -0.00000000000E+00 -0.00000000000E+00  0.11368683772E-12  0.17120000000E+03  0.17120000000E+03 0.  0.
         13    1    1    2    0    0 -0.16386540866E+02  0.24647537928E+02  0.11939708997E+03  0.12301095928E+03  0.10566000000E+00 0.  1.
        994    1    1    2    0    0  0.30492639898E+02 -0.63339838367E+02  0.19130127582E+02  0.18605681389E+03  0.17120000000E+03 0.  0.
        998    1    1    2    0    0 -0.14106099032E+02  0.38692300439E+02  0.13614727787E+04  0.13621322268E+04  0.10000000000E+02 0.  1.
</event>
<event>
 5    1  0.7732857E-009  0.3834597E+03  0.7957747E-01  0.3436231E+00
         13   -1    0    0    0    0  0.00000000000E+00  0.00000000000E+00  0.14999999963E+04  0.15000000000E+04  0.10566000000E+00 0. -1.
        994   -1    0    0    0    0 -0.00000000000E+00 -0.00000000000E+00  0.11368683772E-12  0.17120000000E+03  0.17120000000E+03 0.  0.
         13    1    1    2    0    0  0.31337145276E+02  0.31131121792E+02  0.24169661696E+03  0.24569987634E+03  0.10566000000E+00 0. -1.
        994    1    1    2    0    0 -0.71794511173E+02 -0.41874939800E+02  0.25573597038E+02  0.19201929925E+03  0.17120000000E+03 0.  0.
        998    1    1    2    0    0  0.40457365897E+02  0.10743818008E+02  0.12327297823E+04  0.12334808244E+04  0.10000000000E+02 0. -1.
</event>
<event>
 5    1  0.1214633E-008  0.3853378E+03  0.7957747E-01  0.3428241E+00
         13   -1    0    0    0    0  0.00000000000E+00  0.00000000000E+00  0.14999999963E+04  0.15000000000E+04  0.10566000000E+00 0. -1.
        994   -1    0    0    0    0 -0.00000000000E+00 -0.00000000000E+00  0.11368683772E-12  0.17120000000E+03  0.17120000000E+03 0.  0.
         13    1    1    2    0    0 -0.28106344030E+01  0.10400413766E+02  0.38642705722E+02  0.40116556954E+02  0.10566000000E+00 0. -1.
        994    1    1    2    0    0  0.42927142111E+01 -0.11829194677E+02  0.19828810684E+01  0.17167332076E+03  0.17120000000E+03 0.  0.
        998    1    1    2    0    0 -0.14820798082E+01  0.14287809116E+01  0.14593744095E+04  0.14594101223E+04  0.10000000000E+02 0. -1.
</event>
<event>
 5    1  0.7732857E-009  0.3830480E+03  0.7957747E-01  0.3437993E+00
         13   -1    0    0    0    0  0.00000000000E+00  0.00000000000E+00  0.14999999963E+04  0.15000000000E+04  0.10566000000E+00 0. -1.
        994   -1    0    0    0    0 -0.00000000000E+00 -0.00000000000E+00  0.11368683772E-12  0.17120000000E+03  0.17120000000E+03 0.  0.
         13    1    1    2    0    0  0.20329923397E+02 -0.16486010788E+02  0.13692872257E+03  0.13940796450E+03  0.10566000000E+00 0. -1.
        994    1    1    2    0    0 -0.67892173096E+01  0.71363176274E+01  0.29235680536E+01  0.17150803990E+03  0.17120000000E+03 0.  0.
        998    1    1    2    0    0 -0.13540706088E+02  0.93496931610E+01  0.13601477057E+04  0.13602839956E+04  0.10000000000E+02 0. -1.
</event>
<event>
 5    1  0.7732857E-009  0.3786784E+03  0.7957747E-01  0.3456933E+00
         13   -1    0    0    0    0  0.00000000000E+00  0.00000000000E+00  0.14999999963E+04  0.15000000000E+04  0.10566000000E+00 0. -1.
        994   -1    0    0    0    0 -0.00000000000E+00 -0.00000000000E+00  0.11368683772E-12  0.17120000000E+03  0.17120000000E+03 0.  0.
         13    1    1    2    0    0 -0.24449760685E+02  0.88882130713E+02  0.55772976398E+03  0.56529666968E+03  0.10566000000E+00 0. -1.
        994    1    1    2    0    0  0.10173116956E+02 -0.92012847349E+02  0.34136642376E+02  0.19759708181E+03  0.17120000000E+03 0.  0.
        998    1    1    2    0    0  0.14276643729E+02  0.31307166356E+01  0.90813358992E+03  0.90830624851E+03  0.10000000000E+02 0. -1.
</event>
<event>
 5    1  0.7732857E-009  0.3876808E+03  0.7957747E-01  0.3418381E+00
         13   -1    0    0    0    0  0.00000000000E+00  0.00000000000E+00  0.14999999963E+04  0.15000000000E+04  0.10566000000E+00 0. -1.
        994   -1    0    0    0    0 -0.00000000000E+00 -0.00000000000E+00  0.11368683772E-12  0.17120000000E+03  0.17120000000E+03 0.  0.
         13    1    1    2    0    0 -0.67170457436E+02 -0.66848175410E+02  0.18795989299E+03  0.21049817444E+03  0.10566000000E+00 0. -1.
        994    1    1    2    0    0  0.73483760506E+02  0.54629336625E+02  0.52601142873E+02  0.20114807409E+03  0.17120000000E+03 0.  0.
        998    1    1    2    0    0 -0.63133030704E+01  0.12218838784E+02  0.12594389604E+04  0.12595537515E+04  0.10000000000E+02 0. -1.
</event>
<event>
 5    1  0.7732857E-009  0.3847302E+03  0.7957747E-01  0.3430817E+00
         13   -1    0    0    0    0  0.00000000000E+00  0.00000000000E+00  0.14999999963E+04  0.15000000000E+04  0.10566000000E+00 0. -1.
        994   -1    0    0    0    0 -0.00000000000E+00 -0.00000000000E+00  0.11368683772E-12  0.17120000000E+03  0.17120000000E+03 0.  0.
         13    1    1    2    0    0  0.67633440843E+01 -0.11110871218E+02  0.46034603690E+02  0.47837121395E+02  0.10566000000E+00 0. -1.
        994    1    1    2    0    0 -0.84691826642E+01  0.13391598887E+02  0.25909576465E+01  0.17195119958E+03  0.17120000000E+03 0.  0.
        998    1    1    2    0    0  0.17058385799E+01 -0.22807276687E+01  0.14513744349E+04  0.14514116790E+04  0.10000000000E+02 0. -1.
</event>
<event>
 5    1  0.7732857E-009  0.3847167E+03  0.7957747E-01  0.3430875E+00
         13   -1    0    0    0    0  0.00000000000E+00  0.00000000000E+00  0.14999999963E+04  0.15000000000E+04  0.10566000000E+00 0.  1.
        994   -1    0    0    0    0 -0.00000000000E+00 -0.00000000000E+00  0.11368683772E-12  0.17120000000E+03  0.17120000000E+03 0.  0.
         13    1    1    2    0    0  0.12340718940E+02 -0.15531195384E+02  0.11476679852E+03  0.11646862488E+03  0.10566000000E+00 0.  1.
        994    1    1    2    0    0  0.20546076240E+01  0.12536001101E+02  0.23022276059E+01  0.17168608851E+03  0.17120000000E+03 0.  0.
        998    1    1    2    0    0 -0.14395326564E+02  0.29951942833E+01  0.13829309701E+04  0.13830452866E+04  0.10000000000E+02 0.  1.
</event>
<event>
 5    1  0.7732857E-009  0.3841824E+03  0.7957747E-01  0.3433147E+00
         13   -1    0    0    0    0  0.00000000000E+00  0.00000000000E+00  0.14999999963E+04  0.15000000000E+04  0.10566000000E+00 0.  1.
        994   -1    0    0    0    0 -0.00000000000E+00 -0.00000000000E+00  0.11368683772E-12  0.17120000000E+03  0.17120000000E+03 0.  0.
         13    1    1    2    0    0  0.74666764164E+01 -0.14416634065E+02  0.65968370974E+02  0.67936939345E+02  0.10566000000E+00 0.  1.
        994    1    1    2    0    0  0.87141603620E+01  0.11813251334E+02  0.27474853075E+01  0.17185016198E+03  0.17120000000E+03 0.  0.
        998    1    1    2    0    0 -0.16180836778E+02  0.26033827316E+01  0.14312841400E+04  0.14314128987E+04  0.10000000000E+02 0.  1.
</event>
<event>
 5    1  0.7732857E-009  0.3837807E+03  0.7957747E-01  0.3434860E+00
         13   -1    0    0    0    0  0.00000000000E+00  0.00000000000E+00  0.14999999963E+04  0.15000000000E+04  0.10566000000E+00 0. -1.
        994   -1    0    0    0    0 -0.00000000000E+00 -0.00000000000E+00  0.11368683772E-12  0.17120000000E+03  0.17120000000E+03 0.  0.
         13    1    1    2    0    0  0.76483502113E+01  0.14973462045E+02  0.60133644753E+02  0.62440117088E+02  0.10566000000E+00 0. -1.
        994    1    1    2    0    0 -0.76756549528E+01 -0.17282303478E+02  0.34182554752E+01  0.17227512346E+03  0.17120000000E+03 0.  0.
        998    1    1    2    0    0  0.27304741505E-01  0.23088414336E+01  0.14364480961E+04  0.14364847595E+04  0.10000000000E+02 0. -1.
</event>
<event>
 5    1  0.7732857E-009  0.3920164E+03  0.7957747E-01  0.3400449E+00
         13   -1    0    0    0    0  0.00000000000E+00  0.00000000000E+00  0.14999999963E+04  0.15000000000E+04  0.10566000000E+00 0. -1.
        994   -1    0    0    0    0 -0.00000000000E+00 -0.00000000000E+00  0.11368683772E-12  0.17120000000E+03  0.17120000000E+03 0.  0.
         13    1    1    2    0    0  0.90756906690E+02 -0.43889442745E+02  0.23066928377E+03  0.25173682475E+03  0.10566000000E+00 0. -1.
        994    1    1    2    0    0 -0.32950372740E+02  0.36305648895E+02  0.32261942770E+02  0.18098093866E+03  0.17120000000E+03 0.  0.
        998    1    1    2    0    0 -0.57806533950E+02  0.75837938504E+01  0.12370687697E+04  0.12384822366E+04  0.10000000000E+02 0. -1.
</event>
<event>
 5    1  0.7732857E-009  0.3858328E+03  0.7957747E-01  0.3426148E+00
         13   -1    0    0    0    0  0.00000000000E+00  0.00000000000E+00  0.14999999963E+04  0.15000000000E+04  0.10566000000E+00 0. -1.
        994   -1    0    0    0    0 -0.00000000000E+00 -0.00000000000E+00  0.11368683772E-12  0.17120000000E+03  0.17120000000E+03 0.  0.
         13    1    1    2    0    0  0.37055742703E+00  0.13902123085E+02  0.80019194783E+02  0.81218772688E+02  0.10566000000E+00 0. -1.
        994    1    1    2    0    0 -0.46108539654E+01 -0.92464981580E+01  0.15674741305E+01  0.17151867151E+03  0.17120000000E+03 0.  0.
        998    1    1    2    0    0  0.42402965384E+01 -0.46556249272E+01  0.14184133274E+04  0.14184625558E+04  0.10000000000E+02 0. -1.
</event>
<event>
 5    1  0.7732857E-009  0.3245555E+03  0.7957747E-01  0.3734945E+00
         13   -1    0    0    0    0  0.00000000000E+00  0.00000000000E+00  0.14999999963E+04  0.15000000000E+04  0.10566000000E+00 0. -1.
        994   -1    0    0    0    0 -0.00000000000E+00 -0.00000000000E+00  0.11368683772E-12  0.17120000000E+03  0.17120000000E+03 0.  0.
         13    1    1    2    0    0  0.17746455798E+03 -0.49999491574E+02  0.95433904694E+03  0.97198592900E+03  0.10566000000E+00 0. -1.
        994    1    1    2    0    0 -0.10194170552E+03  0.57533651210E+02  0.72195008872E+02  0.21959916132E+03  0.17120000000E+03 0.  0.
        998    1    1    2    0    0 -0.75522852465E+02 -0.75341596358E+01  0.47346594046E+03  0.47961490968E+03  0.10000000000E+02 0. -1.
</event>
<event>
 5    1  0.1942138E-008  0.3861042E+03  0.7957747E-01  0.3425003E+00
         13   -1    0    0    0    0  0.00000000000E+00  0.00000000000E+00  0.14999999963E+04  0.15000000000E+04  0.10566000000E+00 0.  1.
        994   -1    0    0    0    0 -0.00000000000E+00 -0.00000000000E+00  0.11368683772E-12  0.17120000000E+03  0.17120000000E+03 0.  0.
         13    1    1    2    0    0 -0.10068409595E+02  0.54820925580E+01  0.62633212058E+02  0.63673830004E+02  0.10566000000E+00 0.  1.
        994    1    1    2    0    0  0.67203274136E+01  0.12629478383E+01  0.12361351009E+01  0.17134096378E+03  0.17120000000E+03 0.  0.
        998    1    1    2    0    0  0.33480821818E+01 -0.67450403963E+01  0.14361306491E+04  0.14361852062E+04  0.10000000000E+02 0.  1.
</event>
<event>
 5    1  0.7732857E-009  0.4020590E+03  0.7957747E-01  0.3360396E+00
         13   -1    0    0    0    0  0.00000000000E+00  0.00000000000E+00  0.14999999963E+04  0.15000000000E+04  0.10566000000E+00 0. -1.
        994   -1    0    0    0    0 -0.00000000000E+00 -0.00000000000E+00  0.11368683772E-12  0.17120000000E+03  0.17120000000E+03 0.  0.
         13    1    1    2    0    0  0.13448146212E+03  0.11850293990E+02  0.19555484112E+03  0.23762870233E+03  0.10566000000E+00 0. -1.
        994    1    1    2    0    0 -0.19220869757E+03  0.10388669548E+00  0.19603138480E+03  0.32354588244E+03  0.17120000000E+03 0.  0.
        998    1    1    2    0    0  0.57727235451E+02 -0.11954180686E+02  0.11084137704E+04  0.11100254152E+04  0.10000000000E+02 0. -1.
</event>
<event>
 5    1  0.7732857E-009  0.3821619E+03  0.7957747E-01  0.3441799E+00
         13   -1    0    0    0    0  0.00000000000E+00  0.00000000000E+00  0.14999999963E+04  0.15000000000E+04  0.10566000000E+00 0. -1.
        994   -1    0    0    0    0 -0.00000000000E+00 -0.00000000000E+00  0.11368683772E-12  0.17120000000E+03  0.17120000000E+03 0.  0.
         13    1    1    2    0    0  0.13991379946E+02 -0.18373999311E+02  0.81247750044E+02  0.84466387485E+02  0.10566000000E+00 0. -1.
        994    1    1    2    0    0 -0.11653941784E+02  0.24487331091E+02  0.54907103352E+01  0.17342154319E+03  0.17120000000E+03 0.  0.
        998    1    1    2    0    0 -0.23374381627E+01 -0.61133317800E+01  0.14132615359E+04  0.14133120693E+04  0.10000000000E+02 0. -1.
</event>
<event>
 5    1  0.7732857E-009  0.3815327E+03  0.7957747E-01  0.3444512E+00
         13   -1    0    0    0    0  0.00000000000E+00  0.00000000000E+00  0.14999999963E+04  0.15000000000E+04  0.10566000000E+00 0. -1.
        994   -1    0    0    0    0 -0.00000000000E+00 -0.00000000000E+00  0.11368683772E-12  0.17120000000E+03  0.17120000000E+03 0.  0.
         13    1    1    2    0    0  0.37622827009E+01  0.21032284363E+02  0.69212311367E+02  0.72435260512E+02  0.10566000000E+00 0. -1.
        994    1    1    2    0    0 -0.10274595774E+01 -0.59077355592E+01  0.34810738825E+01  0.17134034810E+03  0.17120000000E+03 0.  0.
        998    1    1    2    0    0 -0.27348231235E+01 -0.15124548804E+02  0.14273066110E+04  0.14274243914E+04  0.10000000000E+02 0. -1.
</event>
<event>
 5    1  0.7732857E-009  0.3799611E+03  0.7957747E-01  0.3451328E+00
         13   -1    0    0    0    0  0.00000000000E+00  0.00000000000E+00  0.14999999963E+04  0.15000000000E+04  0.10566000000E+00 0. -1.
        994   -1    0    0    0    0 -0.00000000000E+00 -0.00000000000E+00  0.11368683772E-12  0.17120000000E+03  0.17120000000E+03 0.  0.
         13    1    1    2    0    0  0.37071723311E+02  0.11925797029E+02  0.21084490509E+03  0.21441110622E+03  0.10566000000E+00 0. -1.
        994    1    1    2    0    0 -0.93313122042E+01  0.17068943832E+02  0.54189920044E+01  0.17238685479E+03  0.17120000000E+03 0.  0.
        998    1    1    2    0    0 -0.27740411107E+02 -0.28994740861E+02  0.12837360992E+04  0.12844020390E+04  0.10000000000E+02 0. -1.
</event>
<event>
 5    1  0.7732857E-009  0.3776795E+03  0.7957747E-01  0.3461325E+00
         13   -1    0    0    0    0  0.00000000000E+00  0.00000000000E+00  0.14999999963E+04  0.15000000000E+04  0.10566000000E+00 0.  1.
        994   -1    0    0    0    0 -0.00000000000E+00 -0.00000000000E+00  0.11368683772E-12  0.17120000000E+03  0.17120000000E+03 0.  0.
         13    1    1    2    0    0  0.17153640758E+02  0.14859990142E+01  0.26550742286E+02  0.31645041702E+02  0.10566000000E+00 0.  1.
        994    1    1    2    0    0 -0.15501716458E+01  0.16594137892E+02  0.62453955794E+01  0.17212266966E+03  0.17120000000E+03 0.  0.
        998    1    1    2    0    0 -0.15603469112E+02 -0.18080136906E+02  0.14672038584E+04  0.14674322886E+04  0.10000000000E+02 0.  1.
</event>
<event>
 5    1  0.7732857E-009  0.3796275E+03  0.7957747E-01  0.3452782E+00
         13   -1    0    0    0    0  0.00000000000E+00  0.00000000000E+00  0.14999999963E+04  0.15000000000E+04  0.10566000000E+00 0. -1.
        994   -1    0    0    0    0 -0.00000000000E+00 -0.00000000000E+00  0.11368683772E-12  0.17120000000E+03  0.17120000000E+03 0.  0.
         13    1    1    2    0    0 -0.36737073803E+02 -0.44150073180E+02  0.30476556540E+03  0.31013046057E+03  0.10566000000E+00 0. -1.
        994    1    1    2    0    0  0.38668675095E+02  0.42596707992E+02  0.15479875121E+02  0.18126999889E+03  0.17120000000E+03 0.  0.
        998    1    1    2    0    0 -0.19316012922E+01  0.15533651876E+01  0.11797545558E+04  0.11797995405E+04  0.10000000000E+02 0.  0.
</event>
<event>
 5    1  0.7732857E-009  0.3826884E+03  0.7957747E-01  0.3439536E+00
         13   -1    0    0    0    0  0.00000000000E+00  0.00000000000E+00  0.14999999963E+04  0.15000000000E+04  0.10566000000E+00 0. -1.
        994   -1    0    0    0    0 -0.00000000000E+00 -0.00000000000E+00  0.11368683772E-12  0.17120000000E+03  0.17120000000E+03 0.  0.
         13    1    1    2    0    0 -0.98746982468E+02 -0.10782563408E+03  0.47541946042E+03  0.49739421832E+03  0.10566000000E+00 0. -1.
        994    1    1    2    0    0  0.95188987577E+02  0.74797427464E+02  0.73641809709E+02  0.22223445873E+03  0.17120000000E+03 0.  0.
        998    1    1    2    0    0  0.35579948907E+01  0.33028206611E+02  0.95093872615E+03  0.95157132294E+03  0.10000000000E+02 0. -1.
</event>
<event>
 5    1  0.7732857E-009  0.3848796E+03  0.7957747E-01  0.3430183E+00
         13   -1    0    0    0    0  0.00000000000E+00  0.00000000000E+00  0.14999999963E+04  0.15000000000E+04  0.10566000000E+00 0. -1.
        994   -1    0    0    0    0 -0.00000000000E+00 -0.00000000000E+00  0.11368683772E-12  0.17120000000E+03  0.17120000000E+03 0.  0.
         13    1    1    2    0    0 -0.11402550800E+02  0.85601437081E+01  0.60376116503E+02  0.62036931203E+02  0.10566000000E+00 0. -1.
        994    1    1    2    0    0  0.60931575572E+01 -0.62446398148E+01  0.19404138454E+01  0.17143315695E+03  0.17120000000E+03 0.  0.
        998    1    1    2    0    0  0.53093932431E+01 -0.23155038933E+01  0.14376834659E+04  0.14377299118E+04  0.10000000000E+02 0. -1.
</event>
<event>
 5    1  0.7732857E-009  0.4079977E+03  0.7957747E-01  0.3337632E+00
         13   -1    0    0    0    0  0.00000000000E+00  0.00000000000E+00  0.14999999963E+04  0.15000000000E+04  0.10566000000E+00 0. -1.
        994   -1    0    0    0    0 -0.00000000000E+00 -0.00000000000E+00  0.11368683772E-12  0.17120000000E+03  0.17120000000E+03 0.  0.
         13    1    1    2    0    0 -0.39214543065E+02 -0.37181756394E+02  0.32128790714E+02  0.62869179676E+02  0.10566000000E+00 0. -1.
        994    1    1    2    0    0  0.42391610488E+02  0.33408376076E+02  0.44531882624E+02  0.18494782184E+03  0.17120000000E+03 0.  0.
        998    1    1    2    0    0 -0.31770674237E+01  0.37733803186E+01  0.14233393229E+04  0.14233829985E+04  0.10000000000E+02 0. -1.
</event>
<event>
 5    1  0.7732857E-009  0.3785884E+03  0.7957747E-01  0.3457328E+00
         13   -1    0    0    0    0  0.00000000000E+00  0.00000000000E+00  0.14999999963E+04  0.15000000000E+04  0.10566000000E+00 0.  1.
        994   -1    0    0    0    0 -0.00000000000E+00 -0.00000000000E+00  0.11368683772E-12  0.17120000000E+03  0.17120000000E+03 0.  0.
         13    1    1    2    0    0 -0.29751191980E+01  0.27447835367E+02  0.18612173998E+02  0.33296534137E+02  0.10566000000E+00 0.  1.
        994    1    1    2    0    0  0.33078105557E+02 -0.16936010877E+01  0.19518786100E+02  0.17546353571E+03  0.17120000000E+03 0.  0.
        998    1    1    2    0    0 -0.30102986359E+02 -0.25754234280E+02  0.14618690362E+04  0.14624399302E+04  0.10000000000E+02 0.  1.
</event>
<event>
 5    1  0.7732857E-009  0.3844714E+03  0.7957747E-01  0.3431917E+00
         13   -1    0    0    0    0  0.00000000000E+00  0.00000000000E+00  0.14999999963E+04  0.15000000000E+04  0.10566000000E+00 0.  1.
        994   -1    0    0    0    0 -0.00000000000E+00 -0.00000000000E+00  0.11368683772E-12  0.17120000000E+03  0.17120000000E+03 0.  0.
         13    1    1    2    0    0  0.28390722616E+02 -0.99496213114E+01  0.16731835520E+02  0.34423735689E+02  0.10566000000E+00 0.  1.
        994    1    1    2    0    0 -0.14281943739E+02 -0.37706095273E+01  0.19609712202E+02  0.17295135798E+03  0.17120000000E+03 0.  0.
        998    1    1    2    0    0 -0.14108778877E+02  0.13720230839E+02  0.14636584486E+04  0.14638249063E+04  0.10000000000E+02 0.  1.
</event>
<event>
 5    1  0.1011360E-008  0.3853176E+03  0.7957747E-01  0.3428326E+00
         13   -1    0    0    0    0  0.00000000000E+00  0.00000000000E+00  0.14999999963E+04  0.15000000000E+04  0.10566000000E+00 0. -1.
        994   -1    0    0    0    0 -0.00000000000E+00 -0.00000000000E+00  0.11368683772E-12  0.17120000000E+03  0.17120000000E+03 0.  0.
         13    1    1    2    0    0 -0.52311974931E+01 -0.12961806239E+02  0.61771190260E+02  0.63332968969E+02  0.10566000000E+00 0. -1.
        994    1    1    2    0    0  0.55055639526E+01  0.20318624929E+02  0.29297836139E+01  0.17251429328E+03  0.17120000000E+03 0.  0.
        998    1    1    2    0    0 -0.27436645944E+00 -0.73568186899E+01  0.14352990224E+04  0.14353527378E+04  0.10000000000E+02 0. -1.
</event>
<event>
 5    1  0.7732857E-009  0.3851157E+03  0.7957747E-01  0.3429182E+00
         13   -1    0    0    0    0  0.00000000000E+00  0.00000000000E+00  0.14999999963E+04  0.15000000000E+04  0.10566000000E+00 0. -1.
        994   -1    0    0    0    0 -0.00000000000E+00 -0.00000000000E+00  0.11368683772E-12  0.17120000000E+03  0.17120000000E+03 0.  0.
         13    1    1    2    0    0  0.12859051131E+02 -0.22023587012E+01  0.58700276654E+02  0.60132680159E+02  0.10566000000E+00 0. -1.
        994    1    1    2    0    0  0.50933899215E+01  0.44093147241E+01  0.17219052161E+01  0.17134114986E+03  0.17120000000E+03 0.  0.
        998    1    1    2    0    0 -0.17952441053E+02 -0.22069560228E+01  0.14395778144E+04  0.14397261700E+04  0.10000000000E+02 0. -1.
</event>
<event>
 5    1  0.7732857E-009  0.3855288E+03  0.7957747E-01  0.3427433E+00
         13   -1    0    0    0    0  0.00000000000E+00  0.00000000000E+00  0.14999999963E+04  0.15000000000E+04  0.10566000000E+00 0. -1.
        994   -1    0    0    0    0 -0.00000000000E+00 -0.00000000000E+00  0.11368683772E-12  0.17120000000E+03  0.17120000000E+03 0.  0.
         13    1    1    2    0    0  0.81365404780E+00 -0.32873350281E+02  0.19127964575E+02  0.38042205304E+02  0.10566000000E+00 0. -1.
        994    1    1    2    0    0  0.14060707876E+01  0.42156224960E+02  0.26007109258E+02  0.17822719790E+03  0.17120000000E+03 0.  0.
        998    1    1    2    0    0 -0.22197248354E+01 -0.92828746796E+01  0.14548649224E+04  0.14549305968E+04  0.10000000000E+02 0. -1.
</event>
<event>
 5    1  0.7732857E-009  0.2875250E+03  0.7957747E-01  0.3989311E+00
         13   -1    0    0    0    0  0.00000000000E+00  0.00000000000E+00  0.14999999963E+04  0.15000000000E+04  0.10566000000E+00 0. -1.
        994   -1    0    0    0    0 -0.00000000000E+00 -0.00000000000E+00  0.11368683772E-12  0.17120000000E+03  0.17120000000E+03 0.  0.
         13    1    1    2    0    0  0.38461558193E+01 -0.12834178161E+03  0.70686809382E+03  0.71843504860E+03  0.10566000000E+00 0. -1.
        994    1    1    2    0    0  0.68355662324E+01  0.56894762030E+02  0.26263093437E+02  0.18243609563E+03  0.17120000000E+03 0.  0.
        998    1    1    2    0    0 -0.10681722052E+02  0.71447019577E+02  0.76686880902E+03  0.77032885577E+03  0.10000000000E+02 0. -1.
</event>
<event>
 5    1  0.7732857E-009  0.3849067E+03  0.7957747E-01  0.3430068E+00
         13   -1    0    0    0    0  0.00000000000E+00  0.00000000000E+00  0.14999999963E+04  0.15000000000E+04  0.10566000000E+00 0. -1.
        994   -1    0    0    0    0 -0.00000000000E+00 -0.00000000000E+00  0.11368683772E-12  0.17120000000E+03  0.17120000000E+03 0.  0.
         13    1    1    2    0    0  0.13274410805E+01 -0.18065377286E+02  0.10529285736E+03  0.10683967864E+03  0.10566000000E+00 0. -1.
        994    1    1    2    0    0  0.17371244084E+02  0.43090604036E+01  0.27309419734E+01  0.17215465770E+03  0.17120000000E+03 0.  0.
        998    1    1    2    0    0 -0.18698685164E+02  0.13756316883E+02  0.13919761969E+04  0.13922056637E+04  0.10000000000E+02 0. -1.
</event>
<event>
 5    1  0.7732857E-009  0.3859196E+03  0.7957747E-01  0.3425781E+00
         13   -1    0    0    0    0  0.00000000000E+00  0.00000000000E+00  0.14999999963E+04  0.15000000000E+04  0.10566000000E+00 0. -1.
        994   -1    0    0    0    0 -0.00000000000E+00 -0.00000000000E+00  0.11368683772E-12  0.17120000000E+03  0.17120000000E+03 0.  0.
         13    1    1    2    0    0  0.51131459900E+01  0.94455823571E+01  0.49264558674E+02  0.50421931671E+02  0.10566000000E+00 0. -1.
        994    1    1    2    0    0 -0.49941250105E+01 -0.68208783292E+01  0.14086297927E+01  0.17141438068E+03  0.17120000000E+03 0.  0.
        998    1    1    2    0    0 -0.11902097956E+00 -0.26247040279E+01  0.14493268078E+04  0.14493636877E+04  0.10000000000E+02 0. -1.
</event>
<event>
 5    1  0.7732857E-009  0.3793149E+03  0.7957747E-01  0.3454147E+00
         13   -1    0    0    0    0  0.00000000000E+00  0.00000000000E+00  0.14999999963E+04  0.15000000000E+04  0.10566000000E+00 0. -1.
        994   -1    0    0    0    0 -0.00000000000E+00 -0.00000000000E+00  0.11368683772E-12  0.17120000000E+03  0.17120000000E+03 0.  0.
         13    1    1    2    0    0 -0.10214838201E+02  0.20000345536E+02  0.54402134985E+02  0.58855417729E+02  0.10566000000E+00 0. -1.
        994    1    1    2    0    0  0.37158710687E+01 -0.15618590657E+02  0.53434483277E+01  0.17203412601E+03  0.17120000000E+03 0.  0.
        998    1    1    2    0    0  0.64989671323E+01 -0.43817548786E+01  0.14402544130E+04  0.14403104563E+04  0.10000000000E+02 0. -1.
</event>
<event>
 5    1  0.7732857E-009  0.3855518E+03  0.7957747E-01  0.3427335E+00
         13   -1    0    0    0    0  0.00000000000E+00  0.00000000000E+00  0.14999999963E+04  0.15000000000E+04  0.10566000000E+00 0.  1.
        994   -1    0    0    0    0 -0.00000000000E+00 -0.00000000000E+00  0.11368683772E-12  0.17120000000E+03  0.17120000000E+03 0.  0.
         13    1    1    2    0    0 -0.11285660751E+02  0.78222575531E+01  0.69303865096E+02  0.70651190599E+02  0.10566000000E+00 0.  1.
        994    1    1    2    0    0  0.28636958789E+01 -0.14144788177E+02  0.20404533703E+01  0.17181932149E+03  0.17120000000E+03 0.  0.
        998    1    1    2    0    0  0.84219648722E+01  0.63225306240E+01  0.14286556778E+04  0.14287294879E+04  0.10000000000E+02 0.  1.
</event>
<event>
 5    1  0.7732857E-009  0.3687778E+03  0.7957747E-01  0.3501527E+00
         13   -1    0    0    0    0  0.00000000000E+00  0.00000000000E+00  0.14999999963E+04  0.15000000000E+04  0.10566000000E+00 0. -1.
        994   -1    0    0    0    0 -0.00000000000E+00 -0.00000000000E+00  0.11368683772E-12  0.17120000000E+03  0.17120000000E+03 0.  0.
         13    1    1    2    0    0  0.19649705919E+02  0.60561266664E+02  0.17466888216E+03  0.18591128939E+03  0.10566000000E+00 0. -1.
        994    1    1    2    0    0 -0.22953021213E+02 -0.64099984487E+02  0.26182999985E+02  0.18609309144E+03  0.17120000000E+03 0.  0.
        998    1    1    2    0    0  0.33033152940E+01  0.35387178228E+01  0.12991481141E+04  0.12991956192E+04  0.10000000000E+02 0. -1.
</event>
<event>
 5    1  0.7732857E-009  0.3821087E+03  0.7957747E-01  0.3442028E+00
         13   -1    0    0    0    0  0.00000000000E+00  0.00000000000E+00  0.14999999963E+04  0.15000000000E+04  0.10566000000E+00 0.  1.
        994   -1    0    0    0    0 -0.00000000000E+00 -0.00000000000E+00  0.11368683772E-12  0.17120000000E+03  0.17120000000E+03 0.  0.
         13    1    1    2    0    0 -0.14479382678E+02 -0.21849494174E+02  0.11312227982E+03  0.11611939663E+03  0.10566000000E+00 0.  1.
        994    1    1    2    0    0  0.28423245864E+01  0.13354139812E+02  0.36915317063E+01  0.17178323337E+03  0.17120000000E+03 0.  0.
        998    1    1    2    0    0  0.11637058091E+02  0.84953543619E+01  0.13831861848E+04  0.13832973700E+04  0.10000000000E+02 0.  1.
</event>
<event>
 5    1  0.7732857E-009  0.3859102E+03  0.7957747E-01  0.3425821E+00
         13   -1    0    0    0    0  0.00000000000E+00  0.00000000000E+00  0.14999999963E+04  0.15000000000E+04  0.10566000000E+00 0. -1.
        994   -1    0    0    0    0 -0.00000000000E+00 -0.00000000000E+00  0.11368683772E-12  0.17120000000E+03  0.17120000000E+03 0.  0.
         13    1    1    2    0    0  0.56353091630E+02  0.34174519772E+02  0.97637766982E+02  0.11779946283E+03  0.10566000000E+00 0. -1.
        994    1    1    2    0    0 -0.62930855791E+02 -0.24661388323E+02  0.36737306424E+02  0.18769002735E+03  0.17120000000E+03 0.  0.
        998    1    1    2    0    0  0.65777641613E+01 -0.95131314491E+01  0.13656249229E+04  0.13657105098E+04  0.10000000000E+02 0. -1.
</event>
<event>
 5    1  0.7732857E-009  0.3787873E+03  0.7957747E-01  0.3456456E+00
         13   -1    0    0    0    0  0.00000000000E+00  0.00000000000E+00  0.14999999963E+04  0.15000000000E+04  0.10566000000E+00 0.  1.
        994   -1    0    0    0    0 -0.00000000000E+00 -0.00000000000E+00  0.11368683772E-12  0.17120000000E+03  0.17120000000E+03 0.  0.
         13    1    1    2    0    0  0.45383037686E+02  0.20258632160E+02  0.20815089926E+03  0.21400196334E+03  0.10566000000E+00 0.  1.
        994    1    1    2    0    0 -0.62993798547E+02 -0.74400866901E+01  0.18371930106E+02  0.18349534425E+03  0.17120000000E+03 0.  0.
        998    1    1    2    0    0  0.17610760862E+02 -0.12818545470E+02  0.12734771669E+04  0.12737026924E+04  0.10000000000E+02 0.  1.
</event>
<event>
 5    1  0.7732857E-009  0.3826201E+03  0.7957747E-01  0.3439829E+00
         13   -1    0    0    0    0  0.00000000000E+00  0.00000000000E+00  0.14999999963E+04  0.15000000000E+04  0.10566000000E+00 0.  1.
        994   -1    0    0    0    0 -0.00000000000E+00 -0.00000000000E+00  0.11368683772E-12  0.17120000000E+03  0.17120000000E+03 0.  0.
         13    1    1    2    0    0 -0.13556936316E+03  0.22041202651E+03  0.10569286449E+04  0.10881446067E+04  0.10566000000E+00 0.  1.
        994    1    1    2    0    0  0.12588537706E+03 -0.23576822990E+03  0.29429641328E+03  0.43284362680E+03  0.17120000000E+03 0.  0.
        998    1    1    2    0    0  0.96839860978E+01  0.15356203392E+02  0.14877493812E+03  0.15021176646E+03  0.10000000000E+02 0. -1.
</event>
<event>
 5    1  0.7732857E-009  0.3829693E+03  0.7957747E-01  0.3438331E+00
         13   -1    0    0    0    0  0.00000000000E+00  0.00000000000E+00  0.14999999963E+04  0.15000000000E+04  0.10566000000E+00 0.  1.
        994   -1    0    0    0    0 -0.00000000000E+00 -0.00000000000E+00  0.11368683772E-12  0.17120000000E+03  0.17120000000E+03 0.  0.
         13    1    1    2    0    0  0.14409259886E+02 -0.18371930829E+02  0.99448184799E+02  0.10215237264E+03  0.10566000000E+00 0.  1.
        994    1    1    2    0    0 -0.87340169237E+01  0.17549799397E+02  0.39148751679E+01  0.17236311890E+03  0.17120000000E+03 0.  0.
        998    1    1    2    0    0 -0.56752429624E+01  0.82213143163E+00  0.13966369363E+04  0.13966845085E+04  0.10000000000E+02 0.  1.
</event>
<event>
 5    1  0.7732857E-009  0.3855030E+03  0.7957747E-01  0.3427542E+00
         13   -1    0    0    0    0  0.00000000000E+00  0.00000000000E+00  0.14999999963E+04  0.15000000000E+04  0.10566000000E+00 0.  1.
        994   -1    0    0    0    0 -0.00000000000E+00 -0.00000000000E+00  0.11368683772E-12  0.17120000000E+03  0.17120000000E+03 0.  0.
         13    1    1    2    0    0 -0.13022584051E+02 -0.77709277718E+01  0.81393722963E+02  0.82794470320E+02  0.10566000000E+00 0.  1.
        994    1    1    2    0    0  0.12032190349E+02  0.63086632464E+01  0.19868420585E+01  0.17174970270E+03  0.17120000000E+03 0.  0.
        998    1    1    2    0    0  0.99039370162E+00  0.14622645254E+01  0.14166194313E+04  0.14166558270E+04  0.10000000000E+02 0.  0.
</event>
<event>
 5    1  0.7732857E-009  0.3752522E+03  0.7957747E-01  0.3472095E+00
         13   -1    0    0    0    0  0.00000000000E+00  0.00000000000E+00  0.14999999963E+04  0.15000000000E+04  0.10566000000E+00 0. -1.
        994   -1    0    0    0    0 -0.00000000000E+00 -0.00000000000E+00  0.11368683772E-12  0.17120000000E+03  0.17120000000E+03 0.  0.
         13    1    1    2    0    0 -0.41958236953E+02 -0.17604381657E+02  0.18083776914E+03  0.18647444279E+03  0.10566000000E+00 0. -1.
        994    1    1    2    0    0 -0.24886999583E+01  0.90801512950E+01  0.68503761766E+01  0.17159548487E+03  0.17120000000E+03 0.  0.
        998    1    1    2    0    0  0.44446936912E+02  0.85242303620E+01  0.13123118510E+04  0.13131300723E+04  0.10000000000E+02 0. -1.
</event>
<event>
 5    1  0.7732857E-009  0.3717669E+03  0.7957747E-01  0.3487810E+00
         13   -1    0    0    0    0  0.00000000000E+00  0.00000000000E+00  0.14999999963E+04  0.15000000000E+04  0.10566000000E+00 0.  1.
        994   -1    0    0    0    0 -0.00000000000E+00 -0.00000000000E+00  0.11368683772E-12  0.17120000000E+03  0.17120000000E+03 0.  0.
         13    1    1    2    0    0 -0.26257110223E+01  0.27368425236E+02  0.41244478137E+02  0.49568570679E+02  0.10566000000E+00 0.  1.
        994    1    1    2    0    0  0.27857882561E+01 -0.24608623211E+02  0.10459201035E+02  0.17329795105E+03  0.17120000000E+03 0.  0.
        998    1    1    2    0    0 -0.16007723385E+00 -0.27598020241E+01  0.14482963171E+04  0.14483334783E+04  0.10000000000E+02 0.  0.
</event>
<event>
 5    1  0.7732857E-009  0.3784104E+03  0.7957747E-01  0.3458109E+00
         13   -1    0    0    0    0  0.00000000000E+00  0.00000000000E+00  0.14999999963E+04  0.15000000000E+04  0.10566000000E+00 0.  1.
        994   -1    0    0    0    0 -0.00000000000E+00 -0.00000000000E+00  0.11368683772E-12  0.17120000000E+03  0.17120000000E+03 0.  0.
         13    1    1    2    0    0 -0.59640552005E+01  0.29193633736E+02  0.99958904128E+02  0.10430547389E+03  0.10566000000E+00 0.  1.
        994    1    1    2    0    0 -0.20900967747E+01  0.74633437005E+01  0.51396181277E+01  0.17145240062E+03  0.17120000000E+03 0.  0.
        998    1    1    2    0    0  0.80541519752E+01 -0.36656977436E+02  0.13949014740E+04  0.13954421255E+04  0.10000000000E+02 0.  1.
</event>
<event>
 5    1  0.7732857E-009  0.3744507E+03  0.7957747E-01  0.3475683E+00
         13   -1    0    0    0    0  0.00000000000E+00  0.00000000000E+00  0.14999999963E+04  0.15000000000E+04  0.10566000000E+00 0.  1.
        994   -1    0    0    0    0 -0.00000000000E+00 -0.00000000000E+00  0.11368683772E-12  0.17120000000E+03  0.17120000000E+03 0.  0.
         13    1    1    2    0    0 -0.44456793617E+02 -0.34141786991E+02  0.12943471899E+03  0.14105114591E+03  0.10566000000E+00 0.  1.
        994    1    1    2    0    0  0.19325864697E+02 -0.24278168339E+02  0.16739098333E+02  0.17479289436E+03  0.17120000000E+03 0.  0.
        998    1    1    2    0    0  0.25130928921E+02  0.58419955330E+02  0.13538261790E+04  0.13553559597E+04  0.10000000000E+02 0.  1.
</event>
<event>
 5    1  0.7732857E-009  0.3928556E+03  0.7957747E-01  0.3397024E+00
         13   -1    0    0    0    0  0.00000000000E+00  0.00000000000E+00  0.14999999963E+04  0.15000000000E+04  0.10566000000E+00 0.  1.
        994   -1    0    0    0    0 -0.00000000000E+00 -0.00000000000E+00  0.11368683772E-12  0.17120000000E+03  0.17120000000E+03 0.  0.
         13    1    1    2    0    0  0.35867370218E+02 -0.86577277811E+02  0.16128583421E+03  0.18653478164E+03  0.10566000000E+00 0.  1.
        994    1    1    2    0    0 -0.36452772872E+02  0.83765907040E+02  0.56081503243E+02  0.20199036323E+03  0.17120000000E+03 0.  0.
        998    1    1    2    0    0  0.58540265377E+00  0.28113707713E+01  0.12826326588E+04  0.12826748551E+04  0.10000000000E+02 0.  1.
</event>
<event>
 5    1  0.7732857E-009  0.3763315E+03  0.7957747E-01  0.3467289E+00
         13   -1    0    0    0    0  0.00000000000E+00  0.00000000000E+00  0.14999999963E+04  0.15000000000E+04  0.10566000000E+00 0. -1.
        994   -1    0    0    0    0 -0.00000000000E+00 -0.00000000000E+00  0.11368683772E-12  0.17120000000E+03  0.17120000000E+03 0.  0.
         13    1    1    2    0    0 -0.40870482626E+01  0.83579507784E+02  0.48980917828E+03  0.49690570572E+03  0.10566000000E+00 0. -1.
        994    1    1    2    0    0  0.88742621353E+00 -0.64321276935E+02  0.20130473095E+02  0.18399100559E+03  0.17120000000E+03 0.  0.
        998    1    1    2    0    0  0.31996220491E+01 -0.19258230849E+02  0.99006034490E+03  0.99030328869E+03  0.10000000000E+02 0.  0.
</event>
<event>
 5    1  0.7732857E-009  0.3838281E+03  0.7957747E-01  0.3434657E+00
         13   -1    0    0    0    0  0.00000000000E+00  0.00000000000E+00  0.14999999963E+04  0.15000000000E+04  0.10566000000E+00 0.  1.
        994   -1    0    0    0    0 -0.00000000000E+00 -0.00000000000E+00  0.11368683772E-12  0.17120000000E+03  0.17120000000E+03 0.  0.
         13    1    1    2    0    0 -0.24642515298E+01  0.10516200526E+02  0.25643329333E+02  0.27825429241E+02  0.10566000000E+00 0.  1.
        994    1    1    2    0    0  0.52530675007E+01 -0.67523019868E+01  0.24547126480E+01  0.17143119294E+03  0.17120000000E+03 0.  0.
        998    1    1    2    0    0 -0.27888159709E+01 -0.37638985395E+01  0.14719019543E+04  0.14719433778E+04  0.10000000000E+02 0.  1.
</event>
<event>
 5    1  0.7732857E-009  0.3693078E+03  0.7957747E-01  0.3499078E+00
         13   -1    0    0    0    0  0.00000000000E+00  0.00000000000E+00  0.14999999963E+04  0.15000000000E+04  0.10566000000E+00 0. -1.
        994   -1    0    0    0    0 -0.00000000000E+00 -0.00000000000E+00  0.11368683772E-12  0.17120000000E+03  0.17120000000E+03 0.  0.
         13    1    1    2    0    0 -0.99089775000E+01 -0.11672619689E+03  0.62945739021E+03  0.64026542163E+03  0.10566000000E+00 0. -1.
        994    1    1    2    0    0 -0.10085273392E+02  0.82026192565E+02  0.33691682385E+02  0.19306625409E+03  0.17120000000E+03 0.  0.
        998    1    1    2    0    0  0.19994250892E+02  0.34700004327E+02  0.83685092368E+03  0.83786832428E+03  0.10000000000E+02 0. -1.
</event>
<event>
 5    1  0.7732857E-009  0.3708073E+03  0.7957747E-01  0.3492189E+00
         13   -1    0    0    0    0  0.00000000000E+00  0.00000000000E+00  0.14999999963E+04  0.15000000000E+04  0.10566000000E+00 0. -1.
        994   -1    0    0    0    0 -0.00000000000E+00 -0.00000000000E+00  0.11368683772E-12  0.17120000000E+03  0.17120000000E+03 0.  0.
         13    1    1    2    0    0  0.29336736746E+02 -0.55653405531E+02  0.23941065793E+03  0.24753872417E+03  0.10566000000E+00 0. -1.
        994    1    1    2    0    0  0.92834178790E+02  0.93735709383E+02  0.71484999775E+02  0.22764910094E+03  0.17120000000E+03 0.  0.
        998    1    1    2    0    0 -0.12217091554E+03 -0.38082303852E+02  0.11891043386E+04  0.11960121749E+04  0.10000000000E+02 0. -1.
</event>
<event>
 5    1  0.7732857E-009  0.3851601E+03  0.7957747E-01  0.3428994E+00
         13   -1    0    0    0    0  0.00000000000E+00  0.00000000000E+00  0.14999999963E+04  0.15000000000E+04  0.10566000000E+00 0. -1.
        994   -1    0    0    0    0 -0.00000000000E+00 -0.00000000000E+00  0.11368683772E-12  0.17120000000E+03  0.17120000000E+03 0.  0.
         13    1    1    2    0    0  0.12989032654E+02  0.10368321764E+02  0.90337347833E+02  0.91853495540E+02  0.10566000000E+00 0. -1.
        994    1    1    2    0    0 -0.29363507937E+01 -0.11053539269E+02  0.19807480053E+01  0.17159302506E+03  0.17120000000E+03 0.  0.
        998    1    1    2    0    0 -0.10052681860E+02  0.68521750434E+00  0.14076819004E+04  0.14077534794E+04  0.10000000000E+02 0. -1.
</event>
<event>
 5    1  0.7732857E-009  0.3822804E+03  0.7957747E-01  0.3441289E+00
         13   -1    0    0    0    0  0.00000000000E+00  0.00000000000E+00  0.14999999963E+04  0.15000000000E+04  0.10566000000E+00 0. -1.
        994   -1    0    0    0    0 -0.00000000000E+00 -0.00000000000E+00  0.11368683772E-12  0.17120000000E+03  0.17120000000E+03 0.  0.
         13    1    1    2    0    0  0.22398572760E+02 -0.10237614551E+01  0.94504025242E+02  0.97127576414E+02  0.10566000000E+00 0. -1.
        994    1    1    2    0    0  0.72152970054E+01 -0.69082555619E+01  0.33175798336E+01  0.17152326618E+03  0.17120000000E+03 0.  0.
        998    1    1    2    0    0 -0.29613869765E+02  0.79320170170E+01  0.14021783912E+04  0.14025491574E+04  0.10000000000E+02 0. -1.
</event>
<event>
 5    1  0.7732857E-009  0.3966678E+03  0.7957747E-01  0.3381647E+00
         13   -1    0    0    0    0  0.00000000000E+00  0.00000000000E+00  0.14999999963E+04  0.15000000000E+04  0.10566000000E+00 0. -1.
        994   -1    0    0    0    0 -0.00000000000E+00 -0.00000000000E+00  0.11368683772E-12  0.17120000000E+03  0.17120000000E+03 0.  0.
         13    1    1    2    0    0 -0.69699025456E+02 -0.51147966182E+02  0.12129019961E+03  0.14894761589E+03  0.10566000000E+00 0. -1.
        994    1    1    2    0    0  0.84695825103E+02  0.49403549763E+02  0.63990795711E+02  0.20740866774E+03  0.17120000000E+03 0.  0.
        998    1    1    2    0    0 -0.14996799646E+02  0.17444164195E+01  0.13147190010E+04  0.13148437164E+04  0.10000000000E+02 0. -1.
</event>
<event>
 5    1  0.7732857E-009  0.3843963E+03  0.7957747E-01  0.3432236E+00
         13   -1    0    0    0    0  0.00000000000E+00  0.00000000000E+00  0.14999999963E+04  0.15000000000E+04  0.10566000000E+00 0. -1.
        994   -1    0    0    0    0 -0.00000000000E+00 -0.00000000000E+00  0.11368683772E-12  0.17120000000E+03  0.17120000000E+03 0.  0.
         13    1    1    2    0    0  0.12809601868E+02 -0.23812552497E+01  0.45177166566E+02  0.47018547612E+02  0.10566000000E+00 0. -1.
        994    1    1    2    0    0  0.19463992917E+00  0.10633856849E+02  0.23029576098E+01  0.17154550536E+03  0.17120000000E+03 0.  0.
        998    1    1    2    0    0 -0.13004241797E+02 -0.82526015991E+01  0.14525198721E+04  0.14526359470E+04  0.10000000000E+02 0. -1.
</event>
<event>
 5    1  0.7732857E-009  0.3843756E+03  0.7957747E-01  0.3432325E+00
         13   -1    0    0    0    0  0.00000000000E+00  0.00000000000E+00  0.14999999963E+04  0.15000000000E+04  0.10566000000E+00 0. -1.
        994   -1    0    0    0    0 -0.00000000000E+00 -0.00000000000E+00  0.11368683772E-12  0.17120000000E+03  0.17120000000E+03 0.  0.
         13    1    1    2    0    0 -0.92190961421E+01  0.12310251546E+02  0.58800016590E+02  0.60778179817E+02  0.10566000000E+00 0. -1.
        994    1    1    2    0    0  0.11066639030E+02 -0.11357978042E+02  0.27696036127E+01  0.17195518273E+03  0.17120000000E+03 0.  0.
        998    1    1    2    0    0 -0.18475428881E+01 -0.95227350446E+00  0.14384303761E+04  0.14384666374E+04  0.10000000000E+02 0. -1.
</event>
<event>
 5    1  0.7732857E-009  0.3793728E+03  0.7957747E-01  0.3453894E+00
         13   -1    0    0    0    0  0.00000000000E+00  0.00000000000E+00  0.14999999963E+04  0.15000000000E+04  0.10566000000E+00 0.  1.
        994   -1    0    0    0    0 -0.00000000000E+00 -0.00000000000E+00  0.11368683772E-12  0.17120000000E+03  0.17120000000E+03 0.  0.
         13    1    1    2    0    0 -0.11846697712E+03 -0.74604279860E+01  0.32232121844E+03  0.34348371384E+03  0.10566000000E+00 0.  1.
        994    1    1    2    0    0  0.12284841292E+03  0.37547815404E+02  0.78354844659E+02  0.22792650719E+03  0.17120000000E+03 0.  0.
        998    1    1    2    0    0 -0.43814357999E+01 -0.30087387418E+02  0.10993239332E+04  0.10997897790E+04  0.10000000000E+02 0.  1.
</event>
<event>
 5    1  0.7732857E-009  0.3781875E+03  0.7957747E-01  0.3459088E+00
         13   -1    0    0    0    0  0.00000000000E+00  0.00000000000E+00  0.14999999963E+04  0.15000000000E+04  0.10566000000E+00 0.  1.
        994   -1    0    0    0    0 -0.00000000000E+00 -0.00000000000E+00  0.11368683772E-12  0.17120000000E+03  0.17120000000E+03 0.  0.
         13    1    1    2    0    0 -0.78928589452E+02 -0.40379513980E+01  0.39323551832E+03  0.40109875507E+03  0.10566000000E+00 0.  1.
        994    1    1    2    0    0 -0.40099822313E+02 -0.70850407619E+02  0.39598146229E+02  0.19366266856E+03  0.17120000000E+03 0.  0.
        998    1    1    2    0    0  0.11902841176E+03  0.74888359017E+02  0.10671663317E+04  0.10764385764E+04  0.10000000000E+02 0.  1.
</event>
<event>
 5    1  0.7732857E-009  0.3838475E+03  0.7957747E-01  0.3434575E+00
         13   -1    0    0    0    0  0.00000000000E+00  0.00000000000E+00  0.14999999963E+04  0.15000000000E+04  0.10566000000E+00 0. -1.
        994   -1    0    0    0    0 -0.00000000000E+00 -0.00000000000E+00  0.11368683772E-12  0.17120000000E+03  0.17120000000E+03 0.  0.
         13    1    1    2    0    0 -0.45769997166E+01 -0.24665554460E+02  0.14850859508E+03  0.15061259071E+03  0.10566000000E+00 0. -1.
        994    1    1    2    0    0  0.12094999863E+01  0.10079487318E+02  0.25437037129E+01  0.17151958892E+03  0.17120000000E+03 0.  0.
        998    1    1    2    0    0  0.33674997304E+01  0.14586067142E+02  0.13489476975E+04  0.13490678204E+04  0.10000000000E+02 0. -1.
</event>
<event>
 5    1  0.7732857E-009  0.3820388E+03  0.7957747E-01  0.3442329E+00
         13   -1    0    0    0    0  0.00000000000E+00  0.00000000000E+00  0.14999999963E+04  0.15000000000E+04  0.10566000000E+00 0.  1.
        994   -1    0    0    0    0 -0.00000000000E+00 -0.00000000000E+00  0.11368683772E-12  0.17120000000E+03  0.17120000000E+03 0.  0.
         13    1    1    2    0    0 -0.15814019992E+02 -0.24805834408E+02  0.15171673717E+03  0.15454252538E+03  0.10566000000E+00 0.  1.
        994    1    1    2    0    0  0.72491226269E+01  0.11823883539E+01  0.32866647194E+01  0.17138900194E+03  0.17120000000E+03 0.  0.
        998    1    1    2    0    0  0.85648973656E+01  0.23623446054E+02  0.13449965944E+04  0.13452684727E+04  0.10000000000E+02 0.  1.
</event>
<event>
 5    1  0.7732857E-009  0.3848759E+03  0.7957747E-01  0.3430198E+00
         13   -1    0    0    0    0  0.00000000000E+00  0.00000000000E+00  0.14999999963E+04  0.15000000000E+04  0.10566000000E+00 0. -1.
        994   -1    0    0    0    0 -0.00000000000E+00 -0.00000000000E+00  0.11368683772E-12  0.17120000000E+03  0.17120000000E+03 0.  0.
         13    1    1    2    0    0  0.17430945930E+02 -0.11593855463E+02  0.11209051455E+03  0.11402872435E+03  0.10566000000E+00 0. -1.
        994    1    1    2    0    0 -0.22885570161E+02  0.22071012484E+02  0.50245922847E+01  0.17419978600E+03  0.17120000000E+03 0.  0.
        998    1    1    2    0    0  0.54546242305E+01 -0.10477157021E+02  0.13828848894E+04  0.13829714897E+04  0.10000000000E+02 0. -1.
</event>
<event>
 5    1  0.7732857E-009  0.3769624E+03  0.7957747E-01  0.3464493E+00
         13   -1    0    0    0    0  0.00000000000E+00  0.00000000000E+00  0.14999999963E+04  0.15000000000E+04  0.10566000000E+00 0.  1.
        994   -1    0    0    0    0 -0.00000000000E+00 -0.00000000000E+00  0.11368683772E-12  0.17120000000E+03  0.17120000000E+03 0.  0.
         13    1    1    2    0    0 -0.56418961760E+01 -0.43279710764E+02  0.14944744142E+03  0.15569044051E+03  0.10566000000E+00 0.  1.
        994    1    1    2    0    0  0.59615316781E+01  0.44502595934E+02  0.12512718739E+02  0.17743175881E+03  0.17120000000E+03 0.  0.
        998    1    1    2    0    0 -0.31963550211E+00 -0.12228851705E+01  0.13380398361E+04  0.13380778007E+04  0.10000000000E+02 0.  1.
</event>
<event>
 5    1  0.7732857E-009  0.2570898E+03  0.7957747E-01  0.4259676E+00
         13   -1    0    0    0    0  0.00000000000E+00  0.00000000000E+00  0.14999999963E+04  0.15000000000E+04  0.10566000000E+00 0.  1.
        994   -1    0    0    0    0 -0.00000000000E+00 -0.00000000000E+00  0.11368683772E-12  0.17120000000E+03  0.17120000000E+03 0.  0.
         13    1    1    2    0    0  0.50209354093E+02 -0.12816526606E+03  0.31645579043E+02  0.14124010939E+03  0.10566000000E+00 0.  1.
        994    1    1    2    0    0  0.55386793418E+02  0.10110073385E+03  0.35046621406E+03  0.40672479943E+03  0.17120000000E+03 0.  0.
        998    1    1    2    0    0 -0.10559614751E+03  0.27064532208E+02  0.11178882032E+04  0.11232350912E+04  0.10000000000E+02 0.  1.
</event>
<event>
 5    1  0.7732857E-009  0.3779683E+03  0.7957747E-01  0.3460053E+00
         13   -1    0    0    0    0  0.00000000000E+00  0.00000000000E+00  0.14999999963E+04  0.15000000000E+04  0.10566000000E+00 0.  1.
        994   -1    0    0    0    0 -0.00000000000E+00 -0.00000000000E+00  0.11368683772E-12  0.17120000000E+03  0.17120000000E+03 0.  0.
         13    1    1    2    0    0 -0.54812905657E+02 -0.37477210601E+02  0.22857151891E+03  0.23802089480E+03  0.10566000000E+00 0.  1.
        994    1    1    2    0    0  0.10324588720E+03  0.80244629635E+02  0.65053997649E+02  0.22503416723E+03  0.17120000000E+03 0.  0.
        998    1    1    2    0    0 -0.48432981541E+02 -0.42767419035E+02  0.12063744797E+04  0.12081449380E+04  0.10000000000E+02 0.  1.
</event>
<event>
 5    1  0.7732857E-009  0.3757402E+03  0.7957747E-01  0.3469919E+00
         13   -1    0    0    0    0  0.00000000000E+00  0.00000000000E+00  0.14999999963E+04  0.15000000000E+04  0.10566000000E+00 0. -1.
        994   -1    0    0    0    0 -0.00000000000E+00 -0.00000000000E+00  0.11368683772E-12  0.17120000000E+03  0.17120000000E+03 0.  0.
         13    1    1    2    0    0 -0.15542816988E+02 -0.14337348593E+01  0.16383093213E+02  0.22628558567E+02  0.10566000000E+00 0. -1.
        994    1    1    2    0    0  0.17061585018E+02 -0.38760219986E+01  0.73377478538E+01  0.17224808787E+03  0.17120000000E+03 0.  0.
        998    1    1    2    0    0 -0.15187680302E+01  0.53097568579E+01  0.14762791552E+04  0.14763233536E+04  0.10000000000E+02 0. -1.
</event>
<event>
 5    1  0.7732857E-009  0.3782995E+03  0.7957747E-01  0.3458597E+00
         13   -1    0    0    0    0  0.00000000000E+00  0.00000000000E+00  0.14999999963E+04  0.15000000000E+04  0.10566000000E+00 0. -1.
        994   -1    0    0    0    0 -0.00000000000E+00 -0.00000000000E+00  0.11368683772E-12  0.17120000000E+03  0.17120000000E+03 0.  0.
         13    1    1    2    0    0  0.11739005923E+02  0.30225542167E+02  0.10355496768E+03  0.10851281101E+03  0.10566000000E+00 0. -1.
        994    1    1    2    0    0 -0.19468022246E+02 -0.13557558476E+02  0.68883995182E+01  0.17297312314E+03  0.17120000000E+03 0.  0.
        998    1    1    2    0    0  0.77290163224E+01 -0.16667983692E+02  0.13895566291E+04  0.13897140658E+04  0.10000000000E+02 0. -1.
</event>
<event>
 5    1  0.7732857E-009  0.3803531E+03  0.7957747E-01  0.3449623E+00
         13   -1    0    0    0    0  0.00000000000E+00  0.00000000000E+00  0.14999999963E+04  0.15000000000E+04  0.10566000000E+00 0. -1.
        994   -1    0    0    0    0 -0.00000000000E+00 -0.00000000000E+00  0.11368683772E-12  0.17120000000E+03  0.17120000000E+03 0.  0.
         13    1    1    2    0    0  0.24955086898E+02 -0.32348407578E+02  0.21402863643E+03  0.21789319450E+03  0.10566000000E+00 0. -1.
        994    1    1    2    0    0 -0.83313905132E+01  0.20040965185E+02  0.55294641565E+01  0.17265881769E+03  0.17120000000E+03 0.  0.
        998    1    1    2    0    0 -0.16623696384E+02  0.12307442393E+02  0.12804418957E+04  0.12806479878E+04  0.10000000000E+02 0. -1.
</event>
<event>
 5    1  0.7732857E-009  0.3831972E+03  0.7957747E-01  0.3437354E+00
         13   -1    0    0    0    0  0.00000000000E+00  0.00000000000E+00  0.14999999963E+04  0.15000000000E+04  0.10566000000E+00 0.  1.
        994   -1    0    0    0    0 -0.00000000000E+00 -0.00000000000E+00  0.11368683772E-12  0.17120000000E+03  0.17120000000E+03 0.  0.
         13    1    1    2    0    0  0.36324356566E-01  0.11156934296E+02  0.25019070203E+02  0.27394224577E+02  0.10566000000E+00 0.  1.
        994    1    1    2    0    0 -0.11870640612E+02  0.76417128631E+01  0.31874146812E+01  0.17181067341E+03  0.17120000000E+03 0.  0.
        998    1    1    2    0    0  0.11834316255E+02 -0.18798647159E+02  0.14717935114E+04  0.14719951020E+04  0.10000000000E+02 0.  1.
</event>
<event>
 5    1  0.7732857E-009  0.3930088E+03  0.7957747E-01  0.3396400E+00
         13   -1    0    0    0    0  0.00000000000E+00  0.00000000000E+00  0.14999999963E+04  0.15000000000E+04  0.10566000000E+00 0. -1.
        994   -1    0    0    0    0 -0.00000000000E+00 -0.00000000000E+00  0.11368683772E-12  0.17120000000E+03  0.17120000000E+03 0.  0.
         13    1    1    2    0    0  0.38356762536E+02  0.31376494480E+02  0.41002702718E+02  0.64319191788E+02  0.10566000000E+00 0. -1.
        994    1    1    2    0    0  0.23072160847E+02 -0.10372121537E+03  0.68066840993E+02  0.21268039394E+03  0.17120000000E+03 0.  0.
        998    1    1    2    0    0 -0.61428923383E+02  0.72344720894E+02  0.13909304526E+04  0.13942004143E+04  0.10000000000E+02 0. -1.
</event>
<event>
 5    1  0.7732857E-009  0.3790467E+03  0.7957747E-01  0.3455320E+00
         13   -1    0    0    0    0  0.00000000000E+00  0.00000000000E+00  0.14999999963E+04  0.15000000000E+04  0.10566000000E+00 0. -1.
        994   -1    0    0    0    0 -0.00000000000E+00 -0.00000000000E+00  0.11368683772E-12  0.17120000000E+03  0.17120000000E+03 0.  0.
         13    1    1    2    0    0  0.27246168688E+00  0.21407377244E+02  0.74199282643E+01  0.22658696682E+02  0.10566000000E+00 0. -1.
        994    1    1    2    0    0  0.32169046936E+00 -0.23052573950E+02  0.17726178140E+02  0.17365247491E+03  0.17120000000E+03 0.  0.
        998    1    1    2    0    0 -0.59415215625E+00  0.16451967065E+01  0.14748538899E+04  0.14748888284E+04  0.10000000000E+02 0. -1.
</event>
<event>
 5    1  0.7732857E-009  0.3797064E+03  0.7957747E-01  0.3452438E+00
         13   -1    0    0    0    0  0.00000000000E+00  0.00000000000E+00  0.14999999963E+04  0.15000000000E+04  0.10566000000E+00 0.  1.
        994   -1    0    0    0    0 -0.00000000000E+00 -0.00000000000E+00  0.11368683772E-12  0.17120000000E+03  0.17120000000E+03 0.  0.
         13    1    1    2    0    0 -0.16141689288E+02 -0.38920945830E+01  0.31436031315E+02  0.35551902371E+02  0.10566000000E+00 0.  1.
        994    1    1    2    0    0  0.34434488628E+01 -0.81910763307E+01  0.45456279239E+01  0.17149068139E+03  0.17120000000E+03 0.  0.
        998    1    1    2    0    0  0.12698240425E+02  0.12083170914E+02  0.14640183370E+04  0.14641574162E+04  0.10000000000E+02 0.  1.
</event>
<event>
 5    1  0.7732857E-009  0.3792979E+03  0.7957747E-01  0.3454221E+00
         13   -1    0    0    0    0  0.00000000000E+00  0.00000000000E+00  0.14999999963E+04  0.15000000000E+04  0.10566000000E+00 0.  1.
        994   -1    0    0    0    0 -0.00000000000E+00 -0.00000000000E+00  0.11368683772E-12  0.17120000000E+03  0.17120000000E+03 0.  0.
         13    1    1    2    0    0 -0.39016152563E+02  0.21340518016E+02  0.19845728958E+03  0.20337891932E+03  0.10566000000E+00 0.  1.
        994    1    1    2    0    0  0.31974484422E+02 -0.24175053336E+02  0.98907534654E+01  0.17610811413E+03  0.17120000000E+03 0.  0.
        998    1    1    2    0    0  0.70416681413E+01  0.28345353197E+01  0.12916519532E+04  0.12917129666E+04  0.10000000000E+02 0.  1.
</event>
<event>
 5    1  0.7732857E-009  0.3821242E+03  0.7957747E-01  0.3441961E+00
         13   -1    0    0    0    0  0.00000000000E+00  0.00000000000E+00  0.14999999963E+04  0.15000000000E+04  0.10566000000E+00 0.  1.
        994   -1    0    0    0    0 -0.00000000000E+00 -0.00000000000E+00  0.11368683772E-12  0.17120000000E+03  0.17120000000E+03 0.  0.
         13    1    1    2    0    0  0.10384503207E+02 -0.43811534570E+01  0.20547119365E+02  0.23435607325E+02  0.10566000000E+00 0.  1.
        994    1    1    2    0    0  0.28582516519E+01 -0.17566001164E+02  0.41168108481E+01  0.17217178088E+03  0.17120000000E+03 0.  0.
        998    1    1    2    0    0 -0.13242754859E+02  0.21947154621E+02  0.14753360661E+04  0.14755926118E+04  0.10000000000E+02 0.  1.
</event>
<event>
 5    1  0.7732857E-009  0.3717152E+03  0.7957747E-01  0.3488045E+00
         13   -1    0    0    0    0  0.00000000000E+00  0.00000000000E+00  0.14999999963E+04  0.15000000000E+04  0.10566000000E+00 0.  1.
        994   -1    0    0    0    0 -0.00000000000E+00 -0.00000000000E+00  0.11368683772E-12  0.17120000000E+03  0.17120000000E+03 0.  0.
         13    1    1    2    0    0  0.13269803943E+03 -0.65657413367E+01  0.58449453114E+03  0.59940449341E+03  0.10566000000E+00 0.  1.
        994    1    1    2    0    0 -0.13804827822E+03 -0.16809873573E+02  0.78096773380E+02  0.23398385624E+03  0.17120000000E+03 0.  0.
        998    1    1    2    0    0  0.53502387902E+01  0.23375614909E+02  0.83740869176E+03  0.83781165035E+03  0.10000000000E+02 0.  1.
</event>
<event>
 5    1  0.7732857E-009  0.3799391E+03  0.7957747E-01  0.3451424E+00
         13   -1    0    0    0    0  0.00000000000E+00  0.00000000000E+00  0.14999999963E+04  0.15000000000E+04  0.10566000000E+00 0. -1.
        994   -1    0    0    0    0 -0.00000000000E+00 -0.00000000000E+00  0.11368683772E-12  0.17120000000E+03  0.17120000000E+03 0.  0.
         13    1    1    2    0    0 -0.34773045259E+02 -0.13918465793E+02  0.17065478794E+03  0.17471678848E+03  0.10566000000E+00 0. -1.
        994    1    1    2    0    0  0.31891542287E+02 -0.25079887249E+02  0.96874013481E+01  0.17620827721E+03  0.17120000000E+03 0.  0.
        998    1    1    2    0    0  0.28815029720E+01  0.38998353042E+02  0.13196578070E+04  0.13202749343E+04  0.10000000000E+02 0. -1.
</event>
<event>
 5    1  0.7732857E-009  0.3712172E+03  0.7957747E-01  0.3490315E+00
         13   -1    0    0    0    0  0.00000000000E+00  0.00000000000E+00  0.14999999963E+04  0.15000000000E+04  0.10566000000E+00 0. -1.
        994   -1    0    0    0    0 -0.00000000000E+00 -0.00000000000E+00  0.11368683772E-12  0.17120000000E+03  0.17120000000E+03 0.  0.
         13    1    1    2    0    0 -0.40598195260E+02 -0.27937630399E+02  0.15243067575E+03  0.16019939677E+03  0.10566000000E+00 0. -1.
        994    1    1    2    0    0  0.99026213665E+00  0.12937018529E+02  0.92140732578E+01  0.17193803015E+03  0.17120000000E+03 0.  0.
        998    1    1    2    0    0  0.39607933123E+02  0.15000611871E+02  0.13383552473E+04  0.13390625731E+04  0.10000000000E+02 0. -1.
</event>
<event>
 5    1  0.8421526E-009  0.3846943E+03  0.7957747E-01  0.3430970E+00
         13   -1    0    0    0    0  0.00000000000E+00  0.00000000000E+00  0.14999999963E+04  0.15000000000E+04  0.10566000000E+00 0.  1.
        994   -1    0    0    0    0 -0.00000000000E+00 -0.00000000000E+00  0.11368683772E-12  0.17120000000E+03  0.17120000000E+03 0.  0.
         13    1    1    2    0    0 -0.12867867708E+02 -0.15577248399E+02  0.10386421267E+03  0.10581124007E+03  0.10566000000E+00 0.  1.
        994    1    1    2    0    0  0.16539286060E+02  0.19481194836E+02  0.39347760939E+01  0.17314152419E+03  0.17120000000E+03 0.  0.
        998    1    1    2    0    0 -0.36714183524E+01 -0.39039464367E+01  0.13922010075E+04  0.13922472357E+04  0.10000000000E+02 0.  1.
</event>
<event>
 5    1  0.7732857E-009  0.3967064E+03  0.7957747E-01  0.3381492E+00
         13   -1    0    0    0    0  0.00000000000E+00  0.00000000000E+00  0.14999999963E+04  0.15000000000E+04  0.10566000000E+00 0. -1.
        994   -1    0    0    0    0 -0.00000000000E+00 -0.00000000000E+00  0.11368683772E-12  0.17120000000E+03  0.17120000000E+03 0.  0.
         13    1    1    2    0    0  0.55127249517E+02 -0.78107376910E+01  0.49299204219E+02  0.74366954781E+02  0.10566000000E+00 0. -1.
        994    1    1    2    0    0 -0.53925401812E+02  0.12441665152E+02  0.37751897194E+02  0.18384066398E+03  0.17120000000E+03 0.  0.
        998    1    1    2    0    0 -0.12018477050E+01 -0.46309274610E+01  0.14129488949E+04  0.14129923812E+04  0.10000000000E+02 0. -1.
</event>
<event>
 5    1  0.7732857E-009  0.3763404E+03  0.7957747E-01  0.3467249E+00
         13   -1    0    0    0    0  0.00000000000E+00  0.00000000000E+00  0.14999999963E+04  0.15000000000E+04  0.10566000000E+00 0.  1.
        994   -1    0    0    0    0 -0.00000000000E+00 -0.00000000000E+00  0.11368683772E-12  0.17120000000E+03  0.17120000000E+03 0.  0.
         13    1    1    2    0    0 -0.13443517878E+02 -0.61453215619E+01  0.15508698735E+02  0.21424846569E+02  0.10566000000E+00 0.  1.
        994    1    1    2    0    0  0.10797180983E+02  0.88637350254E+01  0.66526130052E+01  0.17189776664E+03  0.17120000000E+03 0.  0.
        998    1    1    2    0    0  0.26463368953E+01 -0.27184134635E+01  0.14778386845E+04  0.14778773868E+04  0.10000000000E+02 0.  1.
</event>
<event>
 5    1  0.7732857E-009  0.3850493E+03  0.7957747E-01  0.3429463E+00
         13   -1    0    0    0    0  0.00000000000E+00  0.00000000000E+00  0.14999999963E+04  0.15000000000E+04  0.10566000000E+00 0.  1.
        994   -1    0    0    0    0 -0.00000000000E+00 -0.00000000000E+00  0.11368683772E-12  0.17120000000E+03  0.17120000000E+03 0.  0.
         13    1    1    2    0    0 -0.50783647457E+01 -0.11719178015E+02  0.51010743039E+02  0.52585511229E+02  0.10566000000E+00 0.  1.
        994    1    1    2    0    0  0.37293484357E+01  0.67858121446E+01  0.18028473499E+01  0.17138449622E+03  0.17120000000E+03 0.  0.
        998    1    1    2    0    0  0.13490163100E+01  0.49333658708E+01  0.14471864059E+04  0.14472299926E+04  0.10000000000E+02 0.  1.
</event>
<event>
 5    1  0.7732857E-009  0.3830965E+03  0.7957747E-01  0.3437785E+00
         13   -1    0    0    0    0  0.00000000000E+00  0.00000000000E+00  0.14999999963E+04  0.15000000000E+04  0.10566000000E+00 0. -1.
        994   -1    0    0    0    0 -0.00000000000E+00 -0.00000000000E+00  0.11368683772E-12  0.17120000000E+03  0.17120000000E+03 0.  0.
         13    1    1    2    0    0 -0.31670026979E+01  0.14215122950E+02  0.39890682340E+02  0.42466190413E+02  0.10566000000E+00 0. -1.
        994    1    1    2    0    0 -0.13520161103E+02 -0.15889559637E+02  0.40198153280E+01  0.17251339593E+03  0.17120000000E+03 0.  0.
        998    1    1    2    0    0  0.16687163801E+02  0.16744366867E+01  0.14560894986E+04  0.14562204137E+04  0.10000000000E+02 0. -1.
</event>
<event>
 5    1  0.7732857E-009  0.3788243E+03  0.7957747E-01  0.3456294E+00
         13   -1    0    0    0    0  0.00000000000E+00  0.00000000000E+00  0.14999999963E+04  0.15000000000E+04  0.10566000000E+00 0. -1.
        994   -1    0    0    0    0 -0.00000000000E+00 -0.00000000000E+00  0.11368683772E-12  0.17120000000E+03  0.17120000000E+03 0.  0.
         13    1    1    2    0    0  0.20647705987E+02  0.24145915363E+02  0.25380748229E+02  0.40663823430E+02  0.10566000000E+00 0. -1.
        994    1    1    2    0    0 -0.22866155231E+02 -0.20953292893E+02  0.19161159828E+02  0.17503854314E+03  0.17120000000E+03 0.  0.
        998    1    1    2    0    0  0.22184492434E+01 -0.31926224695E+01  0.14554580882E+04  0.14554976334E+04  0.10000000000E+02 0. -1.
</event>
<event>
 5    1  0.7732857E-009  0.3831901E+03  0.7957747E-01  0.3437384E+00
         13   -1    0    0    0    0  0.00000000000E+00  0.00000000000E+00  0.14999999963E+04  0.15000000000E+04  0.10566000000E+00 0.  1.
        994   -1    0    0    0    0 -0.00000000000E+00 -0.00000000000E+00  0.11368683772E-12  0.17120000000E+03  0.17120000000E+03 0.  0.
         13    1    1    2    0    0 -0.20023867104E+02  0.22720561138E+01  0.85867582853E+02  0.88200739463E+02  0.10566000000E+00 0.  1.
        994    1    1    2    0    0  0.16654274722E+01  0.13123005508E+02  0.31104501743E+01  0.17173846926E+03  0.17120000000E+03 0.  0.
        998    1    1    2    0    0  0.18358439632E+02 -0.15395061621E+02  0.14110219633E+04  0.14112607913E+04  0.10000000000E+02 0.  1.
</event>
<event>
 5    1  0.7732857E-009  0.3756061E+03  0.7957747E-01  0.3470517E+00
         13   -1    0    0    0    0  0.00000000000E+00  0.00000000000E+00  0.14999999963E+04  0.15000000000E+04  0.10566000000E+00 0.  1.
        994   -1    0    0    0    0 -0.00000000000E+00 -0.00000000000E+00  0.11368683772E-12  0.17120000000E+03  0.17120000000E+03 0.  0.
         13    1    1    2    0    0 -0.10416321189E+03  0.37385494918E+02  0.60181681612E+03  0.61190778821E+03  0.10566000000E+00 0.  1.
        994    1    1    2    0    0  0.10652632003E+03 -0.16800248063E+02  0.46901928412E+02  0.20770011093E+03  0.17120000000E+03 0.  0.
        998    1    1    2    0    0 -0.23631081413E+01 -0.20585246855E+02  0.85128125174E+03  0.85159210085E+03  0.10000000000E+02 0.  1.
</event>
<event>
 5    1  0.7732857E-009  0.3718981E+03  0.7957747E-01  0.3487213E+00
         13   -1    0    0    0    0  0.00000000000E+00  0.00000000000E+00  0.14999999963E+04  0.15000000000E+04  0.10566000000E+00 0. -1.
        994   -1    0    0    0    0 -0.00000000000E+00 -0.00000000000E+00  0.11368683772E-12  0.17120000000E+03  0.17120000000E+03 0.  0.
         13    1    1    2    0    0 -0.63320469753E+02 -0.53882134992E+02  0.25980246942E+03  0.27278214868E+03  0.10566000000E+00 0. -1.
        994    1    1    2    0    0  0.36577037256E+02  0.60007736449E+02  0.29536917822E+02  0.18740511627E+03  0.17120000000E+03 0.  0.
        998    1    1    2    0    0  0.26743432497E+02 -0.61256014570E+01  0.12106606090E+04  0.12110127351E+04  0.10000000000E+02 0. -1.
</event>
<event>
 5    1  0.7732857E-009  0.3807249E+03  0.7957747E-01  0.3448008E+00
         13   -1    0    0    0    0  0.00000000000E+00  0.00000000000E+00  0.14999999963E+04  0.15000000000E+04  0.10566000000E+00 0. -1.
        994   -1    0    0    0    0 -0.00000000000E+00 -0.00000000000E+00  0.11368683772E-12  0.17120000000E+03  0.17120000000E+03 0.  0.
         13    1    1    2    0    0 -0.19672653951E+01  0.14336757388E+02  0.26790521116E+02  0.30449235315E+02  0.10566000000E+00 0. -1.
        994    1    1    2    0    0  0.30878624449E+02  0.48708889716E+00  0.69548125923E+01  0.17410208535E+03  0.17120000000E+03 0.  0.
        998    1    1    2    0    0 -0.28911359054E+02 -0.14823846285E+02  0.14662546626E+04  0.14666486793E+04  0.10000000000E+02 0. -1.
</event>
<event>
 5    1  0.7732857E-009  0.3848407E+03  0.7957747E-01  0.3430348E+00
         13   -1    0    0    0    0  0.00000000000E+00  0.00000000000E+00  0.14999999963E+04  0.15000000000E+04  0.10566000000E+00 0. -1.
        994   -1    0    0    0    0 -0.00000000000E+00 -0.00000000000E+00  0.11368683772E-12  0.17120000000E+03  0.17120000000E+03 0.  0.
         13    1    1    2    0    0  0.69145513717E+01 -0.11346544276E+02  0.51216127437E+02  0.52911794162E+02  0.10566000000E+00 0. -1.
        994    1    1    2    0    0 -0.96432701930E+01  0.58031716201E+01  0.21261391744E+01  0.17158272037E+03  0.17120000000E+03 0.  0.
        998    1    1    2    0    0  0.27287188213E+01  0.55433726564E+01  0.14466577297E+04  0.14467054855E+04  0.10000000000E+02 0. -1.
</event>
<event>
 5    1  0.7732857E-009  0.3840219E+03  0.7957747E-01  0.3433831E+00
         13   -1    0    0    0    0  0.00000000000E+00  0.00000000000E+00  0.14999999963E+04  0.15000000000E+04  0.10566000000E+00 0. -1.
        994   -1    0    0    0    0 -0.00000000000E+00 -0.00000000000E+00  0.11368683772E-12  0.17120000000E+03  0.17120000000E+03 0.  0.
         13    1    1    2    0    0  0.56762547533E+01  0.15279864748E+02  0.64821536149E+02  0.66839635304E+02  0.10566000000E+00 0. -1.
        994    1    1    2    0    0 -0.93142545251E+01 -0.59418095119E+00  0.24039380852E+01  0.17147106842E+03  0.17120000000E+03 0.  0.
        998    1    1    2    0    0  0.36379997718E+01 -0.14685683797E+02  0.14327745220E+04  0.14328892963E+04  0.10000000000E+02 0. -1.
</event>
<event>
 5    1  0.7732857E-009  0.3988652E+03  0.7957747E-01  0.3372916E+00
         13   -1    0    0    0    0  0.00000000000E+00  0.00000000000E+00  0.14999999963E+04  0.15000000000E+04  0.10566000000E+00 0. -1.
        994   -1    0    0    0    0 -0.00000000000E+00 -0.00000000000E+00  0.11368683772E-12  0.17120000000E+03  0.17120000000E+03 0.  0.
         13    1    1    2    0    0 -0.58349620593E+02 -0.35347807377E+00  0.50913235816E+02  0.77440118256E+02  0.10566000000E+00 0. -1.
        994    1    1    2    0    0  0.62866942290E+02 -0.10168476878E+02  0.43082065236E+02  0.18767299939E+03  0.17120000000E+03 0.  0.
        998    1    1    2    0    0 -0.45173216963E+01  0.10521954951E+02  0.14060046952E+04  0.14060868824E+04  0.10000000000E+02 0. -1.
</event>
<event>
 5    1  0.7732857E-009  0.3781638E+03  0.7957747E-01  0.3459193E+00
         13   -1    0    0    0    0  0.00000000000E+00  0.00000000000E+00  0.14999999963E+04  0.15000000000E+04  0.10566000000E+00 0.  1.
        994   -1    0    0    0    0 -0.00000000000E+00 -0.00000000000E+00  0.11368683772E-12  0.17120000000E+03  0.17120000000E+03 0.  0.
         13    1    1    2    0    0  0.11693381566E+03 -0.87961887116E+02  0.83813954040E+03  0.85081649677E+03  0.10566000000E+00 0.  1.
        994    1    1    2    0    0 -0.11656451100E+03  0.88661389841E+02  0.80964521557E+02  0.23940096287E+03  0.17120000000E+03 0.  0.
        998    1    1    2    0    0 -0.36930466590E+00 -0.69950272440E+00  0.58089593432E+03  0.58098254036E+03  0.10000000000E+02 0.  0.
</event>
<event>
 5    1  0.7732857E-009  0.3807172E+03  0.7957747E-01  0.3448042E+00
         13   -1    0    0    0    0  0.00000000000E+00  0.00000000000E+00  0.14999999963E+04  0.15000000000E+04  0.10566000000E+00 0.  1.
        994   -1    0    0    0    0 -0.00000000000E+00 -0.00000000000E+00  0.11368683772E-12  0.17120000000E+03  0.17120000000E+03 0.  0.
         13    1    1    2    0    0 -0.23723379255E+02 -0.20878664252E+02  0.12518320770E+03  0.12911066570E+03  0.10566000000E+00 0.  1.
        994    1    1    2    0    0  0.21858857037E+02  0.15506948759E+02  0.61707012148E+01  0.17339490374E+03  0.17120000000E+03 0.  0.
        998    1    1    2    0    0  0.18645222181E+01  0.53717154930E+01  0.13686460874E+04  0.13686944306E+04  0.10000000000E+02 0.  1.
</event>
<event>
 5    1  0.7732857E-009  0.3855699E+03  0.7957747E-01  0.3427259E+00
         13   -1    0    0    0    0  0.00000000000E+00  0.00000000000E+00  0.14999999963E+04  0.15000000000E+04  0.10566000000E+00 0.  1.
        994   -1    0    0    0    0 -0.00000000000E+00 -0.00000000000E+00  0.11368683772E-12  0.17120000000E+03  0.17120000000E+03 0.  0.
         13    1    1    2    0    0  0.12675217392E+02  0.88438509208E+01  0.89759156141E+02  0.91080141141E+02  0.10566000000E+00 0.  1.
        994    1    1    2    0    0 -0.54453177742E+01 -0.82742160437E+01  0.16695833503E+01  0.17149443619E+03  0.17120000000E+03 0.  0.
        998    1    1    2    0    0 -0.72298996178E+01 -0.56963487710E+00  0.14085712568E+04  0.14086254227E+04  0.10000000000E+02 0.  1.
</event>
<event>
 5    1  0.7732857E-009  0.3848473E+03  0.7957747E-01  0.3430320E+00
         13   -1    0    0    0    0  0.00000000000E+00  0.00000000000E+00  0.14999999963E+04  0.15000000000E+04  0.10566000000E+00 0. -1.
        994   -1    0    0    0    0 -0.00000000000E+00 -0.00000000000E+00  0.11368683772E-12  0.17120000000E+03  0.17120000000E+03 0.  0.
         13    1    1    2    0    0 -0.69161707485E+01 -0.82546056920E+01  0.33343725232E+02  0.35039793226E+02  0.10566000000E+00 0. -1.
        994    1    1    2    0    0  0.12319916714E+02  0.26296833417E+01  0.22282951121E+01  0.17167731615E+03  0.17120000000E+03 0.  0.
        998    1    1    2    0    0 -0.54037459651E+01  0.56249223503E+01  0.14644279759E+04  0.14644828906E+04  0.10000000000E+02 0. -1.
</event>
<event>
 5    1  0.7732857E-009  0.3818980E+03  0.7957747E-01  0.3442936E+00
         13   -1    0    0    0    0  0.00000000000E+00  0.00000000000E+00  0.14999999963E+04  0.15000000000E+04  0.10566000000E+00 0.  1.
        994   -1    0    0    0    0 -0.00000000000E+00 -0.00000000000E+00  0.11368683772E-12  0.17120000000E+03  0.17120000000E+03 0.  0.
         13    1    1    2    0    0  0.15476961016E+02 -0.33980161469E+01  0.38724099334E+02  0.41840768029E+02  0.10566000000E+00 0.  1.
        994    1    1    2    0    0 -0.86875060933E+01 -0.15314313656E+01  0.34366715501E+01  0.17146156641E+03  0.17120000000E+03 0.  0.
        998    1    1    2    0    0 -0.67894549223E+01  0.49294475125E+01  0.14578392254E+04  0.14578976656E+04  0.10000000000E+02 0.  1.
</event>
<event>
 5    1  0.7732857E-009  0.3798633E+03  0.7957747E-01  0.3451754E+00
         13   -1    0    0    0    0  0.00000000000E+00  0.00000000000E+00  0.14999999963E+04  0.15000000000E+04  0.10566000000E+00 0.  1.
        994   -1    0    0    0    0 -0.00000000000E+00 -0.00000000000E+00  0.11368683772E-12  0.17120000000E+03  0.17120000000E+03 0.  0.
         13    1    1    2    0    0 -0.37729111169E+01 -0.18252157032E+02  0.41136673760E+02  0.45162076864E+02  0.10566000000E+00 0.  1.
        994    1    1    2    0    0  0.79616451677E+01  0.63886907984E+00  0.44155384014E+01  0.17144308947E+03  0.17120000000E+03 0.  0.
        998    1    1    2    0    0 -0.41887340508E+01  0.17613287952E+02  0.14544477841E+04  0.14545948337E+04  0.10000000000E+02 0.  1.
</event>
<event>
 5    1  0.7732857E-009  0.3734267E+03  0.7957747E-01  0.3480289E+00
         13   -1    0    0    0    0  0.00000000000E+00  0.00000000000E+00  0.14999999963E+04  0.15000000000E+04  0.10566000000E+00 0. -1.
        994   -1    0    0    0    0 -0.00000000000E+00 -0.00000000000E+00  0.11368683772E-12  0.17120000000E+03  0.17120000000E+03 0.  0.
         13    1    1    2    0    0  0.87668007487E+02 -0.53874220740E+01  0.36746777746E+03  0.37781911346E+03  0.10566000000E+00 0. -1.
        994    1    1    2    0    0 -0.92681820352E+02  0.66210069784E+01  0.37593892643E+02  0.19838472300E+03  0.17120000000E+03 0.  0.
        998    1    1    2    0    0  0.50138128650E+01 -0.12335849045E+01  0.10949383262E+04  0.10949961635E+04  0.10000000000E+02 0.  0.
</event>
<event>
 5    1  0.7732857E-009  0.2873686E+03  0.7957747E-01  0.3990537E+00
         13   -1    0    0    0    0  0.00000000000E+00  0.00000000000E+00  0.14999999963E+04  0.15000000000E+04  0.10566000000E+00 0. -1.
        994   -1    0    0    0    0 -0.00000000000E+00 -0.00000000000E+00  0.11368683772E-12  0.17120000000E+03  0.17120000000E+03 0.  0.
         13    1    1    2    0    0 -0.19992873776E+02 -0.20403134788E+03  0.49163941793E+03  0.53267047445E+03  0.10566000000E+00 0. -1.
        994    1    1    2    0    0  0.25395061913E+02  0.20234372110E+03  0.20745740910E+03  0.33754393377E+03  0.17120000000E+03 0.  0.
        998    1    1    2    0    0 -0.54021881371E+01  0.16876267794E+01  0.80090316925E+03  0.80098559178E+03  0.10000000000E+02 0.  0.
</event>
<event>
 5    1  0.7732857E-009  0.3846709E+03  0.7957747E-01  0.3431069E+00
         13   -1    0    0    0    0  0.00000000000E+00  0.00000000000E+00  0.14999999963E+04  0.15000000000E+04  0.10566000000E+00 0.  1.
        994   -1    0    0    0    0 -0.00000000000E+00 -0.00000000000E+00  0.11368683772E-12  0.17120000000E+03  0.17120000000E+03 0.  0.
         13    1    1    2    0    0 -0.74344032508E+01  0.95736536415E+01  0.40266598393E+02  0.42051579113E+02  0.10566000000E+00 0.  1.
        994    1    1    2    0    0  0.80447508733E+01 -0.68574424722E+01  0.21615990679E+01  0.17153966027E+03  0.17120000000E+03 0.  0.
        998    1    1    2    0    0 -0.61034762258E+00 -0.27162111693E+01  0.14575717988E+04  0.14576087606E+04  0.10000000000E+02 0.  1.
</event>
<event>
 5    1  0.7732857E-009  0.3897411E+03  0.7957747E-01  0.3409810E+00
         13   -1    0    0    0    0  0.00000000000E+00  0.00000000000E+00  0.14999999963E+04  0.15000000000E+04  0.10566000000E+00 0.  1.
        994   -1    0    0    0    0 -0.00000000000E+00 -0.00000000000E+00  0.11368683772E-12  0.17120000000E+03  0.17120000000E+03 0.  0.
         13    1    1    2    0    0  0.21833878203E+02  0.47639591737E+02  0.70196542398E+02  0.87600312025E+02  0.10566000000E+00 0.  1.
        994    1    1    2    0    0 -0.40644352275E+01  0.63496754438E+02  0.37163886533E+02  0.18638388321E+03  0.17120000000E+03 0.  0.
        998    1    1    2    0    0 -0.17769442976E+02 -0.11113634617E+03  0.13926395673E+04  0.13972158048E+04  0.10000000000E+02 0.  1.
</event>
<event>
 5    1  0.1212173E-008  0.3858615E+03  0.7957747E-01  0.3426027E+00
         13   -1    0    0    0    0  0.00000000000E+00  0.00000000000E+00  0.14999999963E+04  0.15000000000E+04  0.10566000000E+00 0. -1.
        994   -1    0    0    0    0 -0.00000000000E+00 -0.00000000000E+00  0.11368683772E-12  0.17120000000E+03  0.17120000000E+03 0.  0.
         13    1    1    2    0    0 -0.28799289899E+00 -0.10912641914E+02  0.48590213329E+02  0.49801492838E+02  0.10566000000E+00 0. -1.
        994    1    1    2    0    0 -0.36876089318E+01  0.11979609244E+02  0.17184451796E+01  0.17166683591E+03  0.17120000000E+03 0.  0.
        998    1    1    2    0    0  0.39756018308E+01 -0.10669673303E+01  0.14496913378E+04  0.14497316713E+04  0.10000000000E+02 0. -1.
</event>
<event>
 5    1  0.7732857E-009  0.3729506E+03  0.7957747E-01  0.3482440E+00
         13   -1    0    0    0    0  0.00000000000E+00  0.00000000000E+00  0.14999999963E+04  0.15000000000E+04  0.10566000000E+00 0.  1.
        994   -1    0    0    0    0 -0.00000000000E+00 -0.00000000000E+00  0.11368683772E-12  0.17120000000E+03  0.17120000000E+03 0.  0.
         13    1    1    2    0    0  0.78410470917E+01  0.32468331616E+02  0.67401977941E+02  0.75224413403E+02  0.10566000000E+00 0.  1.
        994    1    1    2    0    0 -0.83509658350E+01 -0.28196055746E+02  0.10700592316E+02  0.17403648717E+03  0.17120000000E+03 0.  0.
        998    1    1    2    0    0  0.50991874329E+00 -0.42722758702E+01  0.14218974260E+04  0.14219390994E+04  0.10000000000E+02 0.  1.
</event>
<event>
 5    1  0.7732857E-009  0.3839265E+03  0.7957747E-01  0.3434238E+00
         13   -1    0    0    0    0  0.00000000000E+00  0.00000000000E+00  0.14999999963E+04  0.15000000000E+04  0.10566000000E+00 0. -1.
        994   -1    0    0    0    0 -0.00000000000E+00 -0.00000000000E+00  0.11368683772E-12  0.17120000000E+03  0.17120000000E+03 0.  0.
         13    1    1    2    0    0 -0.44352343961E+01 -0.13774059812E+02  0.46780452788E+02  0.48967519387E+02  0.10566000000E+00 0. -1.
        994    1    1    2    0    0  0.74425988241E+00  0.15008608388E+02  0.29096215504E+01  0.17188286170E+03  0.17120000000E+03 0.  0.
        998    1    1    2    0    0  0.36909745137E+01 -0.12345485761E+01  0.14503099219E+04  0.14503496189E+04  0.10000000000E+02 0. -1.
</event>
<event>
 5    1  0.7732857E-009  0.3844406E+03  0.7957747E-01  0.3432048E+00
         13   -1    0    0    0    0  0.00000000000E+00  0.00000000000E+00  0.14999999963E+04  0.15000000000E+04  0.10566000000E+00 0. -1.
        994   -1    0    0    0    0 -0.00000000000E+00 -0.00000000000E+00  0.11368683772E-12  0.17120000000E+03  0.17120000000E+03 0.  0.
         13    1    1    2    0    0 -0.13144474372E+02  0.21204418385E+02  0.13253887322E+03  0.13486648451E+03  0.10566000000E+00 0. -1.
        994    1    1    2    0    0  0.37779152929E+02 -0.24987326275E+02  0.86969605050E+01  0.17730399881E+03  0.17120000000E+03 0.  0.
        998    1    1    2    0    0 -0.24634678557E+02  0.37829078900E+01  0.13587641625E+04  0.13590295167E+04  0.10000000000E+02 0. -1.
</event>
<event>
 5    1  0.7732857E-009  0.3818863E+03  0.7957747E-01  0.3442986E+00
         13   -1    0    0    0    0  0.00000000000E+00  0.00000000000E+00  0.14999999963E+04  0.15000000000E+04  0.10566000000E+00 0. -1.
        994   -1    0    0    0    0 -0.00000000000E+00 -0.00000000000E+00  0.11368683772E-12  0.17120000000E+03  0.17120000000E+03 0.  0.
         13    1    1    2    0    0  0.35053119749E+02 -0.21782398059E+02  0.43213747916E+02  0.59754775896E+02  0.10566000000E+00 0. -1.
        994    1    1    2    0    0 -0.31983904770E+01  0.37240456637E+02  0.22481900430E+02  0.17666906113E+03  0.17120000000E+03 0.  0.
        998    1    1    2    0    0 -0.31854729272E+02 -0.15458058578E+02  0.14343043479E+04  0.14347761630E+04  0.10000000000E+02 0. -1.
</event>
<event>
 5    1  0.7732857E-009  0.3977466E+03  0.7957747E-01  0.3377348E+00
         13   -1    0    0    0    0  0.00000000000E+00  0.00000000000E+00  0.14999999963E+04  0.15000000000E+04  0.10566000000E+00 0.  1.
        994   -1    0    0    0    0 -0.00000000000E+00 -0.00000000000E+00  0.11368683772E-12  0.17120000000E+03  0.17120000000E+03 0.  0.
         13    1    1    2    0    0  0.63349691954E+02 -0.97587502434E+01  0.67155327274E+02  0.92834615431E+02  0.10566000000E+00 0.  1.
        994    1    1    2    0    0 -0.57242943914E+02  0.52816077755E+01  0.39371315172E+02  0.18483557684E+03  0.17120000000E+03 0.  0.
        998    1    1    2    0    0 -0.61067480398E+01  0.44771424680E+01  0.13934733538E+04  0.13935298077E+04  0.10000000000E+02 0.  1.
</event>
<event>
 5    1  0.7732857E-009  0.3726943E+03  0.7957747E-01  0.3483599E+00
         13   -1    0    0    0    0  0.00000000000E+00  0.00000000000E+00  0.14999999963E+04  0.15000000000E+04  0.10566000000E+00 0. -1.
        994   -1    0    0    0    0 -0.00000000000E+00 -0.00000000000E+00  0.11368683772E-12  0.17120000000E+03  0.17120000000E+03 0.  0.
         13    1    1    2    0    0  0.32407741019E+02 -0.97919196791E+01  0.66678424218E+02  0.74780791579E+02  0.10566000000E+00 0. -1.
        994    1    1    2    0    0 -0.33924446157E+02  0.11627574627E+02  0.12286228850E+02  0.17534668505E+03  0.17120000000E+03 0.  0.
        998    1    1    2    0    0  0.15167051374E+01 -0.18356549483E+01  0.14210353432E+04  0.14210725234E+04  0.10000000000E+02 0. -1.
</event>
<event>
 5    1  0.7732857E-009  0.3801749E+03  0.7957747E-01  0.3450397E+00
         13   -1    0    0    0    0  0.00000000000E+00  0.00000000000E+00  0.14999999963E+04  0.15000000000E+04  0.10566000000E+00 0. -1.
        994   -1    0    0    0    0 -0.00000000000E+00 -0.00000000000E+00  0.11368683772E-12  0.17120000000E+03  0.17120000000E+03 0.  0.
         13    1    1    2    0    0 -0.11198944340E+03  0.12386364593E+02  0.66004140172E+03  0.66958921781E+03  0.10566000000E+00 0. -1.
        994    1    1    2    0    0  0.21518937681E+02  0.43504930470E+02  0.25014421713E+02  0.17969670266E+03  0.17120000000E+03 0.  0.
        998    1    1    2    0    0  0.90470505716E+02 -0.55891295063E+02  0.81494417284E+03  0.82191407952E+03  0.10000000000E+02 0. -1.
</event>
<event>
 5    1  0.7732857E-009  0.3821013E+03  0.7957747E-01  0.3442060E+00
         13   -1    0    0    0    0  0.00000000000E+00  0.00000000000E+00  0.14999999963E+04  0.15000000000E+04  0.10566000000E+00 0. -1.
        994   -1    0    0    0    0 -0.00000000000E+00 -0.00000000000E+00  0.11368683772E-12  0.17120000000E+03  0.17120000000E+03 0.  0.
         13    1    1    2    0    0 -0.17549503873E+02 -0.78875895737E+01  0.58504970698E+02  0.61587676656E+02  0.10566000000E+00 0. -1.
        994    1    1    2    0    0  0.16746256875E+02 -0.83974623807E+00  0.40100693035E+01  0.17206586805E+03  0.17120000000E+03 0.  0.
        998    1    1    2    0    0  0.80324699860E+00  0.87273358118E+01  0.14374849563E+04  0.14375464553E+04  0.10000000000E+02 0. -1.
</event>
<event>
 5    1  0.8350351E-009  0.3855673E+03  0.7957747E-01  0.3427270E+00
         13   -1    0    0    0    0  0.00000000000E+00  0.00000000000E+00  0.14999999963E+04  0.15000000000E+04  0.10566000000E+00 0.  1.
        994   -1    0    0    0    0 -0.00000000000E+00 -0.00000000000E+00  0.11368683772E-12  0.17120000000E+03  0.17120000000E+03 0.  0.
         13    1    1    2    0    0  0.83517529685E+01  0.87310977107E+01  0.62214942759E+02  0.63377394325E+02  0.10566000000E+00 0.  1.
        994    1    1    2    0    0  0.11298769462E+02  0.45847557431E+01  0.18369616765E+01  0.17164351606E+03  0.17120000000E+03 0.  0.
        998    1    1    2    0    0 -0.19650522430E+02 -0.13315853454E+02  0.14359480918E+04  0.14361790896E+04  0.10000000000E+02 0.  1.
</event>
<event>
 5    1  0.7732857E-009  0.3838176E+03  0.7957747E-01  0.3434702E+00
         13   -1    0    0    0    0  0.00000000000E+00  0.00000000000E+00  0.14999999963E+04  0.15000000000E+04  0.10566000000E+00 0.  1.
        994   -1    0    0    0    0 -0.00000000000E+00 -0.00000000000E+00  0.11368683772E-12  0.17120000000E+03  0.17120000000E+03 0.  0.
         13    1    1    2    0    0  0.96807578372E+02 -0.13366451771E+02  0.46550927748E+03  0.47565667014E+03  0.10566000000E+00 0.  1.
        994    1    1    2    0    0  0.11111174400E+02 -0.66654010770E+02  0.35420474342E+02  0.18743069479E+03  0.17120000000E+03 0.  0.
        998    1    1    2    0    0 -0.10791875277E+03  0.80020462540E+02  0.99907024445E+03  0.10081126351E+04  0.10000000000E+02 0.  1.
</event>
<event>
 5    1  0.7732857E-009  0.3847502E+03  0.7957747E-01  0.3430732E+00
         13   -1    0    0    0    0  0.00000000000E+00  0.00000000000E+00  0.14999999963E+04  0.15000000000E+04  0.10566000000E+00 0.  1.
        994   -1    0    0    0    0 -0.00000000000E+00 -0.00000000000E+00  0.11368683772E-12  0.17120000000E+03  0.17120000000E+03 0.  0.
         13    1    1    2    0    0  0.15797743432E+02  0.49990909994E+01  0.80658704487E+02  0.82343168399E+02  0.10566000000E+00 0.  1.
        994    1    1    2    0    0 -0.92095752459E+01  0.81962496196E+01  0.22546320406E+01  0.17165814327E+03  0.17120000000E+03 0.  0.
        998    1    1    2    0    0 -0.65881681857E+01 -0.13195340619E+02  0.14170866598E+04  0.14171986883E+04  0.10000000000E+02 0.  1.
</event>
<event>
 5    1  0.7732857E-009  0.3805446E+03  0.7957747E-01  0.3448790E+00
         13   -1    0    0    0    0  0.00000000000E+00  0.00000000000E+00  0.14999999963E+04  0.15000000000E+04  0.10566000000E+00 0.  1.
        994   -1    0    0    0    0 -0.00000000000E+00 -0.00000000000E+00  0.11368683772E-12  0.17120000000E+03  0.17120000000E+03 0.  0.
         13    1    1    2    0    0 -0.10172845192E+02  0.52805897469E+02  0.25620728988E+03  0.26179025218E+03  0.10566000000E+00 0.  1.
        994    1    1    2    0    0  0.34746534774E+02 -0.71773022065E+02  0.25376712075E+02  0.19055735591E+03  0.17120000000E+03 0.  0.
        998    1    1    2    0    0 -0.24573689582E+02  0.18967124596E+02  0.12184159943E+04  0.12188523919E+04  0.10000000000E+02 0.  1.
</event>
<event>
 5    1  0.7732857E-009  0.3760384E+03  0.7957747E-01  0.3468592E+00
         13   -1    0    0    0    0  0.00000000000E+00  0.00000000000E+00  0.14999999963E+04  0.15000000000E+04  0.10566000000E+00 0.  1.
        994   -1    0    0    0    0 -0.00000000000E+00 -0.00000000000E+00  0.11368683772E-12  0.17120000000E+03  0.17120000000E+03 0.  0.
         13    1    1    2    0    0  0.31793132007E-01 -0.27665614322E+02  0.57641805476E+02  0.63937282779E+02  0.10566000000E+00 0.  1.
        994    1    1    2    0    0 -0.10517793735E+01  0.29126344798E+02  0.90291822264E+01  0.17389771802E+03  0.17120000000E+03 0.  0.
        998    1    1    2    0    0  0.10199862415E+01 -0.14607304761E+01  0.14333290086E+04  0.14333649992E+04  0.10000000000E+02 0.  1.
</event>
<event>
 5    1  0.7732857E-009  0.3762448E+03  0.7957747E-01  0.3467674E+00
         13   -1    0    0    0    0  0.00000000000E+00  0.00000000000E+00  0.14999999963E+04  0.15000000000E+04  0.10566000000E+00 0.  1.
        994   -1    0    0    0    0 -0.00000000000E+00 -0.00000000000E+00  0.11368683772E-12  0.17120000000E+03  0.17120000000E+03 0.  0.
         13    1    1    2    0    0  0.64278515346E+00  0.44853988312E+02  0.18470265667E+03  0.19007202842E+03  0.10566000000E+00 0.  1.
        994    1    1    2    0    0 -0.80166389784E+01 -0.70572894468E+01  0.64271311591E+01  0.17165319644E+03  0.17120000000E+03 0.  0.
        998    1    1    2    0    0  0.73738538249E+01 -0.37796698865E+02  0.13088702084E+04  0.13094747751E+04  0.10000000000E+02 0.  1.
</event>
<event>
 5    1  0.7732857E-009  0.3847612E+03  0.7957747E-01  0.3430686E+00
         13   -1    0    0    0    0  0.00000000000E+00  0.00000000000E+00  0.14999999963E+04  0.15000000000E+04  0.10566000000E+00 0. -1.
        994   -1    0    0    0    0 -0.00000000000E+00 -0.00000000000E+00  0.11368683772E-12  0.17120000000E+03  0.17120000000E+03 0.  0.
         13    1    1    2    0    0  0.93320749218E+01 -0.11746803762E+02  0.69519502041E+02  0.71119950429E+02  0.10566000000E+00 0. -1.
        994    1    1    2    0    0 -0.29264320490E+02 -0.24072787291E+02  0.64889472488E+01  0.17546351751E+03  0.17120000000E+03 0.  0.
        998    1    1    2    0    0  0.19932245568E+02  0.35819591053E+02  0.14239915470E+04  0.14246165321E+04  0.10000000000E+02 0. -1.
</event>
<event>
 5    1  0.7732857E-009  0.3779334E+03  0.7957747E-01  0.3460207E+00
         13   -1    0    0    0    0  0.00000000000E+00  0.00000000000E+00  0.14999999963E+04  0.15000000000E+04  0.10566000000E+00 0. -1.
        994   -1    0    0    0    0 -0.00000000000E+00 -0.00000000000E+00  0.11368683772E-12  0.17120000000E+03  0.17120000000E+03 0.  0.
         13    1    1    2    0    0 -0.47004482104E+02  0.54534586954E+02  0.35017917043E+03  0.35750371338E+03  0.10566000000E+00 0. -1.
        994    1    1    2    0    0  0.52386294786E+02 -0.61988143729E+02  0.27681441678E+02  0.19147468777E+03  0.17120000000E+03 0.  0.
        998    1    1    2    0    0 -0.53818126819E+01  0.74535567749E+01  0.11221393842E+04  0.11222215989E+04  0.10000000000E+02 0.  1.
</event>
<event>
 5    1  0.7732857E-009  0.3795100E+03  0.7957747E-01  0.3453295E+00
         13   -1    0    0    0    0  0.00000000000E+00  0.00000000000E+00  0.14999999963E+04  0.15000000000E+04  0.10566000000E+00 0.  1.
        994   -1    0    0    0    0 -0.00000000000E+00 -0.00000000000E+00  0.11368683772E-12  0.17120000000E+03  0.17120000000E+03 0.  0.
         13    1    1    2    0    0 -0.95031640971E+01  0.10036881817E+02  0.19807323241E+02  0.24153474750E+02  0.10566000000E+00 0.  1.
        994    1    1    2    0    0 -0.20821168864E+01 -0.19390909044E+02  0.56552471411E+01  0.17240001272E+03  0.17120000000E+03 0.  0.
        998    1    1    2    0    0  0.11585280983E+02  0.93540272269E+01  0.14745374259E+04  0.14746465125E+04  0.10000000000E+02 0.  1.
</event>
<event>
 5    1  0.7732857E-009  0.3837819E+03  0.7957747E-01  0.3434855E+00
         13   -1    0    0    0    0  0.00000000000E+00  0.00000000000E+00  0.14999999963E+04  0.15000000000E+04  0.10566000000E+00 0. -1.
        994   -1    0    0    0    0 -0.00000000000E+00 -0.00000000000E+00  0.11368683772E-12  0.17120000000E+03  0.17120000000E+03 0.  0.
         13    1    1    2    0    0 -0.11175320306E+02 -0.75996301466E+00  0.30311017905E+02  0.32314614313E+02  0.10566000000E+00 0. -1.
        994    1    1    2    0    0 -0.18735810263E+02  0.52104604719E+01  0.34857188366E+01  0.17233621129E+03  0.17120000000E+03 0.  0.
        998    1    1    2    0    0  0.29911130569E+02 -0.44504974572E+01  0.14662032595E+04  0.14665491744E+04  0.10000000000E+02 0. -1.
</event>
<event>
 5    1  0.7732857E-009  0.3845686E+03  0.7957747E-01  0.3431504E+00
         13   -1    0    0    0    0  0.00000000000E+00  0.00000000000E+00  0.14999999963E+04  0.15000000000E+04  0.10566000000E+00 0.  1.
        994   -1    0    0    0    0 -0.00000000000E+00 -0.00000000000E+00  0.11368683772E-12  0.17120000000E+03  0.17120000000E+03 0.  0.
         13    1    1    2    0    0  0.37211551844E+01  0.21336121483E+02  0.12707886310E+03  0.12891130938E+03  0.10566000000E+00 0.  1.
        994    1    1    2    0    0  0.11837791177E+00 -0.13543890724E+02  0.24488587031E+01  0.17175240289E+03  0.17120000000E+03 0.  0.
        998    1    1    2    0    0 -0.38395330961E+01 -0.77922307588E+01  0.13704722745E+04  0.13705362877E+04  0.10000000000E+02 0.  1.
</event>
<event>
 5    1  0.7732857E-009  0.3834267E+03  0.7957747E-01  0.3436372E+00
         13   -1    0    0    0    0  0.00000000000E+00  0.00000000000E+00  0.14999999963E+04  0.15000000000E+04  0.10566000000E+00 0.  1.
        994   -1    0    0    0    0 -0.00000000000E+00 -0.00000000000E+00  0.11368683772E-12  0.17120000000E+03  0.17120000000E+03 0.  0.
         13    1    1    2    0    0 -0.11655294996E+02 -0.43746048101E+01  0.31799061754E+02  0.34149298106E+02  0.10566000000E+00 0.  1.
        994    1    1    2    0    0  0.10129185900E+02 -0.13038179896E+02  0.33148718037E+01  0.17202622741E+03  0.17120000000E+03 0.  0.
        998    1    1    2    0    0  0.15261090967E+01  0.17412784706E+02  0.14648860627E+04  0.14650244745E+04  0.10000000000E+02 0.  1.
</event>
<event>
 5    1  0.7732857E-009  0.3778880E+03  0.7957747E-01  0.3460406E+00
         13   -1    0    0    0    0  0.00000000000E+00  0.00000000000E+00  0.14999999963E+04  0.15000000000E+04  0.10566000000E+00 0.  1.
        994   -1    0    0    0    0 -0.00000000000E+00 -0.00000000000E+00  0.11368683772E-12  0.17120000000E+03  0.17120000000E+03 0.  0.
         13    1    1    2    0    0  0.58389539966E+02 -0.30329248182E+02  0.38782141443E+03  0.39336327018E+03  0.10566000000E+00 0.  1.
        994    1    1    2    0    0 -0.49628635709E+02  0.22951109653E+01  0.13557744656E+02  0.17877785505E+03  0.17120000000E+03 0.  0.
        998    1    1    2    0    0 -0.87609042575E+01  0.28034137216E+02  0.10986208372E+04  0.10990588748E+04  0.10000000000E+02 0.  1.
</event>
<event>
 5    1  0.7732857E-009  0.3834455E+03  0.7957747E-01  0.3436292E+00
         13   -1    0    0    0    0  0.00000000000E+00  0.00000000000E+00  0.14999999963E+04  0.15000000000E+04  0.10566000000E+00 0.  1.
        994   -1    0    0    0    0 -0.00000000000E+00 -0.00000000000E+00  0.11368683772E-12  0.17120000000E+03  0.17120000000E+03 0.  0.
         13    1    1    2    0    0 -0.36591411649E+02  0.47704566246E+02  0.29124153808E+03  0.29738241662E+03  0.10566000000E+00 0.  1.
        994    1    1    2    0    0  0.72004373728E+02 -0.10795836893E+03  0.60210526335E+02  0.22310174078E+03  0.17120000000E+03 0.  0.
        998    1    1    2    0    0 -0.35412962079E+02  0.60253802684E+02  0.11485479319E+04  0.11507158426E+04  0.10000000000E+02 0.  1.
</event>
<event>
 5    1  0.7732857E-009  0.3684429E+03  0.7957747E-01  0.3503078E+00
         13   -1    0    0    0    0  0.00000000000E+00  0.00000000000E+00  0.14999999963E+04  0.15000000000E+04  0.10566000000E+00 0. -1.
        994   -1    0    0    0    0 -0.00000000000E+00 -0.00000000000E+00  0.11368683772E-12  0.17120000000E+03  0.17120000000E+03 0.  0.
         13    1    1    2    0    0 -0.83327677158E+01  0.69507294942E+01  0.10569855453E+01  0.10903028973E+02  0.10566000000E+00 0. -1.
        994    1    1    2    0    0  0.94353465395E+01 -0.93492434757E+01  0.10731503578E+02  0.17204952568E+03  0.17120000000E+03 0.  0.
        998    1    1    2    0    0 -0.11025788237E+01  0.23985139815E+01  0.14882115072E+04  0.14882474453E+04  0.10000000000E+02 0. -1.
</event>
<event>
 5    1  0.7732857E-009  0.3851469E+03  0.7957747E-01  0.3429049E+00
         13   -1    0    0    0    0  0.00000000000E+00  0.00000000000E+00  0.14999999963E+04  0.15000000000E+04  0.10566000000E+00 0. -1.
        994   -1    0    0    0    0 -0.00000000000E+00 -0.00000000000E+00  0.11368683772E-12  0.17120000000E+03  0.17120000000E+03 0.  0.
         13    1    1    2    0    0 -0.94919228330E+01 -0.13983236813E+02  0.96119569516E+02  0.97594110062E+02  0.10566000000E+00 0. -1.
        994    1    1    2    0    0  0.10870350960E+02 -0.93196744934E+00  0.19485740020E+01  0.17155835752E+03  0.17120000000E+03 0.  0.
        998    1    1    2    0    0 -0.13784281272E+01  0.14915204263E+02  0.14019318528E+04  0.14020475324E+04  0.10000000000E+02 0. -1.
</event>
<event>
 5    1  0.7732857E-009  0.3813520E+03  0.7957747E-01  0.3445293E+00
         13   -1    0    0    0    0  0.00000000000E+00  0.00000000000E+00  0.14999999963E+04  0.15000000000E+04  0.10566000000E+00 0.  1.
        994   -1    0    0    0    0 -0.00000000000E+00 -0.00000000000E+00  0.11368683772E-12  0.17120000000E+03  0.17120000000E+03 0.  0.
         13    1    1    2    0    0  0.17051259434E+02 -0.12477117238E+02  0.65773300481E+02  0.69083732695E+02  0.10566000000E+00 0.  1.
        994    1    1    2    0    0 -0.19567525052E+01  0.70059949377E+01  0.36283430137E+01  0.17139287534E+03  0.17120000000E+03 0.  0.
        998    1    1    2    0    0 -0.15094506928E+02  0.54711223005E+01  0.14305983528E+04  0.14307233920E+04  0.10000000000E+02 0.  1.
</event>
<event>
 5    1  0.7732857E-009  0.4017428E+03  0.7957747E-01  0.3361626E+00
         13   -1    0    0    0    0  0.00000000000E+00  0.00000000000E+00  0.14999999963E+04  0.15000000000E+04  0.10566000000E+00 0. -1.
        994   -1    0    0    0    0 -0.00000000000E+00 -0.00000000000E+00  0.11368683772E-12  0.17120000000E+03  0.17120000000E+03 0.  0.
         13    1    1    2    0    0  0.25834059792E+02 -0.38765244482E+02  0.30148360605E+02  0.55489437160E+02  0.10566000000E+00 0. -1.
        994    1    1    2    0    0 -0.27920782885E+02 -0.33125396031E+02  0.36259291282E+02  0.18028044315E+03  0.17120000000E+03 0.  0.
        998    1    1    2    0    0  0.20867230934E+01  0.71890640513E+02  0.14335923444E+04  0.14354301197E+04  0.10000000000E+02 0. -1.
</event>
<event>
 5    1  0.7732857E-009  0.3844426E+03  0.7957747E-01  0.3432040E+00
         13   -1    0    0    0    0  0.00000000000E+00  0.00000000000E+00  0.14999999963E+04  0.15000000000E+04  0.10566000000E+00 0.  1.
        994   -1    0    0    0    0 -0.00000000000E+00 -0.00000000000E+00  0.11368683772E-12  0.17120000000E+03  0.17120000000E+03 0.  0.
         13    1    1    2    0    0  0.65466074356E+01 -0.19386614709E+02  0.10161456458E+03  0.10365437665E+03  0.10566000000E+00 0.  1.
        994    1    1    2    0    0 -0.16664104954E+02  0.19005219434E+02  0.40148488301E+01  0.17310242566E+03  0.17120000000E+03 0.  0.
        998    1    1    2    0    0  0.10117497519E+02  0.38139527514E+00  0.13943705829E+04  0.13944431977E+04  0.10000000000E+02 0.  1.
</event>
<event>
 5    1  0.7732857E-009  0.3904132E+03  0.7957747E-01  0.3407034E+00
         13   -1    0    0    0    0  0.00000000000E+00  0.00000000000E+00  0.14999999963E+04  0.15000000000E+04  0.10566000000E+00 0.  1.
        994   -1    0    0    0    0 -0.00000000000E+00 -0.00000000000E+00  0.11368683772E-12  0.17120000000E+03  0.17120000000E+03 0.  0.
         13    1    1    2    0    0  0.83520514387E+02 -0.14705151784E+03  0.37736018708E+03  0.41352212417E+03  0.10566000000E+00 0.  1.
        994    1    1    2    0    0 -0.90091970761E+02  0.16748365513E+03  0.17559967975E+03  0.31034178813E+03  0.17120000000E+03 0.  0.
        998    1    1    2    0    0  0.65714563735E+01 -0.20432137284E+02  0.94704012945E+03  0.94733608770E+03  0.10000000000E+02 0.  1.
</event>
<event>
 5    1  0.7732857E-009  0.3746229E+03  0.7957747E-01  0.3474911E+00
         13   -1    0    0    0    0  0.00000000000E+00  0.00000000000E+00  0.14999999963E+04  0.15000000000E+04  0.10566000000E+00 0. -1.
        994   -1    0    0    0    0 -0.00000000000E+00 -0.00000000000E+00  0.11368683772E-12  0.17120000000E+03  0.17120000000E+03 0.  0.
         13    1    1    2    0    0 -0.41882107098E+02 -0.12584895112E+03  0.65780069514E+03  0.67103936925E+03  0.10566000000E+00 0. -1.
        994    1    1    2    0    0  0.17191539791E+02  0.13797944696E+03  0.75817542828E+02  0.23322010339E+03  0.17120000000E+03 0.  0.
        998    1    1    2    0    0  0.24690567307E+02 -0.12130495839E+02  0.76638175831E+03  0.76694052737E+03  0.10000000000E+02 0. -1.
</event>
<event>
 5    1  0.7732857E-009  0.3779095E+03  0.7957747E-01  0.3460312E+00
         13   -1    0    0    0    0  0.00000000000E+00  0.00000000000E+00  0.14999999963E+04  0.15000000000E+04  0.10566000000E+00 0. -1.
        994   -1    0    0    0    0 -0.00000000000E+00 -0.00000000000E+00  0.11368683772E-12  0.17120000000E+03  0.17120000000E+03 0.  0.
         13    1    1    2    0    0 -0.21614927063E+02  0.65001675738E+01  0.48239035515E+02  0.53258548252E+02  0.10566000000E+00 0. -1.
        994    1    1    2    0    0  0.22341689313E+01 -0.18626017179E+02  0.63776681613E+01  0.17234278249E+03  0.17120000000E+03 0.  0.
        998    1    1    2    0    0  0.19380758132E+02  0.12125849605E+02  0.14453832926E+04  0.14455986693E+04  0.10000000000E+02 0. -1.
</event>
<event>
 5    1  0.7732857E-009  0.3810357E+03  0.7957747E-01  0.3446661E+00
         13   -1    0    0    0    0  0.00000000000E+00  0.00000000000E+00  0.14999999963E+04  0.15000000000E+04  0.10566000000E+00 0.  1.
        994   -1    0    0    0    0 -0.00000000000E+00 -0.00000000000E+00  0.11368683772E-12  0.17120000000E+03  0.17120000000E+03 0.  0.
         13    1    1    2    0    0 -0.61185771155E+01 -0.94411394698E+01  0.16247254517E+02  0.19762503480E+02  0.10566000000E+00 0.  1.
        994    1    1    2    0    0  0.65476210973E+01 -0.13517823108E+01  0.37601965702E+01  0.17137175303E+03  0.17120000000E+03 0.  0.
        998    1    1    2    0    0 -0.42904398179E+00  0.10792921781E+02  0.14799925452E+04  0.14800657435E+04  0.10000000000E+02 0.  1.
</event>
<event>
 5    1  0.7732857E-009  0.3852240E+03  0.7957747E-01  0.3428723E+00
         13   -1    0    0    0    0  0.00000000000E+00  0.00000000000E+00  0.14999999963E+04  0.15000000000E+04  0.10566000000E+00 0.  1.
        994   -1    0    0    0    0 -0.00000000000E+00 -0.00000000000E+00  0.11368683772E-12  0.17120000000E+03  0.17120000000E+03 0.  0.
         13    1    1    2    0    0  0.15085638097E+02 -0.43518940198E+01  0.79738525070E+02  0.81269668405E+02  0.10566000000E+00 0.  1.
        994    1    1    2    0    0 -0.12500497705E+02  0.35077592494E+01  0.20731222385E+01  0.17170411950E+03  0.17120000000E+03 0.  0.
        998    1    1    2    0    0 -0.25851403915E+01  0.84413477037E+00  0.14181883490E+04  0.14182262121E+04  0.10000000000E+02 0.  1.
</event>
<event>
 5    1  0.7732857E-009  0.3844213E+03  0.7957747E-01  0.3432130E+00
         13   -1    0    0    0    0  0.00000000000E+00  0.00000000000E+00  0.14999999963E+04  0.15000000000E+04  0.10566000000E+00 0.  1.
        994   -1    0    0    0    0 -0.00000000000E+00 -0.00000000000E+00  0.11368683772E-12  0.17120000000E+03  0.17120000000E+03 0.  0.
         13    1    1    2    0    0  0.17695274222E+02  0.31598163137E+01  0.84657240138E+02  0.86544593365E+02  0.10566000000E+00 0.  1.
        994    1    1    2    0    0 -0.11882553912E+02  0.69845589484E+01  0.25439032190E+01  0.17177278770E+03  0.17120000000E+03 0.  0.
        998    1    1    2    0    0 -0.58127203105E+01 -0.10144375262E+02  0.14127988529E+04  0.14128826189E+04  0.10000000000E+02 0.  1.
</event>
<event>
 5    1  0.7732857E-009  0.3797093E+03  0.7957747E-01  0.3452425E+00
         13   -1    0    0    0    0  0.00000000000E+00  0.00000000000E+00  0.14999999963E+04  0.15000000000E+04  0.10566000000E+00 0.  1.
        994   -1    0    0    0    0 -0.00000000000E+00 -0.00000000000E+00  0.11368683772E-12  0.17120000000E+03  0.17120000000E+03 0.  0.
         13    1    1    2    0    0 -0.40935353054E+00  0.32507371614E+02  0.11745139029E+03  0.12186770296E+03  0.10566000000E+00 0.  1.
        994    1    1    2    0    0 -0.75138651176E+01 -0.26570862746E+02  0.68354829360E+01  0.17354720609E+03  0.17120000000E+03 0.  0.
        998    1    1    2    0    0  0.79232186481E+01 -0.59365088677E+01  0.13757131230E+04  0.13757850909E+04  0.10000000000E+02 0.  1.
</event>
<event>
 5    1  0.7732857E-009  0.3849170E+03  0.7957747E-01  0.3430024E+00
         13   -1    0    0    0    0  0.00000000000E+00  0.00000000000E+00  0.14999999963E+04  0.15000000000E+04  0.10566000000E+00 0. -1.
        994   -1    0    0    0    0 -0.00000000000E+00 -0.00000000000E+00  0.11368683772E-12  0.17120000000E+03  0.17120000000E+03 0.  0.
         13    1    1    2    0    0 -0.25754590435E+02 -0.28229396773E+01  0.94239151374E+01  0.27569716311E+02  0.10566000000E+00 0. -1.
        994    1    1    2    0    0  0.21898538181E+02  0.39291617391E+01  0.20883363750E+02  0.17389807120E+03  0.17120000000E+03 0.  0.
        998    1    1    2    0    0  0.38560522539E+01 -0.11062220617E+01  0.14696927174E+04  0.14697322125E+04  0.10000000000E+02 0. -1.
</event>
<event>
 5    1  0.7732857E-009  0.3845471E+03  0.7957747E-01  0.3431595E+00
         13   -1    0    0    0    0  0.00000000000E+00  0.00000000000E+00  0.14999999963E+04  0.15000000000E+04  0.10566000000E+00 0. -1.
        994   -1    0    0    0    0 -0.00000000000E+00 -0.00000000000E+00  0.11368683772E-12  0.17120000000E+03  0.17120000000E+03 0.  0.
         13    1    1    2    0    0 -0.13360032536E+02  0.38081464125E+01  0.50822178206E+02  0.52686785915E+02  0.10566000000E+00 0. -1.
        994    1    1    2    0    0  0.12167223196E+02 -0.36779290321E+01  0.23874833669E+01  0.17168782298E+03  0.17120000000E+03 0.  0.
        998    1    1    2    0    0  0.11928093403E+01 -0.13021738044E+00  0.14467903347E+04  0.14468253911E+04  0.10000000000E+02 0. -1.
</event>
<event>
 5    1  0.7732857E-009  0.3749330E+03  0.7957747E-01  0.3473522E+00
         13   -1    0    0    0    0  0.00000000000E+00  0.00000000000E+00  0.14999999963E+04  0.15000000000E+04  0.10566000000E+00 0. -1.
        994   -1    0    0    0    0 -0.00000000000E+00 -0.00000000000E+00  0.11368683772E-12  0.17120000000E+03  0.17120000000E+03 0.  0.
         13    1    1    2    0    0 -0.45442608911E+02 -0.41694938866E+02  0.15035278328E+03  0.16250990504E+03  0.10566000000E+00 0. -1.
        994    1    1    2    0    0  0.16063681833E+02  0.12828918267E+01  0.14495696228E+02  0.17256666218E+03  0.17120000000E+03 0.  0.
        998    1    1    2    0    0  0.29378927078E+02  0.40412047039E+02  0.13351515168E+04  0.13361234328E+04  0.10000000000E+02 0. -1.
</event>
<event>
 5    1  0.7755102E-009  0.3856491E+03  0.7957747E-01  0.3426924E+00
         13   -1    0    0    0    0  0.00000000000E+00  0.00000000000E+00  0.14999999963E+04  0.15000000000E+04  0.10566000000E+00 0. -1.
        994   -1    0    0    0    0 -0.00000000000E+00 -0.00000000000E+00  0.11368683772E-12  0.17120000000E+03  0.17120000000E+03 0.  0.
         13    1    1    2    0    0 -0.12135651593E+02 -0.76775973964E+01  0.78184446781E+02  0.79492379659E+02  0.10566000000E+00 0. -1.
        994    1    1    2    0    0  0.87463068477E+01  0.73706650334E+01  0.17376703750E+01  0.17159045453E+03  0.17120000000E+03 0.  0.
        998    1    1    2    0    0  0.33893447456E+01  0.30693236292E+00  0.14200778791E+04  0.14201171658E+04  0.10000000000E+02 0. -1.
</event>
<event>
 5    1  0.7732857E-009  0.3808781E+03  0.7957747E-01  0.3447344E+00
         13   -1    0    0    0    0  0.00000000000E+00  0.00000000000E+00  0.14999999963E+04  0.15000000000E+04  0.10566000000E+00 0.  1.
        994   -1    0    0    0    0 -0.00000000000E+00 -0.00000000000E+00  0.11368683772E-12  0.17120000000E+03  0.17120000000E+03 0.  0.
         13    1    1    2    0    0 -0.33070519281E+02 -0.25247329970E+02  0.19699638393E+03  0.20134217979E+03  0.10566000000E+00 0.  1.
        994    1    1    2    0    0  0.39606742812E+02  0.24864148210E+02  0.11014701696E+02  0.17781362039E+03  0.17120000000E+03 0.  0.
        998    1    1    2    0    0 -0.65362235303E+01  0.38318175981E+00  0.12919889107E+04  0.12920441998E+04  0.10000000000E+02 0.  1.
</event>
<event>
 5    1  0.7732857E-009  0.3704599E+03  0.7957747E-01  0.3493780E+00
         13   -1    0    0    0    0  0.00000000000E+00  0.00000000000E+00  0.14999999963E+04  0.15000000000E+04  0.10566000000E+00 0.  1.
        994   -1    0    0    0    0 -0.00000000000E+00 -0.00000000000E+00  0.11368683772E-12  0.17120000000E+03  0.17120000000E+03 0.  0.
         13    1    1    2    0    0 -0.17311803092E+01  0.18311838106E+02  0.14859239051E+02  0.23645899206E+02  0.10566000000E+00 0.  1.
        994    1    1    2    0    0  0.90621354953E+01 -0.10531034941E+02  0.96955114974E+01  0.17203624019E+03  0.17120000000E+03 0.  0.
        998    1    1    2    0    0 -0.73309551861E+01 -0.77808031651E+01  0.14754452457E+04  0.14755178606E+04  0.10000000000E+02 0.  1.
</event>
<event>
 5    1  0.7732857E-009  0.3834984E+03  0.7957747E-01  0.3436066E+00
         13   -1    0    0    0    0  0.00000000000E+00  0.00000000000E+00  0.14999999963E+04  0.15000000000E+04  0.10566000000E+00 0. -1.
        994   -1    0    0    0    0 -0.00000000000E+00 -0.00000000000E+00  0.11368683772E-12  0.17120000000E+03  0.17120000000E+03 0.  0.
         13    1    1    2    0    0  0.81396599350E+01 -0.17688054178E+02  0.88175445875E+02  0.90299732800E+02  0.10566000000E+00 0. -1.
        994    1    1    2    0    0 -0.27125887529E+01 -0.65009250091E+01  0.25414840636E+01  0.17136370475E+03  0.17120000000E+03 0.  0.
        998    1    1    2    0    0 -0.54270711822E+01  0.24188979188E+02  0.14092830663E+04  0.14095365625E+04  0.10000000000E+02 0. -1.
</event>
<event>
 5    1  0.7732857E-009  0.3803195E+03  0.7957747E-01  0.3449769E+00
         13   -1    0    0    0    0  0.00000000000E+00  0.00000000000E+00  0.14999999963E+04  0.15000000000E+04  0.10566000000E+00 0. -1.
        994   -1    0    0    0    0 -0.00000000000E+00 -0.00000000000E+00  0.11368683772E-12  0.17120000000E+03  0.17120000000E+03 0.  0.
         13    1    1    2    0    0  0.10598665878E+02 -0.26033888478E+02  0.10910116139E+03  0.11266396784E+03  0.10566000000E+00 0. -1.
        994    1    1    2    0    0 -0.14939925038E+02 -0.80384178412E+01  0.49336782881E+01  0.17210926385E+03  0.17120000000E+03 0.  0.
        998    1    1    2    0    0  0.43412591602E+01  0.34072306320E+02  0.13859651566E+04  0.13864267683E+04  0.10000000000E+02 0. -1.
</event>
<event>
 5    1  0.7732857E-009  0.3848847E+03  0.7957747E-01  0.3430161E+00
         13   -1    0    0    0    0  0.00000000000E+00  0.00000000000E+00  0.14999999963E+04  0.15000000000E+04  0.10566000000E+00 0. -1.
        994   -1    0    0    0    0 -0.00000000000E+00 -0.00000000000E+00  0.11368683772E-12  0.17120000000E+03  0.17120000000E+03 0.  0.
         13    1    1    2    0    0 -0.60827993841E+00  0.14003412854E+02  0.58947759991E+02  0.60591378496E+02  0.10566000000E+00 0. -1.
        994    1    1    2    0    0  0.18593985981E+02 -0.65482069798E+01  0.29669444554E+01  0.17235677558E+03  0.17120000000E+03 0.  0.
        998    1    1    2    0    0 -0.17985706043E+02 -0.74552058744E+01  0.14380852918E+04  0.14382518459E+04  0.10000000000E+02 0. -1.
</event>
<event>
 5    1  0.7732857E-009  0.3833412E+03  0.7957747E-01  0.3436738E+00
         13   -1    0    0    0    0  0.00000000000E+00  0.00000000000E+00  0.14999999963E+04  0.15000000000E+04  0.10566000000E+00 0.  1.
        994   -1    0    0    0    0 -0.00000000000E+00 -0.00000000000E+00  0.11368683772E-12  0.17120000000E+03  0.17120000000E+03 0.  0.
         13    1    1    2    0    0 -0.10101464920E+02  0.19987648408E+01  0.20535266790E+02  0.22972657674E+02  0.10566000000E+00 0.  1.
        994    1    1    2    0    0  0.11295903977E+02  0.62799535484E+01  0.30084438350E+01  0.17171349975E+03  0.17120000000E+03 0.  0.
        998    1    1    2    0    0 -0.11944390568E+01 -0.82787183892E+01  0.14764562857E+04  0.14765138426E+04  0.10000000000E+02 0.  1.
</event>
<event>
 5    1  0.7732857E-009  0.3737442E+03  0.7957747E-01  0.3478858E+00
         13   -1    0    0    0    0  0.00000000000E+00  0.00000000000E+00  0.14999999963E+04  0.15000000000E+04  0.10566000000E+00 0.  1.
        994   -1    0    0    0    0 -0.00000000000E+00 -0.00000000000E+00  0.11368683772E-12  0.17120000000E+03  0.17120000000E+03 0.  0.
         13    1    1    2    0    0 -0.68985244110E+01 -0.19615778415E+02  0.27017042823E+02  0.34092523650E+02  0.10566000000E+00 0.  1.
        994    1    1    2    0    0  0.29251764699E+01  0.55734032027E+01  0.74602844053E+01  0.17147803161E+03  0.17120000000E+03 0.  0.
        998    1    1    2    0    0  0.39733479412E+01  0.14042375212E+02  0.14655226691E+04  0.14656294447E+04  0.10000000000E+02 0.  1.
</event>
<event>
 5    1  0.7732857E-009  0.3704278E+03  0.7957747E-01  0.3493927E+00
         13   -1    0    0    0    0  0.00000000000E+00  0.00000000000E+00  0.14999999963E+04  0.15000000000E+04  0.10566000000E+00 0. -1.
        994   -1    0    0    0    0 -0.00000000000E+00 -0.00000000000E+00  0.11368683772E-12  0.17120000000E+03  0.17120000000E+03 0.  0.
         13    1    1    2    0    0  0.29390476284E+02 -0.65439752498E+02  0.21093543834E+03  0.22280020560E+03  0.10566000000E+00 0. -1.
        994    1    1    2    0    0 -0.26504299505E+02  0.50878625210E+02  0.22778669361E+02  0.18198741762E+03  0.17120000000E+03 0.  0.
        998    1    1    2    0    0 -0.28861767784E+01  0.14561127288E+02  0.12662858886E+04  0.12664123768E+04  0.10000000000E+02 0. -1.
</event>
<event>
 5    1  0.7732857E-009  0.3727908E+03  0.7957747E-01  0.3483162E+00
         13   -1    0    0    0    0  0.00000000000E+00  0.00000000000E+00  0.14999999963E+04  0.15000000000E+04  0.10566000000E+00 0.  1.
        994   -1    0    0    0    0 -0.00000000000E+00 -0.00000000000E+00  0.11368683772E-12  0.17120000000E+03  0.17120000000E+03 0.  0.
         13    1    1    2    0    0 -0.14986781008E+02 -0.76781973839E+02  0.31110770852E+03  0.32079291229E+03  0.10566000000E+00 0.  1.
        994    1    1    2    0    0  0.81425410326E+01  0.76575588249E+02  0.28407816312E+02  0.18985933140E+03  0.17120000000E+03 0.  0.
        998    1    1    2    0    0  0.68442399759E+01  0.20638559027E+00  0.11604844714E+04  0.11605477563E+04  0.10000000000E+02 0.  1.
</event>
<event>
 5    1  0.7732857E-009  0.3806262E+03  0.7957747E-01  0.3448436E+00
         13   -1    0    0    0    0  0.00000000000E+00  0.00000000000E+00  0.14999999963E+04  0.15000000000E+04  0.10566000000E+00 0.  1.
        994   -1    0    0    0    0 -0.00000000000E+00 -0.00000000000E+00  0.11368683772E-12  0.17120000000E+03  0.17120000000E+03 0.  0.
         13    1    1    2    0    0  0.16344599658E+02 -0.22202569985E+02  0.13347873743E+03  0.13629631162E+03  0.10566000000E+00 0.  1.
        994    1    1    2    0    0  0.84407882833E+01 -0.31413641207E+02  0.73551231937E+01  0.17441789357E+03  0.17120000000E+03 0.  0.
        998    1    1    2    0    0 -0.24785387941E+02  0.53616211192E+02  0.13591661357E+04  0.13604857948E+04  0.10000000000E+02 0.  1.
</event>
<event>
 5    1  0.7732857E-009  0.3753746E+03  0.7957747E-01  0.3471549E+00
         13   -1    0    0    0    0  0.00000000000E+00  0.00000000000E+00  0.14999999963E+04  0.15000000000E+04  0.10566000000E+00 0.  1.
        994   -1    0    0    0    0 -0.00000000000E+00 -0.00000000000E+00  0.11368683772E-12  0.17120000000E+03  0.17120000000E+03 0.  0.
         13    1    1    2    0    0 -0.22411470471E+02  0.73452524893E+02  0.34984644466E+03  0.35817606485E+03  0.10566000000E+00 0.  1.
        994    1    1    2    0    0  0.23753356824E+02 -0.71748401608E+02  0.26132242372E+02  0.18895605094E+03  0.17120000000E+03 0.  0.
        998    1    1    2    0    0 -0.13418863527E+01 -0.17041232849E+01  0.11240213092E+04  0.11240678842E+04  0.10000000000E+02 0.  0.
</event>
<event>
 5    1  0.8648189E-009  0.3854415E+03  0.7957747E-01  0.3427802E+00
         13   -1    0    0    0    0  0.00000000000E+00  0.00000000000E+00  0.14999999963E+04  0.15000000000E+04  0.10566000000E+00 0.  1.
        994   -1    0    0    0    0 -0.00000000000E+00 -0.00000000000E+00  0.11368683772E-12  0.17120000000E+03  0.17120000000E+03 0.  0.
         13    1    1    2    0    0 -0.11245382956E+02 -0.61263623963E+01  0.55884629490E+02  0.57333183509E+02  0.10566000000E+00 0.  1.
        994    1    1    2    0    0 -0.38731313448E+01  0.43350139865E+02  0.76565731857E+01  0.17681147838E+03  0.17120000000E+03 0.  0.
        998    1    1    2    0    0  0.15118514301E+02 -0.37223777468E+02  0.14364587936E+04  0.14370553381E+04  0.10000000000E+02 0.  1.
</event>
<event>
 5    1  0.7732857E-009  0.4094142E+03  0.7957747E-01  0.3332299E+00
         13   -1    0    0    0    0  0.00000000000E+00  0.00000000000E+00  0.14999999963E+04  0.15000000000E+04  0.10566000000E+00 0. -1.
        994   -1    0    0    0    0 -0.00000000000E+00 -0.00000000000E+00  0.11368683772E-12  0.17120000000E+03  0.17120000000E+03 0.  0.
         13    1    1    2    0    0 -0.52488997866E+02  0.80699166226E+02  0.11791412897E+03  0.15222090297E+03  0.10566000000E+00 0. -1.
        994    1    1    2    0    0  0.52226115743E+02 -0.82026756014E+02  0.73202974962E+02  0.21005730506E+03  0.17120000000E+03 0.  0.
        998    1    1    2    0    0  0.26288212291E+00  0.13275897881E+01  0.13088828923E+04  0.13089217920E+04  0.10000000000E+02 0.  0.
</event>
<event>
 5    1  0.7732857E-009  0.3820917E+03  0.7957747E-01  0.3442101E+00
         13   -1    0    0    0    0  0.00000000000E+00  0.00000000000E+00  0.14999999963E+04  0.15000000000E+04  0.10566000000E+00 0. -1.
        994   -1    0    0    0    0 -0.00000000000E+00 -0.00000000000E+00  0.11368683772E-12  0.17120000000E+03  0.17120000000E+03 0.  0.
         13    1    1    2    0    0 -0.30625934183E+02  0.28990197225E+01  0.16674780147E+03  0.16956176639E+03  0.10566000000E+00 0. -1.
        994    1    1    2    0    0  0.74256265180E+01  0.62238803689E+01  0.33927090883E+01  0.17150751322E+03  0.17120000000E+03 0.  0.
        998    1    1    2    0    0  0.23200307665E+02 -0.91229000913E+01  0.13298594857E+04  0.13301307204E+04  0.10000000000E+02 0. -1.
</event>
<event>
 5    1  0.7732857E-009  0.3838838E+03  0.7957747E-01  0.3434420E+00
         13   -1    0    0    0    0  0.00000000000E+00  0.00000000000E+00  0.14999999963E+04  0.15000000000E+04  0.10566000000E+00 0. -1.
        994   -1    0    0    0    0 -0.00000000000E+00 -0.00000000000E+00  0.11368683772E-12  0.17120000000E+03  0.17120000000E+03 0.  0.
         13    1    1    2    0    0 -0.31649290729E+02  0.14077147847E+03  0.82299970759E+03  0.83555180367E+03  0.10566000000E+00 0. -1.
        994    1    1    2    0    0  0.30563715803E+02 -0.17516156077E+03  0.11465013099E+03  0.27215768524E+03  0.17120000000E+03 0.  0.
        998    1    1    2    0    0  0.10855749259E+01  0.34390082302E+02  0.56235015769E+03  0.56349051109E+03  0.10000000000E+02 0. -1.
</event>
<event>
 5    1  0.7732857E-009  0.3804630E+03  0.7957747E-01  0.3449145E+00
         13   -1    0    0    0    0  0.00000000000E+00  0.00000000000E+00  0.14999999963E+04  0.15000000000E+04  0.10566000000E+00 0.  1.
        994   -1    0    0    0    0 -0.00000000000E+00 -0.00000000000E+00  0.11368683772E-12  0.17120000000E+03  0.17120000000E+03 0.  0.
         13    1    1    2    0    0  0.19236337916E+02 -0.13893795022E+03  0.76066960492E+03  0.77349340639E+03  0.10566000000E+00 0.  1.
        994    1    1    2    0    0 -0.65868821645E+02  0.16141061547E+03  0.11307345127E+03  0.26923434742E+03  0.17120000000E+03 0.  0.
        998    1    1    2    0    0  0.46632483729E+02 -0.22472665244E+02  0.62625694009E+03  0.62847224619E+03  0.10000000000E+02 0.  1.
</event>
<event>
 5    1  0.7732857E-009  0.3884269E+03  0.7957747E-01  0.3415267E+00
         13   -1    0    0    0    0  0.00000000000E+00  0.00000000000E+00  0.14999999963E+04  0.15000000000E+04  0.10566000000E+00 0. -1.
        994   -1    0    0    0    0 -0.00000000000E+00 -0.00000000000E+00  0.11368683772E-12  0.17120000000E+03  0.17120000000E+03 0.  0.
         13    1    1    2    0    0 -0.16191050184E+02  0.78591995000E+02  0.21394351859E+03  0.22849659099E+03  0.10566000000E+00 0. -1.
        994    1    1    2    0    0  0.12882853309E+02  0.43961886789E+02  0.28924620914E+02  0.17956806257E+03  0.17120000000E+03 0.  0.
        998    1    1    2    0    0  0.33081968749E+01 -0.12255388179E+03  0.12571318568E+04  0.12631353464E+04  0.10000000000E+02 0. -1.
</event>
<event>
 5    1  0.7732857E-009  0.3854564E+03  0.7957747E-01  0.3427739E+00
         13   -1    0    0    0    0  0.00000000000E+00  0.00000000000E+00  0.14999999963E+04  0.15000000000E+04  0.10566000000E+00 0.  1.
        994   -1    0    0    0    0 -0.00000000000E+00 -0.00000000000E+00  0.11368683772E-12  0.17120000000E+03  0.17120000000E+03 0.  0.
         13    1    1    2    0    0  0.64127304168E+01 -0.15167599086E+02  0.93137351264E+02  0.94582009589E+02  0.10566000000E+00 0.  1.
        994    1    1    2    0    0 -0.20410839740E+01  0.16174550835E+02  0.22769698331E+01  0.17198955407E+03  0.17120000000E+03 0.  0.
        998    1    1    2    0    0 -0.43716464428E+01 -0.10069517487E+01  0.14045856752E+04  0.14046284363E+04  0.10000000000E+02 0.  1.
</event>
<event>
 5    1  0.7732857E-009  0.3839628E+03  0.7957747E-01  0.3434083E+00
         13   -1    0    0    0    0  0.00000000000E+00  0.00000000000E+00  0.14999999963E+04  0.15000000000E+04  0.10566000000E+00 0.  1.
        994   -1    0    0    0    0 -0.00000000000E+00 -0.00000000000E+00  0.11368683772E-12  0.17120000000E+03  0.17120000000E+03 0.  0.
         13    1    1    2    0    0  0.61572451828E+01 -0.13481513505E+02  0.47429148644E+02  0.49691027155E+02  0.10566000000E+00 0.  1.
        994    1    1    2    0    0 -0.64365370810E+01  0.23235706060E+02  0.40665436785E+01  0.17293728292E+03  0.17120000000E+03 0.  0.
        998    1    1    2    0    0  0.27929189818E+00 -0.97541925544E+01  0.14485043040E+04  0.14485716899E+04  0.10000000000E+02 0.  1.
</event>
<event>
 5    1  0.7732857E-009  0.3928480E+03  0.7957747E-01  0.3397055E+00
         13   -1    0    0    0    0  0.00000000000E+00  0.00000000000E+00  0.14999999963E+04  0.15000000000E+04  0.10566000000E+00 0.  1.
        994   -1    0    0    0    0 -0.00000000000E+00 -0.00000000000E+00  0.11368683772E-12  0.17120000000E+03  0.17120000000E+03 0.  0.
         13    1    1    2    0    0  0.36493782612E+02  0.67429079859E+01  0.20800395636E+02  0.42543279141E+02  0.10566000000E+00 0.  1.
        994    1    1    2    0    0 -0.79678897765E+01 -0.16714323734E+02  0.24877301164E+02  0.17398613737E+03  0.17120000000E+03 0.  0.
        998    1    1    2    0    0 -0.28525892835E+02  0.99714157486E+01  0.14543222995E+04  0.14546705835E+04  0.10000000000E+02 0.  1.
</event>
<event>
 5    1  0.7732857E-009  0.3740471E+03  0.7957747E-01  0.3477496E+00
         13   -1    0    0    0    0  0.00000000000E+00  0.00000000000E+00  0.14999999963E+04  0.15000000000E+04  0.10566000000E+00 0. -1.
        994   -1    0    0    0    0 -0.00000000000E+00 -0.00000000000E+00  0.11368683772E-12  0.17120000000E+03  0.17120000000E+03 0.  0.
         13    1    1    2    0    0 -0.21982346154E+02  0.25417182447E+01  0.31306176503E+02  0.38337601977E+02  0.10566000000E+00 0. -1.
        994    1    1    2    0    0  0.15226101728E+02  0.98303406974E+01  0.82898051861E+01  0.17235611577E+03  0.17120000000E+03 0.  0.
        998    1    1    2    0    0  0.67562444265E+01 -0.12372058942E+02  0.14604040146E+04  0.14605062823E+04  0.10000000000E+02 0. -1.
</event>
<event>
 5    1  0.7732857E-009  0.3738385E+03  0.7957747E-01  0.3478434E+00
         13   -1    0    0    0    0  0.00000000000E+00  0.00000000000E+00  0.14999999963E+04  0.15000000000E+04  0.10566000000E+00 0. -1.
        994   -1    0    0    0    0 -0.00000000000E+00 -0.00000000000E+00  0.11368683772E-12  0.17120000000E+03  0.17120000000E+03 0.  0.
         13    1    1    2    0    0 -0.82239048576E+01  0.49166625689E+02  0.20946207440E+03  0.21531224180E+03  0.10566000000E+00 0. -1.
        994    1    1    2    0    0  0.10509436051E+02  0.84723182566E+01  0.78984970660E+01  0.17191292761E+03  0.17120000000E+03 0.  0.
        998    1    1    2    0    0 -0.22855311938E+01 -0.57638943946E+02  0.12826394248E+04  0.12839748306E+04  0.10000000000E+02 0. -1.
</event>
<event>
 5    1  0.7732857E-009  0.3828269E+03  0.7957747E-01  0.3438941E+00
         13   -1    0    0    0    0  0.00000000000E+00  0.00000000000E+00  0.14999999963E+04  0.15000000000E+04  0.10566000000E+00 0.  1.
        994   -1    0    0    0    0 -0.00000000000E+00 -0.00000000000E+00  0.11368683772E-12  0.17120000000E+03  0.17120000000E+03 0.  0.
         13    1    1    2    0    0 -0.80500021387E+01 -0.11106451645E+02  0.29981159534E+02  0.32970242547E+02  0.10566000000E+00 0.  1.
        994    1    1    2    0    0  0.21820376514E+02  0.36690622938E+02  0.87720104899E+01  0.17665989588E+03  0.17120000000E+03 0.  0.
        998    1    1    2    0    0 -0.13770374376E+02 -0.25584171294E+02  0.14612468263E+04  0.14615698616E+04  0.10000000000E+02 0.  1.
</event>
<event>
 5    1  0.7732857E-009  0.3799815E+03  0.7957747E-01  0.3451239E+00
         13   -1    0    0    0    0  0.00000000000E+00  0.00000000000E+00  0.14999999963E+04  0.15000000000E+04  0.10566000000E+00 0. -1.
        994   -1    0    0    0    0 -0.00000000000E+00 -0.00000000000E+00  0.11368683772E-12  0.17120000000E+03  0.17120000000E+03 0.  0.
         13    1    1    2    0    0 -0.18573072586E+02 -0.75697227782E+01  0.50783937167E+02  0.54601091257E+02  0.10566000000E+00 0. -1.
        994    1    1    2    0    0 -0.18603345011E+01 -0.14637587522E+02  0.48706897497E+01  0.17190370395E+03  0.17120000000E+03 0.  0.
        998    1    1    2    0    0  0.20433407087E+02  0.22207310301E+02  0.14443453694E+04  0.14446952048E+04  0.10000000000E+02 0. -1.
</event>
<event>
 5    1  0.7732857E-009  0.3849533E+03  0.7957747E-01  0.3429870E+00
         13   -1    0    0    0    0  0.00000000000E+00  0.00000000000E+00  0.14999999963E+04  0.15000000000E+04  0.10566000000E+00 0. -1.
        994   -1    0    0    0    0 -0.00000000000E+00 -0.00000000000E+00  0.11368683772E-12  0.17120000000E+03  0.17120000000E+03 0.  0.
         13    1    1    2    0    0 -0.15970820915E+02 -0.57913382602E+01  0.88709051537E+02  0.90321169767E+02  0.10566000000E+00 0. -1.
        994    1    1    2    0    0  0.90304972322E+01  0.91156514772E+00  0.19243556587E+01  0.17145122915E+03  0.17120000000E+03 0.  0.
        998    1    1    2    0    0  0.69403236828E+01  0.48797731125E+01  0.14093665891E+04  0.14094276011E+04  0.10000000000E+02 0. -1.
</event>
<event>
 5    1  0.7732857E-009  0.3820387E+03  0.7957747E-01  0.3442329E+00
         13   -1    0    0    0    0  0.00000000000E+00  0.00000000000E+00  0.14999999963E+04  0.15000000000E+04  0.10566000000E+00 0.  1.
        994   -1    0    0    0    0 -0.00000000000E+00 -0.00000000000E+00  0.11368683772E-12  0.17120000000E+03  0.17120000000E+03 0.  0.
         13    1    1    2    0    0 -0.10890677736E+02  0.10919011933E+01  0.17774697930E+02  0.20874629585E+02  0.10566000000E+00 0.  1.
        994    1    1    2    0    0  0.12670714616E+02 -0.16650105389E+01  0.36500454314E+01  0.17171511902E+03  0.17120000000E+03 0.  0.
        998    1    1    2    0    0 -0.17800368800E+01  0.57310934569E+00  0.14785752529E+04  0.14786102514E+04  0.10000000000E+02 0.  1.
</event>
<event>
 5    1  0.7732857E-009  0.3691386E+03  0.7957747E-01  0.3499859E+00
         13   -1    0    0    0    0  0.00000000000E+00  0.00000000000E+00  0.14999999963E+04  0.15000000000E+04  0.10566000000E+00 0.  1.
        994   -1    0    0    0    0 -0.00000000000E+00 -0.00000000000E+00  0.11368683772E-12  0.17120000000E+03  0.17120000000E+03 0.  0.
         13    1    1    2    0    0  0.28763292292E+02 -0.19752678710E+02  0.59797542029E+02  0.69233319265E+02  0.10566000000E+00 0.  1.
        994    1    1    2    0    0 -0.18068929310E+02  0.62689127724E+01  0.10989533404E+02  0.17261516538E+03  0.17120000000E+03 0.  0.
        998    1    1    2    0    0 -0.10694362982E+02  0.13483765938E+02  0.14292129208E+04  0.14293515154E+04  0.10000000000E+02 0.  1.
</event>
<event>
 5    1  0.7732857E-009  0.3739594E+03  0.7957747E-01  0.3477890E+00
         13   -1    0    0    0    0  0.00000000000E+00  0.00000000000E+00  0.14999999963E+04  0.15000000000E+04  0.10566000000E+00 0.  1.
        994   -1    0    0    0    0 -0.00000000000E+00 -0.00000000000E+00  0.11368683772E-12  0.17120000000E+03  0.17120000000E+03 0.  0.
         13    1    1    2    0    0  0.31975315268E+02  0.15321035096E+02  0.84112806146E+02  0.91280502982E+02  0.10566000000E+00 0.  1.
        994    1    1    2    0    0 -0.18759917721E+02 -0.15123189894E+02  0.91972848721E+01  0.17313195960E+03  0.17120000000E+03 0.  0.
        998    1    1    2    0    0 -0.13215397548E+02 -0.19784520144E+00  0.14066899053E+04  0.14067875374E+04  0.10000000000E+02 0.  1.
</event>
<event>
 5    1  0.7732857E-009  0.3861405E+03  0.7957747E-01  0.3424850E+00
         13   -1    0    0    0    0  0.00000000000E+00  0.00000000000E+00  0.14999999963E+04  0.15000000000E+04  0.10566000000E+00 0. -1.
        994   -1    0    0    0    0 -0.00000000000E+00 -0.00000000000E+00  0.11368683772E-12  0.17120000000E+03  0.17120000000E+03 0.  0.
         13    1    1    2    0    0  0.14686985981E+01  0.10206216768E+02  0.50563653262E+02  0.51604439068E+02  0.10566000000E+00 0. -1.
        994    1    1    2    0    0  0.37379604442E+00 -0.72738036688E+01  0.12387856521E+01  0.17135933746E+03  0.17120000000E+03 0.  0.
        998    1    1    2    0    0 -0.18424946426E+01 -0.29324130989E+01  0.14481975574E+04  0.14482362235E+04  0.10000000000E+02 0. -1.
</event>
<event>
 5    1  0.7732857E-009  0.3700260E+03  0.7957747E-01  0.3495771E+00
         13   -1    0    0    0    0  0.00000000000E+00  0.00000000000E+00  0.14999999963E+04  0.15000000000E+04  0.10566000000E+00 0.  1.
        994   -1    0    0    0    0 -0.00000000000E+00 -0.00000000000E+00  0.11368683772E-12  0.17120000000E+03  0.17120000000E+03 0.  0.
         13    1    1    2    0    0  0.65406446942E+02  0.60706649206E+02  0.39410774594E+03  0.40408443070E+03  0.10566000000E+00 0.  1.
        994    1    1    2    0    0 -0.10738785596E+03  0.36542794503E+02  0.57402811699E+02  0.21324176474E+03  0.17120000000E+03 0.  0.
        998    1    1    2    0    0  0.41981409018E+02 -0.97249443709E+02  0.10484894386E+04  0.10538738046E+04  0.10000000000E+02 0.  1.
</event>
<event>
 5    1  0.7732857E-009  0.3722863E+03  0.7957747E-01  0.3485449E+00
         13   -1    0    0    0    0  0.00000000000E+00  0.00000000000E+00  0.14999999963E+04  0.15000000000E+04  0.10566000000E+00 0. -1.
        994   -1    0    0    0    0 -0.00000000000E+00 -0.00000000000E+00  0.11368683772E-12  0.17120000000E+03  0.17120000000E+03 0.  0.
         13    1    1    2    0    0  0.16213228531E+02 -0.14870183017E+02  0.26421500318E+02  0.34381651582E+02  0.10566000000E+00 0. -1.
        994    1    1    2    0    0 -0.97686567197E+01  0.15704900165E+02  0.92532938922E+01  0.17244458238E+03  0.17120000000E+03 0.  0.
        998    1    1    2    0    0 -0.64445718117E+01 -0.83471714742E+00  0.14643252021E+04  0.14643737660E+04  0.10000000000E+02 0. -1.
</event>
<event>
 5    1  0.7732857E-009  0.3772250E+03  0.7957747E-01  0.3463331E+00
         13   -1    0    0    0    0  0.00000000000E+00  0.00000000000E+00  0.14999999963E+04  0.15000000000E+04  0.10566000000E+00 0. -1.
        994   -1    0    0    0    0 -0.00000000000E+00 -0.00000000000E+00  0.11368683772E-12  0.17120000000E+03  0.17120000000E+03 0.  0.
         13    1    1    2    0    0  0.25041869876E+02 -0.34797252590E+02  0.14608715581E+03  0.15224786465E+03  0.10566000000E+00 0. -1.
        994    1    1    2    0    0 -0.29158262807E+02  0.36355207689E+02  0.12903636599E+02  0.17789842398E+03  0.17120000000E+03 0.  0.
        998    1    1    2    0    0  0.41163929316E+01 -0.15579550999E+01  0.13410092039E+04  0.13410537114E+04  0.10000000000E+02 0. -1.
</event>
<event>
 5    1  0.7732857E-009  0.3842156E+03  0.7957747E-01  0.3433006E+00
         13   -1    0    0    0    0  0.00000000000E+00  0.00000000000E+00  0.14999999963E+04  0.15000000000E+04  0.10566000000E+00 0. -1.
        994   -1    0    0    0    0 -0.00000000000E+00 -0.00000000000E+00  0.11368683772E-12  0.17120000000E+03  0.17120000000E+03 0.  0.
         13    1    1    2    0    0  0.15326709190E+02  0.10282029672E+02  0.10132877895E+03  0.10299592592E+03  0.10566000000E+00 0. -1.
        994    1    1    2    0    0  0.91343574109E+00  0.22141699629E+02  0.36409119918E+01  0.17266668893E+03  0.17120000000E+03 0.  0.
        998    1    1    2    0    0 -0.16240144931E+02 -0.32423729301E+02  0.13950303053E+04  0.13955373851E+04  0.10000000000E+02 0. -1.
</event>
<event>
 5    1  0.7732857E-009  0.2248842E+03  0.7957747E-01  0.4640029E+00
         13   -1    0    0    0    0  0.00000000000E+00  0.00000000000E+00  0.14999999963E+04  0.15000000000E+04  0.10566000000E+00 0.  1.
        994   -1    0    0    0    0 -0.00000000000E+00 -0.00000000000E+00  0.11368683772E-12  0.17120000000E+03  0.17120000000E+03 0.  0.
         13    1    1    2    0    0 -0.12404888305E+03 -0.91414269606E+02  0.14926222857E+03  0.21453185804E+03  0.10566000000E+00 0.  1.
        994    1    1    2    0    0  0.97347338463E+02  0.90377477751E+02  0.16955714196E+03  0.27514297589E+03  0.17120000000E+03 0.  0.
        998    1    1    2    0    0  0.26701544583E+02  0.10367918550E+01  0.11811806257E+04  0.11815251661E+04  0.10000000000E+02 0.  1.
</event>
<event>
 5    1  0.7732857E-009  0.3834306E+03  0.7957747E-01  0.3436355E+00
         13   -1    0    0    0    0  0.00000000000E+00  0.00000000000E+00  0.14999999963E+04  0.15000000000E+04  0.10566000000E+00 0.  1.
        994   -1    0    0    0    0 -0.00000000000E+00 -0.00000000000E+00  0.11368683772E-12  0.17120000000E+03  0.17120000000E+03 0.  0.
         13    1    1    2    0    0  0.20623990976E+01 -0.11505136151E+02  0.25989983198E+02  0.28497579521E+02  0.10566000000E+00 0.  1.
        994    1    1    2    0    0 -0.84132477192E+01  0.23335419331E+02  0.44478854782E+01  0.17304493121E+03  0.17120000000E+03 0.  0.
        998    1    1    2    0    0  0.63508486215E+01 -0.11830283180E+02  0.14695621276E+04  0.14696574893E+04  0.10000000000E+02 0.  1.
</event>
<event>
 5    1  0.7732857E-009  0.3698032E+03  0.7957747E-01  0.3496796E+00
         13   -1    0    0    0    0  0.00000000000E+00  0.00000000000E+00  0.14999999963E+04  0.15000000000E+04  0.10566000000E+00 0. -1.
        994   -1    0    0    0    0 -0.00000000000E+00 -0.00000000000E+00  0.11368683772E-12  0.17120000000E+03  0.17120000000E+03 0.  0.
         13    1    1    2    0    0 -0.18202302586E+01  0.83144309382E+02  0.26876404240E+03  0.28133682850E+03  0.10566000000E+00 0. -1.
        994    1    1    2    0    0  0.24086834042E+01 -0.76733437744E+02  0.31719365749E+02  0.19028762542E+03  0.17120000000E+03 0.  0.
        998    1    1    2    0    0 -0.58845314557E+00 -0.64108716379E+01  0.11995165881E+04  0.11995755461E+04  0.10000000000E+02 0. -1.
</event>
<event>
 5    1  0.7732857E-009  0.3819344E+03  0.7957747E-01  0.3442779E+00
         13   -1    0    0    0    0  0.00000000000E+00  0.00000000000E+00  0.14999999963E+04  0.15000000000E+04  0.10566000000E+00 0.  1.
        994   -1    0    0    0    0 -0.00000000000E+00 -0.00000000000E+00  0.11368683772E-12  0.17120000000E+03  0.17120000000E+03 0.  0.
         13    1    1    2    0    0  0.10052584920E+03  0.17132566378E+03  0.11544070068E+04  0.11713724762E+04  0.10566000000E+00 0.  1.
        994    1    1    2    0    0 -0.95324711888E+02 -0.16968695408E+03  0.14130771003E+03  0.29522495151E+03  0.17120000000E+03 0.  0.
        998    1    1    2    0    0 -0.52011373135E+01 -0.16387096966E+01  0.20428527941E+03  0.20460257228E+03  0.10000000000E+02 0.  0.
</event>
<event>
 5    1  0.7732857E-009  0.3705053E+03  0.7957747E-01  0.3493572E+00
         13   -1    0    0    0    0  0.00000000000E+00  0.00000000000E+00  0.14999999963E+04  0.15000000000E+04  0.10566000000E+00 0. -1.
        994   -1    0    0    0    0 -0.00000000000E+00 -0.00000000000E+00  0.11368683772E-12  0.17120000000E+03  0.17120000000E+03 0.  0.
         13    1    1    2    0    0 -0.27111521010E+02 -0.36187262569E+02  0.83780712220E+02  0.95203841560E+02  0.10566000000E+00 0. -1.
        994    1    1    2    0    0  0.23767123186E+02  0.34182557537E+02  0.17301298041E+02  0.17703699698E+03  0.17120000000E+03 0.  0.
        998    1    1    2    0    0  0.33443978238E+01  0.20047050326E+01  0.13989179860E+04  0.13989591615E+04  0.10000000000E+02 0. -1.
</event>
<event>
 5    1  0.7732857E-009  0.3796042E+03  0.7957747E-01  0.3452884E+00
         13   -1    0    0    0    0  0.00000000000E+00  0.00000000000E+00  0.14999999963E+04  0.15000000000E+04  0.10566000000E+00 0.  1.
        994   -1    0    0    0    0 -0.00000000000E+00 -0.00000000000E+00  0.11368683772E-12  0.17120000000E+03  0.17120000000E+03 0.  0.
         13    1    1    2    0    0  0.16366295749E+02  0.56577880818E+02  0.31558893116E+03  0.32103784336E+03  0.10566000000E+00 0.  1.
        994    1    1    2    0    0 -0.28735542281E+02 -0.53704051843E+02  0.16852733256E+02  0.18249194830E+03  0.17120000000E+03 0.  0.
        998    1    1    2    0    0  0.12369246532E+02 -0.28738289746E+01  0.11675583319E+04  0.11676702083E+04  0.10000000000E+02 0.  1.
</event>
<event>
 5    1  0.1035302E-008  0.3856791E+03  0.7957747E-01  0.3426797E+00
         13   -1    0    0    0    0  0.00000000000E+00  0.00000000000E+00  0.14999999963E+04  0.15000000000E+04  0.10566000000E+00 0.  1.
        994   -1    0    0    0    0 -0.00000000000E+00 -0.00000000000E+00  0.11368683772E-12  0.17120000000E+03  0.17120000000E+03 0.  0.
         13    1    1    2    0    0  0.11098591459E+02 -0.13702165350E+01  0.47361211178E+02  0.48663659069E+02  0.10566000000E+00 0.  1.
        994    1    1    2    0    0 -0.11636909706E+02  0.40233262906E+01  0.17909755809E+01  0.17165154359E+03  0.17120000000E+03 0.  0.
        998    1    1    2    0    0  0.53831824762E+00 -0.26531097556E+01  0.14508478095E+04  0.14508847973E+04  0.10000000000E+02 0.  1.
</event>
<event>
 5    1  0.7732857E-009  0.3827085E+03  0.7957747E-01  0.3439449E+00
         13   -1    0    0    0    0  0.00000000000E+00  0.00000000000E+00  0.14999999963E+04  0.15000000000E+04  0.10566000000E+00 0. -1.
        994   -1    0    0    0    0 -0.00000000000E+00 -0.00000000000E+00  0.11368683772E-12  0.17120000000E+03  0.17120000000E+03 0.  0.
         13    1    1    2    0    0 -0.10825799487E+02  0.89233183811E+01  0.33717267113E+02  0.36519704422E+02  0.10566000000E+00 0. -1.
        994    1    1    2    0    0  0.13924626397E+02 -0.84829441763E+01  0.36534647371E+01  0.17201349763E+03  0.17120000000E+03 0.  0.
        998    1    1    2    0    0 -0.30988269092E+01 -0.44037420474E+00  0.14626292644E+04  0.14626667979E+04  0.10000000000E+02 0. -1.
</event>
<event>
 5    1  0.7732857E-009  0.3800350E+03  0.7957747E-01  0.3451006E+00
         13   -1    0    0    0    0  0.00000000000E+00  0.00000000000E+00  0.14999999963E+04  0.15000000000E+04  0.10566000000E+00 0.  1.
        994   -1    0    0    0    0 -0.00000000000E+00 -0.00000000000E+00  0.11368683772E-12  0.17120000000E+03  0.17120000000E+03 0.  0.
         13    1    1    2    0    0 -0.21086163914E+02 -0.54205886430E+02  0.27897395009E+03  0.28497259592E+03  0.10566000000E+00 0.  1.
        994    1    1    2    0    0  0.14127168094E+02  0.79426393593E+02  0.26185058936E+02  0.19105817488E+03  0.17120000000E+03 0.  0.
        998    1    1    2    0    0  0.69589958199E+01 -0.25220507163E+02  0.11948409873E+04  0.11951692292E+04  0.10000000000E+02 0.  1.
</event>
<event>
 5    1  0.7732857E-009  0.3823570E+03  0.7957747E-01  0.3440959E+00
         13   -1    0    0    0    0  0.00000000000E+00  0.00000000000E+00  0.14999999963E+04  0.15000000000E+04  0.10566000000E+00 0. -1.
        994   -1    0    0    0    0 -0.00000000000E+00 -0.00000000000E+00  0.11368683772E-12  0.17120000000E+03  0.17120000000E+03 0.  0.
         13    1    1    2    0    0  0.29472200326E+02  0.48067135225E+01  0.14671494069E+03  0.14972307796E+03  0.10566000000E+00 0. -1.
        994    1    1    2    0    0 -0.19595977384E+02 -0.11393459913E+02  0.46542627176E+01  0.17275681005E+03  0.17120000000E+03 0.  0.
        998    1    1    2    0    0 -0.98762229421E+01  0.65867463900E+01  0.13486307929E+04  0.13487201120E+04  0.10000000000E+02 0. -1.
</event>
<event>
 5    1  0.7732857E-009  0.3833819E+03  0.7957747E-01  0.3436564E+00
         13   -1    0    0    0    0  0.00000000000E+00  0.00000000000E+00  0.14999999963E+04  0.15000000000E+04  0.10566000000E+00 0.  1.
        994   -1    0    0    0    0 -0.00000000000E+00 -0.00000000000E+00  0.11368683772E-12  0.17120000000E+03  0.17120000000E+03 0.  0.
         13    1    1    2    0    0 -0.16981308645E+02  0.11633173887E+02  0.88810361260E+02  0.91164614896E+02  0.10566000000E+00 0.  1.
        994    1    1    2    0    0  0.39162304819E+01 -0.92346408126E+01  0.27683322221E+01  0.17151594420E+03  0.17120000000E+03 0.  0.
        998    1    1    2    0    0  0.13065078163E+02 -0.23985330747E+01  0.14084213028E+04  0.14085194409E+04  0.10000000000E+02 0.  1.
</event>
<event>
 5    1  0.7732857E-009  0.3714346E+03  0.7957747E-01  0.3489324E+00
         13   -1    0    0    0    0  0.00000000000E+00  0.00000000000E+00  0.14999999963E+04  0.15000000000E+04  0.10566000000E+00 0.  1.
        994   -1    0    0    0    0 -0.00000000000E+00 -0.00000000000E+00  0.11368683772E-12  0.17120000000E+03  0.17120000000E+03 0.  0.
         13    1    1    2    0    0  0.38009277150E+01  0.27528257244E+02  0.42938013176E+02  0.51146223105E+02  0.10566000000E+00 0.  1.
        994    1    1    2    0    0  0.31393348491E+02 -0.14418135820E+02  0.12638365129E+02  0.17510737632E+03  0.17120000000E+03 0.  0.
        998    1    1    2    0    0 -0.35194276206E+02 -0.13110121424E+02  0.14444236180E+04  0.14449464006E+04  0.10000000000E+02 0.  1.
</event>
<event>
 5    1  0.7732857E-009  0.3852039E+03  0.7957747E-01  0.3428808E+00
         13   -1    0    0    0    0  0.00000000000E+00  0.00000000000E+00  0.14999999963E+04  0.15000000000E+04  0.10566000000E+00 0.  1.
        994   -1    0    0    0    0 -0.00000000000E+00 -0.00000000000E+00  0.11368683772E-12  0.17120000000E+03  0.17120000000E+03 0.  0.
         13    1    1    2    0    0 -0.16265872788E+02  0.72920898400E+01  0.96853334583E+02  0.98480113605E+02  0.10566000000E+00 0.  1.
        994    1    1    2    0    0  0.18070721982E+02 -0.10086772107E+02  0.29377799087E+01  0.17247134404E+03  0.17120000000E+03 0.  0.
        998    1    1    2    0    0 -0.18048491943E+01  0.27946822667E+01  0.14002088818E+04  0.14002485424E+04  0.10000000000E+02 0.  1.
</event>
<event>
 5    1  0.7732857E-009  0.3795361E+03  0.7957747E-01  0.3453181E+00
         13   -1    0    0    0    0  0.00000000000E+00  0.00000000000E+00  0.14999999963E+04  0.15000000000E+04  0.10566000000E+00 0. -1.
        994   -1    0    0    0    0 -0.00000000000E+00 -0.00000000000E+00  0.11368683772E-12  0.17120000000E+03  0.17120000000E+03 0.  0.
         13    1    1    2    0    0 -0.88562205575E+01 -0.37468117172E+02  0.19277052097E+03  0.19657766243E+03  0.10566000000E+00 0. -1.
        994    1    1    2    0    0 -0.35641675683E+01  0.44532138354E+01  0.44764357141E+01  0.17135347350E+03  0.17120000000E+03 0.  0.
        998    1    1    2    0    0  0.12420388126E+02  0.33014903336E+02  0.13027530396E+04  0.13032688641E+04  0.10000000000E+02 0. -1.
</event>
<event>
 5    1  0.7732857E-009  0.3814156E+03  0.7957747E-01  0.3445018E+00
         13   -1    0    0    0    0  0.00000000000E+00  0.00000000000E+00  0.14999999963E+04  0.15000000000E+04  0.10566000000E+00 0. -1.
        994   -1    0    0    0    0 -0.00000000000E+00 -0.00000000000E+00  0.11368683772E-12  0.17120000000E+03  0.17120000000E+03 0.  0.
         13    1    1    2    0    0 -0.19268733589E+02 -0.16652538116E+02  0.10541205669E+03  0.10844493524E+03  0.10566000000E+00 0. -1.
        994    1    1    2    0    0 -0.97814432464E+01  0.44664379311E+01  0.38051103585E+01  0.17157955754E+03  0.17120000000E+03 0.  0.
        998    1    1    2    0    0  0.29050176836E+02  0.12186100185E+02  0.13907828292E+04  0.13911755072E+04  0.10000000000E+02 0. -1.
</event>
<event>
 5    1  0.7732857E-009  0.3804672E+03  0.7957747E-01  0.3449127E+00
         13   -1    0    0    0    0  0.00000000000E+00  0.00000000000E+00  0.14999999963E+04  0.15000000000E+04  0.10566000000E+00 0.  1.
        994   -1    0    0    0    0 -0.00000000000E+00 -0.00000000000E+00  0.11368683772E-12  0.17120000000E+03  0.17120000000E+03 0.  0.
         13    1    1    2    0    0 -0.10270120390E+02  0.17935665380E+00  0.11734285468E+02  0.15595260854E+02  0.10566000000E+00 0.  1.
        994    1    1    2    0    0  0.11145400825E+02  0.89522008020E+01  0.45798799212E+01  0.17185685078E+03  0.17120000000E+03 0.  0.
        998    1    1    2    0    0 -0.87528043487E+00 -0.91315574558E+01  0.14836858309E+04  0.14837478884E+04  0.10000000000E+02 0.  1.
</event>
<event>
 5    1  0.7732857E-009  0.3781843E+03  0.7957747E-01  0.3459103E+00
         13   -1    0    0    0    0  0.00000000000E+00  0.00000000000E+00  0.14999999963E+04  0.15000000000E+04  0.10566000000E+00 0.  1.
        994   -1    0    0    0    0 -0.00000000000E+00 -0.00000000000E+00  0.11368683772E-12  0.17120000000E+03  0.17120000000E+03 0.  0.
         13    1    1    2    0    0 -0.30668467989E+02  0.41804663291E+02  0.24560152646E+03  0.25101455290E+03  0.10566000000E+00 0.  1.
        994    1    1    2    0    0  0.18187775469E+02 -0.35626705628E+02  0.10452580978E+02  0.17612141772E+03  0.17120000000E+03 0.  0.
        998    1    1    2    0    0  0.12480692520E+02 -0.61779576622E+01  0.12439458888E+04  0.12440640294E+04  0.10000000000E+02 0.  1.
</event>
<event>
 5    1  0.7732857E-009  0.3811864E+03  0.7957747E-01  0.3446009E+00
         13   -1    0    0    0    0  0.00000000000E+00  0.00000000000E+00  0.14999999963E+04  0.15000000000E+04  0.10566000000E+00 0.  1.
        994   -1    0    0    0    0 -0.00000000000E+00 -0.00000000000E+00  0.11368683772E-12  0.17120000000E+03  0.17120000000E+03 0.  0.
         13    1    1    2    0    0  0.20142500388E+02 -0.16641895212E+02  0.14108375969E+03  0.14348279134E+03  0.10566000000E+00 0.  1.
        994    1    1    2    0    0  0.10745475300E+02 -0.47284085785E+02  0.11404751998E+02  0.17829963089E+03  0.17120000000E+03 0.  0.
        998    1    1    2    0    0 -0.30887975689E+02  0.63925980997E+02  0.13475114846E+04  0.13494175778E+04  0.10000000000E+02 0.  1.
</event>
<event>
 5    1  0.7732857E-009  0.3803473E+03  0.7957747E-01  0.3449647E+00
         13   -1    0    0    0    0  0.00000000000E+00  0.00000000000E+00  0.14999999963E+04  0.15000000000E+04  0.10566000000E+00 0. -1.
        994   -1    0    0    0    0 -0.00000000000E+00 -0.00000000000E+00  0.11368683772E-12  0.17120000000E+03  0.17120000000E+03 0.  0.
         13    1    1    2    0    0  0.95862246642E+01 -0.12528188553E+02  0.30424263835E+02  0.34270952798E+02  0.10566000000E+00 0. -1.
        994    1    1    2    0    0  0.12185708117E+00  0.63511594283E+01  0.40926638558E+01  0.17136668863E+03  0.17120000000E+03 0.  0.
        998    1    1    2    0    0 -0.97080817453E+01  0.61770291251E+01  0.14654830686E+04  0.14655623586E+04  0.10000000000E+02 0. -1.
</event>
<event>
 5    1  0.7732857E-009  0.3845645E+03  0.7957747E-01  0.3431521E+00
         13   -1    0    0    0    0  0.00000000000E+00  0.00000000000E+00  0.14999999963E+04  0.15000000000E+04  0.10566000000E+00 0.  1.
        994   -1    0    0    0    0 -0.00000000000E+00 -0.00000000000E+00  0.11368683772E-12  0.17120000000E+03  0.17120000000E+03 0.  0.
         13    1    1    2    0    0  0.33225685695E+01  0.21554035552E+02  0.12993251165E+03  0.13175008409E+03  0.10566000000E+00 0.  1.
        994    1    1    2    0    0 -0.33139417347E+01 -0.11909149085E+02  0.23499271242E+01  0.17166179598E+03  0.17120000000E+03 0.  0.
        998    1    1    2    0    0 -0.86268348466E-02 -0.96448864671E+01  0.13677175575E+04  0.13677881199E+04  0.10000000000E+02 0.  1.
</event>
<event>
 5    1  0.7732857E-009  0.3745816E+03  0.7957747E-01  0.3475096E+00
         13   -1    0    0    0    0  0.00000000000E+00  0.00000000000E+00  0.14999999963E+04  0.15000000000E+04  0.10566000000E+00 0. -1.
        994   -1    0    0    0    0 -0.00000000000E+00 -0.00000000000E+00  0.11368683772E-12  0.17120000000E+03  0.17120000000E+03 0.  0.
         13    1    1    2    0    0 -0.10069047505E+03  0.27149224000E+02  0.56911584724E+03  0.57859183444E+03  0.10566000000E+00 0. -1.
        994    1    1    2    0    0  0.10619005342E+03  0.23350219713E+02  0.48264977317E+02  0.20847184041E+03  0.17120000000E+03 0.  0.
        998    1    1    2    0    0 -0.54995783681E+01 -0.50499443713E+02  0.88261917172E+03  0.88413632516E+03  0.10000000000E+02 0. -1.
</event>
<event>
 5    1  0.7732857E-009  0.3791477E+03  0.7957747E-01  0.3454878E+00
         13   -1    0    0    0    0  0.00000000000E+00  0.00000000000E+00  0.14999999963E+04  0.15000000000E+04  0.10566000000E+00 0. -1.
        994   -1    0    0    0    0 -0.00000000000E+00 -0.00000000000E+00  0.11368683772E-12  0.17120000000E+03  0.17120000000E+03 0.  0.
         13    1    1    2    0    0 -0.62433646541E+01 -0.69265201294E+02  0.36153612382E+03  0.36816440309E+03  0.10566000000E+00 0. -1.
        994    1    1    2    0    0 -0.29530707088E+01  0.80584390135E+02  0.26681133824E+02  0.19111223787E+03  0.17120000000E+03 0.  0.
        998    1    1    2    0    0  0.91964353629E+01 -0.11319188842E+02  0.11117827386E+04  0.11119233590E+04  0.10000000000E+02 0. -1.
</event>
<event>
 5    1  0.7732857E-009  0.3822698E+03  0.7957747E-01  0.3441335E+00
         13   -1    0    0    0    0  0.00000000000E+00  0.00000000000E+00  0.14999999963E+04  0.15000000000E+04  0.10566000000E+00 0. -1.
        994   -1    0    0    0    0 -0.00000000000E+00 -0.00000000000E+00  0.11368683772E-12  0.17120000000E+03  0.17120000000E+03 0.  0.
         13    1    1    2    0    0 -0.19604273822E+02 -0.82253608515E+02  0.47129500562E+03  0.47882040177E+03  0.10566000000E+00 0. -1.
        994    1    1    2    0    0 -0.16681397858E+02  0.13924138563E+03  0.71249790552E+02  0.23249173138E+03  0.17120000000E+03 0.  0.
        998    1    1    2    0    0  0.36285671680E+02 -0.56987777116E+02  0.95745520011E+03  0.95988786685E+03  0.10000000000E+02 0. -1.
</event>
<event>
 5    1  0.7732857E-009  0.3831400E+03  0.7957747E-01  0.3437599E+00
         13   -1    0    0    0    0  0.00000000000E+00  0.00000000000E+00  0.14999999963E+04  0.15000000000E+04  0.10566000000E+00 0. -1.
        994   -1    0    0    0    0 -0.00000000000E+00 -0.00000000000E+00  0.11368683772E-12  0.17120000000E+03  0.17120000000E+03 0.  0.
         13    1    1    2    0    0  0.17964285098E+02  0.11406339817E+02  0.81817331706E+02  0.84539381703E+02  0.10566000000E+00 0. -1.
        994    1    1    2    0    0 -0.15589438114E+02 -0.24019074712E+02  0.52740127690E+01  0.17365829016E+03  0.17120000000E+03 0.  0.
        998    1    1    2    0    0 -0.23748469842E+01  0.12612734895E+02  0.14129086518E+04  0.14130023281E+04  0.10000000000E+02 0. -1.
</event>
<event>
 5    1  0.7732857E-009  0.3809228E+03  0.7957747E-01  0.3447150E+00
         13   -1    0    0    0    0  0.00000000000E+00  0.00000000000E+00  0.14999999963E+04  0.15000000000E+04  0.10566000000E+00 0.  1.
        994   -1    0    0    0    0 -0.00000000000E+00 -0.00000000000E+00  0.11368683772E-12  0.17120000000E+03  0.17120000000E+03 0.  0.
         13    1    1    2    0    0 -0.19765645717E+02 -0.90068240739E+01  0.62278382064E+02  0.65957650558E+02  0.10566000000E+00 0.  1.
        994    1    1    2    0    0  0.14250959952E+02  0.88312325653E+01  0.46053655230E+01  0.17208059135E+03  0.17120000000E+03 0.  0.
        998    1    1    2    0    0  0.55146857649E+01  0.17559150864E+00  0.14331162487E+04  0.14331617581E+04  0.10000000000E+02 0.  1.
</event>
<event>
 5    1  0.7732857E-009  0.3794462E+03  0.7957747E-01  0.3453573E+00
         13   -1    0    0    0    0  0.00000000000E+00  0.00000000000E+00  0.14999999963E+04  0.15000000000E+04  0.10566000000E+00 0. -1.
        994   -1    0    0    0    0 -0.00000000000E+00 -0.00000000000E+00  0.11368683772E-12  0.17120000000E+03  0.17120000000E+03 0.  0.
         13    1    1    2    0    0 -0.19730713743E+02 -0.35726024183E+01  0.44758904591E+02  0.49045236844E+02  0.10566000000E+00 0. -1.
        994    1    1    2    0    0  0.84217206919E+01 -0.45081784347E+01  0.47185940909E+01  0.17153120469E+03  0.17120000000E+03 0.  0.
        998    1    1    2    0    0  0.11308993051E+02  0.80807808530E+01  0.14505224976E+04  0.14506235585E+04  0.10000000000E+02 0. -1.
</event>
<event>
 5    1  0.7732857E-009  0.3825714E+03  0.7957747E-01  0.3440038E+00
         13   -1    0    0    0    0  0.00000000000E+00  0.00000000000E+00  0.14999999963E+04  0.15000000000E+04  0.10566000000E+00 0. -1.
        994   -1    0    0    0    0 -0.00000000000E+00 -0.00000000000E+00  0.11368683772E-12  0.17120000000E+03  0.17120000000E+03 0.  0.
         13    1    1    2    0    0 -0.32383671713E+02  0.17668850036E+01  0.17197053954E+03  0.17500200487E+03  0.10566000000E+00 0. -1.
        994    1    1    2    0    0  0.27281084431E+02 -0.10661774490E+02  0.56897690165E+01  0.17378073678E+03  0.17120000000E+03 0.  0.
        998    1    1    2    0    0  0.51025872820E+01  0.88948894862E+01  0.13223396877E+04  0.13224172584E+04  0.10000000000E+02 0. -1.
</event>
<event>
 5    1  0.7732857E-009  0.3840542E+03  0.7957747E-01  0.3433693E+00
         13   -1    0    0    0    0  0.00000000000E+00  0.00000000000E+00  0.14999999963E+04  0.15000000000E+04  0.10566000000E+00 0.  1.
        994   -1    0    0    0    0 -0.00000000000E+00 -0.00000000000E+00  0.11368683772E-12  0.17120000000E+03  0.17120000000E+03 0.  0.
         13    1    1    2    0    0 -0.83186535795E+02 -0.18886223342E+03  0.10568414313E+04  0.10768021011E+04  0.10566000000E+00 0.  1.
        994    1    1    2    0    0  0.99872937355E+02  0.19747231467E+03  0.18511779230E+03  0.33548167715E+03  0.17120000000E+03 0.  0.
        998    1    1    2    0    0 -0.16686401560E+02 -0.86100812494E+01  0.25804077271E+03  0.25891622174E+03  0.10000000000E+02 0.  1.
</event>
<event>
 5    1  0.7732857E-009  0.3724560E+03  0.7957747E-01  0.3484679E+00
         13   -1    0    0    0    0  0.00000000000E+00  0.00000000000E+00  0.14999999963E+04  0.15000000000E+04  0.10566000000E+00 0. -1.
        994   -1    0    0    0    0 -0.00000000000E+00 -0.00000000000E+00  0.11368683772E-12  0.17120000000E+03  0.17120000000E+03 0.  0.
         13    1    1    2    0    0 -0.10038658958E+02  0.15601610596E+01  0.27838411540E+01  0.10534216241E+02  0.10566000000E+00 0. -1.
        994    1    1    2    0    0 -0.77867365312E-01 -0.11817366624E+02  0.84699471174E+01  0.17181628625E+03  0.17120000000E+03 0.  0.
        998    1    1    2    0    0  0.10116526323E+02  0.10257205564E+02  0.14887462080E+04  0.14888494975E+04  0.10000000000E+02 0. -1.
</event>
<event>
 5    1  0.7732857E-009  0.3847293E+03  0.7957747E-01  0.3430821E+00
         13   -1    0    0    0    0  0.00000000000E+00  0.00000000000E+00  0.14999999963E+04  0.15000000000E+04  0.10566000000E+00 0. -1.
        994   -1    0    0    0    0 -0.00000000000E+00 -0.00000000000E+00  0.11368683772E-12  0.17120000000E+03  0.17120000000E+03 0.  0.
         13    1    1    2    0    0  0.75608565964E+01 -0.14501574588E+02  0.75084468450E+02  0.76844978915E+02  0.10566000000E+00 0. -1.
        994    1    1    2    0    0 -0.28821118908E+01  0.11865311003E+02  0.22554872555E+01  0.17164969967E+03  0.17120000000E+03 0.  0.
        998    1    1    2    0    0 -0.46787447055E+01  0.26362635849E+01  0.14226600406E+04  0.14227053214E+04  0.10000000000E+02 0. -1.
</event>
<event>
 5    1  0.7732857E-009  0.3749210E+03  0.7957747E-01  0.3473576E+00
         13   -1    0    0    0    0  0.00000000000E+00  0.00000000000E+00  0.14999999963E+04  0.15000000000E+04  0.10566000000E+00 0.  1.
        994   -1    0    0    0    0 -0.00000000000E+00 -0.00000000000E+00  0.11368683772E-12  0.17120000000E+03  0.17120000000E+03 0.  0.
         13    1    1    2    0    0 -0.15733048190E+02 -0.16402473261E+03  0.93583021153E+03  0.95022620344E+03  0.10566000000E+00 0.  1.
        994    1    1    2    0    0 -0.29225046161E+02  0.16217715693E+03  0.10549503959E+03  0.25998880155E+03  0.17120000000E+03 0.  0.
        998    1    1    2    0    0  0.44958094350E+02  0.18475756802E+01  0.45867474515E+03  0.46098499501E+03  0.10000000000E+02 0.  1.
</event>
<event>
 5    1  0.7732857E-009  0.3861656E+03  0.7957747E-01  0.3424744E+00
         13   -1    0    0    0    0  0.00000000000E+00  0.00000000000E+00  0.14999999963E+04  0.15000000000E+04  0.10566000000E+00 0. -1.
        994   -1    0    0    0    0 -0.00000000000E+00 -0.00000000000E+00  0.11368683772E-12  0.17120000000E+03  0.17120000000E+03 0.  0.
         13    1    1    2    0    0  0.84383820993E+01  0.78807655191E+01  0.61632133766E+02  0.62704416385E+02  0.10566000000E+00 0. -1.
        994    1    1    2    0    0 -0.28450804755E+00 -0.19539480895E+02  0.23046502131E+01  0.17232708339E+03  0.17120000000E+03 0.  0.
        998    1    1    2    0    0 -0.81538740517E+01  0.11658715376E+02  0.14360632123E+04  0.14361685002E+04  0.10000000000E+02 0. -1.
</event>
<event>
 5    1  0.7732857E-009  0.3749107E+03  0.7957747E-01  0.3473622E+00
         13   -1    0    0    0    0  0.00000000000E+00  0.00000000000E+00  0.14999999963E+04  0.15000000000E+04  0.10566000000E+00 0. -1.
        994   -1    0    0    0    0 -0.00000000000E+00 -0.00000000000E+00  0.11368683772E-12  0.17120000000E+03  0.17120000000E+03 0.  0.
         13    1    1    2    0    0  0.30282585525E+02 -0.10689975975E+02  0.32921175511E+02  0.45990493947E+02  0.10566000000E+00 0. -1.
        994    1    1    2    0    0  0.51774497649E+01  0.62716371741E+02  0.27783972507E+02  0.18450349156E+03  0.17120000000E+03 0.  0.
        998    1    1    2    0    0 -0.35460035290E+02 -0.52026395766E+02  0.14392948483E+04  0.14407060145E+04  0.10000000000E+02 0. -1.
</event>
<event>
 5    1  0.7732857E-009  0.3842475E+03  0.7957747E-01  0.3432870E+00
         13   -1    0    0    0    0  0.00000000000E+00  0.00000000000E+00  0.14999999963E+04  0.15000000000E+04  0.10566000000E+00 0.  1.
        994   -1    0    0    0    0 -0.00000000000E+00 -0.00000000000E+00  0.11368683772E-12  0.17120000000E+03  0.17120000000E+03 0.  0.
         13    1    1    2    0    0  0.10241699815E+02 -0.43928248320E+01  0.33805332555E+02  0.35594957484E+02  0.10566000000E+00 0.  1.
        994    1    1    2    0    0  0.13876123104E+02 -0.93556450701E+01  0.29280565291E+01  0.17204094978E+03  0.17120000000E+03 0.  0.
        998    1    1    2    0    0 -0.24117822920E+02  0.13748469902E+02  0.14632666072E+04  0.14635640927E+04  0.10000000000E+02 0.  1.
</event>
<event>
 5    1  0.7732857E-009  0.3844001E+03  0.7957747E-01  0.3432220E+00
         13   -1    0    0    0    0  0.00000000000E+00  0.00000000000E+00  0.14999999963E+04  0.15000000000E+04  0.10566000000E+00 0.  1.
        994   -1    0    0    0    0 -0.00000000000E+00 -0.00000000000E+00  0.11368683772E-12  0.17120000000E+03  0.17120000000E+03 0.  0.
         13    1    1    2    0    0  0.23729561082E+01  0.99546426173E+01  0.26618171153E+02  0.28517784450E+02  0.10566000000E+00 0.  1.
        994    1    1    2    0    0 -0.21068022182E+01 -0.71702006637E+01  0.21123073107E+01  0.17137605502E+03  0.17120000000E+03 0.  0.
        998    1    1    2    0    0 -0.26615388996E+00 -0.27844419536E+01  0.14712695178E+04  0.14713061605E+04  0.10000000000E+02 0.  1.
</event>
<event>
 5    1  0.7732857E-009  0.3730742E+03  0.7957747E-01  0.3481880E+00
         13   -1    0    0    0    0  0.00000000000E+00  0.00000000000E+00  0.14999999963E+04  0.15000000000E+04  0.10566000000E+00 0. -1.
        994   -1    0    0    0    0 -0.00000000000E+00 -0.00000000000E+00  0.11368683772E-12  0.17120000000E+03  0.17120000000E+03 0.  0.
         13    1    1    2    0    0 -0.82494320044E+01  0.36440039374E+02  0.87961126886E+02  0.95567256971E+02  0.10566000000E+00 0. -1.
        994    1    1    2    0    0  0.42567798354E+01 -0.23802289267E+02  0.96739593520E+01  0.17316955459E+03  0.17120000000E+03 0.  0.
        998    1    1    2    0    0  0.39926521690E+01 -0.12637750107E+02  0.14023649100E+04  0.14024631884E+04  0.10000000000E+02 0. -1.
</event>
<event>
 5    1  0.7732857E-009  0.3862839E+03  0.7957747E-01  0.3424245E+00
         13   -1    0    0    0    0  0.00000000000E+00  0.00000000000E+00  0.14999999963E+04  0.15000000000E+04  0.10566000000E+00 0.  1.
        994   -1    0    0    0    0 -0.00000000000E+00 -0.00000000000E+00  0.11368683772E-12  0.17120000000E+03  0.17120000000E+03 0.  0.
         13    1    1    2    0    0 -0.40238480598E+02 -0.31433771935E+02  0.57300913809E+02  0.76750395610E+02  0.10566000000E+00 0.  1.
        994    1    1    2    0    0  0.46940003053E+02  0.14506100008E+02  0.28830509809E+02  0.18042845984E+03  0.17120000000E+03 0.  0.
        998    1    1    2    0    0 -0.67015224548E+01  0.16927671927E+02  0.14138685727E+04  0.14140211446E+04  0.10000000000E+02 0.  1.
</event>
<event>
 5    1  0.7732857E-009  0.3840369E+03  0.7957747E-01  0.3433767E+00
         13   -1    0    0    0    0  0.00000000000E+00  0.00000000000E+00  0.14999999963E+04  0.15000000000E+04  0.10566000000E+00 0. -1.
        994   -1    0    0    0    0 -0.00000000000E+00 -0.00000000000E+00  0.11368683772E-12  0.17120000000E+03  0.17120000000E+03 0.  0.
         13    1    1    2    0    0 -0.14696847539E+02 -0.72669038245E+01  0.62738412857E+02  0.64845391746E+02  0.10566000000E+00 0. -1.
        994    1    1    2    0    0  0.11290982494E+02  0.50084051043E+01  0.26125406510E+01  0.17166489384E+03  0.17120000000E+03 0.  0.
        998    1    1    2    0    0  0.34058650449E+01  0.22584987202E+01  0.14346490428E+04  0.14346897144E+04  0.10000000000E+02 0. -1.
</event>
<event>
 5    1  0.7732857E-009  0.3748301E+03  0.7957747E-01  0.3473983E+00
         13   -1    0    0    0    0  0.00000000000E+00  0.00000000000E+00  0.14999999963E+04  0.15000000000E+04  0.10566000000E+00 0. -1.
        994   -1    0    0    0    0 -0.00000000000E+00 -0.00000000000E+00  0.11368683772E-12  0.17120000000E+03  0.17120000000E+03 0.  0.
         13    1    1    2    0    0 -0.83180120362E+02  0.30399217771E+02  0.40962122241E+03  0.41908543505E+03  0.10566000000E+00 0. -1.
        994    1    1    2    0    0  0.68311487629E+02 -0.10894136085E+03  0.65262497630E+02  0.22383769353E+03  0.17120000000E+03 0.  0.
        998    1    1    2    0    0  0.14868632733E+02  0.78542143082E+02  0.10251162762E+04  0.10282768714E+04  0.10000000000E+02 0. -1.
</event>
<event>
 5    1  0.7732857E-009  0.3768703E+03  0.7957747E-01  0.3464900E+00
         13   -1    0    0    0    0  0.00000000000E+00  0.00000000000E+00  0.14999999963E+04  0.15000000000E+04  0.10566000000E+00 0. -1.
        994   -1    0    0    0    0 -0.00000000000E+00 -0.00000000000E+00  0.11368683772E-12  0.17120000000E+03  0.17120000000E+03 0.  0.
         13    1    1    2    0    0 -0.60815528146E+01 -0.15156572006E+02  0.20639721204E+02  0.26319502560E+02  0.10566000000E+00 0. -1.
        994    1    1    2    0    0 -0.38720406955E+01  0.18651511573E+02  0.69481260390E+01  0.17239660101E+03  0.17120000000E+03 0.  0.
        998    1    1    2    0    0  0.99535935101E+01 -0.34949395667E+01  0.14724121490E+04  0.14724838964E+04  0.10000000000E+02 0. -1.
</event>
<event>
 5    1  0.7732857E-009  0.3809215E+03  0.7957747E-01  0.3447156E+00
         13   -1    0    0    0    0  0.00000000000E+00  0.00000000000E+00  0.14999999963E+04  0.15000000000E+04  0.10566000000E+00 0.  1.
        994   -1    0    0    0    0 -0.00000000000E+00 -0.00000000000E+00  0.11368683772E-12  0.17120000000E+03  0.17120000000E+03 0.  0.
         13    1    1    2    0    0  0.29324041889E+02 -0.58542110328E+01  0.12492629547E+03  0.12845529060E+03  0.10566000000E+00 0.  1.
        994    1    1    2    0    0 -0.11364778550E+02  0.53287359539E+01  0.41939477392E+01  0.17171075335E+03  0.17120000000E+03 0.  0.
        998    1    1    2    0    0 -0.17959263339E+02  0.52547507889E+00  0.13708797531E+04  0.13710339560E+04  0.10000000000E+02 0.  1.
</event>
<event>
 5    1  0.7732857E-009  0.3826749E+03  0.7957747E-01  0.3439593E+00
         13   -1    0    0    0    0  0.00000000000E+00  0.00000000000E+00  0.14999999963E+04  0.15000000000E+04  0.10566000000E+00 0.  1.
        994   -1    0    0    0    0 -0.00000000000E+00 -0.00000000000E+00  0.11368683772E-12  0.17120000000E+03  0.17120000000E+03 0.  0.
         13    1    1    2    0    0  0.83167465175E+01  0.15009482177E+02  0.54221596733E+02  0.56872186033E+02  0.10566000000E+00 0.  1.
        994    1    1    2    0    0 -0.13150128399E+02  0.51216389232E+01  0.34491161802E+01  0.17181528880E+03  0.17120000000E+03 0.  0.
        998    1    1    2    0    0  0.48333818814E+01 -0.20131121100E+02  0.14423292834E+04  0.14425125252E+04  0.10000000000E+02 0.  1.
</event>
<event>
 5    1  0.7732857E-009  0.3813914E+03  0.7957747E-01  0.3445122E+00
         13   -1    0    0    0    0  0.00000000000E+00  0.00000000000E+00  0.14999999963E+04  0.15000000000E+04  0.10566000000E+00 0. -1.
        994   -1    0    0    0    0 -0.00000000000E+00 -0.00000000000E+00  0.11368683772E-12  0.17120000000E+03  0.17120000000E+03 0.  0.
         13    1    1    2    0    0 -0.28033546419E+02 -0.10054122630E+02  0.13036725006E+03  0.13372582458E+03  0.10566000000E+00 0. -1.
        994    1    1    2    0    0  0.96866312882E+01  0.18161696370E+02  0.48435455333E+01  0.17250095065E+03  0.17120000000E+03 0.  0.
        998    1    1    2    0    0  0.18346915131E+02 -0.81075737399E+01  0.13647892007E+04  0.13649732248E+04  0.10000000000E+02 0. -1.
</event>
<event>
 5    1  0.7732857E-009  0.3846354E+03  0.7957747E-01  0.3431220E+00
         13   -1    0    0    0    0  0.00000000000E+00  0.00000000000E+00  0.14999999963E+04  0.15000000000E+04  0.10566000000E+00 0.  1.
        994   -1    0    0    0    0 -0.00000000000E+00 -0.00000000000E+00  0.11368683772E-12  0.17120000000E+03  0.17120000000E+03 0.  0.
         13    1    1    2    0    0  0.14066262224E+02  0.13579860349E+02  0.98812513612E+02  0.10072832943E+03  0.10566000000E+00 0.  1.
        994    1    1    2    0    0 -0.19817384300E+02 -0.99964300014E+01  0.34350189150E+01  0.17266701100E+03  0.17120000000E+03 0.  0.
        998    1    1    2    0    0  0.57511220761E+01 -0.35834303475E+01  0.13977524638E+04  0.13978046596E+04  0.10000000000E+02 0.  1.
</event>
<event>
 5    1  0.7732857E-009  0.3699474E+03  0.7957747E-01  0.3496133E+00
         13   -1    0    0    0    0  0.00000000000E+00  0.00000000000E+00  0.14999999963E+04  0.15000000000E+04  0.10566000000E+00 0. -1.
        994   -1    0    0    0    0 -0.00000000000E+00 -0.00000000000E+00  0.11368683772E-12  0.17120000000E+03  0.17120000000E+03 0.  0.
         13    1    1    2    0    0  0.11851818491E+03  0.65312789207E+02  0.63027519847E+03  0.64463878069E+03  0.10566000000E+00 0. -1.
        994    1    1    2    0    0 -0.10039576460E+03 -0.71980297537E+02  0.64085280272E+02  0.22062827546E+03  0.17120000000E+03 0.  0.
        998    1    1    2    0    0 -0.18122420313E+02  0.66675083298E+01  0.80563951753E+03  0.80593294386E+03  0.10000000000E+02 0. -1.
</event>
<event>
 5    1  0.7732857E-009  0.3826076E+03  0.7957747E-01  0.3439882E+00
         13   -1    0    0    0    0  0.00000000000E+00  0.00000000000E+00  0.14999999963E+04  0.15000000000E+04  0.10566000000E+00 0.  1.
        994   -1    0    0    0    0 -0.00000000000E+00 -0.00000000000E+00  0.11368683772E-12  0.17120000000E+03  0.17120000000E+03 0.  0.
         13    1    1    2    0    0 -0.12237558083E+03 -0.15202830453E+03  0.10467505249E+04  0.10647887400E+04  0.10566000000E+00 0.  1.
        994    1    1    2    0    0  0.14266697052E+03  0.14938902187E+03  0.16020613699E+03  0.31248422466E+03  0.17120000000E+03 0.  0.
        998    1    1    2    0    0 -0.20291389693E+02  0.26392826502E+01  0.29304333437E+03  0.29392703538E+03  0.10000000000E+02 0. -1.
</event>
<event>
 5    1  0.7732857E-009  0.3857570E+03  0.7957747E-01  0.3426468E+00
         13   -1    0    0    0    0  0.00000000000E+00  0.00000000000E+00  0.14999999963E+04  0.15000000000E+04  0.10566000000E+00 0. -1.
        994   -1    0    0    0    0 -0.00000000000E+00 -0.00000000000E+00  0.11368683772E-12  0.17120000000E+03  0.17120000000E+03 0.  0.
         13    1    1    2    0    0  0.12266422975E+01 -0.10725605331E+02  0.46623725548E+02  0.47857352716E+02  0.10566000000E+00 0. -1.
        994    1    1    2    0    0 -0.21748703148E+01  0.76776870059E+01  0.14636906354E+01  0.17139212155E+03  0.17120000000E+03 0.  0.
        998    1    1    2    0    0  0.94822801731E+00  0.30479183248E+01  0.14519125801E+04  0.14519505257E+04  0.10000000000E+02 0. -1.
</event>
<event>
 5    1  0.7732857E-009  0.3839856E+03  0.7957747E-01  0.3433986E+00
         13   -1    0    0    0    0  0.00000000000E+00  0.00000000000E+00  0.14999999963E+04  0.15000000000E+04  0.10566000000E+00 0.  1.
        994   -1    0    0    0    0 -0.00000000000E+00 -0.00000000000E+00  0.11368683772E-12  0.17120000000E+03  0.17120000000E+03 0.  0.
         13    1    1    2    0    0  0.69210260157E+01  0.25192627971E+02  0.15449356499E+03  0.15668708272E+03  0.10566000000E+00 0.  1.
        994    1    1    2    0    0 -0.89696670300E+01 -0.17627573989E+02  0.34264079562E+01  0.17237275470E+03  0.17120000000E+03 0.  0.
        998    1    1    2    0    0  0.20486410143E+01 -0.75650539815E+01  0.13420800233E+04  0.13421401626E+04  0.10000000000E+02 0.  1.
</event>
<event>
 5    1  0.7732857E-009  0.3782419E+03  0.7957747E-01  0.3458849E+00
         13   -1    0    0    0    0  0.00000000000E+00  0.00000000000E+00  0.14999999963E+04  0.15000000000E+04  0.10566000000E+00 0.  1.
        994   -1    0    0    0    0 -0.00000000000E+00 -0.00000000000E+00  0.11368683772E-12  0.17120000000E+03  0.17120000000E+03 0.  0.
         13    1    1    2    0    0 -0.95733547229E+01 -0.20411469575E+02  0.43810507807E+02  0.49271177875E+02  0.10566000000E+00 0.  1.
        994    1    1    2    0    0  0.34887874080E+02  0.34701059466E+02  0.13208433931E+02  0.17862035162E+03  0.17120000000E+03 0.  0.
        998    1    1    2    0    0 -0.25314519357E+02 -0.14289589892E+02  0.14429810545E+04  0.14433084705E+04  0.10000000000E+02 0.  1.
</event>
<event>
 5    1  0.7732857E-009  0.3839493E+03  0.7957747E-01  0.3434141E+00
         13   -1    0    0    0    0  0.00000000000E+00  0.00000000000E+00  0.14999999963E+04  0.15000000000E+04  0.10566000000E+00 0.  1.
        994   -1    0    0    0    0 -0.00000000000E+00 -0.00000000000E+00  0.11368683772E-12  0.17120000000E+03  0.17120000000E+03 0.  0.
         13    1    1    2    0    0  0.70768877565E+01  0.88843145568E+01  0.28959387564E+02  0.31107405510E+02  0.10566000000E+00 0.  1.
        994    1    1    2    0    0 -0.91833543043E+01 -0.70868444502E+01  0.25968564195E+01  0.17161218204E+03  0.17120000000E+03 0.  0.
        998    1    1    2    0    0  0.21064665478E+01 -0.17974701066E+01  0.14684437523E+04  0.14684804125E+04  0.10000000000E+02 0.  1.
</event>
<event>
 5    1  0.7732857E-009  0.3826054E+03  0.7957747E-01  0.3439892E+00
         13   -1    0    0    0    0  0.00000000000E+00  0.00000000000E+00  0.14999999963E+04  0.15000000000E+04  0.10566000000E+00 0.  1.
        994   -1    0    0    0    0 -0.00000000000E+00 -0.00000000000E+00  0.11368683772E-12  0.17120000000E+03  0.17120000000E+03 0.  0.
         13    1    1    2    0    0  0.16019191542E+02 -0.96006373323E+01  0.60765900527E+02  0.63571161431E+02  0.10566000000E+00 0.  1.
        994    1    1    2    0    0 -0.11279921200E+02  0.54754808671E+01  0.33449610154E+01  0.17169113628E+03  0.17120000000E+03 0.  0.
        998    1    1    2    0    0 -0.47392703425E+01  0.41251564652E+01  0.14358891347E+04  0.14359377023E+04  0.10000000000E+02 0.  1.
</event>
<event>
 5    1  0.7732857E-009  0.3853170E+03  0.7957747E-01  0.3428329E+00
         13   -1    0    0    0    0  0.00000000000E+00  0.00000000000E+00  0.14999999963E+04  0.15000000000E+04  0.10566000000E+00 0.  1.
        994   -1    0    0    0    0 -0.00000000000E+00 -0.00000000000E+00  0.11368683772E-12  0.17120000000E+03  0.17120000000E+03 0.  0.
         13    1    1    2    0    0 -0.11863556424E+02 -0.70940562841E+01  0.65103246409E+02  0.66554590094E+02  0.10566000000E+00 0.  1.
        994    1    1    2    0    0  0.90946804889E+01  0.24618865260E+01  0.17645423449E+01  0.17146815363E+03  0.17120000000E+03 0.  0.
        998    1    1    2    0    0  0.27688759354E+01  0.46321697581E+01  0.14331322075E+04  0.14331772563E+04  0.10000000000E+02 0.  1.
</event>
<event>
 5    1  0.7732857E-009  0.3824009E+03  0.7957747E-01  0.3440771E+00
         13   -1    0    0    0    0  0.00000000000E+00  0.00000000000E+00  0.14999999963E+04  0.15000000000E+04  0.10566000000E+00 0.  1.
        994   -1    0    0    0    0 -0.00000000000E+00 -0.00000000000E+00  0.11368683772E-12  0.17120000000E+03  0.17120000000E+03 0.  0.
         13    1    1    2    0    0  0.10376947036E+02 -0.93188725002E+01  0.32158912984E+02  0.35053234698E+02  0.10566000000E+00 0.  1.
        994    1    1    2    0    0 -0.88456150853E+01  0.49163385935E+01  0.32658161443E+01  0.17152994155E+03  0.17120000000E+03 0.  0.
        998    1    1    2    0    0 -0.15313319505E+01  0.44025339067E+01  0.14645752672E+04  0.14646168238E+04  0.10000000000E+02 0.  1.
</event>
<event>
 5    1  0.7732857E-009  0.3772277E+03  0.7957747E-01  0.3463319E+00
         13   -1    0    0    0    0  0.00000000000E+00  0.00000000000E+00  0.14999999963E+04  0.15000000000E+04  0.10566000000E+00 0.  1.
        994   -1    0    0    0    0 -0.00000000000E+00 -0.00000000000E+00  0.11368683772E-12  0.17120000000E+03  0.17120000000E+03 0.  0.
         13    1    1    2    0    0  0.35792963892E+01  0.13060229672E+02  0.15930850595E+02  0.20908948477E+02  0.10566000000E+00 0.  1.
        994    1    1    2    0    0  0.56916322020E+01  0.42318182507E+02  0.11715281595E+02  0.17683300334E+03  0.17120000000E+03 0.  0.
        998    1    1    2    0    0 -0.92709285912E+01 -0.55378412179E+02  0.14723538641E+04  0.14734580482E+04  0.10000000000E+02 0.  1.
</event>
<event>
 5    1  0.7732857E-009  0.3805795E+03  0.7957747E-01  0.3448639E+00
         13   -1    0    0    0    0  0.00000000000E+00  0.00000000000E+00  0.14999999963E+04  0.15000000000E+04  0.10566000000E+00 0. -1.
        994   -1    0    0    0    0 -0.00000000000E+00 -0.00000000000E+00  0.11368683772E-12  0.17120000000E+03  0.17120000000E+03 0.  0.
         13    1    1    2    0    0  0.16348877939E+02 -0.23263276600E+02  0.98715464038E+02  0.10272886572E+03  0.10566000000E+00 0. -1.
        994    1    1    2    0    0 -0.17501021885E+02  0.20867892685E+02  0.63197348309E+01  0.17346796177E+03  0.17120000000E+03 0.  0.
        998    1    1    2    0    0  0.11521439459E+01  0.23953839148E+01  0.13949647974E+04  0.13950031725E+04  0.10000000000E+02 0. -1.
</event>
<event>
 5    1  0.7732857E-009  0.3760287E+03  0.7957747E-01  0.3468635E+00
         13   -1    0    0    0    0  0.00000000000E+00  0.00000000000E+00  0.14999999963E+04  0.15000000000E+04  0.10566000000E+00 0. -1.
        994   -1    0    0    0    0 -0.00000000000E+00 -0.00000000000E+00  0.11368683772E-12  0.17120000000E+03  0.17120000000E+03 0.  0.
         13    1    1    2    0    0  0.88668024993E+01 -0.88428732739E+01  0.98097244994E+01  0.15907811072E+02  0.10566000000E+00 0. -1.
        994    1    1    2    0    0 -0.10110790269E+02  0.13483114694E+02  0.71141196006E+01  0.17217454272E+03  0.17120000000E+03 0.  0.
        998    1    1    2    0    0  0.12439877694E+01 -0.46402414205E+01  0.14830761522E+04  0.14831176462E+04  0.10000000000E+02 0. -1.
</event>
<event>
 5    1  0.7732857E-009  0.3845514E+03  0.7957747E-01  0.3431577E+00
         13   -1    0    0    0    0  0.00000000000E+00  0.00000000000E+00  0.14999999963E+04  0.15000000000E+04  0.10566000000E+00 0.  1.
        994   -1    0    0    0    0 -0.00000000000E+00 -0.00000000000E+00  0.11368683772E-12  0.17120000000E+03  0.17120000000E+03 0.  0.
         13    1    1    2    0    0 -0.19320332245E+02  0.65250160614E+01  0.11439425441E+03  0.11619770944E+03  0.10566000000E+00 0.  1.
        994    1    1    2    0    0  0.25795162760E+01 -0.27367504580E+02  0.43455972745E+01  0.17344727852E+03  0.17120000000E+03 0.  0.
        998    1    1    2    0    0  0.16740815969E+02  0.20842488518E+02  0.13812601446E+04  0.13815550120E+04  0.10000000000E+02 0.  1.
</event>
<event>
 5    1  0.7732857E-009  0.3749834E+03  0.7957747E-01  0.3473297E+00
         13   -1    0    0    0    0  0.00000000000E+00  0.00000000000E+00  0.14999999963E+04  0.15000000000E+04  0.10566000000E+00 0.  1.
        994   -1    0    0    0    0 -0.00000000000E+00 -0.00000000000E+00  0.11368683772E-12  0.17120000000E+03  0.17120000000E+03 0.  0.
         13    1    1    2    0    0  0.38333861546E+02 -0.22609947377E+02  0.66044424733E+02  0.79640265342E+02  0.10566000000E+00 0.  1.
        994    1    1    2    0    0 -0.34558609044E+02  0.19754319716E+02  0.19257737797E+02  0.17681863893E+03  0.17120000000E+03 0.  0.
        998    1    1    2    0    0 -0.37752525027E+01  0.28556276610E+01  0.14146978337E+04  0.14147410957E+04  0.10000000000E+02 0.  1.
</event>
<event>
 5    1  0.7732857E-009  0.3791640E+03  0.7957747E-01  0.3454807E+00
         13   -1    0    0    0    0  0.00000000000E+00  0.00000000000E+00  0.14999999963E+04  0.15000000000E+04  0.10566000000E+00 0.  1.
        994   -1    0    0    0    0 -0.00000000000E+00 -0.00000000000E+00  0.11368683772E-12  0.17120000000E+03  0.17120000000E+03 0.  0.
         13    1    1    2    0    0 -0.13911739641E+02  0.84242751712E+01  0.26831911539E+02  0.31376225918E+02  0.10566000000E+00 0.  1.
        994    1    1    2    0    0  0.12810407101E+02 -0.89167749816E+01  0.53728320761E+01  0.17199396132E+03  0.17120000000E+03 0.  0.
        998    1    1    2    0    0  0.11013325402E+01  0.49249981039E+00  0.14677952527E+04  0.14678298128E+04  0.10000000000E+02 0.  1.
</event>
<event>
 5    1  0.7732857E-009  0.3795929E+03  0.7957747E-01  0.3452933E+00
         13   -1    0    0    0    0  0.00000000000E+00  0.00000000000E+00  0.14999999963E+04  0.15000000000E+04  0.10566000000E+00 0. -1.
        994   -1    0    0    0    0 -0.00000000000E+00 -0.00000000000E+00  0.11368683772E-12  0.17120000000E+03  0.17120000000E+03 0.  0.
         13    1    1    2    0    0  0.21568589319E+01  0.48738875511E+02  0.22565271527E+03  0.23086638798E+03  0.10566000000E+00 0. -1.
        994    1    1    2    0    0  0.35917683240E+02 -0.57068076374E+02  0.19712408992E+02  0.18505367972E+03  0.17120000000E+03 0.  0.
        998    1    1    2    0    0 -0.38074542172E+02  0.83292008633E+01  0.12546348720E+04  0.12552799323E+04  0.10000000000E+02 0. -1.
</event>
<event>
 5    1  0.7732857E-009  0.3775485E+03  0.7957747E-01  0.3461903E+00
         13   -1    0    0    0    0  0.00000000000E+00  0.00000000000E+00  0.14999999963E+04  0.15000000000E+04  0.10566000000E+00 0. -1.
        994   -1    0    0    0    0 -0.00000000000E+00 -0.00000000000E+00  0.11368683772E-12  0.17120000000E+03  0.17120000000E+03 0.  0.
         13    1    1    2    0    0 -0.67428307299E+02  0.10016673352E+03  0.72862687469E+03  0.73856420494E+03  0.10566000000E+00 0. -1.
        994    1    1    2    0    0  0.27004995045E+02 -0.13314836641E+03  0.70346302909E+02  0.22959921508E+03  0.17120000000E+03 0.  0.
        998    1    1    2    0    0  0.40423312254E+02  0.32981632885E+02  0.70102681868E+03  0.70303657998E+03  0.10000000000E+02 0. -1.
</event>
<event>
 5    1  0.7732857E-009  0.3777399E+03  0.7957747E-01  0.3461059E+00
         13   -1    0    0    0    0  0.00000000000E+00  0.00000000000E+00  0.14999999963E+04  0.15000000000E+04  0.10566000000E+00 0. -1.
        994   -1    0    0    0    0 -0.00000000000E+00 -0.00000000000E+00  0.11368683772E-12  0.17120000000E+03  0.17120000000E+03 0.  0.
         13    1    1    2    0    0  0.17270193883E+02  0.29316449657E+02  0.99426527516E+02  0.10508738913E+03  0.10566000000E+00 0. -1.
        994    1    1    2    0    0 -0.25205907666E+02 -0.29560047839E+02  0.10378190309E+02  0.17585869624E+03  0.17120000000E+03 0.  0.
        998    1    1    2    0    0  0.79357137829E+01  0.24359818197E+00  0.13901952785E+04  0.13902539146E+04  0.10000000000E+02 0. -1.
</event>
<event>
 5    1  0.7732857E-009  0.3816269E+03  0.7957747E-01  0.3444105E+00
         13   -1    0    0    0    0  0.00000000000E+00  0.00000000000E+00  0.14999999963E+04  0.15000000000E+04  0.10566000000E+00 0.  1.
        994   -1    0    0    0    0 -0.00000000000E+00 -0.00000000000E+00  0.11368683772E-12  0.17120000000E+03  0.17120000000E+03 0.  0.
         13    1    1    2    0    0 -0.34467345055E+02  0.20836887971E+02  0.23300691654E+03  0.23646227626E+03  0.10566000000E+00 0.  1.
        994    1    1    2    0    0  0.19055082210E+02 -0.23326719451E+02  0.63365693471E+01  0.17394488814E+03  0.17120000000E+03 0.  0.
        998    1    1    2    0    0  0.15412262845E+02  0.24898314801E+01  0.12606565104E+04  0.12607928356E+04  0.10000000000E+02 0.  1.
</event>
<event>
 5    1  0.7732857E-009  0.3822848E+03  0.7957747E-01  0.3441270E+00
         13   -1    0    0    0    0  0.00000000000E+00  0.00000000000E+00  0.14999999963E+04  0.15000000000E+04  0.10566000000E+00 0.  1.
        994   -1    0    0    0    0 -0.00000000000E+00 -0.00000000000E+00  0.11368683772E-12  0.17120000000E+03  0.17120000000E+03 0.  0.
         13    1    1    2    0    0 -0.15873742933E+02  0.81678922959E+01  0.48551286201E+02  0.51729379806E+02  0.10566000000E+00 0.  1.
        994    1    1    2    0    0  0.58367556857E+02  0.44141944812E+02  0.20960498453E+02  0.18736078960E+03  0.17120000000E+03 0.  0.
        998    1    1    2    0    0 -0.42493813924E+02 -0.52309837108E+02  0.14304882116E+04  0.14321098306E+04  0.10000000000E+02 0.  1.
</event>
<event>
 5    1  0.7732857E-009  0.3701695E+03  0.7957747E-01  0.3495112E+00
         13   -1    0    0    0    0  0.00000000000E+00  0.00000000000E+00  0.14999999963E+04  0.15000000000E+04  0.10566000000E+00 0.  1.
        994   -1    0    0    0    0 -0.00000000000E+00 -0.00000000000E+00  0.11368683772E-12  0.17120000000E+03  0.17120000000E+03 0.  0.
         13    1    1    2    0    0  0.90933037275E+01 -0.71189188652E+02  0.25383281298E+03  0.26378342795E+03  0.10566000000E+00 0.  1.
        994    1    1    2    0    0 -0.76620529188E+01  0.56236679519E+02  0.20395672768E+02  0.18151224379E+03  0.17120000000E+03 0.  0.
        998    1    1    2    0    0 -0.14312508086E+01  0.14952509133E+02  0.12257715105E+04  0.12259043283E+04  0.10000000000E+02 0.  1.
</event>
<event>
 5    1  0.7732857E-009  0.3811895E+03  0.7957747E-01  0.3445995E+00
         13   -1    0    0    0    0  0.00000000000E+00  0.00000000000E+00  0.14999999963E+04  0.15000000000E+04  0.10566000000E+00 0. -1.
        994   -1    0    0    0    0 -0.00000000000E+00 -0.00000000000E+00  0.11368683772E-12  0.17120000000E+03  0.17120000000E+03 0.  0.
         13    1    1    2    0    0  0.22786408367E+01  0.15970713562E+02  0.35295545070E+02  0.38807764192E+02  0.10566000000E+00 0. -1.
        994    1    1    2    0    0  0.35630635164E+01 -0.13158059905E+02  0.41529127449E+01  0.17179207388E+03  0.17120000000E+03 0.  0.
        998    1    1    2    0    0 -0.58417043531E+01 -0.28126536567E+01  0.14605515385E+04  0.14606001619E+04  0.10000000000E+02 0. -1.
</event>
<event>
 5    1  0.7732857E-009  0.3735151E+03  0.7957747E-01  0.3479890E+00
         13   -1    0    0    0    0  0.00000000000E+00  0.00000000000E+00  0.14999999963E+04  0.15000000000E+04  0.10566000000E+00 0. -1.
        994   -1    0    0    0    0 -0.00000000000E+00 -0.00000000000E+00  0.11368683772E-12  0.17120000000E+03  0.17120000000E+03 0.  0.
         13    1    1    2    0    0  0.32793865879E+02 -0.27143560055E+02  0.11315914337E+03  0.12090166825E+03  0.10566000000E+00 0. -1.
        994    1    1    2    0    0 -0.37924365038E+02  0.13784026535E+02  0.13026295563E+02  0.17637284719E+03  0.17120000000E+03 0.  0.
        998    1    1    2    0    0  0.51304991593E+01  0.13359533521E+02  0.13738145573E+04  0.13739254846E+04  0.10000000000E+02 0. -1.
</event>
<event>
 5    1  0.7732857E-009  0.3785160E+03  0.7957747E-01  0.3457646E+00
         13   -1    0    0    0    0  0.00000000000E+00  0.00000000000E+00  0.14999999963E+04  0.15000000000E+04  0.10566000000E+00 0.  1.
        994   -1    0    0    0    0 -0.00000000000E+00 -0.00000000000E+00  0.11368683772E-12  0.17120000000E+03  0.17120000000E+03 0.  0.
         13    1    1    2    0    0  0.27363416587E+01  0.18802058420E+02  0.35742260758E+02  0.40478702235E+02  0.10566000000E+00 0.  1.
        994    1    1    2    0    0 -0.44847938074E+01 -0.55432864462E+01  0.50549520513E+01  0.17142296795E+03  0.17120000000E+03 0.  0.
        998    1    1    2    0    0  0.17484521488E+01 -0.13258771974E+02  0.14592027835E+04  0.14592983298E+04  0.10000000000E+02 0.  1.
</event>
<event>
 5    1  0.7732857E-009  0.3718264E+03  0.7957747E-01  0.3487539E+00
         13   -1    0    0    0    0  0.00000000000E+00  0.00000000000E+00  0.14999999963E+04  0.15000000000E+04  0.10566000000E+00 0.  1.
        994   -1    0    0    0    0 -0.00000000000E+00 -0.00000000000E+00  0.11368683772E-12  0.17120000000E+03  0.17120000000E+03 0.  0.
         13    1    1    2    0    0 -0.10748196001E+03 -0.66292240969E+02  0.67367615999E+03  0.68540981364E+03  0.10566000000E+00 0.  1.
        994    1    1    2    0    0  0.52053081319E+02  0.59136647760E+02  0.34079195448E+02  0.19151370172E+03  0.17120000000E+03 0.  0.
        998    1    1    2    0    0  0.55428878687E+02  0.71555932093E+01  0.79224464084E+03  0.79427648464E+03  0.10000000000E+02 0.  1.
</event>
<event>
 5    1  0.7732857E-009  0.3822557E+03  0.7957747E-01  0.3441395E+00
         13   -1    0    0    0    0  0.00000000000E+00  0.00000000000E+00  0.14999999963E+04  0.15000000000E+04  0.10566000000E+00 0. -1.
        994   -1    0    0    0    0 -0.00000000000E+00 -0.00000000000E+00  0.11368683772E-12  0.17120000000E+03  0.17120000000E+03 0.  0.
         13    1    1    2    0    0 -0.23084950273E+01  0.26872291724E+02  0.11470658445E+03  0.11783488826E+03  0.10566000000E+00 0. -1.
        994    1    1    2    0    0 -0.63273902565E+01 -0.24667406242E+02  0.51536867246E+01  0.17316038024E+03  0.17120000000E+03 0.  0.
        998    1    1    2    0    0  0.86358852838E+01 -0.22048854818E+01  0.13801397251E+04  0.13802047315E+04  0.10000000000E+02 0. -1.
</event>
<event>
 5    1  0.7732857E-009  0.3851869E+03  0.7957747E-01  0.3428880E+00
         13   -1    0    0    0    0  0.00000000000E+00  0.00000000000E+00  0.14999999963E+04  0.15000000000E+04  0.10566000000E+00 0.  1.
        994   -1    0    0    0    0 -0.00000000000E+00 -0.00000000000E+00  0.11368683772E-12  0.17120000000E+03  0.17120000000E+03 0.  0.
         13    1    1    2    0    0 -0.14528388150E+01 -0.99489131437E+01  0.34240873543E+02  0.35686694977E+02  0.10566000000E+00 0.  1.
        994    1    1    2    0    0 -0.16978566844E+02  0.33425511322E+00  0.24857819280E+01  0.17205813718E+03  0.17120000000E+03 0.  0.
        998    1    1    2    0    0  0.18431405659E+02  0.96146580305E+01  0.14632733408E+04  0.14634551678E+04  0.10000000000E+02 0.  1.
</event>
<event>
 5    1  0.7732857E-009  0.3756960E+03  0.7957747E-01  0.3470116E+00
         13   -1    0    0    0    0  0.00000000000E+00  0.00000000000E+00  0.14999999963E+04  0.15000000000E+04  0.10566000000E+00 0. -1.
        994   -1    0    0    0    0 -0.00000000000E+00 -0.00000000000E+00  0.11368683772E-12  0.17120000000E+03  0.17120000000E+03 0.  0.
         13    1    1    2    0    0 -0.13616972715E+02 -0.43942228093E+02  0.15749229742E+03  0.16407369157E+03  0.10566000000E+00 0. -1.
        994    1    1    2    0    0 -0.48953540341E+02  0.56276333417E+02  0.25428692209E+02  0.18846626542E+03  0.17120000000E+03 0.  0.
        998    1    1    2    0    0  0.62570513056E+02 -0.12334105324E+02  0.13170790067E+04  0.13186600430E+04  0.10000000000E+02 0. -1.
</event>
<event>
 5    1  0.7732857E-009  0.3850600E+03  0.7957747E-01  0.3429418E+00
         13   -1    0    0    0    0  0.00000000000E+00  0.00000000000E+00  0.14999999963E+04  0.15000000000E+04  0.10566000000E+00 0. -1.
        994   -1    0    0    0    0 -0.00000000000E+00 -0.00000000000E+00  0.11368683772E-12  0.17120000000E+03  0.17120000000E+03 0.  0.
         13    1    1    2    0    0  0.14013579126E+02  0.13358420991E+01  0.59136519569E+02  0.60789012040E+02  0.10566000000E+00 0. -1.
        994    1    1    2    0    0 -0.16070364702E+02 -0.11665811433E+02  0.28980656661E+01  0.17237223257E+03  0.17120000000E+03 0.  0.
        998    1    1    2    0    0  0.20567855763E+01  0.10329969334E+02  0.14379654110E+04  0.14380387554E+04  0.10000000000E+02 0. -1.
</event>
<event>
 5    1  0.7732857E-009  0.3692718E+03  0.7957747E-01  0.3499244E+00
         13   -1    0    0    0    0  0.00000000000E+00  0.00000000000E+00  0.14999999963E+04  0.15000000000E+04  0.10566000000E+00 0.  1.
        994   -1    0    0    0    0 -0.00000000000E+00 -0.00000000000E+00  0.11368683772E-12  0.17120000000E+03  0.17120000000E+03 0.  0.
         13    1    1    2    0    0  0.10975645746E+03  0.53063884515E+02  0.57261852234E+03  0.58545216635E+03  0.10566000000E+00 0.  1.
        994    1    1    2    0    0 -0.85978791089E+02 -0.35439646714E+02  0.41351843859E+02  0.19916760798E+03  0.17120000000E+03 0.  0.
        998    1    1    2    0    0 -0.23777666367E+02 -0.17624237801E+02  0.88602963008E+03  0.88658022567E+03  0.10000000000E+02 0.  1.
</event>
<event>
 5    1  0.7732857E-009  0.3826431E+03  0.7957747E-01  0.3439730E+00
         13   -1    0    0    0    0  0.00000000000E+00  0.00000000000E+00  0.14999999963E+04  0.15000000000E+04  0.10566000000E+00 0. -1.
        994   -1    0    0    0    0 -0.00000000000E+00 -0.00000000000E+00  0.11368683772E-12  0.17120000000E+03  0.17120000000E+03 0.  0.
         13    1    1    2    0    0 -0.25556555970E+02 -0.14886477237E+02  0.15405501563E+03  0.15686842819E+03  0.10566000000E+00 0. -1.
        994    1    1    2    0    0  0.17258372891E+02  0.69806239882E+01  0.39542342192E+01  0.17225462698E+03  0.17120000000E+03 0.  0.
        998    1    1    2    0    0  0.82981830792E+01  0.79058532490E+01  0.13419907464E+04  0.13420769448E+04  0.10000000000E+02 0. -1.
</event>
<event>
 5    1  0.7732857E-009  0.4061109E+03  0.7957747E-01  0.3344793E+00
         13   -1    0    0    0    0  0.00000000000E+00  0.00000000000E+00  0.14999999963E+04  0.15000000000E+04  0.10566000000E+00 0.  1.
        994   -1    0    0    0    0 -0.00000000000E+00 -0.00000000000E+00  0.11368683772E-12  0.17120000000E+03  0.17120000000E+03 0.  0.
         13    1    1    2    0    0 -0.23380310458E+02  0.77482639814E+02  0.10780140406E+03  0.13480115827E+03  0.10566000000E+00 0.  1.
        994    1    1    2    0    0  0.31116976374E+02 -0.44499975554E+01  0.35459822357E+02  0.17763701106E+03  0.17120000000E+03 0.  0.
        998    1    1    2    0    0 -0.77366659159E+01 -0.73032642259E+02  0.13567387699E+04  0.13587618307E+04  0.10000000000E+02 0.  1.
</event>
<event>
 5    1  0.7732857E-009  0.3779953E+03  0.7957747E-01  0.3459934E+00
         13   -1    0    0    0    0  0.00000000000E+00  0.00000000000E+00  0.14999999963E+04  0.15000000000E+04  0.10566000000E+00 0.  1.
        994   -1    0    0    0    0 -0.00000000000E+00 -0.00000000000E+00  0.11368683772E-12  0.17120000000E+03  0.17120000000E+03 0.  0.
         13    1    1    2    0    0 -0.23580777187E+02  0.16117494645E+01  0.53529810384E+02  0.58515831643E+02  0.10566000000E+00 0.  1.
        994    1    1    2    0    0  0.86709981217E+01 -0.14888855959E+01  0.54090735061E+01  0.17151122723E+03  0.17120000000E+03 0.  0.
        998    1    1    2    0    0  0.14909779065E+02 -0.12286386861E+00  0.14410611124E+04  0.14411729411E+04  0.10000000000E+02 0.  1.
</event>
<event>
 5    1  0.7732857E-009  0.3844127E+03  0.7957747E-01  0.3432167E+00
         13   -1    0    0    0    0  0.00000000000E+00  0.00000000000E+00  0.14999999963E+04  0.15000000000E+04  0.10566000000E+00 0.  1.
        994   -1    0    0    0    0 -0.00000000000E+00 -0.00000000000E+00  0.11368683772E-12  0.17120000000E+03  0.17120000000E+03 0.  0.
         13    1    1    2    0    0  0.17169250752E+02 -0.60007777575E+01  0.82495252846E+02  0.84476448856E+02  0.10566000000E+00 0.  1.
        994    1    1    2    0    0 -0.15577295470E+02  0.90176066139E+01  0.29901928028E+01  0.17216954033E+03  0.17120000000E+03 0.  0.
        998    1    1    2    0    0 -0.15919552827E+01 -0.30168288564E+01  0.14145145506E+04  0.14145540108E+04  0.10000000000E+02 0.  1.
</event>
<event>
 5    1  0.7732857E-009  0.3829977E+03  0.7957747E-01  0.3438209E+00
         13   -1    0    0    0    0  0.00000000000E+00  0.00000000000E+00  0.14999999963E+04  0.15000000000E+04  0.10566000000E+00 0.  1.
        994   -1    0    0    0    0 -0.00000000000E+00 -0.00000000000E+00  0.11368683772E-12  0.17120000000E+03  0.17120000000E+03 0.  0.
         13    1    1    2    0    0  0.12524387219E+02  0.10366194049E+02  0.49002964389E+02  0.51629642040E+02  0.10566000000E+00 0.  1.
        994    1    1    2    0    0 -0.11121256675E+02 -0.69817002573E+01  0.31984759927E+01  0.17173263154E+03  0.17120000000E+03 0.  0.
        998    1    1    2    0    0 -0.14031305447E+01 -0.33844937918E+01  0.14477985559E+04  0.14478377264E+04  0.10000000000E+02 0.  1.
</event>
<event>
 5    1  0.7732857E-009  0.3737549E+03  0.7957747E-01  0.3478810E+00
         13   -1    0    0    0    0  0.00000000000E+00  0.00000000000E+00  0.14999999963E+04  0.15000000000E+04  0.10566000000E+00 0.  1.
        994   -1    0    0    0    0 -0.00000000000E+00 -0.00000000000E+00  0.11368683772E-12  0.17120000000E+03  0.17120000000E+03 0.  0.
         13    1    1    2    0    0  0.42411140580E+02 -0.72329263140E+00  0.11461177412E+03  0.12220923831E+03  0.10566000000E+00 0.  1.
        994    1    1    2    0    0 -0.37016005187E+02  0.18602564569E+01  0.12022940633E+02  0.17557800630E+03  0.17120000000E+03 0.  0.
        998    1    1    2    0    0 -0.53951353932E+01 -0.11369638255E+01  0.13733652815E+04  0.13734127554E+04  0.10000000000E+02 0.  1.
</event>
<event>
 5    1  0.7732857E-009  0.3809776E+03  0.7957747E-01  0.3446913E+00
         13   -1    0    0    0    0  0.00000000000E+00  0.00000000000E+00  0.14999999963E+04  0.15000000000E+04  0.10566000000E+00 0.  1.
        994   -1    0    0    0    0 -0.00000000000E+00 -0.00000000000E+00  0.11368683772E-12  0.17120000000E+03  0.17120000000E+03 0.  0.
         13    1    1    2    0    0  0.38490887291E+02  0.43306900683E+01  0.19050076893E+03  0.19439870732E+03  0.10566000000E+00 0.  1.
        994    1    1    2    0    0 -0.31541860998E+02 -0.65294000366E+01  0.71053584037E+01  0.17434863974E+03  0.17120000000E+03 0.  0.
        998    1    1    2    0    0 -0.69490262925E+01  0.21987099683E+01  0.13023938689E+04  0.13024526529E+04  0.10000000000E+02 0.  1.
</event>
<event>
 5    1  0.7732857E-009  0.3776743E+03  0.7957747E-01  0.3461348E+00
         13   -1    0    0    0    0  0.00000000000E+00  0.00000000000E+00  0.14999999963E+04  0.15000000000E+04  0.10566000000E+00 0. -1.
        994   -1    0    0    0    0 -0.00000000000E+00 -0.00000000000E+00  0.11368683772E-12  0.17120000000E+03  0.17120000000E+03 0.  0.
         13    1    1    2    0    0  0.14219687181E+02 -0.11179468048E+02  0.28338353426E+02  0.33619242232E+02  0.10566000000E+00 0. -1.
        994    1    1    2    0    0 -0.11385901636E+02  0.11231712733E+02  0.61739791224E+01  0.17205623542E+03  0.17120000000E+03 0.  0.
        998    1    1    2    0    0 -0.28337855455E+01 -0.52244684923E-01  0.14654876637E+04  0.14655245224E+04  0.10000000000E+02 0. -1.
</event>
<event>
 5    1  0.7732857E-009  0.3824753E+03  0.7957747E-01  0.3440451E+00
         13   -1    0    0    0    0  0.00000000000E+00  0.00000000000E+00  0.14999999963E+04  0.15000000000E+04  0.10566000000E+00 0.  1.
        994   -1    0    0    0    0 -0.00000000000E+00 -0.00000000000E+00  0.11368683772E-12  0.17120000000E+03  0.17120000000E+03 0.  0.
         13    1    1    2    0    0 -0.22722536231E+02 -0.45192021548E+02  0.30475215669E+03  0.30892154447E+03  0.10566000000E+00 0.  1.
        994    1    1    2    0    0  0.40209278679E+02  0.52510331138E+02  0.17530542170E+02  0.18436615979E+03  0.17120000000E+03 0.  0.
        998    1    1    2    0    0 -0.17486742448E+02 -0.73183095901E+01  0.11777172974E+04  0.11779122957E+04  0.10000000000E+02 0.  1.
</event>
<event>
 5    1  0.7732857E-009  0.3729850E+03  0.7957747E-01  0.3482284E+00
         13   -1    0    0    0    0  0.00000000000E+00  0.00000000000E+00  0.14999999963E+04  0.15000000000E+04  0.10566000000E+00 0. -1.
        994   -1    0    0    0    0 -0.00000000000E+00 -0.00000000000E+00  0.11368683772E-12  0.17120000000E+03  0.17120000000E+03 0.  0.
         13    1    1    2    0    0 -0.21270179332E+02 -0.38224814037E+00  0.25875271034E+02  0.33497872433E+02  0.10566000000E+00 0. -1.
        994    1    1    2    0    0  0.18324013681E+02 -0.70417402642E+01  0.90370786053E+01  0.17255858244E+03  0.17120000000E+03 0.  0.
        998    1    1    2    0    0  0.29461656512E+01  0.74239884046E+01  0.14650876466E+04  0.14651435451E+04  0.10000000000E+02 0. -1.
</event>
<event>
 5    1  0.7732857E-009  0.3828129E+03  0.7957747E-01  0.3439001E+00
         13   -1    0    0    0    0  0.00000000000E+00  0.00000000000E+00  0.14999999963E+04  0.15000000000E+04  0.10566000000E+00 0. -1.
        994   -1    0    0    0    0 -0.00000000000E+00 -0.00000000000E+00  0.11368683772E-12  0.17120000000E+03  0.17120000000E+03 0.  0.
         13    1    1    2    0    0  0.10258630841E+02  0.15788150318E+02  0.63673410007E+02  0.66398942033E+02  0.10566000000E+00 0. -1.
        994    1    1    2    0    0 -0.54044084065E+01 -0.13535195391E+02  0.34237575536E+01  0.17185334230E+03  0.17120000000E+03 0.  0.
        998    1    1    2    0    0 -0.48542224342E+01 -0.22529549270E+01  0.14329028287E+04  0.14329477157E+04  0.10000000000E+02 0. -1.
</event>
<event>
 5    1  0.8571540E-009  0.3855793E+03  0.7957747E-01  0.3427219E+00
         13   -1    0    0    0    0  0.00000000000E+00  0.00000000000E+00  0.14999999963E+04  0.15000000000E+04  0.10566000000E+00 0.  1.
        994   -1    0    0    0    0 -0.00000000000E+00 -0.00000000000E+00  0.11368683772E-12  0.17120000000E+03  0.17120000000E+03 0.  0.
         13    1    1    2    0    0  0.16127070724E+02 -0.27463916591E+01  0.90727122056E+02  0.92190275615E+02  0.10566000000E+00 0.  1.
        994    1    1    2    0    0 -0.21600870711E+02  0.98728249655E+01  0.31965292572E+01  0.17286910680E+03  0.17120000000E+03 0.  0.
        998    1    1    2    0    0  0.54737999861E+01 -0.71264333065E+01  0.14060763450E+04  0.14061406176E+04  0.10000000000E+02 0.  1.
</event>
<event>
 5    1  0.7732857E-009  0.3816982E+03  0.7957747E-01  0.3443797E+00
         13   -1    0    0    0    0  0.00000000000E+00  0.00000000000E+00  0.14999999963E+04  0.15000000000E+04  0.10566000000E+00 0. -1.
        994   -1    0    0    0    0 -0.00000000000E+00 -0.00000000000E+00  0.11368683772E-12  0.17120000000E+03  0.17120000000E+03 0.  0.
         13    1    1    2    0    0 -0.10574140654E+02  0.27824502614E+02  0.13453779983E+03  0.13779131374E+03  0.10566000000E+00 0. -1.
        994    1    1    2    0    0  0.10199530425E+02 -0.14574486324E+02  0.43309826247E+01  0.17217619894E+03  0.17120000000E+03 0.  0.
        998    1    1    2    0    0  0.37461022872E+00 -0.13250016290E+02  0.13611312138E+04  0.13612324873E+04  0.10000000000E+02 0. -1.
</event>
<event>
 5    1  0.7732857E-009  0.3850511E+03  0.7957747E-01  0.3429455E+00
         13   -1    0    0    0    0  0.00000000000E+00  0.00000000000E+00  0.14999999963E+04  0.15000000000E+04  0.10566000000E+00 0.  1.
        994   -1    0    0    0    0 -0.00000000000E+00 -0.00000000000E+00  0.11368683772E-12  0.17120000000E+03  0.17120000000E+03 0.  0.
         13    1    1    2    0    0 -0.10469317899E+02 -0.65456866454E+01  0.47279488245E+02  0.48865261727E+02  0.10566000000E+00 0.  1.
        994    1    1    2    0    0  0.64837377193E+01  0.65169318383E+01  0.18826801491E+01  0.17145697344E+03  0.17120000000E+03 0.  0.
        998    1    1    2    0    0  0.39855801793E+01  0.28754807090E-01  0.14508378279E+04  0.14508777648E+04  0.10000000000E+02 0.  1.
</event>
<event>
 5    1  0.7732857E-009  0.3730878E+03  0.7957747E-01  0.3481819E+00
         13   -1    0    0    0    0  0.00000000000E+00  0.00000000000E+00  0.14999999963E+04  0.15000000000E+04  0.10566000000E+00 0.  1.
        994   -1    0    0    0    0 -0.00000000000E+00 -0.00000000000E+00  0.11368683772E-12  0.17120000000E+03  0.17120000000E+03 0.  0.
         13    1    1    2    0    0 -0.30781617660E+01 -0.28648615741E+02  0.51430646076E+02  0.58952021030E+02  0.10566000000E+00 0.  1.
        994    1    1    2    0    0  0.18845913081E+00  0.17610442404E+02  0.87258346285E+01  0.17232452927E+03  0.17120000000E+03 0.  0.
        998    1    1    2    0    0  0.28897026352E+01  0.11038173337E+02  0.14398435156E+04  0.14399234497E+04  0.10000000000E+02 0.  1.
</event>
<event>
 5    1  0.7732857E-009  0.3814979E+03  0.7957747E-01  0.3444662E+00
         13   -1    0    0    0    0  0.00000000000E+00  0.00000000000E+00  0.14999999963E+04  0.15000000000E+04  0.10566000000E+00 0. -1.
        994   -1    0    0    0    0 -0.00000000000E+00 -0.00000000000E+00  0.11368683772E-12  0.17120000000E+03  0.17120000000E+03 0.  0.
         13    1    1    2    0    0  0.13922108670E+02  0.93185167819E+01  0.40094390828E+02  0.43453782398E+02  0.10566000000E+00 0. -1.
        994    1    1    2    0    0 -0.16717685848E+02  0.22797882275E+01  0.43264359093E+01  0.17208380662E+03  0.17120000000E+03 0.  0.
        998    1    1    2    0    0  0.27955771776E+01 -0.11598305009E+02  0.14555791695E+04  0.14556624110E+04  0.10000000000E+02 0. -1.
</event>
<event>
 5    1  0.7732857E-009  0.3803127E+03  0.7957747E-01  0.3449798E+00
         13   -1    0    0    0    0  0.00000000000E+00  0.00000000000E+00  0.14999999963E+04  0.15000000000E+04  0.10566000000E+00 0. -1.
        994   -1    0    0    0    0 -0.00000000000E+00 -0.00000000000E+00  0.11368683772E-12  0.17120000000E+03  0.17120000000E+03 0.  0.
         13    1    1    2    0    0  0.23192358856E+02 -0.19088709752E+02  0.11329443094E+03  0.11720880340E+03  0.10566000000E+00 0. -1.
        994    1    1    2    0    0 -0.11771616173E+02  0.11249012648E+02  0.48612057375E+01  0.17204122341E+03  0.17120000000E+03 0.  0.
        998    1    1    2    0    0 -0.11420742682E+02  0.78396971036E+01  0.13818443596E+04  0.13819499732E+04  0.10000000000E+02 0. -1.
</event>
<event>
 5    1  0.7732857E-009  0.3809247E+03  0.7957747E-01  0.3447142E+00
         13   -1    0    0    0    0  0.00000000000E+00  0.00000000000E+00  0.14999999963E+04  0.15000000000E+04  0.10566000000E+00 0. -1.
        994   -1    0    0    0    0 -0.00000000000E+00 -0.00000000000E+00  0.11368683772E-12  0.17120000000E+03  0.17120000000E+03 0.  0.
         13    1    1    2    0    0 -0.33994890198E+02 -0.36195061220E+01  0.16172277629E+03  0.16529676621E+03  0.10566000000E+00 0. -1.
        994    1    1    2    0    0  0.16617570699E+02  0.28329714777E+01  0.46147285630E+01  0.17208981696E+03  0.17120000000E+03 0.  0.
        998    1    1    2    0    0  0.17377319499E+02  0.78653464423E+00  0.13336624914E+04  0.13338134168E+04  0.10000000000E+02 0. -1.
</event>
<event>
 5    1  0.7732857E-009  0.4343644E+03  0.7957747E-01  0.3243975E+00
         13   -1    0    0    0    0  0.00000000000E+00  0.00000000000E+00  0.14999999963E+04  0.15000000000E+04  0.10566000000E+00 0.  1.
        994   -1    0    0    0    0 -0.00000000000E+00 -0.00000000000E+00  0.11368683772E-12  0.17120000000E+03  0.17120000000E+03 0.  0.
         13    1    1    2    0    0 -0.30869046069E+02 -0.11538298644E+03  0.13473164306E+03  0.18005209905E+03  0.10566000000E+00 0.  1.
        994    1    1    2    0    0 -0.75549453666E+02  0.92841658596E+02  0.11962048443E+03  0.24071932580E+03  0.17120000000E+03 0.  0.
        998    1    1    2    0    0  0.10641849974E+03  0.22541327839E+02  0.12456478688E+04  0.12504285751E+04  0.10000000000E+02 0.  1.
</event>
<event>
 5    1  0.7732857E-009  0.3739841E+03  0.7957747E-01  0.3477779E+00
         13   -1    0    0    0    0  0.00000000000E+00  0.00000000000E+00  0.14999999963E+04  0.15000000000E+04  0.10566000000E+00 0.  1.
        994   -1    0    0    0    0 -0.00000000000E+00 -0.00000000000E+00  0.11368683772E-12  0.17120000000E+03  0.17120000000E+03 0.  0.
         13    1    1    2    0    0  0.19486099113E+02  0.10055582005E+02  0.29824186494E+02  0.37017780217E+02  0.10566000000E+00 0.  1.
        994    1    1    2    0    0 -0.17061810524E+02 -0.16078580304E+02  0.90783060955E+01  0.17303607070E+03  0.17120000000E+03 0.  0.
        998    1    1    2    0    0 -0.24242885889E+01  0.60229982988E+01  0.14610975037E+04  0.14611461491E+04  0.10000000000E+02 0.  1.
</event>
<event>
 5    1  0.7732857E-009  0.3754434E+03  0.7957747E-01  0.3471242E+00
         13   -1    0    0    0    0  0.00000000000E+00  0.00000000000E+00  0.14999999963E+04  0.15000000000E+04  0.10566000000E+00 0. -1.
        994   -1    0    0    0    0 -0.00000000000E+00 -0.00000000000E+00  0.11368683772E-12  0.17120000000E+03  0.17120000000E+03 0.  0.
         13    1    1    2    0    0  0.16728100079E+02 -0.56944516046E+02  0.24750581258E+03  0.25452238735E+03  0.10566000000E+00 0. -1.
        994    1    1    2    0    0 -0.39559542221E+01  0.48359253523E+02  0.14484101317E+02  0.17853149909E+03  0.17120000000E+03 0.  0.
        998    1    1    2    0    0 -0.12772145857E+02  0.85852625231E+01  0.12380100824E+04  0.12381461136E+04  0.10000000000E+02 0. -1.
</event>
<event>
 5    1  0.7732857E-009  0.3829072E+03  0.7957747E-01  0.3438597E+00
         13   -1    0    0    0    0  0.00000000000E+00  0.00000000000E+00  0.14999999963E+04  0.15000000000E+04  0.10566000000E+00 0. -1.
        994   -1    0    0    0    0 -0.00000000000E+00 -0.00000000000E+00  0.11368683772E-12  0.17120000000E+03  0.17120000000E+03 0.  0.
         13    1    1    2    0    0  0.16393381264E+02  0.33109557276E+02  0.20569944463E+03  0.20899104865E+03  0.10566000000E+00 0. -1.
        994    1    1    2    0    0 -0.32374709922E+02 -0.35208451029E+02  0.10285004737E+02  0.17805330154E+03  0.17120000000E+03 0.  0.
        998    1    1    2    0    0  0.15981328658E+02  0.20988937531E+01  0.12840155469E+04  0.12841556498E+04  0.10000000000E+02 0. -1.
</event>
<event>
 5    1  0.7732857E-009  0.3718540E+03  0.7957747E-01  0.3487413E+00
         13   -1    0    0    0    0  0.00000000000E+00  0.00000000000E+00  0.14999999963E+04  0.15000000000E+04  0.10566000000E+00 0.  1.
        994   -1    0    0    0    0 -0.00000000000E+00 -0.00000000000E+00  0.11368683772E-12  0.17120000000E+03  0.17120000000E+03 0.  0.
         13    1    1    2    0    0 -0.18653307727E+01 -0.12357379661E+03  0.50096661226E+03  0.51598596922E+03  0.10566000000E+00 0.  1.
        994    1    1    2    0    0 -0.12607983143E+02  0.13923858066E+03  0.78770760010E+02  0.23464998661E+03  0.17120000000E+03 0.  0.
        998    1    1    2    0    0  0.14473313916E+02 -0.15664784051E+02  0.92026262401E+03  0.92056404417E+03  0.10000000000E+02 0. -1.
</event>
<event>
 5    1  0.7732857E-009  0.3802885E+03  0.7957747E-01  0.3449903E+00
         13   -1    0    0    0    0  0.00000000000E+00  0.00000000000E+00  0.14999999963E+04  0.15000000000E+04  0.10566000000E+00 0.  1.
        994   -1    0    0    0    0 -0.00000000000E+00 -0.00000000000E+00  0.11368683772E-12  0.17120000000E+03  0.17120000000E+03 0.  0.
         13    1    1    2    0    0  0.57439305253E+02  0.10764278682E+02  0.33377246887E+03  0.33884984230E+03  0.10566000000E+00 0.  1.
        994    1    1    2    0    0 -0.57244214252E+02 -0.12160497115E+02  0.15511388552E+02  0.18158970491E+03  0.17120000000E+03 0.  0.
        998    1    1    2    0    0 -0.19509100078E+00  0.13962184338E+01  0.11507161389E+04  0.11507604528E+04  0.10000000000E+02 0.  1.
</event>
<event>
 5    1  0.7732857E-009  0.3726497E+03  0.7957747E-01  0.3483801E+00
         13   -1    0    0    0    0  0.00000000000E+00  0.00000000000E+00  0.14999999963E+04  0.15000000000E+04  0.10566000000E+00 0. -1.
        994   -1    0    0    0    0 -0.00000000000E+00 -0.00000000000E+00  0.11368683772E-12  0.17120000000E+03  0.17120000000E+03 0.  0.
         13    1    1    2    0    0 -0.39783042768E+02 -0.15160627033E+03  0.68243730973E+03  0.70020557308E+03  0.10566000000E+00 0. -1.
        994    1    1    2    0    0 -0.13447815168E+02  0.18319422300E+03  0.13410306250E+03  0.28466478258E+03  0.17120000000E+03 0.  0.
        998    1    1    2    0    0  0.53230857936E+02 -0.31587952671E+02  0.68345962405E+03  0.68632964434E+03  0.10000000000E+02 0. -1.
</event>
<event>
 5    1  0.7732857E-009  0.3751821E+03  0.7957747E-01  0.3472409E+00
         13   -1    0    0    0    0  0.00000000000E+00  0.00000000000E+00  0.14999999963E+04  0.15000000000E+04  0.10566000000E+00 0. -1.
        994   -1    0    0    0    0 -0.00000000000E+00 -0.00000000000E+00  0.11368683772E-12  0.17120000000E+03  0.17120000000E+03 0.  0.
         13    1    1    2    0    0  0.67775463519E+01  0.37261980264E+02  0.11292372133E+03  0.11910570226E+03  0.10566000000E+00 0. -1.
        994    1    1    2    0    0 -0.11535913891E+02 -0.83509579685E+01  0.72745283296E+01  0.17194526621E+03  0.17120000000E+03 0.  0.
        998    1    1    2    0    0  0.47583675396E+01 -0.28911022295E+02  0.13798017466E+04  0.13801490315E+04  0.10000000000E+02 0. -1.
</event>
<event>
 5    1  0.7732857E-009  0.3744837E+03  0.7957747E-01  0.3475535E+00
         13   -1    0    0    0    0  0.00000000000E+00  0.00000000000E+00  0.14999999963E+04  0.15000000000E+04  0.10566000000E+00 0.  1.
        994   -1    0    0    0    0 -0.00000000000E+00 -0.00000000000E+00  0.11368683772E-12  0.17120000000E+03  0.17120000000E+03 0.  0.
         13    1    1    2    0    0 -0.39213363487E+02 -0.35511998470E+02  0.31094945818E+03  0.31541776523E+03  0.10566000000E+00 0.  1.
        994    1    1    2    0    0 -0.52103959863E+02  0.30329153373E+02  0.19423145346E+02  0.18254144393E+03  0.17120000000E+03 0.  0.
        998    1    1    2    0    0  0.91317323350E+02  0.51828450970E+01  0.11696273927E+04  0.11732407908E+04  0.10000000000E+02 0.  1.
</event>
<event>
 5    1  0.7732857E-009  0.3837040E+03  0.7957747E-01  0.3435187E+00
         13   -1    0    0    0    0  0.00000000000E+00  0.00000000000E+00  0.14999999963E+04  0.15000000000E+04  0.10566000000E+00 0.  1.
        994   -1    0    0    0    0 -0.00000000000E+00 -0.00000000000E+00  0.11368683772E-12  0.17120000000E+03  0.17120000000E+03 0.  0.
         13    1    1    2    0    0 -0.10746918313E+02 -0.78989071369E+01  0.38714317377E+02  0.40947509341E+02  0.10566000000E+00 0.  1.
        994    1    1    2    0    0  0.61018349282E+01  0.44141773912E+01  0.24622741756E+01  0.17138325515E+03  0.17120000000E+03 0.  0.
        998    1    1    2    0    0  0.46450833847E+01  0.34847297457E+01  0.14588234047E+04  0.14588692355E+04  0.10000000000E+02 0.  1.
</event>
<event>
 5    1  0.7732857E-009  0.3820752E+03  0.7957747E-01  0.3442172E+00
         13   -1    0    0    0    0  0.00000000000E+00  0.00000000000E+00  0.14999999963E+04  0.15000000000E+04  0.10566000000E+00 0.  1.
        994   -1    0    0    0    0 -0.00000000000E+00 -0.00000000000E+00  0.11368683772E-12  0.17120000000E+03  0.17120000000E+03 0.  0.
         13    1    1    2    0    0 -0.18438324754E+01 -0.14431997600E+02  0.32889431146E+02  0.35963983624E+02  0.10566000000E+00 0.  1.
        994    1    1    2    0    0  0.14277889664E+01  0.11974091806E+02  0.35721818207E+01  0.17166134667E+03  0.17120000000E+03 0.  0.
        998    1    1    2    0    0  0.41604350904E+00  0.24579057943E+01  0.14635383833E+04  0.14635746697E+04  0.10000000000E+02 0.  0.
</event>
<event>
 5    1  0.7732857E-009  0.3800628E+03  0.7957747E-01  0.3450885E+00
         13   -1    0    0    0    0  0.00000000000E+00  0.00000000000E+00  0.14999999963E+04  0.15000000000E+04  0.10566000000E+00 0. -1.
        994   -1    0    0    0    0 -0.00000000000E+00 -0.00000000000E+00  0.11368683772E-12  0.17120000000E+03  0.17120000000E+03 0.  0.
         13    1    1    2    0    0 -0.47876160350E+02  0.11188763941E+02  0.25753145147E+03  0.26218271268E+03  0.10566000000E+00 0. -1.
        994    1    1    2    0    0  0.47348511932E+02  0.84175632873E+01  0.11870162963E+02  0.17822199001E+03  0.17120000000E+03 0.  0.
        998    1    1    2    0    0  0.52764841829E+00 -0.19606327228E+02  0.12305983818E+04  0.12307952973E+04  0.10000000000E+02 0. -1.
</event>
<event>
 5    1  0.7732857E-009  0.3824494E+03  0.7957747E-01  0.3440562E+00
         13   -1    0    0    0    0  0.00000000000E+00  0.00000000000E+00  0.14999999963E+04  0.15000000000E+04  0.10566000000E+00 0.  1.
        994   -1    0    0    0    0 -0.00000000000E+00 -0.00000000000E+00  0.11368683772E-12  0.17120000000E+03  0.17120000000E+03 0.  0.
         13    1    1    2    0    0 -0.28770996401E+01  0.11277770304E+02  0.22003205104E+02  0.24892127355E+02  0.10566000000E+00 0.  1.
        994    1    1    2    0    0 -0.21942298174E+01 -0.12517187108E+02  0.34374869810E+01  0.17170541906E+03  0.17120000000E+03 0.  0.
        998    1    1    2    0    0  0.50713294575E+01  0.12394168031E+01  0.14745593042E+04  0.14746024536E+04  0.10000000000E+02 0.  1.
</event>
<event>
 5    1  0.7732857E-009  0.3708665E+03  0.7957747E-01  0.3491918E+00
         13   -1    0    0    0    0  0.00000000000E+00  0.00000000000E+00  0.14999999963E+04  0.15000000000E+04  0.10566000000E+00 0. -1.
        994   -1    0    0    0    0 -0.00000000000E+00 -0.00000000000E+00  0.11368683772E-12  0.17120000000E+03  0.17120000000E+03 0.  0.
         13    1    1    2    0    0 -0.12458026775E+02 -0.44407198973E+02  0.84848681649E+02  0.96573866513E+02  0.10566000000E+00 0. -1.
        994    1    1    2    0    0  0.50415995171E+01  0.45679952102E+02  0.18840892755E+02  0.17825962804E+03  0.17120000000E+03 0.  0.
        998    1    1    2    0    0  0.74164272580E+01 -0.12727531294E+01  0.13963104219E+04  0.13963665054E+04  0.10000000000E+02 0. -1.
</event>
<event>
 5    1  0.7732857E-009  0.3831915E+03  0.7957747E-01  0.3437379E+00
         13   -1    0    0    0    0  0.00000000000E+00  0.00000000000E+00  0.14999999963E+04  0.15000000000E+04  0.10566000000E+00 0.  1.
        994   -1    0    0    0    0 -0.00000000000E+00 -0.00000000000E+00  0.11368683772E-12  0.17120000000E+03  0.17120000000E+03 0.  0.
         13    1    1    2    0    0  0.60925776919E+00 -0.36289926734E+02  0.17776129509E+03  0.18142882674E+03  0.10566000000E+00 0.  1.
        994    1    1    2    0    0  0.17098305696E+02  0.68710593917E+02  0.19296152963E+02  0.18626668863E+03  0.17120000000E+03 0.  0.
        998    1    1    2    0    0 -0.17707563465E+02 -0.32420667183E+02  0.13029425482E+04  0.13035044846E+04  0.10000000000E+02 0.  1.
</event>
<event>
 5    1  0.7732857E-009  0.3848370E+03  0.7957747E-01  0.3430364E+00
         13   -1    0    0    0    0  0.00000000000E+00  0.00000000000E+00  0.14999999963E+04  0.15000000000E+04  0.10566000000E+00 0. -1.
        994   -1    0    0    0    0 -0.00000000000E+00 -0.00000000000E+00  0.11368683772E-12  0.17120000000E+03  0.17120000000E+03 0.  0.
         13    1    1    2    0    0  0.81406248712E+01  0.82605884251E+01  0.39227003567E+02  0.40905697248E+02  0.10566000000E+00 0. -1.
        994    1    1    2    0    0 -0.89364094505E+01 -0.12587086220E+01  0.19791043289E+01  0.17144911961E+03  0.17120000000E+03 0.  0.
        998    1    1    2    0    0  0.79578457930E+00 -0.70018798031E+01  0.14587938884E+04  0.14588451831E+04  0.10000000000E+02 0. -1.
</event>
<event>
 5    1  0.7732857E-009  0.3817190E+03  0.7957747E-01  0.3443708E+00
         13   -1    0    0    0    0  0.00000000000E+00  0.00000000000E+00  0.14999999963E+04  0.15000000000E+04  0.10566000000E+00 0. -1.
        994   -1    0    0    0    0 -0.00000000000E+00 -0.00000000000E+00  0.11368683772E-12  0.17120000000E+03  0.17120000000E+03 0.  0.
         13    1    1    2    0    0  0.90316876147E+01 -0.16800979897E+02  0.52315222385E+02  0.55684270346E+02  0.10566000000E+00 0. -1.
        994    1    1    2    0    0 -0.15395639124E+02  0.17146194185E+02  0.50350515705E+01  0.17281727177E+03  0.17120000000E+03 0.  0.
        998    1    1    2    0    0  0.63639515092E+01 -0.34521428799E+00  0.14426497223E+04  0.14426984579E+04  0.10000000000E+02 0. -1.
</event>
<event>
 5    1  0.9410749E-009  0.3858646E+03  0.7957747E-01  0.3426013E+00
         13   -1    0    0    0    0  0.00000000000E+00  0.00000000000E+00  0.14999999963E+04  0.15000000000E+04  0.10566000000E+00 0. -1.
        994   -1    0    0    0    0 -0.00000000000E+00 -0.00000000000E+00  0.11368683772E-12  0.17120000000E+03  0.17120000000E+03 0.  0.
         13    1    1    2    0    0 -0.10639035694E+02  0.95147425418E+01  0.80549132243E+02  0.81803993027E+02  0.10566000000E+00 0. -1.
        994    1    1    2    0    0  0.18237803088E+02 -0.50334969808E+01  0.23762415729E+01  0.17225864297E+03  0.17120000000E+03 0.  0.
        998    1    1    2    0    0 -0.75987673947E+01 -0.44812455610E+01  0.14170746225E+04  0.14171373640E+04  0.10000000000E+02 0. -1.
</event>
<event>
 5    1  0.7732857E-009  0.3814773E+03  0.7957747E-01  0.3444751E+00
         13   -1    0    0    0    0  0.00000000000E+00  0.00000000000E+00  0.14999999963E+04  0.15000000000E+04  0.10566000000E+00 0.  1.
        994   -1    0    0    0    0 -0.00000000000E+00 -0.00000000000E+00  0.11368683772E-12  0.17120000000E+03  0.17120000000E+03 0.  0.
         13    1    1    2    0    0  0.19053398663E+02  0.20291831643E+02  0.11924971789E+03  0.12245528496E+03  0.10566000000E+00 0.  1.
        994    1    1    2    0    0 -0.20668944441E+01 -0.95691904916E+01  0.37081474559E+01  0.17151977092E+03  0.17120000000E+03 0.  0.
        998    1    1    2    0    0 -0.16986504219E+02 -0.10722641151E+02  0.13770421309E+04  0.13772249441E+04  0.10000000000E+02 0.  1.
</event>
<event>
 5    1  0.7732857E-009  0.3766651E+03  0.7957747E-01  0.3465809E+00
         13   -1    0    0    0    0  0.00000000000E+00  0.00000000000E+00  0.14999999963E+04  0.15000000000E+04  0.10566000000E+00 0. -1.
        994   -1    0    0    0    0 -0.00000000000E+00 -0.00000000000E+00  0.11368683772E-12  0.17120000000E+03  0.17120000000E+03 0.  0.
         13    1    1    2    0    0  0.20668482966E+02  0.12589178850E+00  0.34019064256E+02  0.39805903253E+02  0.10566000000E+00 0. -1.
        994    1    1    2    0    0 -0.16931693552E+02  0.94238961930E+01  0.70963861621E+01  0.17243923789E+03  0.17120000000E+03 0.  0.
        998    1    1    2    0    0 -0.37367894139E+01 -0.95497879815E+01  0.14588845459E+04  0.14589548589E+04  0.10000000000E+02 0. -1.
</event>
<event>
 5    1  0.7732857E-009  0.3847207E+03  0.7957747E-01  0.3430858E+00
         13   -1    0    0    0    0  0.00000000000E+00  0.00000000000E+00  0.14999999963E+04  0.15000000000E+04  0.10566000000E+00 0. -1.
        994   -1    0    0    0    0 -0.00000000000E+00 -0.00000000000E+00  0.11368683772E-12  0.17120000000E+03  0.17120000000E+03 0.  0.
         13    1    1    2    0    0 -0.27116505819E+01 -0.12035085244E+02  0.41744669139E+02  0.43529586390E+02  0.10566000000E+00 0. -1.
        994    1    1    2    0    0  0.80693858849E+00  0.13475472936E+02  0.23689704609E+01  0.17174775557E+03  0.17120000000E+03 0.  0.
        998    1    1    2    0    0  0.19047119934E+01 -0.14403876916E+01  0.14558863567E+04  0.14559226580E+04  0.10000000000E+02 0. -1.
</event>
<event>
 5    1  0.7732857E-009  0.3810991E+03  0.7957747E-01  0.3446387E+00
         13   -1    0    0    0    0  0.00000000000E+00  0.00000000000E+00  0.14999999963E+04  0.15000000000E+04  0.10566000000E+00 0.  1.
        994   -1    0    0    0    0 -0.00000000000E+00 -0.00000000000E+00  0.11368683772E-12  0.17120000000E+03  0.17120000000E+03 0.  0.
         13    1    1    2    0    0  0.15231559649E+02  0.42312078977E+02  0.24170365071E+03  0.24585153725E+03  0.10566000000E+00 0.  1.
        994    1    1    2    0    0 -0.11191486942E+02 -0.42181439016E+02  0.99491298415E+01  0.17695465058E+03  0.17120000000E+03 0.  0.
        998    1    1    2    0    0 -0.40400727065E+01 -0.13063996107E+00  0.12483472157E+04  0.12483938122E+04  0.10000000000E+02 0.  1.
</event>
<event>
 5    1  0.7732857E-009  0.3858055E+03  0.7957747E-01  0.3426263E+00
         13   -1    0    0    0    0  0.00000000000E+00  0.00000000000E+00  0.14999999963E+04  0.15000000000E+04  0.10566000000E+00 0.  1.
        994   -1    0    0    0    0 -0.00000000000E+00 -0.00000000000E+00  0.11368683772E-12  0.17120000000E+03  0.17120000000E+03 0.  0.
         13    1    1    2    0    0 -0.60569127835E+01  0.85730470341E+01  0.45027906054E+02  0.46235341629E+02  0.10566000000E+00 0.  1.
        994    1    1    2    0    0  0.13964877241E+01 -0.81610348192E+01  0.14556366352E+01  0.17140627627E+03  0.17120000000E+03 0.  0.
        998    1    1    2    0    0  0.46604250594E+01 -0.41201221490E+00  0.14535164536E+04  0.14535583821E+04  0.10000000000E+02 0.  1.
</event>
<event>
 5    1  0.7732857E-009  0.3843503E+03  0.7957747E-01  0.3432432E+00
         13   -1    0    0    0    0  0.00000000000E+00  0.00000000000E+00  0.14999999963E+04  0.15000000000E+04  0.10566000000E+00 0. -1.
        994   -1    0    0    0    0 -0.00000000000E+00 -0.00000000000E+00  0.11368683772E-12  0.17120000000E+03  0.17120000000E+03 0.  0.
         13    1    1    2    0    0  0.11132045664E+02 -0.73441021940E+01 -0.38755328346E+01  0.13888455511E+02  0.10566000000E+00 0. -1.
        994    1    1    2    0    0 -0.10979939094E+02  0.10199148190E+02  0.19565215697E+02  0.17296479223E+03  0.17120000000E+03 0.  0.
        998    1    1    2    0    0 -0.15210657047E+00 -0.28550459961E+01  0.14843103134E+04  0.14843467523E+04  0.10000000000E+02 0. -1.
</event>
<event>
 5    1  0.7732857E-009  0.3817274E+03  0.7957747E-01  0.3443672E+00
         13   -1    0    0    0    0  0.00000000000E+00  0.00000000000E+00  0.14999999963E+04  0.15000000000E+04  0.10566000000E+00 0. -1.
        994   -1    0    0    0    0 -0.00000000000E+00 -0.00000000000E+00  0.11368683772E-12  0.17120000000E+03  0.17120000000E+03 0.  0.
         13    1    1    2    0    0  0.13958536946E+02  0.20881428238E+01  0.28753545159E+02  0.32030900976E+02  0.10566000000E+00 0. -1.
        994    1    1    2    0    0 -0.14230438462E+02 -0.79658511086E+01  0.41482534621E+01  0.17202502193E+03  0.17120000000E+03 0.  0.
        998    1    1    2    0    0  0.27190151652E+00  0.58777082848E+01  0.14670981977E+04  0.14671440771E+04  0.10000000000E+02 0. -1.
</event>
<event>
 5    1  0.7732857E-009  0.3746452E+03  0.7957747E-01  0.3474811E+00
         13   -1    0    0    0    0  0.00000000000E+00  0.00000000000E+00  0.14999999963E+04  0.15000000000E+04  0.10566000000E+00 0.  1.
        994   -1    0    0    0    0 -0.00000000000E+00 -0.00000000000E+00  0.11368683772E-12  0.17120000000E+03  0.17120000000E+03 0.  0.
         13    1    1    2    0    0  0.62307072443E+02  0.19632047071E+01  0.25042608906E+03  0.25806832951E+03  0.10566000000E+00 0.  1.
        994    1    1    2    0    0 -0.53429615869E+02  0.48661287391E+01  0.16720877651E+02  0.18018721045E+03  0.17120000000E+03 0.  0.
        998    1    1    2    0    0 -0.88774565742E+01 -0.68293334462E+01  0.12328530296E+04  0.12329444600E+04  0.10000000000E+02 0.  1.
</event>
<event>
 5    1  0.7732857E-009  0.3782869E+03  0.7957747E-01  0.3458652E+00
         13   -1    0    0    0    0  0.00000000000E+00  0.00000000000E+00  0.14999999963E+04  0.15000000000E+04  0.10566000000E+00 0. -1.
        994   -1    0    0    0    0 -0.00000000000E+00 -0.00000000000E+00  0.11368683772E-12  0.17120000000E+03  0.17120000000E+03 0.  0.
         13    1    1    2    0    0  0.26004619350E+02 -0.12000353051E+02  0.78263605848E+02  0.83339377639E+02  0.10566000000E+00 0. -1.
        994    1    1    2    0    0 -0.22958381257E+02  0.66599420075E+01  0.69239552829E+01  0.17299948917E+03  0.17120000000E+03 0.  0.
        998    1    1    2    0    0 -0.30462380928E+01  0.53404110432E+01  0.14148124351E+04  0.14148611332E+04  0.10000000000E+02 0. -1.
</event>
<event>
 5    1  0.7732857E-009  0.3839336E+03  0.7957747E-01  0.3434208E+00
         13   -1    0    0    0    0  0.00000000000E+00  0.00000000000E+00  0.14999999963E+04  0.15000000000E+04  0.10566000000E+00 0. -1.
        994   -1    0    0    0    0 -0.00000000000E+00 -0.00000000000E+00  0.11368683772E-12  0.17120000000E+03  0.17120000000E+03 0.  0.
         13    1    1    2    0    0 -0.78512639223E+01  0.12030856190E+02  0.62928550184E+02  0.64547636967E+02  0.10566000000E+00 0. -1.
        994    1    1    2    0    0 -0.21383575367E+02  0.34053170387E+02  0.75146566140E+01  0.17601927671E+03  0.17120000000E+03 0.  0.
        998    1    1    2    0    0  0.29234839290E+02 -0.46084026577E+02  0.14295567895E+04  0.14306330863E+04  0.10000000000E+02 0. -1.
</event>
<event>
 5    1  0.7732857E-009  0.3824169E+03  0.7957747E-01  0.3440702E+00
         13   -1    0    0    0    0  0.00000000000E+00  0.00000000000E+00  0.14999999963E+04  0.15000000000E+04  0.10566000000E+00 0.  1.
        994   -1    0    0    0    0 -0.00000000000E+00 -0.00000000000E+00  0.11368683772E-12  0.17120000000E+03  0.17120000000E+03 0.  0.
         13    1    1    2    0    0  0.10397480796E+02 -0.16431974886E+02  0.61638569371E+02  0.64633132399E+02  0.10566000000E+00 0.  1.
        994    1    1    2    0    0 -0.51115201728E+01  0.20493737664E+02  0.43990069264E+01  0.17255408481E+03  0.17120000000E+03 0.  0.
        998    1    1    2    0    0 -0.52859606228E+01 -0.40617627778E+01  0.14339624200E+04  0.14340127828E+04  0.10000000000E+02 0.  1.
</event>
<event>
 5    1  0.7732857E-009  0.3773919E+03  0.7957747E-01  0.3462594E+00
         13   -1    0    0    0    0  0.00000000000E+00  0.00000000000E+00  0.14999999963E+04  0.15000000000E+04  0.10566000000E+00 0.  1.
        994   -1    0    0    0    0 -0.00000000000E+00 -0.00000000000E+00  0.11368683772E-12  0.17120000000E+03  0.17120000000E+03 0.  0.
         13    1    1    2    0    0  0.76703464938E+02 -0.12397810658E+02  0.16191163104E+03  0.17958985125E+03  0.10566000000E+00 0.  1.
        994    1    1    2    0    0 -0.95517832009E+02  0.23519131057E+02  0.50510053848E+02  0.20380753494E+03  0.17120000000E+03 0.  0.
        998    1    1    2    0    0  0.18814367071E+02 -0.11121320398E+02  0.12875783114E+04  0.12878026138E+04  0.10000000000E+02 0.  1.
</event>
<event>
 5    1  0.7732857E-009  0.3787414E+03  0.7957747E-01  0.3456657E+00
         13   -1    0    0    0    0  0.00000000000E+00  0.00000000000E+00  0.14999999963E+04  0.15000000000E+04  0.10566000000E+00 0. -1.
        994   -1    0    0    0    0 -0.00000000000E+00 -0.00000000000E+00  0.11368683772E-12  0.17120000000E+03  0.17120000000E+03 0.  0.
         13    1    1    2    0    0 -0.40863737288E+02 -0.22727583993E+02  0.21536091380E+03  0.22037858893E+03  0.10566000000E+00 0. -1.
        994    1    1    2    0    0  0.32365145696E+02  0.12963867821E+02  0.88611582155E+01  0.17493863110E+03  0.17120000000E+03 0.  0.
        998    1    1    2    0    0  0.84985915925E+01  0.97637161718E+01  0.12757779243E+04  0.12758827800E+04  0.10000000000E+02 0. -1.
</event>
<event>
 5    1  0.7732857E-009  0.3827997E+03  0.7957747E-01  0.3439058E+00
         13   -1    0    0    0    0  0.00000000000E+00  0.00000000000E+00  0.14999999963E+04  0.15000000000E+04  0.10566000000E+00 0.  1.
        994   -1    0    0    0    0 -0.00000000000E+00 -0.00000000000E+00  0.11368683772E-12  0.17120000000E+03  0.17120000000E+03 0.  0.
         13    1    1    2    0    0 -0.75864084860E+01 -0.22059116264E+02  0.88181286460E+02  0.91214629582E+02  0.10566000000E+00 0.  1.
        994    1    1    2    0    0 -0.13241158407E+02  0.41982639367E+02  0.91719566491E+01  0.17700687860E+03  0.17120000000E+03 0.  0.
        998    1    1    2    0    0  0.20827566893E+02 -0.19923523103E+02  0.14026467532E+04  0.14029784918E+04  0.10000000000E+02 0.  1.
</event>
<event>
 5    1  0.7732857E-009  0.3856496E+03  0.7957747E-01  0.3426922E+00
         13   -1    0    0    0    0  0.00000000000E+00  0.00000000000E+00  0.14999999963E+04  0.15000000000E+04  0.10566000000E+00 0. -1.
        994   -1    0    0    0    0 -0.00000000000E+00 -0.00000000000E+00  0.11368683772E-12  0.17120000000E+03  0.17120000000E+03 0.  0.
         13    1    1    2    0    0 -0.36298767323E+00  0.12881064059E+02  0.63456683629E+02  0.64751953118E+02  0.10566000000E+00 0. -1.
        994    1    1    2    0    0 -0.22745005110E+00 -0.96033429177E+01  0.16108268728E+01  0.17147685177E+03  0.17120000000E+03 0.  0.
        998    1    1    2    0    0  0.59043772433E+00 -0.32777211410E+01  0.14349324858E+04  0.14349711951E+04  0.10000000000E+02 0. -1.
</event>
<event>
 5    1  0.7732857E-009  0.3708505E+03  0.7957747E-01  0.3491991E+00
         13   -1    0    0    0    0  0.00000000000E+00  0.00000000000E+00  0.14999999963E+04  0.15000000000E+04  0.10566000000E+00 0.  1.
        994   -1    0    0    0    0 -0.00000000000E+00 -0.00000000000E+00  0.11368683772E-12  0.17120000000E+03  0.17120000000E+03 0.  0.
         13    1    1    2    0    0  0.13274001808E+02  0.21790440575E+02  0.34141062359E+02  0.42622127205E+02  0.10566000000E+00 0.  1.
        994    1    1    2    0    0 -0.65553759449E+01 -0.53798153665E+01  0.90731716021E+01  0.17164986982E+03  0.17120000000E+03 0.  0.
        998    1    1    2    0    0 -0.67186258630E+01 -0.16410625209E+02  0.14567857623E+04  0.14569280030E+04  0.10000000000E+02 0.  1.
</event>
<event>
 5    1  0.7732857E-009  0.3796334E+03  0.7957747E-01  0.3452756E+00
         13   -1    0    0    0    0  0.00000000000E+00  0.00000000000E+00  0.14999999963E+04  0.15000000000E+04  0.10566000000E+00 0. -1.
        994   -1    0    0    0    0 -0.00000000000E+00 -0.00000000000E+00  0.11368683772E-12  0.17120000000E+03  0.17120000000E+03 0.  0.
         13    1    1    2    0    0  0.83648498626E+00 -0.24479268610E+02  0.66125453290E+02  0.70516104796E+02  0.10566000000E+00 0. -1.
        994    1    1    2    0    0 -0.26264800442E+01  0.21796364409E+02  0.59331622947E+01  0.17270385726E+03  0.17120000000E+03 0.  0.
        998    1    1    2    0    0  0.17899950579E+01  0.26829042012E+01  0.14279413807E+04  0.14279800379E+04  0.10000000000E+02 0. -1.
</event>
<event>
 5    1  0.7732857E-009  0.3764215E+03  0.7957747E-01  0.3466890E+00
         13   -1    0    0    0    0  0.00000000000E+00  0.00000000000E+00  0.14999999963E+04  0.15000000000E+04  0.10566000000E+00 0.  1.
        994   -1    0    0    0    0 -0.00000000000E+00 -0.00000000000E+00  0.11368683772E-12  0.17120000000E+03  0.17120000000E+03 0.  0.
         13    1    1    2    0    0  0.16235177991E+02 -0.13520467912E+02  0.34361268002E+02  0.40337227963E+02  0.10566000000E+00 0.  1.
        994    1    1    2    0    0 -0.19958552838E+02  0.99114152208E+01  0.76322933335E+01  0.17281282326E+03  0.17120000000E+03 0.  0.
        998    1    1    2    0    0  0.37233748475E+01  0.36090526913E+01  0.14580064349E+04  0.14580499488E+04  0.10000000000E+02 0.  1.
</event>
<event>
 5    1  0.7732857E-009  0.3858399E+03  0.7957747E-01  0.3426118E+00
         13   -1    0    0    0    0  0.00000000000E+00  0.00000000000E+00  0.14999999963E+04  0.15000000000E+04  0.10566000000E+00 0.  1.
        994   -1    0    0    0    0 -0.00000000000E+00 -0.00000000000E+00  0.11368683772E-12  0.17120000000E+03  0.17120000000E+03 0.  0.
         13    1    1    2    0    0 -0.41858376651E+01  0.98394963476E+01  0.48745541244E+02  0.49904667923E+02  0.10566000000E+00 0.  1.
        994    1    1    2    0    0 -0.61864190711E+01 -0.62107006594E+01  0.14658024774E+01  0.17143054909E+03  0.17120000000E+03 0.  0.
        998    1    1    2    0    0  0.10372256736E+02 -0.36287956882E+01  0.14497886526E+04  0.14498647830E+04  0.10000000000E+02 0.  1.
</event>
<event>
 5    1  0.7732857E-009  0.3842389E+03  0.7957747E-01  0.3432906E+00
         13   -1    0    0    0    0  0.00000000000E+00  0.00000000000E+00  0.14999999963E+04  0.15000000000E+04  0.10566000000E+00 0.  1.
        994   -1    0    0    0    0 -0.00000000000E+00 -0.00000000000E+00  0.11368683772E-12  0.17120000000E+03  0.17120000000E+03 0.  0.
         13    1    1    2    0    0  0.39989683628E+01 -0.15249451854E+02  0.61932997574E+02  0.63908097158E+02  0.10566000000E+00 0.  1.
        994    1    1    2    0    0 -0.29473696809E+01  0.87049076692E+01  0.22869727089E+01  0.17146175273E+03  0.17120000000E+03 0.  0.
        998    1    1    2    0    0 -0.10515986820E+01  0.65445441846E+01  0.14357800260E+04  0.14358301501E+04  0.10000000000E+02 0.  1.
</event>
<event>
 5    1  0.7732857E-009  0.3711556E+03  0.7957747E-01  0.3490597E+00
         13   -1    0    0    0    0  0.00000000000E+00  0.00000000000E+00  0.14999999963E+04  0.15000000000E+04  0.10566000000E+00 0. -1.
        994   -1    0    0    0    0 -0.00000000000E+00 -0.00000000000E+00  0.11368683772E-12  0.17120000000E+03  0.17120000000E+03 0.  0.
         13    1    1    2    0    0 -0.80146262296E+02 -0.56518381197E+02  0.46991603665E+03  0.48004046021E+03  0.10566000000E+00 0. -1.
        994    1    1    2    0    0  0.16048582140E+02  0.51648458949E+02  0.21890609971E+02  0.18086945321E+03  0.17120000000E+03 0.  0.
        998    1    1    2    0    0  0.64097680155E+02  0.48699222474E+01  0.10081933497E+04  0.10102900866E+04  0.10000000000E+02 0. -1.
</event>
<event>
 5    1  0.7732857E-009  0.3739731E+03  0.7957747E-01  0.3477828E+00
         13   -1    0    0    0    0  0.00000000000E+00  0.00000000000E+00  0.14999999963E+04  0.15000000000E+04  0.10566000000E+00 0.  1.
        994   -1    0    0    0    0 -0.00000000000E+00 -0.00000000000E+00  0.11368683772E-12  0.17120000000E+03  0.17120000000E+03 0.  0.
         13    1    1    2    0    0  0.16110340189E+02  0.42477087441E+02  0.14250154576E+03  0.14956786997E+03  0.10566000000E+00 0.  1.
        994    1    1    2    0    0 -0.12977351095E+02 -0.21309811000E+02  0.93333284475E+01  0.17326012440E+03  0.17120000000E+03 0.  0.
        998    1    1    2    0    0 -0.31329890939E+01 -0.21167276442E+02  0.13481651221E+04  0.13483720056E+04  0.10000000000E+02 0.  1.
</event>
<event>
 5    1  0.7732857E-009  0.3738600E+03  0.7957747E-01  0.3478337E+00
         13   -1    0    0    0    0  0.00000000000E+00  0.00000000000E+00  0.14999999963E+04  0.15000000000E+04  0.10566000000E+00 0.  1.
        994   -1    0    0    0    0 -0.00000000000E+00 -0.00000000000E+00  0.11368683772E-12  0.17120000000E+03  0.17120000000E+03 0.  0.
         13    1    1    2    0    0 -0.15000491999E+02 -0.27627546285E+01  0.12374156464E+02  0.19641244502E+02  0.10566000000E+00 0.  1.
        994    1    1    2    0    0  0.24894715629E+02  0.43959311580E+01  0.94490786199E+01  0.17331415454E+03  0.17120000000E+03 0.  0.
        998    1    1    2    0    0 -0.98942236298E+01 -0.16331765296E+01  0.14781767612E+04  0.14782446010E+04  0.10000000000E+02 0.  1.
</event>
<event>
 5    1  0.7732857E-009  0.3811614E+03  0.7957747E-01  0.3446117E+00
         13   -1    0    0    0    0  0.00000000000E+00  0.00000000000E+00  0.14999999963E+04  0.15000000000E+04  0.10566000000E+00 0. -1.
        994   -1    0    0    0    0 -0.00000000000E+00 -0.00000000000E+00  0.11368683772E-12  0.17120000000E+03  0.17120000000E+03 0.  0.
         13    1    1    2    0    0 -0.17294331972E+02  0.14476693795E+02  0.68034787196E+02  0.71675742162E+02  0.10566000000E+00 0. -1.
        994    1    1    2    0    0  0.17126529754E+02 -0.13768878661E+02  0.51578026534E+01  0.17268162314E+03  0.17120000000E+03 0.  0.
        998    1    1    2    0    0  0.16780221792E+00 -0.70781513391E+00  0.14268074064E+04  0.14268426347E+04  0.10000000000E+02 0. -1.
</event>
<event>
 5    1  0.7732857E-009  0.3828421E+03  0.7957747E-01  0.3438876E+00
         13   -1    0    0    0    0  0.00000000000E+00  0.00000000000E+00  0.14999999963E+04  0.15000000000E+04  0.10566000000E+00 0.  1.
        994   -1    0    0    0    0 -0.00000000000E+00 -0.00000000000E+00  0.11368683772E-12  0.17120000000E+03  0.17120000000E+03 0.  0.
         13    1    1    2    0    0  0.20809762277E+02  0.60301702523E+01  0.82117644136E+02  0.84927779918E+02  0.10566000000E+00 0.  1.
        994    1    1    2    0    0 -0.22909560465E+02  0.53356528279E+00  0.44463999629E+01  0.17278409396E+03  0.17120000000E+03 0.  0.
        998    1    1    2    0    0  0.20997981878E+01 -0.65637355351E+01  0.14134359522E+04  0.14134881261E+04  0.10000000000E+02 0.  1.
</event>
<event>
 5    1  0.7732857E-009  0.3854552E+03  0.7957747E-01  0.3427744E+00
         13   -1    0    0    0    0  0.00000000000E+00  0.00000000000E+00  0.14999999963E+04  0.15000000000E+04  0.10566000000E+00 0.  1.
        994   -1    0    0    0    0 -0.00000000000E+00 -0.00000000000E+00  0.11368683772E-12  0.17120000000E+03  0.17120000000E+03 0.  0.
         13    1    1    2    0    0  0.83834720272E+01  0.64525063138E+01  0.44270299109E+02  0.45516897832E+02  0.10566000000E+00 0.  1.
        994    1    1    2    0    0  0.10316751291E+01  0.16043268946E+02  0.22534860846E+01  0.17196793024E+03  0.17120000000E+03 0.  0.
        998    1    1    2    0    0 -0.94151471563E+01 -0.22495775260E+02  0.14534762111E+04  0.14537151719E+04  0.10000000000E+02 0.  1.
</event>
<event>
 5    1  0.7732857E-009  0.3697517E+03  0.7957747E-01  0.3497033E+00
         13   -1    0    0    0    0  0.00000000000E+00  0.00000000000E+00  0.14999999963E+04  0.15000000000E+04  0.10566000000E+00 0.  1.
        994   -1    0    0    0    0 -0.00000000000E+00 -0.00000000000E+00  0.11368683772E-12  0.17120000000E+03  0.17120000000E+03 0.  0.
         13    1    1    2    0    0  0.96891828571E+01  0.78580534161E+01  0.39297631433E+01  0.13079888009E+02  0.10566000000E+00 0.  1.
        994    1    1    2    0    0 -0.80976405863E+01 -0.75587642882E+01  0.98236719076E+01  0.17183902709E+03  0.17120000000E+03 0.  0.
        998    1    1    2    0    0 -0.15915422709E+01 -0.29928912791E+00  0.14862465612E+04  0.14862810849E+04  0.10000000000E+02 0.  1.
</event>
<event>
 5    1  0.7732857E-009  0.3835259E+03  0.7957747E-01  0.3435948E+00
         13   -1    0    0    0    0  0.00000000000E+00  0.00000000000E+00  0.14999999963E+04  0.15000000000E+04  0.10566000000E+00 0. -1.
        994   -1    0    0    0    0 -0.00000000000E+00 -0.00000000000E+00  0.11368683772E-12  0.17120000000E+03  0.17120000000E+03 0.  0.
         13    1    1    2    0    0 -0.21084911511E+02  0.12276682967E+02  0.13320461916E+03  0.13542072282E+03  0.10566000000E+00 0. -1.
        994    1    1    2    0    0  0.87395498129E+01  0.10487012308E+01  0.26198376415E+01  0.17144615206E+03  0.17120000000E+03 0.  0.
        998    1    1    2    0    0  0.12345361698E+02 -0.13325384197E+02  0.13641755395E+04  0.13643331251E+04  0.10000000000E+02 0. -1.
</event>
<event>
 5    1  0.7732857E-009  0.3843473E+03  0.7957747E-01  0.3432445E+00
         13   -1    0    0    0    0  0.00000000000E+00  0.00000000000E+00  0.14999999963E+04  0.15000000000E+04  0.10566000000E+00 0. -1.
        994   -1    0    0    0    0 -0.00000000000E+00 -0.00000000000E+00  0.11368683772E-12  0.17120000000E+03  0.17120000000E+03 0.  0.
         13    1    1    2    0    0  0.15781500820E+02 -0.19522287571E+02  0.15046043987E+03  0.15254025898E+03  0.10566000000E+00 0. -1.
        994    1    1    2    0    0 -0.51160750404E+01  0.25535385305E+02  0.41929288794E+01  0.17322023779E+03  0.17120000000E+03 0.  0.
        998    1    1    2    0    0 -0.10665425779E+02 -0.60130977339E+01  0.13453466275E+04  0.13454395032E+04  0.10000000000E+02 0. -1.
</event>
<event>
 5    1  0.7732857E-009  0.3842527E+03  0.7957747E-01  0.3432848E+00
         13   -1    0    0    0    0  0.00000000000E+00  0.00000000000E+00  0.14999999963E+04  0.15000000000E+04  0.10566000000E+00 0. -1.
        994   -1    0    0    0    0 -0.00000000000E+00 -0.00000000000E+00  0.11368683772E-12  0.17120000000E+03  0.17120000000E+03 0.  0.
         13    1    1    2    0    0 -0.79603430777E+01 -0.67818819853E+02  0.11124859538E+03  0.13053359922E+03  0.10566000000E+00 0. -1.
        994    1    1    2    0    0  0.42523932591E+01  0.65866539911E+02  0.34901018966E+02  0.18677260252E+03  0.17120000000E+03 0.  0.
        998    1    1    2    0    0  0.37079498187E+01  0.19522799424E+01  0.13538503819E+04  0.13538937983E+04  0.10000000000E+02 0. -1.
</event>
<event>
 5    1  0.7732857E-009  0.3702028E+03  0.7957747E-01  0.3494959E+00
         13   -1    0    0    0    0  0.00000000000E+00  0.00000000000E+00  0.14999999963E+04  0.15000000000E+04  0.10566000000E+00 0.  1.
        994   -1    0    0    0    0 -0.00000000000E+00 -0.00000000000E+00  0.11368683772E-12  0.17120000000E+03  0.17120000000E+03 0.  0.
         13    1    1    2    0    0 -0.26527417809E+02 -0.36816969915E+02  0.90027817101E+02  0.10081771762E+03  0.10566000000E+00 0.  1.
        994    1    1    2    0    0  0.12867559095E+02  0.23809760000E+02  0.13612888303E+02  0.17385979833E+03  0.17120000000E+03 0.  0.
        998    1    1    2    0    0  0.13659858714E+02  0.13007209915E+02  0.13963592909E+04  0.13965224841E+04  0.10000000000E+02 0.  1.
</event>
<event>
 5    1  0.7732857E-009  0.3825268E+03  0.7957747E-01  0.3440229E+00
         13   -1    0    0    0    0  0.00000000000E+00  0.00000000000E+00  0.14999999963E+04  0.15000000000E+04  0.10566000000E+00 0.  1.
        994   -1    0    0    0    0 -0.00000000000E+00 -0.00000000000E+00  0.11368683772E-12  0.17120000000E+03  0.17120000000E+03 0.  0.
         13    1    1    2    0    0 -0.28814467950E+02 -0.18647487516E+03  0.11056245969E+04  0.11216099648E+04  0.10566000000E+00 0.  1.
        994    1    1    2    0    0  0.67792459441E+02  0.20179656106E+03  0.17140660616E+03  0.32250168100E+03  0.17120000000E+03 0.  0.
        998    1    1    2    0    0 -0.38977991491E+02 -0.15321685903E+02  0.22296879318E+03  0.22708835419E+03  0.10000000000E+02 0.  1.
</event>
<event>
 5    1  0.7732857E-009  0.3832879E+03  0.7957747E-01  0.3436966E+00
         13   -1    0    0    0    0  0.00000000000E+00  0.00000000000E+00  0.14999999963E+04  0.15000000000E+04  0.10566000000E+00 0.  1.
        994   -1    0    0    0    0 -0.00000000000E+00 -0.00000000000E+00  0.11368683772E-12  0.17120000000E+03  0.17120000000E+03 0.  0.
         13    1    1    2    0    0  0.15181511901E+02  0.16786932763E+02  0.11172395264E+03  0.11399356198E+03  0.10566000000E+00 0.  1.
        994    1    1    2    0    0 -0.61102347030E+01  0.32941834842E+01  0.26419197434E+01  0.17136104094E+03  0.17120000000E+03 0.  0.
        998    1    1    2    0    0 -0.90712771980E+01 -0.20081116247E+02  0.13856341239E+04  0.13858453971E+04  0.10000000000E+02 0.  1.
</event>
<event>
 5    1  0.7732857E-009  0.3843655E+03  0.7957747E-01  0.3432368E+00
         13   -1    0    0    0    0  0.00000000000E+00  0.00000000000E+00  0.14999999963E+04  0.15000000000E+04  0.10566000000E+00 0. -1.
        994   -1    0    0    0    0 -0.00000000000E+00 -0.00000000000E+00  0.11368683772E-12  0.17120000000E+03  0.17120000000E+03 0.  0.
         13    1    1    2    0    0 -0.18774818122E+02  0.10713490500E+02  0.11760249351E+03  0.11957269888E+03  0.10566000000E+00 0. -1.
        994    1    1    2    0    0  0.16476860052E+02 -0.30961229518E+01  0.28722995299E+01  0.17204291034E+03  0.17120000000E+03 0.  0.
        998    1    1    2    0    0  0.22979580695E+01 -0.76173675478E+01  0.13795252032E+04  0.13795843908E+04  0.10000000000E+02 0. -1.
</event>
<event>
 5    1  0.7732857E-009  0.2700047E+03  0.7957747E-01  0.4136542E+00
         13   -1    0    0    0    0  0.00000000000E+00  0.00000000000E+00  0.14999999963E+04  0.15000000000E+04  0.10566000000E+00 0.  1.
        994   -1    0    0    0    0 -0.00000000000E+00 -0.00000000000E+00  0.11368683772E-12  0.17120000000E+03  0.17120000000E+03 0.  0.
         13    1    1    2    0    0  0.16423642329E+03 -0.13081846749E+02  0.50355110966E+03  0.52981927924E+03  0.10566000000E+00 0.  1.
        994    1    1    2    0    0 -0.12726323474E+03  0.73568872336E+02  0.10819757582E+03  0.25024880680E+03  0.17120000000E+03 0.  0.
        998    1    1    2    0    0 -0.36973188553E+02 -0.60487025587E+02  0.88825131080E+03  0.89113191396E+03  0.10000000000E+02 0.  1.
</event>
<event>
 5    1  0.7732857E-009  0.3060609E+03  0.7957747E-01  0.3853678E+00
         13   -1    0    0    0    0  0.00000000000E+00  0.00000000000E+00  0.14999999963E+04  0.15000000000E+04  0.10566000000E+00 0.  1.
        994   -1    0    0    0    0 -0.00000000000E+00 -0.00000000000E+00  0.11368683772E-12  0.17120000000E+03  0.17120000000E+03 0.  0.
         13    1    1    2    0    0  0.24180928494E+02 -0.19979655776E+03  0.67391936412E+03  0.70332830335E+03  0.10566000000E+00 0.  1.
        994    1    1    2    0    0  0.12157150002E+02  0.19257986870E+03  0.16617735253E+03  0.30685363713E+03  0.17120000000E+03 0.  0.
        998    1    1    2    0    0 -0.36338078496E+02  0.72166890532E+01  0.65990327962E+03  0.66101805952E+03  0.10000000000E+02 0.  1.
</event>
<event>
 5    1  0.7732857E-009  0.3853438E+03  0.7957747E-01  0.3428215E+00
         13   -1    0    0    0    0  0.00000000000E+00  0.00000000000E+00  0.14999999963E+04  0.15000000000E+04  0.10566000000E+00 0.  1.
        994   -1    0    0    0    0 -0.00000000000E+00 -0.00000000000E+00  0.11368683772E-12  0.17120000000E+03  0.17120000000E+03 0.  0.
         13    1    1    2    0    0  0.10003179662E+02  0.10452591656E+01  0.34870795069E+02  0.36292419082E+02  0.10566000000E+00 0.  1.
        994    1    1    2    0    0 -0.62032445300E+01  0.69260583823E+01  0.17435942234E+01  0.17146116367E+03  0.17120000000E+03 0.  0.
        998    1    1    2    0    0 -0.37999351318E+01 -0.79713175479E+01  0.14633856070E+04  0.14634464172E+04  0.10000000000E+02 0.  1.
</event>
<event>
 5    1  0.7732857E-009  0.3843183E+03  0.7957747E-01  0.3432568E+00
         13   -1    0    0    0    0  0.00000000000E+00  0.00000000000E+00  0.14999999963E+04  0.15000000000E+04  0.10566000000E+00 0.  1.
        994   -1    0    0    0    0 -0.00000000000E+00 -0.00000000000E+00  0.11368683772E-12  0.17120000000E+03  0.17120000000E+03 0.  0.
         13    1    1    2    0    0 -0.18873077676E+02 -0.10917734333E+02  0.10974387335E+03  0.11188886847E+03  0.10566000000E+00 0.  1.
        994    1    1    2    0    0  0.27348703238E+02  0.50771044340E+01  0.45232726982E+01  0.17350397273E+03  0.17120000000E+03 0.  0.
        998    1    1    2    0    0 -0.84756255619E+01  0.58406298991E+01  0.13857328502E+04  0.13858071588E+04  0.10000000000E+02 0.  1.
</event>
<event>
 5    1  0.7732857E-009  0.3824087E+03  0.7957747E-01  0.3440737E+00
         13   -1    0    0    0    0  0.00000000000E+00  0.00000000000E+00  0.14999999963E+04  0.15000000000E+04  0.10566000000E+00 0.  1.
        994   -1    0    0    0    0 -0.00000000000E+00 -0.00000000000E+00  0.11368683772E-12  0.17120000000E+03  0.17120000000E+03 0.  0.
         13    1    1    2    0    0 -0.19460618229E+02 -0.54823643429E+01  0.70604067252E+02  0.73441932553E+02  0.10566000000E+00 0.  1.
        994    1    1    2    0    0  0.73778657071E+01  0.49912453568E+01  0.31853508672E+01  0.17146116730E+03  0.17120000000E+03 0.  0.
        998    1    1    2    0    0  0.12082752521E+02  0.49111898605E+00  0.14262105782E+04  0.14262969001E+04  0.10000000000E+02 0.  1.
</event>
<event>
 5    1  0.7732857E-009  0.3757429E+03  0.7957747E-01  0.3469907E+00
         13   -1    0    0    0    0  0.00000000000E+00  0.00000000000E+00  0.14999999963E+04  0.15000000000E+04  0.10566000000E+00 0. -1.
        994   -1    0    0    0    0 -0.00000000000E+00 -0.00000000000E+00  0.11368683772E-12  0.17120000000E+03  0.17120000000E+03 0.  0.
         13    1    1    2    0    0  0.39302613220E+02 -0.12473895002E+02  0.13722212238E+03  0.14328368888E+03  0.10566000000E+00 0. -1.
        994    1    1    2    0    0 -0.21005879871E+02 -0.59940491477E+01  0.79173477786E+01  0.17276949965E+03  0.17120000000E+03 0.  0.
        998    1    1    2    0    0 -0.18296733348E+02  0.18467944150E+02  0.13548605261E+04  0.13551468115E+04  0.10000000000E+02 0. -1.
</event>
<event>
 5    1  0.1004955E-008  0.3861839E+03  0.7957747E-01  0.3424667E+00
         13   -1    0    0    0    0  0.00000000000E+00  0.00000000000E+00  0.14999999963E+04  0.15000000000E+04  0.10566000000E+00 0.  1.
        994   -1    0    0    0    0 -0.00000000000E+00 -0.00000000000E+00  0.11368683772E-12  0.17120000000E+03  0.17120000000E+03 0.  0.
         13    1    1    2    0    0  0.68610560469E+01  0.79786789199E+01  0.54441535064E+02  0.55449303977E+02  0.10566000000E+00 0.  1.
        994    1    1    2    0    0  0.88233447387E+00 -0.82030797698E+01  0.12665219760E+01  0.17140336376E+03  0.17120000000E+03 0.  0.
        998    1    1    2    0    0 -0.77433905208E+01  0.22440084986E+00  0.14442919392E+04  0.14443473323E+04  0.10000000000E+02 0.  1.
</event>
<event>
 5    1  0.7732857E-009  0.3856003E+03  0.7957747E-01  0.3427130E+00
         13   -1    0    0    0    0  0.00000000000E+00  0.00000000000E+00  0.14999999963E+04  0.15000000000E+04  0.10566000000E+00 0.  1.
        994   -1    0    0    0    0 -0.00000000000E+00 -0.00000000000E+00  0.11368683772E-12  0.17120000000E+03  0.17120000000E+03 0.  0.
         13    1    1    2    0    0  0.64329036248E+01 -0.10693222204E+02  0.57701925577E+02  0.59036011294E+02  0.10566000000E+00 0.  1.
        994    1    1    2    0    0 -0.57052227932E+01  0.96325430181E+01  0.17438866874E+01  0.17157452198E+03  0.17120000000E+03 0.  0.
        998    1    1    2    0    0 -0.72768083158E+00  0.10606791859E+01  0.14405541840E+04  0.14405894667E+04  0.10000000000E+02 0.  1.
</event>
<event>
 5    1  0.7732857E-009  0.3861015E+03  0.7957747E-01  0.3425014E+00
         13   -1    0    0    0    0  0.00000000000E+00  0.00000000000E+00  0.14999999963E+04  0.15000000000E+04  0.10566000000E+00 0.  1.
        994   -1    0    0    0    0 -0.00000000000E+00 -0.00000000000E+00  0.11368683772E-12  0.17120000000E+03  0.17120000000E+03 0.  0.
         13    1    1    2    0    0  0.89905799742E+01 -0.52905148894E+01  0.50616585395E+02  0.51680460110E+02  0.10566000000E+00 0.  1.
        994    1    1    2    0    0 -0.57082768744E+01  0.55640392060E+01  0.12924986328E+01  0.17139035419E+03  0.17120000000E+03 0.  0.
        998    1    1    2    0    0 -0.32823030998E+01 -0.27352431665E+00  0.14480909123E+04  0.14481291857E+04  0.10000000000E+02 0.  1.
</event>
<event>
 5    1  0.7732857E-009  0.3848130E+03  0.7957747E-01  0.3430466E+00
         13   -1    0    0    0    0  0.00000000000E+00  0.00000000000E+00  0.14999999963E+04  0.15000000000E+04  0.10566000000E+00 0. -1.
        994   -1    0    0    0    0 -0.00000000000E+00 -0.00000000000E+00  0.11368683772E-12  0.17120000000E+03  0.17120000000E+03 0.  0.
         13    1    1    2    0    0 -0.94542935720E+01  0.84285847880E+01  0.44887689351E+02  0.46640545964E+02  0.10566000000E+00 0. -1.
        994    1    1    2    0    0  0.11413746555E+02 -0.95480835731E+01  0.24520283960E+01  0.17186300345E+03  0.17120000000E+03 0.  0.
        998    1    1    2    0    0 -0.19594529829E+01  0.11194987851E+01  0.14526602785E+04  0.14526964506E+04  0.10000000000E+02 0. -1.
</event>
<event>
 5    1  0.7732857E-009  0.3793026E+03  0.7957747E-01  0.3454201E+00
         13   -1    0    0    0    0  0.00000000000E+00  0.00000000000E+00  0.14999999963E+04  0.15000000000E+04  0.10566000000E+00 0. -1.
        994   -1    0    0    0    0 -0.00000000000E+00 -0.00000000000E+00  0.11368683772E-12  0.17120000000E+03  0.17120000000E+03 0.  0.
         13    1    1    2    0    0  0.34216389892E+02 -0.18807214710E+02  0.17080911681E+03  0.17521483445E+03  0.10566000000E+00 0. -1.
        994    1    1    2    0    0 -0.17956840560E+02  0.10050797973E+02  0.59057836176E+01  0.17253343138E+03  0.17120000000E+03 0.  0.
        998    1    1    2    0    0 -0.16259549332E+02  0.87564167368E+01  0.13232850959E+04  0.13234517342E+04  0.10000000000E+02 0. -1.
</event>
<event>
 5    1  0.7732857E-009  0.3795328E+03  0.7957747E-01  0.3453195E+00
         13   -1    0    0    0    0  0.00000000000E+00  0.00000000000E+00  0.14999999963E+04  0.15000000000E+04  0.10566000000E+00 0.  1.
        994   -1    0    0    0    0 -0.00000000000E+00 -0.00000000000E+00  0.11368683772E-12  0.17120000000E+03  0.17120000000E+03 0.  0.
         13    1    1    2    0    0  0.48949388635E+02  0.16486866928E+02  0.24837621799E+03  0.25369000031E+03  0.10566000000E+00 0.  1.
        994    1    1    2    0    0 -0.49039195845E+02 -0.27310956946E+02  0.14991264016E+02  0.18078968194E+03  0.17120000000E+03 0.  0.
        998    1    1    2    0    0  0.89807210482E-01  0.10824090018E+02  0.12366325143E+04  0.12367203178E+04  0.10000000000E+02 0.  1.
</event>
<event>
 5    1  0.7732857E-009  0.3794425E+03  0.7957747E-01  0.3453590E+00
         13   -1    0    0    0    0  0.00000000000E+00  0.00000000000E+00  0.14999999963E+04  0.15000000000E+04  0.10566000000E+00 0. -1.
        994   -1    0    0    0    0 -0.00000000000E+00 -0.00000000000E+00  0.11368683772E-12  0.17120000000E+03  0.17120000000E+03 0.  0.
         13    1    1    2    0    0  0.34238357553E+01  0.14111284834E+02  0.21993591207E+02  0.26354890043E+02  0.10566000000E+00 0. -1.
        994    1    1    2    0    0  0.55912350850E-01 -0.11327241493E+02  0.48446874315E+01  0.17164271182E+03  0.17120000000E+03 0.  0.
        998    1    1    2    0    0 -0.34797481062E+01 -0.27840433415E+01  0.14731617176E+04  0.14732023981E+04  0.10000000000E+02 0. -1.
</event>
<event>
 5    1  0.7732857E-009  0.3801327E+03  0.7957747E-01  0.3450581E+00
         13   -1    0    0    0    0  0.00000000000E+00  0.00000000000E+00  0.14999999963E+04  0.15000000000E+04  0.10566000000E+00 0.  1.
        994   -1    0    0    0    0 -0.00000000000E+00 -0.00000000000E+00  0.11368683772E-12  0.17120000000E+03  0.17120000000E+03 0.  0.
         13    1    1    2    0    0 -0.11839103772E+01 -0.29047554179E+02  0.90300702739E+02  0.94865115436E+02  0.10566000000E+00 0.  1.
        994    1    1    2    0    0  0.32909340547E+01  0.43719173192E+02  0.10515995898E+02  0.17703734781E+03  0.17120000000E+03 0.  0.
        998    1    1    2    0    0 -0.21070236774E+01 -0.14671619013E+02  0.13991832976E+04  0.13992975367E+04  0.10000000000E+02 0.  1.
</event>
<event>
 5    1  0.7732857E-009  0.3791688E+03  0.7957747E-01  0.3454786E+00
         13   -1    0    0    0    0  0.00000000000E+00  0.00000000000E+00  0.14999999963E+04  0.15000000000E+04  0.10566000000E+00 0.  1.
        994   -1    0    0    0    0 -0.00000000000E+00 -0.00000000000E+00  0.11368683772E-12  0.17120000000E+03  0.17120000000E+03 0.  0.
         13    1    1    2    0    0 -0.33623872466E+02  0.22120903116E+02  0.22798904592E+03  0.23151439562E+03  0.10566000000E+00 0.  1.
        994    1    1    2    0    0 -0.99780174081E+01  0.11019141997E+01  0.48911941055E+01  0.17156380395E+03  0.17120000000E+03 0.  0.
        998    1    1    2    0    0  0.43601889874E+02 -0.23222817316E+02  0.12671197563E+04  0.12681218004E+04  0.10000000000E+02 0.  1.
</event>
<event>
 5    1  0.7732857E-009  0.3831259E+03  0.7957747E-01  0.3437660E+00
         13   -1    0    0    0    0  0.00000000000E+00  0.00000000000E+00  0.14999999963E+04  0.15000000000E+04  0.10566000000E+00 0. -1.
        994   -1    0    0    0    0 -0.00000000000E+00 -0.00000000000E+00  0.11368683772E-12  0.17120000000E+03  0.17120000000E+03 0.  0.
         13    1    1    2    0    0  0.75982565202E+01  0.67705979273E+01  0.19477585999E+02  0.21976396857E+02  0.10566000000E+00 0. -1.
        994    1    1    2    0    0 -0.68596254002E+01  0.25999513355E+01  0.27415594362E+01  0.17137902543E+03  0.17120000000E+03 0.  0.
        998    1    1    2    0    0 -0.73863111996E+00 -0.93705492628E+01  0.14777808508E+04  0.14778445777E+04  0.10000000000E+02 0. -1.
</event>
<event>
 5    1  0.7732857E-009  0.3827422E+03  0.7957747E-01  0.3439305E+00
         13   -1    0    0    0    0  0.00000000000E+00  0.00000000000E+00  0.14999999963E+04  0.15000000000E+04  0.10566000000E+00 0.  1.
        994   -1    0    0    0    0 -0.00000000000E+00 -0.00000000000E+00  0.11368683772E-12  0.17120000000E+03  0.17120000000E+03 0.  0.
         13    1    1    2    0    0  0.10178463193E+01  0.20371830343E+02  0.75051918533E+02  0.77774347456E+02  0.10566000000E+00 0.  1.
        994    1    1    2    0    0 -0.49026158711E+01 -0.11814578067E+02  0.32975185160E+01  0.17170886269E+03  0.17120000000E+03 0.  0.
        998    1    1    2    0    0  0.38847695518E+01 -0.85572522754E+01  0.14216505592E+04  0.14217167899E+04  0.10000000000E+02 0.  1.
</event>
<event>
 5    1  0.7732857E-009  0.3835463E+03  0.7957747E-01  0.3435861E+00
         13   -1    0    0    0    0  0.00000000000E+00  0.00000000000E+00  0.14999999963E+04  0.15000000000E+04  0.10566000000E+00 0.  1.
        994   -1    0    0    0    0 -0.00000000000E+00 -0.00000000000E+00  0.11368683772E-12  0.17120000000E+03  0.17120000000E+03 0.  0.
         13    1    1    2    0    0 -0.18485758759E+02 -0.87675590455E+01  0.90407216113E+02  0.92693415396E+02  0.10566000000E+00 0.  1.
        994    1    1    2    0    0  0.42861372850E+02 -0.55512039264E+02  0.18779167911E+02  0.18595908403E+03  0.17120000000E+03 0.  0.
        998    1    1    2    0    0 -0.24375614091E+02  0.64279598310E+02  0.13908136123E+04  0.13925475006E+04  0.10000000000E+02 0.  1.
</event>
<event>
 5    1  0.7732857E-009  0.3758359E+03  0.7957747E-01  0.3469493E+00
         13   -1    0    0    0    0  0.00000000000E+00  0.00000000000E+00  0.14999999963E+04  0.15000000000E+04  0.10566000000E+00 0.  1.
        994   -1    0    0    0    0 -0.00000000000E+00 -0.00000000000E+00  0.11368683772E-12  0.17120000000E+03  0.17120000000E+03 0.  0.
         13    1    1    2    0    0  0.13593224597E+03  0.44224520575E+02  0.48867856277E+03  0.50915629486E+03  0.10566000000E+00 0.  1.
        994    1    1    2    0    0 -0.12085739801E+03 -0.70666861871E+02  0.87768136084E+02  0.23793486868E+03  0.17120000000E+03 0.  0.
        998    1    1    2    0    0 -0.15074847961E+02  0.26442341295E+02  0.92355329742E+03  0.92410883646E+03  0.10000000000E+02 0.  1.
</event>
<event>
 5    1  0.7732857E-009  0.3709256E+03  0.7957747E-01  0.3491648E+00
         13   -1    0    0    0    0  0.00000000000E+00  0.00000000000E+00  0.14999999963E+04  0.15000000000E+04  0.10566000000E+00 0. -1.
        994   -1    0    0    0    0 -0.00000000000E+00 -0.00000000000E+00  0.11368683772E-12  0.17120000000E+03  0.17120000000E+03 0.  0.
         13    1    1    2    0    0  0.56760391650E+02 -0.12106845621E+02  0.20329678621E+03  0.21141880763E+03  0.10566000000E+00 0. -1.
        994    1    1    2    0    0 -0.15827322941E+02  0.25914305624E+02  0.11970645950E+02  0.17428365314E+03  0.17120000000E+03 0.  0.
        998    1    1    2    0    0 -0.40933068709E+02 -0.13807460003E+02  0.12847325641E+04  0.12854975392E+04  0.10000000000E+02 0. -1.
</event>
<event>
 5    1  0.7732857E-009  0.3795400E+03  0.7957747E-01  0.3453164E+00
         13   -1    0    0    0    0  0.00000000000E+00  0.00000000000E+00  0.14999999963E+04  0.15000000000E+04  0.10566000000E+00 0. -1.
        994   -1    0    0    0    0 -0.00000000000E+00 -0.00000000000E+00  0.11368683772E-12  0.17120000000E+03  0.17120000000E+03 0.  0.
         13    1    1    2    0    0  0.60715783780E+02 -0.89143155947E+01  0.31141257316E+03  0.31740143873E+03  0.10566000000E+00 0. -1.
        994    1    1    2    0    0 -0.69845839700E+02  0.15604136485E+02  0.21709129432E+02  0.18682252728E+03  0.17120000000E+03 0.  0.
        998    1    1    2    0    0  0.91300559196E+01 -0.66898208903E+01  0.11668782937E+04  0.11669760340E+04  0.10000000000E+02 0. -1.
</event>
<event>
 5    1  0.7732857E-009  0.3763090E+03  0.7957747E-01  0.3467389E+00
         13   -1    0    0    0    0  0.00000000000E+00  0.00000000000E+00  0.14999999963E+04  0.15000000000E+04  0.10566000000E+00 0.  1.
        994   -1    0    0    0    0 -0.00000000000E+00 -0.00000000000E+00  0.11368683772E-12  0.17120000000E+03  0.17120000000E+03 0.  0.
         13    1    1    2    0    0  0.15866898046E+02  0.13210763905E+02  0.30261811832E+02  0.36634289347E+02  0.10566000000E+00 0.  1.
        994    1    1    2    0    0 -0.43788145342E+02 -0.17862984400E+02  0.13614686921E+02  0.17813278077E+03  0.17120000000E+03 0.  0.
        998    1    1    2    0    0  0.27921247295E+02  0.46522204950E+01  0.14561234975E+04  0.14564329299E+04  0.10000000000E+02 0.  1.
</event>
<event>
 5    1  0.7732857E-009  0.3814161E+03  0.7957747E-01  0.3445015E+00
         13   -1    0    0    0    0  0.00000000000E+00  0.00000000000E+00  0.14999999963E+04  0.15000000000E+04  0.10566000000E+00 0. -1.
        994   -1    0    0    0    0 -0.00000000000E+00 -0.00000000000E+00  0.11368683772E-12  0.17120000000E+03  0.17120000000E+03 0.  0.
         13    1    1    2    0    0  0.29544282774E+02 -0.23482979364E+02  0.19371734456E+03  0.19735940746E+03  0.10566000000E+00 0. -1.
        994    1    1    2    0    0 -0.32076373839E+02  0.89231401651E+01  0.71171951574E+01  0.17455260140E+03  0.17120000000E+03 0.  0.
        998    1    1    2    0    0  0.25320910653E+01  0.14559839199E+02  0.12991654566E+04  0.12992879911E+04  0.10000000000E+02 0. -1.
</event>
<event>
 5    1  0.7732857E-009  0.3797774E+03  0.7957747E-01  0.3452128E+00
         13   -1    0    0    0    0  0.00000000000E+00  0.00000000000E+00  0.14999999963E+04  0.15000000000E+04  0.10566000000E+00 0.  1.
        994   -1    0    0    0    0 -0.00000000000E+00 -0.00000000000E+00  0.11368683772E-12  0.17120000000E+03  0.17120000000E+03 0.  0.
         13    1    1    2    0    0 -0.11853701849E+02  0.86105817885E+01  0.24033019027E+02  0.28146927609E+02  0.10566000000E+00 0.  1.
        994    1    1    2    0    0  0.14417172880E+02  0.15295034543E+02  0.57249161355E+01  0.17258043812E+03  0.17120000000E+03 0.  0.
        998    1    1    2    0    0 -0.25634710306E+01 -0.23905616331E+02  0.14702420611E+04  0.14704726343E+04  0.10000000000E+02 0.  1.
</event>
<event>
 5    1  0.7732857E-009  0.3742171E+03  0.7957747E-01  0.3476731E+00
         13   -1    0    0    0    0  0.00000000000E+00  0.00000000000E+00  0.14999999963E+04  0.15000000000E+04  0.10566000000E+00 0. -1.
        994   -1    0    0    0    0 -0.00000000000E+00 -0.00000000000E+00  0.11368683772E-12  0.17120000000E+03  0.17120000000E+03 0.  0.
         13    1    1    2    0    0 -0.87624957115E+00 -0.13022458849E+02  0.87616901821E+01  0.15720388884E+02  0.10566000000E+00 0. -1.
        994    1    1    2    0    0 -0.88914807942E+01  0.13329221573E+02  0.79567435041E+01  0.17213214791E+03  0.17120000000E+03 0.  0.
        998    1    1    2    0    0  0.97677303653E+01 -0.30676272424E+00  0.14832815626E+04  0.14833474632E+04  0.10000000000E+02 0. -1.
</event>
<event>
 5    1  0.7732857E-009  0.3841914E+03  0.7957747E-01  0.3433109E+00
         13   -1    0    0    0    0  0.00000000000E+00  0.00000000000E+00  0.14999999963E+04  0.15000000000E+04  0.10566000000E+00 0. -1.
        994   -1    0    0    0    0 -0.00000000000E+00 -0.00000000000E+00  0.11368683772E-12  0.17120000000E+03  0.17120000000E+03 0.  0.
         13    1    1    2    0    0 -0.26509887950E+02  0.69079529644E+01  0.16320619247E+03  0.16548947518E+03  0.10566000000E+00 0. -1.
        994    1    1    2    0    0  0.35438456211E+02  0.13486643826E+02  0.67873371087E+01  0.17548014613E+03  0.17120000000E+03 0.  0.
        998    1    1    2    0    0 -0.89285682615E+01 -0.20394596790E+02  0.13300064667E+04  0.13302303787E+04  0.10000000000E+02 0. -1.
</event>
<event>
 5    1  0.7732857E-009  0.3820483E+03  0.7957747E-01  0.3442288E+00
         13   -1    0    0    0    0  0.00000000000E+00  0.00000000000E+00  0.14999999963E+04  0.15000000000E+04  0.10566000000E+00 0.  1.
        994   -1    0    0    0    0 -0.00000000000E+00 -0.00000000000E+00  0.11368683772E-12  0.17120000000E+03  0.17120000000E+03 0.  0.
         13    1    1    2    0    0  0.26787550514E+02  0.60203420806E+01  0.12191133132E+03  0.12496480004E+03  0.10566000000E+00 0.  1.
        994    1    1    2    0    0 -0.13491310497E+02 -0.73171635421E+01  0.38852673346E+01  0.17193048492E+03  0.17120000000E+03 0.  0.
        998    1    1    2    0    0 -0.13296240018E+02  0.12968214615E+01  0.13742033976E+04  0.13743047150E+04  0.10000000000E+02 0.  1.
</event>
<event>
 5    1  0.7732857E-009  0.3908069E+03  0.7957747E-01  0.3405412E+00
         13   -1    0    0    0    0  0.00000000000E+00  0.00000000000E+00  0.14999999963E+04  0.15000000000E+04  0.10566000000E+00 0.  1.
        994   -1    0    0    0    0 -0.00000000000E+00 -0.00000000000E+00  0.11368683772E-12  0.17120000000E+03  0.17120000000E+03 0.  0.
         13    1    1    2    0    0 -0.52432893379E+02  0.28507660021E+02  0.67832540415E+02  0.90350205817E+02  0.10566000000E+00 0.  1.
        994    1    1    2    0    0  0.52188935478E+02 -0.38844044075E+02  0.38549762853E+02  0.18715787176E+03  0.17120000000E+03 0.  0.
        998    1    1    2    0    0  0.24395790162E+00  0.10336384054E+02  0.13936176930E+04  0.13936919224E+04  0.10000000000E+02 0.  1.
</event>
<event>
 5    1  0.7732857E-009  0.3852300E+03  0.7957747E-01  0.3428698E+00
         13   -1    0    0    0    0  0.00000000000E+00  0.00000000000E+00  0.14999999963E+04  0.15000000000E+04  0.10566000000E+00 0.  1.
        994   -1    0    0    0    0 -0.00000000000E+00 -0.00000000000E+00  0.11368683772E-12  0.17120000000E+03  0.17120000000E+03 0.  0.
         13    1    1    2    0    0 -0.11255176425E+02 -0.86272459725E+01  0.66406034581E+02  0.67903467969E+02  0.10566000000E+00 0.  1.
        994    1    1    2    0    0  0.63892018505E+01  0.73422194178E+01  0.18273746645E+01  0.17148617841E+03  0.17120000000E+03 0.  0.
        998    1    1    2    0    0  0.48659745742E+01  0.12850265547E+01  0.14317665870E+04  0.14318103536E+04  0.10000000000E+02 0.  1.
</event>
<event>
 5    1  0.7732857E-009  0.3793570E+03  0.7957747E-01  0.3453963E+00
         13   -1    0    0    0    0  0.00000000000E+00  0.00000000000E+00  0.14999999963E+04  0.15000000000E+04  0.10566000000E+00 0. -1.
        994   -1    0    0    0    0 -0.00000000000E+00 -0.00000000000E+00  0.11368683772E-12  0.17120000000E+03  0.17120000000E+03 0.  0.
         13    1    1    2    0    0 -0.36633801603E+02 -0.15062463576E+01  0.13402484498E+03  0.13894953916E+03  0.10566000000E+00 0. -1.
        994    1    1    2    0    0  0.40413703348E+02  0.51399293729E+01  0.10038240308E+02  0.17626653840E+03  0.17120000000E+03 0.  0.
        998    1    1    2    0    0 -0.37799017453E+01 -0.36336830153E+01  0.13559369110E+04  0.13559839224E+04  0.10000000000E+02 0. -1.
</event>
<event>
 5    1  0.7732857E-009  0.3857345E+03  0.7957747E-01  0.3426563E+00
         13   -1    0    0    0    0  0.00000000000E+00  0.00000000000E+00  0.14999999963E+04  0.15000000000E+04  0.10566000000E+00 0. -1.
        994   -1    0    0    0    0 -0.00000000000E+00 -0.00000000000E+00  0.11368683772E-12  0.17120000000E+03  0.17120000000E+03 0.  0.
         13    1    1    2    0    0 -0.70886102767E+01  0.11169978525E+02  0.71382585109E+02  0.72598219240E+02  0.10566000000E+00 0. -1.
        994    1    1    2    0    0 -0.11482957604E+02 -0.14390286383E+02  0.23787030757E+01  0.17220347524E+03  0.17120000000E+03 0.  0.
        998    1    1    2    0    0  0.18571567880E+02  0.32203078581E+01  0.14262387081E+04  0.14263983055E+04  0.10000000000E+02 0. -1.
</event>
<event>
 5    1  0.7732857E-009  0.3805272E+03  0.7957747E-01  0.3448866E+00
         13   -1    0    0    0    0  0.00000000000E+00  0.00000000000E+00  0.14999999963E+04  0.15000000000E+04  0.10566000000E+00 0. -1.
        994   -1    0    0    0    0 -0.00000000000E+00 -0.00000000000E+00  0.11368683772E-12  0.17120000000E+03  0.17120000000E+03 0.  0.
         13    1    1    2    0    0  0.33959637145E+02  0.21814516329E+02  0.19357853347E+03  0.19774172515E+03  0.10566000000E+00 0. -1.
        994    1    1    2    0    0 -0.27922283128E+02 -0.19282012119E+02  0.77192979803E+01  0.17470110889E+03  0.17120000000E+03 0.  0.
        998    1    1    2    0    0 -0.60373540177E+01 -0.25325042101E+01  0.12987021648E+04  0.12987571660E+04  0.10000000000E+02 0. -1.
</event>
<event>
 5    1  0.7732857E-009  0.2400764E+03  0.7957747E-01  0.4445506E+00
         13   -1    0    0    0    0  0.00000000000E+00  0.00000000000E+00  0.14999999963E+04  0.15000000000E+04  0.10566000000E+00 0.  1.
        994   -1    0    0    0    0 -0.00000000000E+00 -0.00000000000E+00  0.11368683772E-12  0.17120000000E+03  0.17120000000E+03 0.  0.
         13    1    1    2    0    0  0.21648788856E+02  0.56020894079E+02 -0.25737771366E+02  0.65341064203E+02  0.10566000000E+00 0.  1.
        994    1    1    2    0    0 -0.10542385479E+03  0.10215095759E+03  0.34885588877E+03  0.41540206839E+03  0.17120000000E+03 0.  0.
        998    1    1    2    0    0  0.83775065929E+02 -0.15817185167E+03  0.11768818789E+04  0.11904568674E+04  0.10000000000E+02 0.  1.
</event>
<event>
 5    1  0.7732857E-009  0.3723071E+03  0.7957747E-01  0.3485355E+00
         13   -1    0    0    0    0  0.00000000000E+00  0.00000000000E+00  0.14999999963E+04  0.15000000000E+04  0.10566000000E+00 0. -1.
        994   -1    0    0    0    0 -0.00000000000E+00 -0.00000000000E+00  0.11368683772E-12  0.17120000000E+03  0.17120000000E+03 0.  0.
         13    1    1    2    0    0 -0.27821150357E+02 -0.57012525027E+02  0.24173323056E+03  0.24991880749E+03  0.10566000000E+00 0. -1.
        994    1    1    2    0    0 -0.14076358431E+02  0.52948093868E+02  0.18436054728E+02  0.18069580135E+03  0.17120000000E+03 0.  0.
        998    1    1    2    0    0  0.41897508788E+02  0.40644311592E+01  0.12398307110E+04  0.12405853912E+04  0.10000000000E+02 0. -1.
</event>
<event>
 5    1  0.7732857E-009  0.3845642E+03  0.7957747E-01  0.3431523E+00
         13   -1    0    0    0    0  0.00000000000E+00  0.00000000000E+00  0.14999999963E+04  0.15000000000E+04  0.10566000000E+00 0.  1.
        994   -1    0    0    0    0 -0.00000000000E+00 -0.00000000000E+00  0.11368683772E-12  0.17120000000E+03  0.17120000000E+03 0.  0.
         13    1    1    2    0    0  0.19838008094E+02 -0.56249202659E+01  0.95655584164E+02  0.97852890805E+02  0.10566000000E+00 0.  1.
        994    1    1    2    0    0 -0.40372991134E+02  0.17039414959E+01  0.72428404238E+01  0.17605334580E+03  0.17120000000E+03 0.  0.
        998    1    1    2    0    0  0.20534983040E+02  0.39209787700E+01  0.13971015717E+04  0.13972937634E+04  0.10000000000E+02 0.  1.
</event>
<event>
 5    1  0.7732857E-009  0.3816214E+03  0.7957747E-01  0.3444129E+00
         13   -1    0    0    0    0  0.00000000000E+00  0.00000000000E+00  0.14999999963E+04  0.15000000000E+04  0.10566000000E+00 0. -1.
        994   -1    0    0    0    0 -0.00000000000E+00 -0.00000000000E+00  0.11368683772E-12  0.17120000000E+03  0.17120000000E+03 0.  0.
         13    1    1    2    0    0  0.10189470062E+02 -0.51289593168E+01  0.18234275815E+02  0.21508870318E+02  0.10566000000E+00 0. -1.
        994    1    1    2    0    0 -0.77887262539E+01  0.39665542969E+01  0.35709916424E+01  0.17146016969E+03  0.17120000000E+03 0.  0.
        998    1    1    2    0    0 -0.24007438085E+01  0.11624050199E+01  0.14781947288E+04  0.14782309600E+04  0.10000000000E+02 0. -1.
</event>
<event>
 5    1  0.7732857E-009  0.3808171E+03  0.7957747E-01  0.3447608E+00
         13   -1    0    0    0    0  0.00000000000E+00  0.00000000000E+00  0.14999999963E+04  0.15000000000E+04  0.10566000000E+00 0.  1.
        994   -1    0    0    0    0 -0.00000000000E+00 -0.00000000000E+00  0.11368683772E-12  0.17120000000E+03  0.17120000000E+03 0.  0.
         13    1    1    2    0    0  0.72491409003E+01 -0.33818414755E+02  0.13707125040E+03  0.14136751420E+03  0.10566000000E+00 0.  1.
        994    1    1    2    0    0 -0.13060921046E+02  0.43144827037E+02  0.10525828973E+02  0.17734795413E+03  0.17120000000E+03 0.  0.
        998    1    1    2    0    0  0.58117801457E+01 -0.93264122815E+01  0.13524029169E+04  0.13524845317E+04  0.10000000000E+02 0.  1.
</event>
<event>
 5    1  0.7732857E-009  0.3857971E+03  0.7957747E-01  0.3426298E+00
         13   -1    0    0    0    0  0.00000000000E+00  0.00000000000E+00  0.14999999963E+04  0.15000000000E+04  0.10566000000E+00 0. -1.
        994   -1    0    0    0    0 -0.00000000000E+00 -0.00000000000E+00  0.11368683772E-12  0.17120000000E+03  0.17120000000E+03 0.  0.
         13    1    1    2    0    0  0.48952841289E+01 -0.34228559364E+02  0.28076836745E+02  0.44540745486E+02  0.10566000000E+00 0. -1.
        994    1    1    2    0    0  0.10503180920E+03 -0.71586775518E+02  0.82158004046E+02  0.22850760382E+03  0.17120000000E+03 0.  0.
        998    1    1    2    0    0 -0.10992709333E+03  0.10581533488E+03  0.13897651555E+04  0.13981516507E+04  0.10000000000E+02 0. -1.
</event>
<event>
 5    1  0.7732857E-009  0.3813180E+03  0.7957747E-01  0.3445440E+00
         13   -1    0    0    0    0  0.00000000000E+00  0.00000000000E+00  0.14999999963E+04  0.15000000000E+04  0.10566000000E+00 0. -1.
        994   -1    0    0    0    0 -0.00000000000E+00 -0.00000000000E+00  0.11368683772E-12  0.17120000000E+03  0.17120000000E+03 0.  0.
         13    1    1    2    0    0 -0.14750471734E+02 -0.37247931296E+02  0.24221997943E+03  0.24551072156E+03  0.10566000000E+00 0. -1.
        994    1    1    2    0    0 -0.16650195563E+01  0.19462392906E+02  0.47403088794E+01  0.17237594831E+03  0.17120000000E+03 0.  0.
        998    1    1    2    0    0  0.16415491291E+02  0.17785538390E+02  0.12530397080E+04  0.12533133301E+04  0.10000000000E+02 0. -1.
</event>
<event>
 5    1  0.7732857E-009  0.4319404E+03  0.7957747E-01  0.3252118E+00
         13   -1    0    0    0    0  0.00000000000E+00  0.00000000000E+00  0.14999999963E+04  0.15000000000E+04  0.10566000000E+00 0. -1.
        994   -1    0    0    0    0 -0.00000000000E+00 -0.00000000000E+00  0.11368683772E-12  0.17120000000E+03  0.17120000000E+03 0.  0.
         13    1    1    2    0    0 -0.36877546068E+02 -0.54372569723E+02  0.27106066886E+02  0.71070948836E+02  0.10566000000E+00 0. -1.
        994    1    1    2    0    0  0.42817679414E+02  0.54759433943E+02  0.70624053732E+02  0.19781088504E+03  0.17120000000E+03 0.  0.
        998    1    1    2    0    0 -0.59401333457E+01 -0.38686421960E+00  0.14022698757E+04  0.14023181661E+04  0.10000000000E+02 0. -1.
</event>
<event>
 5    1  0.7732857E-009  0.3740122E+03  0.7957747E-01  0.3477652E+00
         13   -1    0    0    0    0  0.00000000000E+00  0.00000000000E+00  0.14999999963E+04  0.15000000000E+04  0.10566000000E+00 0. -1.
        994   -1    0    0    0    0 -0.00000000000E+00 -0.00000000000E+00  0.11368683772E-12  0.17120000000E+03  0.17120000000E+03 0.  0.
         13    1    1    2    0    0 -0.13911304475E+03 -0.41372534980E+02  0.67903793016E+03  0.69437500505E+03  0.10566000000E+00 0. -1.
        994    1    1    2    0    0  0.14327096178E+03  0.47107917692E+02  0.89220056526E+02  0.24498037245E+03  0.17120000000E+03 0.  0.
        998    1    1    2    0    0 -0.41579170292E+01 -0.57353827121E+01  0.73174200959E+03  0.73184462251E+03  0.10000000000E+02 0.  0.
</event>
<event>
 5    1  0.7732857E-009  0.3752419E+03  0.7957747E-01  0.3472142E+00
         13   -1    0    0    0    0  0.00000000000E+00  0.00000000000E+00  0.14999999963E+04  0.15000000000E+04  0.10566000000E+00 0.  1.
        994   -1    0    0    0    0 -0.00000000000E+00 -0.00000000000E+00  0.11368683772E-12  0.17120000000E+03  0.17120000000E+03 0.  0.
         13    1    1    2    0    0 -0.24968514136E+02  0.16870937989E+02  0.26812586349E+02  0.40335854987E+02  0.10566000000E+00 0.  1.
        994    1    1    2    0    0  0.19088197755E+02 -0.28339727748E+02  0.17907158025E+02  0.17549246642E+03  0.17120000000E+03 0.  0.
        998    1    1    2    0    0  0.58803163813E+01  0.11468789759E+02  0.14552802519E+04  0.14553716786E+04  0.10000000000E+02 0.  1.
</event>
<event>
 5    1  0.7732857E-009  0.3778484E+03  0.7957747E-01  0.3460581E+00
         13   -1    0    0    0    0  0.00000000000E+00  0.00000000000E+00  0.14999999963E+04  0.15000000000E+04  0.10566000000E+00 0. -1.
        994   -1    0    0    0    0 -0.00000000000E+00 -0.00000000000E+00  0.11368683772E-12  0.17120000000E+03  0.17120000000E+03 0.  0.
         13    1    1    2    0    0 -0.15444696437E+02  0.12792417119E+02  0.64535295607E+01  0.21067600518E+02  0.10566000000E+00 0. -1.
        994    1    1    2    0    0  0.14846511809E+02 -0.15416419236E+02  0.16798956369E+02  0.17334857897E+03  0.17120000000E+03 0.  0.
        998    1    1    2    0    0  0.59818462768E+00  0.26240021179E+01  0.14767475103E+04  0.14767838205E+04  0.10000000000E+02 0. -1.
</event>
<event>
 5    1  0.7732857E-009  0.3717706E+03  0.7957747E-01  0.3487793E+00
         13   -1    0    0    0    0  0.00000000000E+00  0.00000000000E+00  0.14999999963E+04  0.15000000000E+04  0.10566000000E+00 0.  1.
        994   -1    0    0    0    0 -0.00000000000E+00 -0.00000000000E+00  0.11368683772E-12  0.17120000000E+03  0.17120000000E+03 0.  0.
         13    1    1    2    0    0 -0.25918490652E+02 -0.26298648224E+01  0.37877806009E+02  0.45971988196E+02  0.10566000000E+00 0.  1.
        994    1    1    2    0    0  0.13123219245E+02 -0.95437903442E+01  0.92519017540E+01  0.17221597052E+03  0.17120000000E+03 0.  0.
        998    1    1    2    0    0  0.12795271407E+02  0.12173655167E+02  0.14528702885E+04  0.14530120413E+04  0.10000000000E+02 0.  1.
</event>
<event>
 5    1  0.7732857E-009  0.3837134E+03  0.7957747E-01  0.3435147E+00
         13   -1    0    0    0    0  0.00000000000E+00  0.00000000000E+00  0.14999999963E+04  0.15000000000E+04  0.10566000000E+00 0.  1.
        994   -1    0    0    0    0 -0.00000000000E+00 -0.00000000000E+00  0.11368683772E-12  0.17120000000E+03  0.17120000000E+03 0.  0.
         13    1    1    2    0    0  0.10490722696E+02  0.14738367733E+02  0.61949259311E+02  0.64536785164E+02  0.10566000000E+00 0.  1.
        994    1    1    2    0    0 -0.21781016872E+02 -0.32762529193E+02  0.73985633578E+01  0.17581801601E+03  0.17120000000E+03 0.  0.
        998    1    1    2    0    0  0.11290294176E+02  0.18024161459E+02  0.14306521736E+04  0.14308451988E+04  0.10000000000E+02 0.  1.
</event>
<event>
 5    1  0.7732857E-009  0.3706950E+03  0.7957747E-01  0.3492703E+00
         13   -1    0    0    0    0  0.00000000000E+00  0.00000000000E+00  0.14999999963E+04  0.15000000000E+04  0.10566000000E+00 0.  1.
        994   -1    0    0    0    0 -0.00000000000E+00 -0.00000000000E+00  0.11368683772E-12  0.17120000000E+03  0.17120000000E+03 0.  0.
         13    1    1    2    0    0 -0.25311377076E+02 -0.20826820888E+02  0.55197578645E+02  0.64196620862E+02  0.10566000000E+00 0.  1.
        994    1    1    2    0    0  0.29100253179E+02  0.14756713052E+02  0.12587234298E+02  0.17473541079E+03  0.17120000000E+03 0.  0.
        998    1    1    2    0    0 -0.37888761034E+01  0.60701078363E+01  0.14322151833E+04  0.14322679684E+04  0.10000000000E+02 0.  1.
</event>
<event>
 5    1  0.7732857E-009  0.3826507E+03  0.7957747E-01  0.3439697E+00
         13   -1    0    0    0    0  0.00000000000E+00  0.00000000000E+00  0.14999999963E+04  0.15000000000E+04  0.10566000000E+00 0.  1.
        994   -1    0    0    0    0 -0.00000000000E+00 -0.00000000000E+00  0.11368683772E-12  0.17120000000E+03  0.17120000000E+03 0.  0.
         13    1    1    2    0    0 -0.29140446983E+02 -0.12184977102E+02  0.16659028657E+03  0.16955817309E+03  0.10566000000E+00 0.  1.
        994    1    1    2    0    0  0.22039143050E+02  0.15957428030E+02  0.52583970135E+01  0.17342852728E+03  0.17120000000E+03 0.  0.
        998    1    1    2    0    0  0.71013039323E+01 -0.37724509283E+01  0.13281513127E+04  0.13282132996E+04  0.10000000000E+02 0.  1.
</event>
<event>
 5    1  0.7732857E-009  0.3780611E+03  0.7957747E-01  0.3459645E+00
         13   -1    0    0    0    0  0.00000000000E+00  0.00000000000E+00  0.14999999963E+04  0.15000000000E+04  0.10566000000E+00 0. -1.
        994   -1    0    0    0    0 -0.00000000000E+00 -0.00000000000E+00  0.11368683772E-12  0.17120000000E+03  0.17120000000E+03 0.  0.
         13    1    1    2    0    0  0.54750606783E+01  0.56745616202E+02  0.25467568612E+03  0.26097846178E+03  0.10566000000E+00 0. -1.
        994    1    1    2    0    0 -0.54740571662E+01 -0.61217355091E+02  0.17931610158E+02  0.18277995653E+03  0.17120000000E+03 0.  0.
        998    1    1    2    0    0 -0.10035121530E-02  0.44717388887E+01  0.12273927000E+04  0.12274415817E+04  0.10000000000E+02 0. -1.
</event>
<event>
 5    1  0.7732857E-009  0.3776909E+03  0.7957747E-01  0.3461275E+00
         13   -1    0    0    0    0  0.00000000000E+00  0.00000000000E+00  0.14999999963E+04  0.15000000000E+04  0.10566000000E+00 0.  1.
        994   -1    0    0    0    0 -0.00000000000E+00 -0.00000000000E+00  0.11368683772E-12  0.17120000000E+03  0.17120000000E+03 0.  0.
         13    1    1    2    0    0  0.31676255661E+02 -0.37815069701E+02  0.27879168848E+03  0.28312220223E+03  0.10566000000E+00 0.  1.
        994    1    1    2    0    0 -0.15620889492E+02 -0.75759381330E+01  0.63193252117E+01  0.17219402109E+03  0.17120000000E+03 0.  0.
        998    1    1    2    0    0 -0.16055366169E+02  0.45391007834E+02  0.12148889826E+04  0.12158837767E+04  0.10000000000E+02 0.  1.
</event>
<event>
 5    1  0.7732857E-009  0.3730188E+03  0.7957747E-01  0.3482131E+00
         13   -1    0    0    0    0  0.00000000000E+00  0.00000000000E+00  0.14999999963E+04  0.15000000000E+04  0.10566000000E+00 0.  1.
        994   -1    0    0    0    0 -0.00000000000E+00 -0.00000000000E+00  0.11368683772E-12  0.17120000000E+03  0.17120000000E+03 0.  0.
         13    1    1    2    0    0 -0.24196211541E+02  0.79702658980E+02  0.22837846896E+03  0.24309402862E+03  0.10566000000E+00 0.  1.
        994    1    1    2    0    0  0.24894930037E+02 -0.81437607041E+02  0.38630920555E+02  0.19507339492E+03  0.17120000000E+03 0.  0.
        998    1    1    2    0    0 -0.69871849589E+00  0.17349480613E+01  0.12329906068E+04  0.12330325765E+04  0.10000000000E+02 0.  0.
</event>
<event>
 5    1  0.8142447E-009  0.3856232E+03  0.7957747E-01  0.3427033E+00
         13   -1    0    0    0    0  0.00000000000E+00  0.00000000000E+00  0.14999999963E+04  0.15000000000E+04  0.10566000000E+00 0. -1.
        994   -1    0    0    0    0 -0.00000000000E+00 -0.00000000000E+00  0.11368683772E-12  0.17120000000E+03  0.17120000000E+03 0.  0.
         13    1    1    2    0    0  0.32833070264E+01 -0.10175078550E+02  0.42616632567E+02  0.43937465378E+02  0.10566000000E+00 0. -1.
        994    1    1    2    0    0  0.17250211931E+00  0.11420613322E+02  0.17493239891E+01  0.17158951104E+03  0.17120000000E+03 0.  0.
        998    1    1    2    0    0 -0.34558091457E+01 -0.12455347726E+01  0.14556340397E+04  0.14556730236E+04  0.10000000000E+02 0. -1.
</event>
<event>
 5    1  0.9452470E-009  0.3856611E+03  0.7957747E-01  0.3426873E+00
         13   -1    0    0    0    0  0.00000000000E+00  0.00000000000E+00  0.14999999963E+04  0.15000000000E+04  0.10566000000E+00 0. -1.
        994   -1    0    0    0    0 -0.00000000000E+00 -0.00000000000E+00  0.11368683772E-12  0.17120000000E+03  0.17120000000E+03 0.  0.
         13    1    1    2    0    0  0.11735557082E+02  0.73656867706E+01  0.68603889451E+02  0.69989152398E+02  0.10566000000E+00 0. -1.
        994    1    1    2    0    0 -0.16935220276E+02 -0.10959455768E+02  0.26387429297E+01  0.17240450783E+03  0.17120000000E+03 0.  0.
        998    1    1    2    0    0  0.51996631945E+01  0.35937689969E+01  0.14287573639E+04  0.14288063398E+04  0.10000000000E+02 0. -1.
</event>
<event>
 5    1  0.7732857E-009  0.3803631E+03  0.7957747E-01  0.3449579E+00
         13   -1    0    0    0    0  0.00000000000E+00  0.00000000000E+00  0.14999999963E+04  0.15000000000E+04  0.10566000000E+00 0. -1.
        994   -1    0    0    0    0 -0.00000000000E+00 -0.00000000000E+00  0.11368683772E-12  0.17120000000E+03  0.17120000000E+03 0.  0.
         13    1    1    2    0    0 -0.59671013177E+02  0.34384075606E+02  0.41592673997E+03  0.42158979904E+03  0.10566000000E+00 0. -1.
        994    1    1    2    0    0  0.65223448722E+02 -0.31857241643E+02  0.21747796721E+02  0.18722016123E+03  0.17120000000E+03 0.  0.
        998    1    1    2    0    0 -0.55524355457E+01 -0.25268339635E+01  0.10623254596E+04  0.10623900397E+04  0.10000000000E+02 0. -1.
</event>
<event>
 5    1  0.7732857E-009  0.3810552E+03  0.7957747E-01  0.3446577E+00
         13   -1    0    0    0    0  0.00000000000E+00  0.00000000000E+00  0.14999999963E+04  0.15000000000E+04  0.10566000000E+00 0.  1.
        994   -1    0    0    0    0 -0.00000000000E+00 -0.00000000000E+00  0.11368683772E-12  0.17120000000E+03  0.17120000000E+03 0.  0.
         13    1    1    2    0    0  0.85845181659E+02  0.15396863641E+02  0.46631212597E+03  0.47439800655E+03  0.10566000000E+00 0.  1.
        994    1    1    2    0    0  0.46299910210E+02  0.65410276113E+00  0.24748527179E+02  0.17906992805E+03  0.17120000000E+03 0.  0.
        998    1    1    2    0    0 -0.13214509187E+03 -0.16050966402E+02  0.10089393431E+04  0.10177320654E+04  0.10000000000E+02 0. -1.
</event>
<event>
 5    1  0.7732857E-009  0.3839849E+03  0.7957747E-01  0.3433989E+00
         13   -1    0    0    0    0  0.00000000000E+00  0.00000000000E+00  0.14999999963E+04  0.15000000000E+04  0.10566000000E+00 0. -1.
        994   -1    0    0    0    0 -0.00000000000E+00 -0.00000000000E+00  0.11368683772E-12  0.17120000000E+03  0.17120000000E+03 0.  0.
         13    1    1    2    0    0  0.13379678146E+02 -0.20998486661E+01  0.42284860209E+02  0.44400965290E+02  0.10566000000E+00 0. -1.
        994    1    1    2    0    0 -0.91352396127E+01  0.58797659735E+01  0.25244847675E+01  0.17156292512E+03  0.17120000000E+03 0.  0.
        998    1    1    2    0    0 -0.42444385333E+01 -0.37799173074E+01  0.14551906513E+04  0.14552361096E+04  0.10000000000E+02 0. -1.
</event>
<event>
 5    1  0.7732857E-009  0.3846956E+03  0.7957747E-01  0.3430964E+00
         13   -1    0    0    0    0  0.00000000000E+00  0.00000000000E+00  0.14999999963E+04  0.15000000000E+04  0.10566000000E+00 0. -1.
        994   -1    0    0    0    0 -0.00000000000E+00 -0.00000000000E+00  0.11368683772E-12  0.17120000000E+03  0.17120000000E+03 0.  0.
         13    1    1    2    0    0 -0.19076689819E+02  0.10940658943E+01  0.97286443710E+02  0.99145248844E+02  0.10566000000E+00 0. -1.
        994    1    1    2    0    0  0.18501616182E+02 -0.15684134318E+02  0.37203898883E+01  0.17294965502E+03  0.17120000000E+03 0.  0.
        998    1    1    2    0    0  0.57507363630E+00  0.14590068423E+02  0.13989931627E+04  0.13991050961E+04  0.10000000000E+02 0. -1.
</event>
<event>
 5    1  0.7732857E-009  0.3755158E+03  0.7957747E-01  0.3470919E+00
         13   -1    0    0    0    0  0.00000000000E+00  0.00000000000E+00  0.14999999963E+04  0.15000000000E+04  0.10566000000E+00 0. -1.
        994   -1    0    0    0    0 -0.00000000000E+00 -0.00000000000E+00  0.11368683772E-12  0.17120000000E+03  0.17120000000E+03 0.  0.
         13    1    1    2    0    0 -0.28304714833E+02 -0.18036544177E+03  0.78702271462E+03  0.80792178703E+03  0.10566000000E+00 0. -1.
        994    1    1    2    0    0  0.34534238529E+02  0.19373255111E+03  0.15174466110E+03  0.30176281607E+03  0.17120000000E+03 0.  0.
        998    1    1    2    0    0 -0.62295236960E+01 -0.13367109334E+02  0.56123262056E+03  0.56151539690E+03  0.10000000000E+02 0.  1.
</event>
<event>
 5    1  0.7732857E-009  0.3750269E+03  0.7957747E-01  0.3473102E+00
         13   -1    0    0    0    0  0.00000000000E+00  0.00000000000E+00  0.14999999963E+04  0.15000000000E+04  0.10566000000E+00 0. -1.
        994   -1    0    0    0    0 -0.00000000000E+00 -0.00000000000E+00  0.11368683772E-12  0.17120000000E+03  0.17120000000E+03 0.  0.
         13    1    1    2    0    0 -0.38261643175E+01 -0.23467931311E+02  0.40910312968E+02  0.47318582022E+02  0.10566000000E+00 0. -1.
        994    1    1    2    0    0  0.90557676229E+01  0.48181041707E+01  0.70226176709E+01  0.17165074487E+03  0.17120000000E+03 0.  0.
        998    1    1    2    0    0 -0.52296033054E+01  0.18649827141E+02  0.14520670656E+04  0.14522306731E+04  0.10000000000E+02 0. -1.
</event>
<event>
 5    1  0.7732857E-009  0.3848730E+03  0.7957747E-01  0.3430211E+00
         13   -1    0    0    0    0  0.00000000000E+00  0.00000000000E+00  0.14999999963E+04  0.15000000000E+04  0.10566000000E+00 0.  1.
        994   -1    0    0    0    0 -0.00000000000E+00 -0.00000000000E+00  0.11368683772E-12  0.17120000000E+03  0.17120000000E+03 0.  0.
         13    1    1    2    0    0  0.39575105206E+01 -0.14514752152E+02  0.66197629613E+02  0.67885766181E+02  0.10566000000E+00 0.  1.
        994    1    1    2    0    0 -0.37219245695E+01  0.10704108778E+02  0.21158724299E+01  0.17158772562E+03  0.17120000000E+03 0.  0.
        998    1    1    2    0    0 -0.23558595112E+00  0.38106433740E+01  0.14316864942E+04  0.14317265082E+04  0.10000000000E+02 0.  1.
</event>
<event>
 5    1  0.7732857E-009  0.3840892E+03  0.7957747E-01  0.3433544E+00
         13   -1    0    0    0    0  0.00000000000E+00  0.00000000000E+00  0.14999999963E+04  0.15000000000E+04  0.10566000000E+00 0.  1.
        994   -1    0    0    0    0 -0.00000000000E+00 -0.00000000000E+00  0.11368683772E-12  0.17120000000E+03  0.17120000000E+03 0.  0.
         13    1    1    2    0    0  0.13305733940E+02  0.79337282436E+01  0.64439883856E+02  0.66275911121E+02  0.10566000000E+00 0.  1.
        994    1    1    2    0    0  0.92063966398E+01  0.52415993218E+01  0.24532787843E+01  0.17154501065E+03  0.17120000000E+03 0.  0.
        998    1    1    2    0    0 -0.22512130580E+02 -0.13175327565E+02  0.14331068336E+04  0.14333790782E+04  0.10000000000E+02 0.  1.
</event>
<event>
 5    1  0.7732857E-009  0.3692255E+03  0.7957747E-01  0.3499458E+00
         13   -1    0    0    0    0  0.00000000000E+00  0.00000000000E+00  0.14999999963E+04  0.15000000000E+04  0.10566000000E+00 0.  1.
        994   -1    0    0    0    0 -0.00000000000E+00 -0.00000000000E+00  0.11368683772E-12  0.17120000000E+03  0.17120000000E+03 0.  0.
         13    1    1    2    0    0 -0.33123395242E+02  0.41673209399E+02  0.12133231851E+03  0.13249663533E+03  0.10566000000E+00 0.  1.
        994    1    1    2    0    0  0.29881572191E+02 -0.70518390186E+02  0.30295363260E+02  0.18998158002E+03  0.17120000000E+03 0.  0.
        998    1    1    2    0    0  0.32418230508E+01  0.28845180787E+02  0.13483723145E+04  0.13487217847E+04  0.10000000000E+02 0.  1.
</event>
<event>
 5    1  0.7732857E-009  0.3722282E+03  0.7957747E-01  0.3485713E+00
         13   -1    0    0    0    0  0.00000000000E+00  0.00000000000E+00  0.14999999963E+04  0.15000000000E+04  0.10566000000E+00 0.  1.
        994   -1    0    0    0    0 -0.00000000000E+00 -0.00000000000E+00  0.11368683772E-12  0.17120000000E+03  0.17120000000E+03 0.  0.
         13    1    1    2    0    0 -0.31225680493E+02  0.14028005072E+03  0.66129942524E+03  0.67673515997E+03  0.10566000000E+00 0.  1.
        994    1    1    2    0    0  0.52486050491E+02 -0.13621420871E+03  0.85185260338E+02  0.24057236901E+03  0.17120000000E+03 0.  0.
        998    1    1    2    0    0 -0.21260369998E+02 -0.40658420133E+01  0.75351531070E+03  0.75389247103E+03  0.10000000000E+02 0.  1.
</event>
<event>
 5    1  0.7732857E-009  0.3863779E+03  0.7957747E-01  0.3423850E+00
         13   -1    0    0    0    0  0.00000000000E+00  0.00000000000E+00  0.14999999963E+04  0.15000000000E+04  0.10566000000E+00 0. -1.
        994   -1    0    0    0    0 -0.00000000000E+00 -0.00000000000E+00  0.11368683772E-12  0.17120000000E+03  0.17120000000E+03 0.  0.
         13    1    1    2    0    0 -0.77753714762E+02 -0.88676023196E+01  0.14155632316E+03  0.16174819418E+03  0.10566000000E+00 0. -1.
        994    1    1    2    0    0  0.64883035586E+02 -0.33024948357E+01  0.35710256493E+02  0.18656199291E+03  0.17120000000E+03 0.  0.
        998    1    1    2    0    0  0.12870679176E+02  0.12170097155E+02  0.13227334166E+04  0.13228898129E+04  0.10000000000E+02 0. -1.
</event>
<event>
 5    1  0.7732857E-009  0.3853238E+03  0.7957747E-01  0.3428300E+00
         13   -1    0    0    0    0  0.00000000000E+00  0.00000000000E+00  0.14999999963E+04  0.15000000000E+04  0.10566000000E+00 0. -1.
        994   -1    0    0    0    0 -0.00000000000E+00 -0.00000000000E+00  0.11368683772E-12  0.17120000000E+03  0.17120000000E+03 0.  0.
         13    1    1    2    0    0 -0.36575554431E+01  0.15391515632E+02  0.86474039899E+02  0.87909312395E+02  0.10566000000E+00 0. -1.
        994    1    1    2    0    0 -0.11743229543E+02 -0.12071236957E+02  0.24017382066E+01  0.17204309503E+03  0.17120000000E+03 0.  0.
        998    1    1    2    0    0  0.15400784986E+02 -0.33202786745E+01  0.14111242182E+04  0.14112475926E+04  0.10000000000E+02 0. -1.
</event>
<event>
 5    1  0.7732857E-009  0.3863878E+03  0.7957747E-01  0.3423808E+00
         13   -1    0    0    0    0  0.00000000000E+00  0.00000000000E+00  0.14999999963E+04  0.15000000000E+04  0.10566000000E+00 0.  1.
        994   -1    0    0    0    0 -0.00000000000E+00 -0.00000000000E+00  0.11368683772E-12  0.17120000000E+03  0.17120000000E+03 0.  0.
         13    1    1    2    0    0  0.26068931445E+01 -0.99933450423E+01  0.57149303569E+02  0.58075097068E+02  0.10566000000E+00 0.  1.
        994    1    1    2    0    0 -0.35961912259E+01  0.74528830083E+01  0.11668984833E+01  0.17140384975E+03  0.17120000000E+03 0.  0.
        998    1    1    2    0    0  0.98929808141E+00  0.25404620339E+01  0.14416837942E+04  0.14417210532E+04  0.10000000000E+02 0.  1.
</event>
<event>
 5    1  0.7732857E-009  0.3856551E+03  0.7957747E-01  0.3426898E+00
         13   -1    0    0    0    0  0.00000000000E+00  0.00000000000E+00  0.14999999963E+04  0.15000000000E+04  0.10566000000E+00 0.  1.
        994   -1    0    0    0    0 -0.00000000000E+00 -0.00000000000E+00  0.11368683772E-12  0.17120000000E+03  0.17120000000E+03 0.  0.
         13    1    1    2    0    0  0.10180908934E+03 -0.12443336550E+02  0.24656289714E+03  0.26704531583E+03  0.10566000000E+00 0.  1.
        994    1    1    2    0    0 -0.76537824853E+02  0.23557296118E+02  0.43607946289E+02  0.19396927028E+03  0.17120000000E+03 0.  0.
        998    1    1    2    0    0 -0.25271264486E+02 -0.11113959568E+02  0.12098291529E+04  0.12101854139E+04  0.10000000000E+02 0.  1.
</event>
<event>
 5    1  0.7732857E-009  0.3743268E+03  0.7957747E-01  0.3476239E+00
         13   -1    0    0    0    0  0.00000000000E+00  0.00000000000E+00  0.14999999963E+04  0.15000000000E+04  0.10566000000E+00 0. -1.
        994   -1    0    0    0    0 -0.00000000000E+00 -0.00000000000E+00  0.11368683772E-12  0.17120000000E+03  0.17120000000E+03 0.  0.
         13    1    1    2    0    0 -0.23039248108E+02 -0.29483834453E+02  0.91033953992E+02  0.98424059004E+02  0.10566000000E+00 0. -1.
        994    1    1    2    0    0  0.19067113750E+02  0.35254930310E+02  0.12517690931E+02  0.17627421117E+03  0.17120000000E+03 0.  0.
        998    1    1    2    0    0  0.39721343580E+01 -0.57710958571E+01  0.13964483514E+04  0.13965017298E+04  0.10000000000E+02 0. -1.
</event>
<event>
 5    1  0.7732857E-009  0.3916486E+03  0.7957747E-01  0.3401955E+00
         13   -1    0    0    0    0  0.00000000000E+00  0.00000000000E+00  0.14999999963E+04  0.15000000000E+04  0.10566000000E+00 0.  1.
        994   -1    0    0    0    0 -0.00000000000E+00 -0.00000000000E+00  0.11368683772E-12  0.17120000000E+03  0.17120000000E+03 0.  0.
         13    1    1    2    0    0 -0.53115572910E+02  0.27269460717E+02  0.83985012649E+02  0.10304552919E+03  0.10566000000E+00 0.  1.
        994    1    1    2    0    0 -0.25284260257E+02  0.17701694019E+01  0.25314923383E+02  0.17490772614E+03  0.17120000000E+03 0.  0.
        998    1    1    2    0    0  0.78399833167E+02 -0.29039630119E+02  0.13907000602E+04  0.13932467447E+04  0.10000000000E+02 0.  1.
</event>
<event>
 5    1  0.7732857E-009  0.3726194E+03  0.7957747E-01  0.3483938E+00
         13   -1    0    0    0    0  0.00000000000E+00  0.00000000000E+00  0.14999999963E+04  0.15000000000E+04  0.10566000000E+00 0. -1.
        994   -1    0    0    0    0 -0.00000000000E+00 -0.00000000000E+00  0.11368683772E-12  0.17120000000E+03  0.17120000000E+03 0.  0.
         13    1    1    2    0    0 -0.58575084933E+02 -0.29803769494E+02  0.34079001253E+03  0.34706937211E+03  0.10566000000E+00 0. -1.
        994    1    1    2    0    0  0.19076008271E+02 -0.16987021221E+02  0.10145319120E+02  0.17339210040E+03  0.17120000000E+03 0.  0.
        998    1    1    2    0    0  0.39499076662E+02  0.46790790716E+02  0.11490646646E+04  0.11507385275E+04  0.10000000000E+02 0. -1.
</event>
<event>
 5    1  0.7732857E-009  0.3729058E+03  0.7957747E-01  0.3482642E+00
         13   -1    0    0    0    0  0.00000000000E+00  0.00000000000E+00  0.14999999963E+04  0.15000000000E+04  0.10566000000E+00 0.  1.
        994   -1    0    0    0    0 -0.00000000000E+00 -0.00000000000E+00  0.11368683772E-12  0.17120000000E+03  0.17120000000E+03 0.  0.
         13    1    1    2    0    0  0.10033508016E+02  0.11695901878E+02  0.12596234106E+02  0.19903308307E+02  0.10566000000E+00 0.  1.
        994    1    1    2    0    0  0.19602412580E+02  0.42160798143E+01  0.91356172314E+01  0.17261207782E+03  0.17120000000E+03 0.  0.
        998    1    1    2    0    0 -0.29635920596E+02 -0.15911981693E+02  0.14782681449E+04  0.14786846139E+04  0.10000000000E+02 0.  1.
</event>
<event>
 5    1  0.7732857E-009  0.3815266E+03  0.7957747E-01  0.3444538E+00
         13   -1    0    0    0    0  0.00000000000E+00  0.00000000000E+00  0.14999999963E+04  0.15000000000E+04  0.10566000000E+00 0. -1.
        994   -1    0    0    0    0 -0.00000000000E+00 -0.00000000000E+00  0.11368683772E-12  0.17120000000E+03  0.17120000000E+03 0.  0.
         13    1    1    2    0    0  0.47542229647E+01  0.34906254760E+02  0.18245644071E+03  0.18582629840E+03  0.10566000000E+00 0. -1.
        994    1    1    2    0    0 -0.56001105315E+01 -0.20572253845E+02  0.48779368316E+01  0.17259146310E+03  0.17120000000E+03 0.  0.
        998    1    1    2    0    0  0.84588756676E+00 -0.14334000914E+02  0.13126656187E+04  0.13127822385E+04  0.10000000000E+02 0. -1.
</event>
<event>
 5    1  0.7732857E-009  0.3708887E+03  0.7957747E-01  0.3491817E+00
         13   -1    0    0    0    0  0.00000000000E+00  0.00000000000E+00  0.14999999963E+04  0.15000000000E+04  0.10566000000E+00 0. -1.
        994   -1    0    0    0    0 -0.00000000000E+00 -0.00000000000E+00  0.11368683772E-12  0.17120000000E+03  0.17120000000E+03 0.  0.
         13    1    1    2    0    0 -0.29639376330E+01 -0.22215885553E+02  0.24349116632E+02  0.33094125490E+02  0.10566000000E+00 0. -1.
        994    1    1    2    0    0 -0.31956727135E+01  0.24435871937E+02  0.10901619419E+02  0.17330784595E+03  0.17120000000E+03 0.  0.
        998    1    1    2    0    0  0.61596103465E+01 -0.22199863837E+01  0.14647492602E+04  0.14647980286E+04  0.10000000000E+02 0. -1.
</event>
<event>
 5    1  0.7732857E-009  0.3342756E+03  0.7957747E-01  0.3678122E+00
         13   -1    0    0    0    0  0.00000000000E+00  0.00000000000E+00  0.14999999963E+04  0.15000000000E+04  0.10566000000E+00 0.  1.
        994   -1    0    0    0    0 -0.00000000000E+00 -0.00000000000E+00  0.11368683772E-12  0.17120000000E+03  0.17120000000E+03 0.  0.
         13    1    1    2    0    0 -0.19391979696E+03  0.17970852617E+03  0.68840989977E+03  0.73743355179E+03  0.10566000000E+00 0.  1.
        994    1    1    2    0    0  0.19924953318E+03 -0.18018651012E+03  0.35475025549E+03  0.47678584152E+03  0.17120000000E+03 0.  0.
        998    1    1    2    0    0 -0.53297362184E+01  0.47798394976E+00  0.45683984102E+03  0.45698060670E+03  0.10000000000E+02 0.  0.
</event>
<event>
 5    1  0.7732857E-009  0.3856617E+03  0.7957747E-01  0.3426871E+00
         13   -1    0    0    0    0  0.00000000000E+00  0.00000000000E+00  0.14999999963E+04  0.15000000000E+04  0.10566000000E+00 0.  1.
        994   -1    0    0    0    0 -0.00000000000E+00 -0.00000000000E+00  0.11368683772E-12  0.17120000000E+03  0.17120000000E+03 0.  0.
         13    1    1    2    0    0 -0.56690376981E+01  0.96288318375E+01  0.46760879916E+02  0.48077473369E+02  0.10566000000E+00 0.  1.
        994    1    1    2    0    0 -0.11516030545E+01 -0.15609172482E+02  0.21062669561E+01  0.17192687055E+03  0.17120000000E+03 0.  0.
        998    1    1    2    0    0  0.68206407525E+01  0.59803406443E+01  0.14511328494E+04  0.14511956561E+04  0.10000000000E+02 0.  1.
</event>
<event>
 5    1  0.7732857E-009  0.3772476E+03  0.7957747E-01  0.3463231E+00
         13   -1    0    0    0    0  0.00000000000E+00  0.00000000000E+00  0.14999999963E+04  0.15000000000E+04  0.10566000000E+00 0.  1.
        994   -1    0    0    0    0 -0.00000000000E+00 -0.00000000000E+00  0.11368683772E-12  0.17120000000E+03  0.17120000000E+03 0.  0.
         13    1    1    2    0    0 -0.15844244783E+02  0.26189188577E+02  0.86173544265E+02  0.91448371152E+02  0.10566000000E+00 0.  1.
        994    1    1    2    0    0  0.47964128904E+02  0.16724632483E+02  0.14283915554E+02  0.17914726132E+03  0.17120000000E+03 0.  0.
        998    1    1    2    0    0 -0.32119884121E+02 -0.42913821059E+02  0.13995425365E+04  0.14006043675E+04  0.10000000000E+02 0.  1.
</event>
<event>
 5    1  0.7732857E-009  0.3771577E+03  0.7957747E-01  0.3463629E+00
         13   -1    0    0    0    0  0.00000000000E+00  0.00000000000E+00  0.14999999963E+04  0.15000000000E+04  0.10566000000E+00 0.  1.
        994   -1    0    0    0    0 -0.00000000000E+00 -0.00000000000E+00  0.11368683772E-12  0.17120000000E+03  0.17120000000E+03 0.  0.
         13    1    1    2    0    0 -0.12404800865E+03  0.10156470413E+02  0.74020449694E+03  0.75059561070E+03  0.10566000000E+00 0.  1.
        994    1    1    2    0    0  0.11927921586E+03  0.11204771652E+01  0.55206229851E+02  0.21583779702E+03  0.17120000000E+03 0.  0.
        998    1    1    2    0    0  0.47687927820E+01 -0.11276947578E+02  0.70458926949E+03  0.70476659229E+03  0.10000000000E+02 0.  1.
</event>
<event>
 5    1  0.7732857E-009  0.3790779E+03  0.7957747E-01  0.3455183E+00
         13   -1    0    0    0    0  0.00000000000E+00  0.00000000000E+00  0.14999999963E+04  0.15000000000E+04  0.10566000000E+00 0. -1.
        994   -1    0    0    0    0 -0.00000000000E+00 -0.00000000000E+00  0.11368683772E-12  0.17120000000E+03  0.17120000000E+03 0.  0.
         13    1    1    2    0    0  0.15210063691E+02  0.92563526041E+01  0.31909745097E+02  0.36541334092E+02  0.10566000000E+00 0. -1.
        994    1    1    2    0    0 -0.16420514173E+02 -0.10286074004E+02  0.58592391419E+01  0.17239259638E+03  0.17120000000E+03 0.  0.
        998    1    1    2    0    0  0.12104504824E+01  0.10297213996E+01  0.14622310120E+04  0.14622660695E+04  0.10000000000E+02 0. -1.
</event>
<event>
 5    1  0.7732857E-009  0.3717572E+03  0.7957747E-01  0.3487854E+00
         13   -1    0    0    0    0  0.00000000000E+00  0.00000000000E+00  0.14999999963E+04  0.15000000000E+04  0.10566000000E+00 0. -1.
        994   -1    0    0    0    0 -0.00000000000E+00 -0.00000000000E+00  0.11368683772E-12  0.17120000000E+03  0.17120000000E+03 0.  0.
         13    1    1    2    0    0  0.19150236542E+02 -0.39484750414E+02  0.85285936093E+02  0.95913915226E+02  0.10566000000E+00 0. -1.
        994    1    1    2    0    0 -0.24305827124E+02 -0.15763587242E+02  0.14828834661E+02  0.17426588379E+03  0.17120000000E+03 0.  0.
        998    1    1    2    0    0  0.51555905821E+01  0.55248337655E+02  0.13998852255E+04  0.14010202010E+04  0.10000000000E+02 0. -1.
</event>
<event>
 5    1  0.7732857E-009  0.3810309E+03  0.7957747E-01  0.3446682E+00
         13   -1    0    0    0    0  0.00000000000E+00  0.00000000000E+00  0.14999999963E+04  0.15000000000E+04  0.10566000000E+00 0. -1.
        994   -1    0    0    0    0 -0.00000000000E+00 -0.00000000000E+00  0.11368683772E-12  0.17120000000E+03  0.17120000000E+03 0.  0.
         13    1    1    2    0    0  0.24040853053E+02  0.15557707460E+02  0.10720117622E+03  0.11095993973E+03  0.10566000000E+00 0. -1.
        994    1    1    2    0    0  0.17550785141E+01 -0.53299737775E+02  0.13147135965E+02  0.17979496526E+03  0.17120000000E+03 0.  0.
        998    1    1    2    0    0 -0.25795931567E+02  0.37742030316E+02  0.13796516841E+04  0.13804450950E+04  0.10000000000E+02 0. -1.
</event>
<event>
 5    1  0.7732857E-009  0.3821125E+03  0.7957747E-01  0.3442012E+00
         13   -1    0    0    0    0  0.00000000000E+00  0.00000000000E+00  0.14999999963E+04  0.15000000000E+04  0.10566000000E+00 0.  1.
        994   -1    0    0    0    0 -0.00000000000E+00 -0.00000000000E+00  0.11368683772E-12  0.17120000000E+03  0.17120000000E+03 0.  0.
         13    1    1    2    0    0 -0.13556958295E+02  0.53776536313E+01  0.32936921131E+02  0.36021690888E+02  0.10566000000E+00 0.  1.
        994    1    1    2    0    0  0.13362443426E+02 -0.68312224286E+01  0.38186013861E+01  0.17189893022E+03  0.17120000000E+03 0.  0.
        998    1    1    2    0    0  0.19451486870E+00  0.14535687973E+01  0.14632444738E+04  0.14632793789E+04  0.10000000000E+02 0.  1.
</event>
<event>
 5    1  0.7732857E-009  0.3842933E+03  0.7957747E-01  0.3432675E+00
         13   -1    0    0    0    0  0.00000000000E+00  0.00000000000E+00  0.14999999963E+04  0.15000000000E+04  0.10566000000E+00 0.  1.
        994   -1    0    0    0    0 -0.00000000000E+00 -0.00000000000E+00  0.11368683772E-12  0.17120000000E+03  0.17120000000E+03 0.  0.
         13    1    1    2    0    0  0.15963745813E+01 -0.16068289933E+02  0.64916114243E+02  0.66894330146E+02  0.10566000000E+00 0.  1.
        994    1    1    2    0    0 -0.37869848293E+01  0.11738122916E+02  0.24830054549E+01  0.17166167336E+03  0.17120000000E+03 0.  0.
        998    1    1    2    0    0  0.21906102480E+01  0.43301670167E+01  0.14326008766E+04  0.14326439965E+04  0.10000000000E+02 0.  1.
</event>
<event>
 5    1  0.7732857E-009  0.3292854E+03  0.7957747E-01  0.3706853E+00
         13   -1    0    0    0    0  0.00000000000E+00  0.00000000000E+00  0.14999999963E+04  0.15000000000E+04  0.10566000000E+00 0. -1.
        994   -1    0    0    0    0 -0.00000000000E+00 -0.00000000000E+00  0.11368683772E-12  0.17120000000E+03  0.17120000000E+03 0.  0.
         13    1    1    2    0    0  0.17447696869E+03  0.15268098972E+03  0.97445429845E+03  0.10016560728E+04  0.10566000000E+00 0. -1.
        994    1    1    2    0    0 -0.18279012266E+03 -0.46575856946E+02  0.19115719425E+03  0.31848399066E+03  0.17120000000E+03 0.  0.
        998    1    1    2    0    0  0.83131539716E+01 -0.10610513277E+03  0.33438850358E+03  0.35105993655E+03  0.10000000000E+02 0. -1.
</event>
<event>
 5    1  0.7732857E-009  0.3842243E+03  0.7957747E-01  0.3432969E+00
         13   -1    0    0    0    0  0.00000000000E+00  0.00000000000E+00  0.14999999963E+04  0.15000000000E+04  0.10566000000E+00 0. -1.
        994   -1    0    0    0    0 -0.00000000000E+00 -0.00000000000E+00  0.11368683772E-12  0.17120000000E+03  0.17120000000E+03 0.  0.
         13    1    1    2    0    0  0.19853397746E+02 -0.30397792629E+01  0.10272188409E+03  0.10466706404E+03  0.10566000000E+00 0. -1.
        994    1    1    2    0    0 -0.88443544140E+01 -0.11533617969E+01  0.22780752669E+01  0.17144731691E+03  0.17120000000E+03 0.  0.
        998    1    1    2    0    0 -0.11009043332E+02  0.41931410597E+01  0.13950000369E+04  0.13950856190E+04  0.10000000000E+02 0. -1.
</event>
<event>
 5    1  0.7732857E-009  0.3745310E+03  0.7957747E-01  0.3475323E+00
         13   -1    0    0    0    0  0.00000000000E+00  0.00000000000E+00  0.14999999963E+04  0.15000000000E+04  0.10566000000E+00 0.  1.
        994   -1    0    0    0    0 -0.00000000000E+00 -0.00000000000E+00  0.11368683772E-12  0.17120000000E+03  0.17120000000E+03 0.  0.
         13    1    1    2    0    0 -0.41890252047E+01  0.13876971712E+02  0.17616218469E+01  0.14602491281E+02  0.10566000000E+00 0.  1.
        994    1    1    2    0    0  0.14781676629E+02 -0.65818094964E+01  0.14285609571E+02  0.17255531525E+03  0.17120000000E+03 0.  0.
        998    1    1    2    0    0 -0.10592651424E+02 -0.72951622155E+01  0.14839527649E+04  0.14840421935E+04  0.10000000000E+02 0.  1.
</event>
<event>
 5    1  0.7732857E-009  0.3852699E+03  0.7957747E-01  0.3428528E+00
         13   -1    0    0    0    0  0.00000000000E+00  0.00000000000E+00  0.14999999963E+04  0.15000000000E+04  0.10566000000E+00 0. -1.
        994   -1    0    0    0    0 -0.00000000000E+00 -0.00000000000E+00  0.11368683772E-12  0.17120000000E+03  0.17120000000E+03 0.  0.
         13    1    1    2    0    0 -0.10300588692E+02 -0.12107869701E+02  0.91584688257E+02  0.92954122681E+02  0.10566000000E+00 0. -1.
        994    1    1    2    0    0  0.11839609339E+02 -0.89877970081E+01  0.22225328551E+01  0.17185847811E+03  0.17120000000E+03 0.  0.
        998    1    1    2    0    0 -0.15390206478E+01  0.21095666709E+02  0.14061927752E+04  0.14063873992E+04  0.10000000000E+02 0. -1.
</event>
<event>
 5    1  0.7732857E-009  0.3844735E+03  0.7957747E-01  0.3431908E+00
         13   -1    0    0    0    0  0.00000000000E+00  0.00000000000E+00  0.14999999963E+04  0.15000000000E+04  0.10566000000E+00 0. -1.
        994   -1    0    0    0    0 -0.00000000000E+00 -0.00000000000E+00  0.11368683772E-12  0.17120000000E+03  0.17120000000E+03 0.  0.
         13    1    1    2    0    0  0.30791694537E+01  0.97552581255E+01  0.27791534249E+02  0.29614639717E+02  0.10566000000E+00 0. -1.
        994    1    1    2    0    0 -0.71533089644E+01  0.52052424371E+00  0.20612344457E+01  0.17136256727E+03  0.17120000000E+03 0.  0.
        998    1    1    2    0    0  0.40741395106E+01 -0.10275782369E+02  0.14701472276E+04  0.14702227930E+04  0.10000000000E+02 0. -1.
</event>
<event>
 5    1  0.7732857E-009  0.3839976E+03  0.7957747E-01  0.3433935E+00
         13   -1    0    0    0    0  0.00000000000E+00  0.00000000000E+00  0.14999999963E+04  0.15000000000E+04  0.10566000000E+00 0. -1.
        994   -1    0    0    0    0 -0.00000000000E+00 -0.00000000000E+00  0.11368683772E-12  0.17120000000E+03  0.17120000000E+03 0.  0.
         13    1    1    2    0    0  0.12841067639E+02 -0.55066621879E+01  0.47216361240E+02  0.49240352144E+02  0.10566000000E+00 0. -1.
        994    1    1    2    0    0  0.32095538337E+01  0.10420724294E+02  0.25210074036E+01  0.17156540505E+03  0.17120000000E+03 0.  0.
        998    1    1    2    0    0 -0.16050621473E+02 -0.49140621063E+01  0.14502626276E+04  0.14503942428E+04  0.10000000000E+02 0. -1.
</event>
<event>
 5    1  0.7732857E-009  0.3767212E+03  0.7957747E-01  0.3465561E+00
         13   -1    0    0    0    0  0.00000000000E+00  0.00000000000E+00  0.14999999963E+04  0.15000000000E+04  0.10566000000E+00 0.  1.
        994   -1    0    0    0    0 -0.00000000000E+00 -0.00000000000E+00  0.11368683772E-12  0.17120000000E+03  0.17120000000E+03 0.  0.
         13    1    1    2    0    0 -0.97512954674E+01 -0.25124259891E+02  0.59177567084E+02  0.65025470459E+02  0.10566000000E+00 0.  1.
        994    1    1    2    0    0  0.30514619991E+01  0.23806508231E+02  0.77467771207E+01  0.17304772119E+03  0.17120000000E+03 0.  0.
        998    1    1    2    0    0  0.66998334683E+01  0.13177516603E+01  0.14330756521E+04  0.14331268083E+04  0.10000000000E+02 0.  1.
</event>
<event>
 5    1  0.7732857E-009  0.3847943E+03  0.7957747E-01  0.3430545E+00
         13   -1    0    0    0    0  0.00000000000E+00  0.00000000000E+00  0.14999999963E+04  0.15000000000E+04  0.10566000000E+00 0.  1.
        994   -1    0    0    0    0 -0.00000000000E+00 -0.00000000000E+00  0.11368683772E-12  0.17120000000E+03  0.17120000000E+03 0.  0.
         13    1    1    2    0    0  0.96524592280E+01 -0.94209729387E+01  0.51387356529E+02  0.53128111912E+02  0.10566000000E+00 0.  1.
        994    1    1    2    0    0 -0.86295543482E+01  0.89634595874E+01  0.22419397010E+01  0.17166618511E+03  0.17120000000E+03 0.  0.
        998    1    1    2    0    0 -0.10229048798E+01  0.45751335135E+00  0.14463707000E+04  0.14464057030E+04  0.10000000000E+02 0.  1.
</event>
<event>
 5    1  0.7732857E-009  0.3817222E+03  0.7957747E-01  0.3443694E+00
         13   -1    0    0    0    0  0.00000000000E+00  0.00000000000E+00  0.14999999963E+04  0.15000000000E+04  0.10566000000E+00 0.  1.
        994   -1    0    0    0    0 -0.00000000000E+00 -0.00000000000E+00  0.11368683772E-12  0.17120000000E+03  0.17120000000E+03 0.  0.
         13    1    1    2    0    0 -0.40132691560E+02  0.97010825604E+00  0.21543958333E+03  0.21914789361E+03  0.10566000000E+00 0.  1.
        994    1    1    2    0    0  0.38669558879E+02 -0.56496053801E+01  0.83595619243E+01  0.17580265954E+03  0.17120000000E+03 0.  0.
        998    1    1    2    0    0  0.14631326812E+01  0.46794971241E+01  0.12762008510E+04  0.12762494469E+04  0.10000000000E+02 0.  0.
</event>
<event>
 5    1  0.7732857E-009  0.3762079E+03  0.7957747E-01  0.3467838E+00
         13   -1    0    0    0    0  0.00000000000E+00  0.00000000000E+00  0.14999999963E+04  0.15000000000E+04  0.10566000000E+00 0.  1.
        994   -1    0    0    0    0 -0.00000000000E+00 -0.00000000000E+00  0.11368683772E-12  0.17120000000E+03  0.17120000000E+03 0.  0.
         13    1    1    2    0    0  0.69696827354E+02  0.23684892436E+02  0.22210955476E+03  0.23398993002E+03  0.10566000000E+00 0.  1.
        994    1    1    2    0    0 -0.93058510748E+01  0.60441987054E+01  0.14699915123E+02  0.17218785877E+03  0.17120000000E+03 0.  0.
        998    1    1    2    0    0 -0.60390976280E+02 -0.29729091141E+02  0.12631905264E+04  0.12650222112E+04  0.10000000000E+02 0.  1.
</event>
<event>
 5    1  0.7732857E-009  0.3686207E+03  0.7957747E-01  0.3502254E+00
         13   -1    0    0    0    0  0.00000000000E+00  0.00000000000E+00  0.14999999963E+04  0.15000000000E+04  0.10566000000E+00 0. -1.
        994   -1    0    0    0    0 -0.00000000000E+00 -0.00000000000E+00  0.11368683772E-12  0.17120000000E+03  0.17120000000E+03 0.  0.
         13    1    1    2    0    0 -0.10235053535E+02 -0.31552078879E+01  0.83882653900E+00  0.10743670307E+02  0.10566000000E+00 0. -1.
        994    1    1    2    0    0  0.26701386515E+01  0.20255230225E+02  0.11664863448E+02  0.17280889164E+03  0.17120000000E+03 0.  0.
        998    1    1    2    0    0  0.75649148834E+01 -0.17100022337E+02  0.14874963063E+04  0.14876474380E+04  0.10000000000E+02 0. -1.
</event>
<event>
 5    1  0.1484282E-008  0.3863491E+03  0.7957747E-01  0.3423971E+00
         13   -1    0    0    0    0  0.00000000000E+00  0.00000000000E+00  0.14999999963E+04  0.15000000000E+04  0.10566000000E+00 0. -1.
        994   -1    0    0    0    0 -0.00000000000E+00 -0.00000000000E+00  0.11368683772E-12  0.17120000000E+03  0.17120000000E+03 0.  0.
         13    1    1    2    0    0 -0.55951353543E+01  0.96431867120E+01  0.64184612273E+02  0.65145776580E+02  0.10566000000E+00 0. -1.
        994    1    1    2    0    0  0.23210905832E+01 -0.10823669463E+02  0.13631644747E+01  0.17156292577E+03  0.17120000000E+03 0.  0.
        998    1    1    2    0    0  0.32740447711E+01  0.11804827510E+01  0.14344522195E+04  0.14344912976E+04  0.10000000000E+02 0. -1.
</event>
<event>
 5    1  0.7732857E-009  0.3802550E+03  0.7957747E-01  0.3450049E+00
         13   -1    0    0    0    0  0.00000000000E+00  0.00000000000E+00  0.14999999963E+04  0.15000000000E+04  0.10566000000E+00 0.  1.
        994   -1    0    0    0    0 -0.00000000000E+00 -0.00000000000E+00  0.11368683772E-12  0.17120000000E+03  0.17120000000E+03 0.  0.
         13    1    1    2    0    0  0.40984009432E+02 -0.17844245971E+02  0.26784779852E+03  0.27155213216E+03  0.10566000000E+00 0.  1.
        994    1    1    2    0    0 -0.94682603394E+01  0.22248187333E+02  0.59596387154E+01  0.17300169678E+03  0.17120000000E+03 0.  0.
        998    1    1    2    0    0 -0.31515749093E+02 -0.44039413621E+01  0.12261925590E+04  0.12266461711E+04  0.10000000000E+02 0.  1.
</event>
<event>
 5    1  0.7732857E-009  0.3775115E+03  0.7957747E-01  0.3462066E+00
         13   -1    0    0    0    0  0.00000000000E+00  0.00000000000E+00  0.14999999963E+04  0.15000000000E+04  0.10566000000E+00 0. -1.
        994   -1    0    0    0    0 -0.00000000000E+00 -0.00000000000E+00  0.11368683772E-12  0.17120000000E+03  0.17120000000E+03 0.  0.
         13    1    1    2    0    0  0.82257117581E+02 -0.70447617192E+01  0.48726329697E+03  0.49420784474E+03  0.10566000000E+00 0. -1.
        994    1    1    2    0    0 -0.71012997796E+02  0.19427925258E+01  0.22598424995E+02  0.18672640175E+03  0.17120000000E+03 0.  0.
        998    1    1    2    0    0 -0.11244119785E+02  0.51019691934E+01  0.99013827431E+03  0.99026575351E+03  0.10000000000E+02 0. -1.
</event>
<event>
 5    1  0.7732857E-009  0.3687924E+03  0.7957747E-01  0.3501459E+00
         13   -1    0    0    0    0  0.00000000000E+00  0.00000000000E+00  0.14999999963E+04  0.15000000000E+04  0.10566000000E+00 0.  1.
        994   -1    0    0    0    0 -0.00000000000E+00 -0.00000000000E+00  0.11368683772E-12  0.17120000000E+03  0.17120000000E+03 0.  0.
         13    1    1    2    0    0 -0.45897692541E+02  0.11617328158E+03  0.43878334138E+03  0.45621668248E+03  0.10566000000E+00 0.  1.
        994    1    1    2    0    0 -0.46920796989E+02 -0.19098806060E+03  0.16012810467E+03  0.30598766378E+03  0.17120000000E+03 0.  0.
        998    1    1    2    0    0  0.92818489530E+02  0.74814779024E+02  0.90108855023E+03  0.90899565374E+03  0.10000000000E+02 0.  1.
</event>
<event>
 5    1  0.7732857E-009  0.3778161E+03  0.7957747E-01  0.3460723E+00
         13   -1    0    0    0    0  0.00000000000E+00  0.00000000000E+00  0.14999999963E+04  0.15000000000E+04  0.10566000000E+00 0. -1.
        994   -1    0    0    0    0 -0.00000000000E+00 -0.00000000000E+00  0.11368683772E-12  0.17120000000E+03  0.17120000000E+03 0.  0.
         13    1    1    2    0    0  0.16865328808E+02 -0.14556755673E+02  0.44261111058E+02  0.49551948172E+02  0.10566000000E+00 0. -1.
        994    1    1    2    0    0 -0.20109886786E+02  0.10243453386E+02  0.69566072845E+01  0.17282120897E+03  0.17120000000E+03 0.  0.
        998    1    1    2    0    0  0.32445579784E+01  0.43133022874E+01  0.14487822779E+04  0.14488268429E+04  0.10000000000E+02 0. -1.
</event>
<event>
 5    1  0.7732857E-009  0.3853415E+03  0.7957747E-01  0.3428225E+00
         13   -1    0    0    0    0  0.00000000000E+00  0.00000000000E+00  0.14999999963E+04  0.15000000000E+04  0.10566000000E+00 0.  1.
        994   -1    0    0    0    0 -0.00000000000E+00 -0.00000000000E+00  0.11368683772E-12  0.17120000000E+03  0.17120000000E+03 0.  0.
         13    1    1    2    0    0 -0.15952841062E+02  0.90827293450E+01  0.10737371597E+03  0.10893169950E+03  0.10566000000E+00 0.  1.
        994    1    1    2    0    0  0.14733037404E+02 -0.15638889132E+02  0.29786407125E+01  0.17256868066E+03  0.17120000000E+03 0.  0.
        998    1    1    2    0    0  0.12198036584E+01  0.65561597867E+01  0.13896476396E+04  0.13896996198E+04  0.10000000000E+02 0.  1.
</event>
<event>
 5    1  0.7732857E-009  0.3794807E+03  0.7957747E-01  0.3453423E+00
         13   -1    0    0    0    0  0.00000000000E+00  0.00000000000E+00  0.14999999963E+04  0.15000000000E+04  0.10566000000E+00 0.  1.
        994   -1    0    0    0    0 -0.00000000000E+00 -0.00000000000E+00  0.11368683772E-12  0.17120000000E+03  0.17120000000E+03 0.  0.
         13    1    1    2    0    0  0.16097639417E+02  0.92642165380E+01  0.36110237143E+02  0.40606897116E+02  0.10566000000E+00 0.  1.
        994    1    1    2    0    0 -0.16727449922E+02 -0.19685177990E+02  0.66333474629E+01  0.17326498525E+03  0.17120000000E+03 0.  0.
        998    1    1    2    0    0  0.62981050573E+00  0.10420961452E+02  0.14572564117E+04  0.14573281176E+04  0.10000000000E+02 0.  1.
</event>
<event>
 5    1  0.7732857E-009  0.3834241E+03  0.7957747E-01  0.3436383E+00
         13   -1    0    0    0    0  0.00000000000E+00  0.00000000000E+00  0.14999999963E+04  0.15000000000E+04  0.10566000000E+00 0.  1.
        994   -1    0    0    0    0 -0.00000000000E+00 -0.00000000000E+00  0.11368683772E-12  0.17120000000E+03  0.17120000000E+03 0.  0.
         13    1    1    2    0    0 -0.93532083479E+01 -0.18974532417E+02  0.85843670116E+02  0.88411889754E+02  0.10566000000E+00 0.  1.
        994    1    1    2    0    0  0.72739660945E+01  0.24265077837E+02  0.45386404462E+01  0.17312349304E+03  0.17120000000E+03 0.  0.
        998    1    1    2    0    0  0.20792422534E+01 -0.52905454196E+01  0.14096176857E+04  0.14096646172E+04  0.10000000000E+02 0.  1.
</event>
<event>
 5    1  0.7732857E-009  0.3829242E+03  0.7957747E-01  0.3438524E+00
         13   -1    0    0    0    0  0.00000000000E+00  0.00000000000E+00  0.14999999963E+04  0.15000000000E+04  0.10566000000E+00 0. -1.
        994   -1    0    0    0    0 -0.00000000000E+00 -0.00000000000E+00  0.11368683772E-12  0.17120000000E+03  0.17120000000E+03 0.  0.
         13    1    1    2    0    0  0.20560516923E+02 -0.17676519251E+02  0.13595161967E+03  0.13862917530E+03  0.10566000000E+00 0. -1.
        994    1    1    2    0    0 -0.13174555602E+02  0.11585418757E+02  0.36839926459E+01  0.17213600043E+03  0.17120000000E+03 0.  0.
        998    1    1    2    0    0 -0.73859613212E+01  0.60911004939E+01  0.13603643840E+04  0.13604348243E+04  0.10000000000E+02 0. -1.
</event>
<event>
 5    1  0.7732857E-009  0.3761893E+03  0.7957747E-01  0.3467921E+00
         13   -1    0    0    0    0  0.00000000000E+00  0.00000000000E+00  0.14999999963E+04  0.15000000000E+04  0.10566000000E+00 0.  1.
        994   -1    0    0    0    0 -0.00000000000E+00 -0.00000000000E+00  0.11368683772E-12  0.17120000000E+03  0.17120000000E+03 0.  0.
         13    1    1    2    0    0  0.52492077740E-01 -0.14620293613E+02  0.14859019805E+02  0.20846039776E+02  0.10566000000E+00 0.  1.
        994    1    1    2    0    0  0.25316193871E+01  0.13140212413E+02  0.66757464075E+01  0.17185191261E+03  0.17120000000E+03 0.  0.
        998    1    1    2    0    0 -0.25841114648E+01  0.14800811999E+01  0.14784652301E+04  0.14785020476E+04  0.10000000000E+02 0.  1.
</event>
<event>
 5    1  0.7732857E-009  0.3808773E+03  0.7957747E-01  0.3447347E+00
         13   -1    0    0    0    0  0.00000000000E+00  0.00000000000E+00  0.14999999963E+04  0.15000000000E+04  0.10566000000E+00 0. -1.
        994   -1    0    0    0    0 -0.00000000000E+00 -0.00000000000E+00  0.11368683772E-12  0.17120000000E+03  0.17120000000E+03 0.  0.
         13    1    1    2    0    0  0.60988813808E+01  0.22012850865E+02  0.66117994041E+02  0.69952571485E+02  0.10566000000E+00 0. -1.
        994    1    1    2    0    0 -0.83630369061E+01 -0.24049759356E+02  0.58549694548E+01  0.17318213528E+03  0.17120000000E+03 0.  0.
        998    1    1    2    0    0  0.22641555253E+01  0.20369084915E+01  0.14280270328E+04  0.14280652932E+04  0.10000000000E+02 0. -1.
</event>
<event>
 5    1  0.7732857E-009  0.3756584E+03  0.7957747E-01  0.3470283E+00
         13   -1    0    0    0    0  0.00000000000E+00  0.00000000000E+00  0.14999999963E+04  0.15000000000E+04  0.10566000000E+00 0. -1.
        994   -1    0    0    0    0 -0.00000000000E+00 -0.00000000000E+00  0.11368683772E-12  0.17120000000E+03  0.17120000000E+03 0.  0.
         13    1    1    2    0    0  0.22028704009E+02 -0.19428503486E+02  0.25834342005E+02  0.39117194926E+02  0.10566000000E+00 0. -1.
        994    1    1    2    0    0 -0.23778448909E+02 -0.11759195397E+02  0.16476526026E+02  0.17402473738E+03  0.17120000000E+03 0.  0.
        998    1    1    2    0    0  0.17497449006E+01  0.31187698883E+02  0.14576891282E+04  0.14580580677E+04  0.10000000000E+02 0. -1.
</event>
<event>
 5    1  0.7732857E-009  0.3757686E+03  0.7957747E-01  0.3469792E+00
         13   -1    0    0    0    0  0.00000000000E+00  0.00000000000E+00  0.14999999963E+04  0.15000000000E+04  0.10566000000E+00 0.  1.
        994   -1    0    0    0    0 -0.00000000000E+00 -0.00000000000E+00  0.11368683772E-12  0.17120000000E+03  0.17120000000E+03 0.  0.
         13    1    1    2    0    0 -0.77761928917E+01 -0.27146729758E+02  0.60199570597E+02  0.66493710804E+02  0.10566000000E+00 0.  1.
        994    1    1    2    0    0  0.20468997613E+01  0.22569879719E+02  0.80277778773E+01  0.17287994241E+03  0.17120000000E+03 0.  0.
        998    1    1    2    0    0  0.57292931304E+01  0.45768500383E+01  0.14317726478E+04  0.14318263468E+04  0.10000000000E+02 0.  1.
</event>
<event>
 5    1  0.7732857E-009  0.3832534E+03  0.7957747E-01  0.3437113E+00
         13   -1    0    0    0    0  0.00000000000E+00  0.00000000000E+00  0.14999999963E+04  0.15000000000E+04  0.10566000000E+00 0. -1.
        994   -1    0    0    0    0 -0.00000000000E+00 -0.00000000000E+00  0.11368683772E-12  0.17120000000E+03  0.17120000000E+03 0.  0.
         13    1    1    2    0    0 -0.33327289391E-01 -0.18281251574E+02  0.54048091479E+02  0.57056223380E+02  0.10566000000E+00 0. -1.
        994    1    1    2    0    0 -0.80868143571E+00  0.55013650575E+02  0.12576899805E+02  0.18026306922E+03  0.17120000000E+03 0.  0.
        998    1    1    2    0    0  0.84200872510E+00 -0.36732399001E+02  0.14333750050E+04  0.14338807074E+04  0.10000000000E+02 0. -1.
</event>
<event>
 5    1  0.7732857E-009  0.3836243E+03  0.7957747E-01  0.3435528E+00
         13   -1    0    0    0    0  0.00000000000E+00  0.00000000000E+00  0.14999999963E+04  0.15000000000E+04  0.10566000000E+00 0. -1.
        994   -1    0    0    0    0 -0.00000000000E+00 -0.00000000000E+00  0.11368683772E-12  0.17120000000E+03  0.17120000000E+03 0.  0.
         13    1    1    2    0    0 -0.10472983675E+02  0.20031754192E+02  0.12702304175E+03  0.12901867641E+03  0.10566000000E+00 0. -1.
        994    1    1    2    0    0 -0.82847351781E+01  0.10517875438E+01  0.25450926766E+01  0.17142246233E+03  0.17120000000E+03 0.  0.
        998    1    1    2    0    0  0.18757718854E+02 -0.21083541736E+02  0.13704318618E+04  0.13707588613E+04  0.10000000000E+02 0. -1.
</event>
<event>
 5    1  0.8297023E-009  0.3853010E+03  0.7957747E-01  0.3428397E+00
         13   -1    0    0    0    0  0.00000000000E+00  0.00000000000E+00  0.14999999963E+04  0.15000000000E+04  0.10566000000E+00 0. -1.
        994   -1    0    0    0    0 -0.00000000000E+00 -0.00000000000E+00  0.11368683772E-12  0.17120000000E+03  0.17120000000E+03 0.  0.
         13    1    1    2    0    0 -0.14404678760E+02  0.10127764623E+02  0.10634946377E+03  0.10779743037E+03  0.10566000000E+00 0. -1.
        994    1    1    2    0    0  0.10056292207E+02 -0.26453779369E+01  0.18361198306E+01  0.17152532866E+03  0.17120000000E+03 0.  0.
        998    1    1    2    0    0  0.43483865536E+01 -0.74823866866E+01  0.13918144127E+04  0.13918772410E+04  0.10000000000E+02 0. -1.
</event>
<event>
 5    1  0.7732857E-009  0.3778303E+03  0.7957747E-01  0.3460661E+00
         13   -1    0    0    0    0  0.00000000000E+00  0.00000000000E+00  0.14999999963E+04  0.15000000000E+04  0.10566000000E+00 0. -1.
        994   -1    0    0    0    0 -0.00000000000E+00 -0.00000000000E+00  0.11368683772E-12  0.17120000000E+03  0.17120000000E+03 0.  0.
         13    1    1    2    0    0 -0.26078921891E+02 -0.18710540919E+02  0.93203197266E+02  0.98575055938E+02  0.10566000000E+00 0. -1.
        994    1    1    2    0    0  0.24590790507E+02  0.13018549746E+02  0.78435562309E+01  0.17362358996E+03  0.17120000000E+03 0.  0.
        998    1    1    2    0    0  0.14881313835E+01  0.56919911726E+01  0.13989532428E+04  0.13990013541E+04  0.10000000000E+02 0. -1.
</event>
<event>
 5    1  0.7732857E-009  0.3816247E+03  0.7957747E-01  0.3444114E+00
         13   -1    0    0    0    0  0.00000000000E+00  0.00000000000E+00  0.14999999963E+04  0.15000000000E+04  0.10566000000E+00 0. -1.
        994   -1    0    0    0    0 -0.00000000000E+00 -0.00000000000E+00  0.11368683772E-12  0.17120000000E+03  0.17120000000E+03 0.  0.
         13    1    1    2    0    0  0.19311650205E+01  0.30082281826E+02  0.15261635849E+03  0.15556489681E+03  0.10566000000E+00 0. -1.
        994    1    1    2    0    0 -0.84021111961E+01 -0.13782505012E+01  0.35563145951E+01  0.17144848328E+03  0.17120000000E+03 0.  0.
        998    1    1    2    0    0  0.64709461756E+01 -0.28704031325E+02  0.13438273232E+04  0.13441866199E+04  0.10000000000E+02 0. -1.
</event>
<event>
 5    1  0.7732857E-009  0.3815279E+03  0.7957747E-01  0.3444532E+00
         13   -1    0    0    0    0  0.00000000000E+00  0.00000000000E+00  0.14999999963E+04  0.15000000000E+04  0.10566000000E+00 0.  1.
        994   -1    0    0    0    0 -0.00000000000E+00 -0.00000000000E+00  0.11368683772E-12  0.17120000000E+03  0.17120000000E+03 0.  0.
         13    1    1    2    0    0  0.29332377060E+02 -0.13054843657E+01  0.11935142094E+03  0.12290998933E+03  0.10566000000E+00 0.  1.
        994    1    1    2    0    0 -0.27925702904E+02 -0.71630833294E+00  0.59637412825E+01  0.17356659872E+03  0.17120000000E+03 0.  0.
        998    1    1    2    0    0 -0.14066741560E+01  0.20217926987E+01  0.13746848341E+04  0.13747234120E+04  0.10000000000E+02 0.  1.
</event>
<event>
 5    1  0.7732857E-009  0.3822560E+03  0.7957747E-01  0.3441394E+00
         13   -1    0    0    0    0  0.00000000000E+00  0.00000000000E+00  0.14999999963E+04  0.15000000000E+04  0.10566000000E+00 0. -1.
        994   -1    0    0    0    0 -0.00000000000E+00 -0.00000000000E+00  0.11368683772E-12  0.17120000000E+03  0.17120000000E+03 0.  0.
         13    1    1    2    0    0  0.84960331254E+01 -0.18887196223E+02  0.72892594045E+02  0.75777636481E+02  0.10566000000E+00 0. -1.
        994    1    1    2    0    0 -0.37517490279E+01  0.57694755930E+01  0.31558027818E+01  0.17136732933E+03  0.17120000000E+03 0.  0.
        998    1    1    2    0    0 -0.47442840975E+01  0.13117720630E+02  0.14239515995E+04  0.14240550342E+04  0.10000000000E+02 0. -1.
</event>
<event>
 5    1  0.7732857E-009  0.3922850E+03  0.7957747E-01  0.3399351E+00
         13   -1    0    0    0    0  0.00000000000E+00  0.00000000000E+00  0.14999999963E+04  0.15000000000E+04  0.10566000000E+00 0. -1.
        994   -1    0    0    0    0 -0.00000000000E+00 -0.00000000000E+00  0.11368683772E-12  0.17120000000E+03  0.17120000000E+03 0.  0.
         13    1    1    2    0    0 -0.25910114183E+02 -0.16761337194E+02  0.78660122323E+01  0.31845906393E+02  0.10566000000E+00 0. -1.
        994    1    1    2    0    0  0.93725889104E+02  0.38611094187E+02  0.63409842921E+02  0.20881955622E+03  0.17120000000E+03 0.  0.
        998    1    1    2    0    0 -0.67815774921E+02 -0.21849756993E+02  0.14287241411E+04  0.14305345374E+04  0.10000000000E+02 0. -1.
</event>
<event>
 5    1  0.7732857E-009  0.3783247E+03  0.7957747E-01  0.3458486E+00
         13   -1    0    0    0    0  0.00000000000E+00  0.00000000000E+00  0.14999999963E+04  0.15000000000E+04  0.10566000000E+00 0.  1.
        994   -1    0    0    0    0 -0.00000000000E+00 -0.00000000000E+00  0.11368683772E-12  0.17120000000E+03  0.17120000000E+03 0.  0.
         13    1    1    2    0    0  0.97894204617E+01  0.12494187477E+02  0.24427856861E+02  0.29131921126E+02  0.10566000000E+00 0.  1.
        994    1    1    2    0    0  0.85195993108E+01  0.33782363179E+01  0.52636409521E+01  0.17152592215E+03  0.17120000000E+03 0.  0.
        998    1    1    2    0    0 -0.18309019773E+02 -0.15872423795E+02  0.14703084985E+04  0.14705421567E+04  0.10000000000E+02 0.  1.
</event>
<event>
 5    1  0.7732857E-009  0.3831534E+03  0.7957747E-01  0.3437542E+00
         13   -1    0    0    0    0  0.00000000000E+00  0.00000000000E+00  0.14999999963E+04  0.15000000000E+04  0.10566000000E+00 0. -1.
        994   -1    0    0    0    0 -0.00000000000E+00 -0.00000000000E+00  0.11368683772E-12  0.17120000000E+03  0.17120000000E+03 0.  0.
         13    1    1    2    0    0  0.10356141168E+02 -0.88973195160E+00  0.20242209680E+02  0.22755208187E+02  0.10566000000E+00 0. -1.
        994    1    1    2    0    0 -0.69554053939E+01  0.64214086969E+01  0.28462633411E+01  0.17148514037E+03  0.17120000000E+03 0.  0.
        998    1    1    2    0    0 -0.34007357745E+01 -0.55316767453E+01  0.14769115233E+04  0.14769596514E+04  0.10000000000E+02 0. -1.
</event>
<event>
 5    1  0.7732857E-009  0.3844260E+03  0.7957747E-01  0.3432110E+00
         13   -1    0    0    0    0  0.00000000000E+00  0.00000000000E+00  0.14999999963E+04  0.15000000000E+04  0.10566000000E+00 0. -1.
        994   -1    0    0    0    0 -0.00000000000E+00 -0.00000000000E+00  0.11368683772E-12  0.17120000000E+03  0.17120000000E+03 0.  0.
         13    1    1    2    0    0 -0.25122290276E+01  0.22344769308E+02  0.12853040512E+03  0.13048247474E+03  0.10566000000E+00 0. -1.
        994    1    1    2    0    0 -0.18778558802E+01 -0.17169946751E+02  0.28989371448E+01  0.17209351310E+03  0.17120000000E+03 0.  0.
        998    1    1    2    0    0  0.43900849078E+01 -0.51748225568E+01  0.13685706540E+04  0.13686240122E+04  0.10000000000E+02 0. -1.
</event>
<event>
 5    1  0.7732857E-009  0.3802689E+03  0.7957747E-01  0.3449988E+00
         13   -1    0    0    0    0  0.00000000000E+00  0.00000000000E+00  0.14999999963E+04  0.15000000000E+04  0.10566000000E+00 0. -1.
        994   -1    0    0    0    0 -0.00000000000E+00 -0.00000000000E+00  0.11368683772E-12  0.17120000000E+03  0.17120000000E+03 0.  0.
         13    1    1    2    0    0 -0.33431338968E+02 -0.69746169148E+01  0.15961009831E+03  0.16322283649E+03  0.10566000000E+00 0. -1.
        994    1    1    2    0    0  0.35679491501E+01  0.95444078680E+01  0.43443074498E+01  0.17155797559E+03  0.17120000000E+03 0.  0.
        998    1    1    2    0    0  0.29863389818E+02 -0.25697909532E+01  0.13360455905E+04  0.13364191879E+04  0.10000000000E+02 0. -1.
</event>
<event>
 5    1  0.7732857E-009  0.3814561E+03  0.7957747E-01  0.3444843E+00
         13   -1    0    0    0    0  0.00000000000E+00  0.00000000000E+00  0.14999999963E+04  0.15000000000E+04  0.10566000000E+00 0. -1.
        994   -1    0    0    0    0 -0.00000000000E+00 -0.00000000000E+00  0.11368683772E-12  0.17120000000E+03  0.17120000000E+03 0.  0.
         13    1    1    2    0    0  0.15352057166E+02  0.17473104573E+02  0.81633791496E+02  0.84882755143E+02  0.10566000000E+00 0. -1.
        994    1    1    2    0    0 -0.55235042841E+01 -0.40457871087E+01  0.35558985372E+01  0.17137374918E+03  0.17120000000E+03 0.  0.
        998    1    1    2    0    0 -0.98285528817E+01 -0.13427317464E+02  0.14148103062E+04  0.14149434957E+04  0.10000000000E+02 0. -1.
</event>
<event>
 5    1  0.7732857E-009  0.3778698E+03  0.7957747E-01  0.3460487E+00
         13   -1    0    0    0    0  0.00000000000E+00  0.00000000000E+00  0.14999999963E+04  0.15000000000E+04  0.10566000000E+00 0.  1.
        994   -1    0    0    0    0 -0.00000000000E+00 -0.00000000000E+00  0.11368683772E-12  0.17120000000E+03  0.17120000000E+03 0.  0.
         13    1    1    2    0    0 -0.16471410065E+02 -0.21664503129E+02  0.72492011529E+02  0.77432299107E+02  0.10566000000E+00 0.  1.
        994    1    1    2    0    0  0.93902761496E+01 -0.34964290202E+00  0.55096525470E+01  0.17154619147E+03  0.17120000000E+03 0.  0.
        998    1    1    2    0    0  0.70811339151E+01  0.22014146031E+02  0.14219983322E+04  0.14222215094E+04  0.10000000000E+02 0.  1.
</event>
<event>
 5    1  0.7732857E-009  0.3787964E+03  0.7957747E-01  0.3456416E+00
         13   -1    0    0    0    0  0.00000000000E+00  0.00000000000E+00  0.14999999963E+04  0.15000000000E+04  0.10566000000E+00 0.  1.
        994   -1    0    0    0    0 -0.00000000000E+00 -0.00000000000E+00  0.11368683772E-12  0.17120000000E+03  0.17120000000E+03 0.  0.
         13    1    1    2    0    0  0.12057852806E+02 -0.33643598590E+02  0.14655630024E+03  0.15085106511E+03  0.10566000000E+00 0.  1.
        994    1    1    2    0    0 -0.52926876987E+01  0.33175618583E+01  0.48729362582E+01  0.17138320883E+03  0.17120000000E+03 0.  0.
        998    1    1    2    0    0 -0.67651651077E+01  0.30326036732E+02  0.13485707598E+04  0.13489657261E+04  0.10000000000E+02 0.  1.
</event>
<event>
 5    1  0.7732857E-009  0.3804670E+03  0.7957747E-01  0.3449128E+00
         13   -1    0    0    0    0  0.00000000000E+00  0.00000000000E+00  0.14999999963E+04  0.15000000000E+04  0.10566000000E+00 0.  1.
        994   -1    0    0    0    0 -0.00000000000E+00 -0.00000000000E+00  0.11368683772E-12  0.17120000000E+03  0.17120000000E+03 0.  0.
         13    1    1    2    0    0 -0.72466575796E+02  0.17790304214E+02  0.38348864779E+03  0.39068075673E+03  0.10566000000E+00 0.  1.
        994    1    1    2    0    0  0.10311188272E+03 -0.16642803972E+02  0.41211992784E+02  0.20473620010E+03  0.17120000000E+03 0.  0.
        998    1    1    2    0    0 -0.30645306924E+02 -0.11475002412E+01  0.10752993557E+04  0.10757830432E+04  0.10000000000E+02 0.  1.
</event>
<event>
 5    1  0.7732857E-009  0.3825797E+03  0.7957747E-01  0.3440002E+00
         13   -1    0    0    0    0  0.00000000000E+00  0.00000000000E+00  0.14999999963E+04  0.15000000000E+04  0.10566000000E+00 0. -1.
        994   -1    0    0    0    0 -0.00000000000E+00 -0.00000000000E+00  0.11368683772E-12  0.17120000000E+03  0.17120000000E+03 0.  0.
         13    1    1    2    0    0 -0.95348950713E+01  0.62038714737E+02  0.98029563763E+02  0.11640241787E+03  0.10566000000E+00 0. -1.
        994    1    1    2    0    0  0.14897983285E+02 -0.62974492638E+02  0.33235780489E+02  0.18601557390E+03  0.17120000000E+03 0.  0.
        998    1    1    2    0    0 -0.53630882133E+01  0.93577790109E+00  0.13687346520E+04  0.13687820082E+04  0.10000000000E+02 0. -1.
</event>
<event>
 5    1  0.7732857E-009  0.3831270E+03  0.7957747E-01  0.3437655E+00
         13   -1    0    0    0    0  0.00000000000E+00  0.00000000000E+00  0.14999999963E+04  0.15000000000E+04  0.10566000000E+00 0.  1.
        994   -1    0    0    0    0 -0.00000000000E+00 -0.00000000000E+00  0.11368683772E-12  0.17120000000E+03  0.17120000000E+03 0.  0.
         13    1    1    2    0    0  0.14125786469E+02  0.39636423011E+01  0.39430368018E+02  0.42071527067E+02  0.10566000000E+00 0.  1.
        994    1    1    2    0    0 -0.17713889698E+02 -0.13156221427E+02  0.41754813891E+01  0.17266656508E+03  0.17120000000E+03 0.  0.
        998    1    1    2    0    0  0.35881032289E+01  0.91925791262E+01  0.14563941469E+04  0.14564619079E+04  0.10000000000E+02 0.  1.
</event>
<event>
 5    1  0.7732857E-009  0.3837825E+03  0.7957747E-01  0.3434852E+00
         13   -1    0    0    0    0  0.00000000000E+00  0.00000000000E+00  0.14999999963E+04  0.15000000000E+04  0.10566000000E+00 0.  1.
        994   -1    0    0    0    0 -0.00000000000E+00 -0.00000000000E+00  0.11368683772E-12  0.17120000000E+03  0.17120000000E+03 0.  0.
         13    1    1    2    0    0 -0.81815130243E+00  0.16617301977E+02  0.65125125854E+02  0.67216793125E+02  0.10566000000E+00 0.  1.
        994    1    1    2    0    0  0.67669139498E+01  0.12047389212E+00  0.23870514258E+01  0.17135035352E+03  0.17120000000E+03 0.  0.
        998    1    1    2    0    0 -0.59487626473E+01 -0.16737775870E+02  0.14324878190E+04  0.14326328534E+04  0.10000000000E+02 0.  1.
</event>
<event>
 5    1  0.7732857E-009  0.3715446E+03  0.7957747E-01  0.3488822E+00
         13   -1    0    0    0    0  0.00000000000E+00  0.00000000000E+00  0.14999999963E+04  0.15000000000E+04  0.10566000000E+00 0.  1.
        994   -1    0    0    0    0 -0.00000000000E+00 -0.00000000000E+00  0.11368683772E-12  0.17120000000E+03  0.17120000000E+03 0.  0.
         13    1    1    2    0    0 -0.68691660477E-01  0.11176976259E+02  0.34383691476E+01  0.11694574095E+02  0.10566000000E+00 0.  1.
        994    1    1    2    0    0 -0.14352685097E+01 -0.10027726902E+02  0.88169389558E+01  0.17172592616E+03  0.17120000000E+03 0.  0.
        998    1    1    2    0    0  0.15039601702E+01 -0.11492493573E+01  0.14877446882E+04  0.14877794997E+04  0.10000000000E+02 0.  1.
</event>
<event>
 5    1  0.7732857E-009  0.3766367E+03  0.7957747E-01  0.3465935E+00
         13   -1    0    0    0    0  0.00000000000E+00  0.00000000000E+00  0.14999999963E+04  0.15000000000E+04  0.10566000000E+00 0.  1.
        994   -1    0    0    0    0 -0.00000000000E+00 -0.00000000000E+00  0.11368683772E-12  0.17120000000E+03  0.17120000000E+03 0.  0.
         13    1    1    2    0    0  0.26276277274E+02  0.94534689092E+02  0.49782800517E+03  0.50740514787E+03  0.10566000000E+00 0.  1.
        994    1    1    2    0    0 -0.67738674285E+02 -0.93960817772E+02  0.52635133301E+02  0.21330039974E+03  0.17120000000E+03 0.  0.
        998    1    1    2    0    0  0.41462397012E+02 -0.57387131934E+00  0.94953685781E+03  0.95049445240E+03  0.10000000000E+02 0.  1.
</event>
<event>
 5    1  0.7732857E-009  0.3828110E+03  0.7957747E-01  0.3439009E+00
         13   -1    0    0    0    0  0.00000000000E+00  0.00000000000E+00  0.14999999963E+04  0.15000000000E+04  0.10566000000E+00 0. -1.
        994   -1    0    0    0    0 -0.00000000000E+00 -0.00000000000E+00  0.11368683772E-12  0.17120000000E+03  0.17120000000E+03 0.  0.
         13    1    1    2    0    0 -0.11085392247E+03 -0.71872429330E+01  0.53277514992E+03  0.54423305681E+03  0.10566000000E+00 0. -1.
        994    1    1    2    0    0  0.17476147421E+03  0.23344834405E+02  0.11359857776E+03  0.27074089279E+03  0.17120000000E+03 0.  0.
        998    1    1    2    0    0 -0.63907551738E+02 -0.16157591472E+02  0.85362626861E+03  0.85622605040E+03  0.10000000000E+02 0. -1.
</event>
<event>
 5    1  0.7732857E-009  0.3195464E+03  0.7957747E-01  0.3765656E+00
         13   -1    0    0    0    0  0.00000000000E+00  0.00000000000E+00  0.14999999963E+04  0.15000000000E+04  0.10566000000E+00 0. -1.
        994   -1    0    0    0    0 -0.00000000000E+00 -0.00000000000E+00  0.11368683772E-12  0.17120000000E+03  0.17120000000E+03 0.  0.
         13    1    1    2    0    0  0.15747448580E+03 -0.20170254670E+03  0.51251015556E+03  0.57284273735E+03  0.10566000000E+00 0. -1.
        994    1    1    2    0    0 -0.17050552731E+03  0.21591832839E+03  0.42010534142E+03  0.53055706316E+03  0.17120000000E+03 0.  0.
        998    1    1    2    0    0  0.13031041507E+02 -0.14215781689E+02  0.56738449930E+03  0.56780019949E+03  0.10000000000E+02 0. -1.
</event>
<event>
 5    1  0.7732857E-009  0.3825291E+03  0.7957747E-01  0.3440220E+00
         13   -1    0    0    0    0  0.00000000000E+00  0.00000000000E+00  0.14999999963E+04  0.15000000000E+04  0.10566000000E+00 0. -1.
        994   -1    0    0    0    0 -0.00000000000E+00 -0.00000000000E+00  0.11368683772E-12  0.17120000000E+03  0.17120000000E+03 0.  0.
         13    1    1    2    0    0  0.81477982196E+02 -0.69348757764E+02  0.42220889579E+03  0.43555513386E+03  0.10566000000E+00 0. -1.
        994    1    1    2    0    0 -0.11595386121E+02  0.17339008760E+02  0.19316333492E+02  0.17354438897E+03  0.17120000000E+03 0.  0.
        998    1    1    2    0    0 -0.69882596074E+02  0.52009749004E+02  0.10584747670E+04  0.10621004772E+04  0.10000000000E+02 0. -1.
</event>
<event>
 5    1  0.7732857E-009  0.3825392E+03  0.7957747E-01  0.3440176E+00
         13   -1    0    0    0    0  0.00000000000E+00  0.00000000000E+00  0.14999999963E+04  0.15000000000E+04  0.10566000000E+00 0. -1.
        994   -1    0    0    0    0 -0.00000000000E+00 -0.00000000000E+00  0.11368683772E-12  0.17120000000E+03  0.17120000000E+03 0.  0.
         13    1    1    2    0    0  0.59773849759E+01  0.14950995473E+02  0.42871125371E+02  0.45795261233E+02  0.10566000000E+00 0. -1.
        994    1    1    2    0    0 -0.97593655078E+01 -0.17129672428E+02  0.41463720621E+01  0.17238127304E+03  0.17120000000E+03 0.  0.
        998    1    1    2    0    0  0.37819805319E+01  0.21786769544E+01  0.14529824988E+04  0.14530234657E+04  0.10000000000E+02 0. -1.
</event>
<event>
 5    1  0.7732857E-009  0.3774953E+03  0.7957747E-01  0.3462138E+00
         13   -1    0    0    0    0  0.00000000000E+00  0.00000000000E+00  0.14999999963E+04  0.15000000000E+04  0.10566000000E+00 0.  1.
        994   -1    0    0    0    0 -0.00000000000E+00 -0.00000000000E+00  0.11368683772E-12  0.17120000000E+03  0.17120000000E+03 0.  0.
         13    1    1    2    0    0 -0.33268722852E+02  0.23431415021E+02  0.14671213464E+03  0.15225078241E+03  0.10566000000E+00 0.  1.
        994    1    1    2    0    0  0.27267902907E+02 -0.12776949362E+02  0.84655925677E+01  0.17403417831E+03  0.17120000000E+03 0.  0.
        998    1    1    2    0    0  0.60008199448E+01 -0.10654465659E+02  0.13448222691E+04  0.13449150393E+04  0.10000000000E+02 0.  1.
</event>
<event>
 5    1  0.7732857E-009  0.3810588E+03  0.7957747E-01  0.3446561E+00
         13   -1    0    0    0    0  0.00000000000E+00  0.00000000000E+00  0.14999999963E+04  0.15000000000E+04  0.10566000000E+00 0. -1.
        994   -1    0    0    0    0 -0.00000000000E+00 -0.00000000000E+00  0.11368683772E-12  0.17120000000E+03  0.17120000000E+03 0.  0.
         13    1    1    2    0    0 -0.30287007201E+02 -0.95492104187E+01  0.12382122679E+03  0.12782878234E+03  0.10566000000E+00 0. -1.
        994    1    1    2    0    0  0.38468605375E+02  0.48729904371E+01  0.86247106716E+01  0.17574813020E+03  0.17120000000E+03 0.  0.
        998    1    1    2    0    0 -0.81815981742E+01  0.46762199816E+01  0.13675540588E+04  0.13676230875E+04  0.10000000000E+02 0. -1.
</event>
<event>
 5    1  0.7732857E-009  0.3698375E+03  0.7957747E-01  0.3496638E+00
         13   -1    0    0    0    0  0.00000000000E+00  0.00000000000E+00  0.14999999963E+04  0.15000000000E+04  0.10566000000E+00 0. -1.
        994   -1    0    0    0    0 -0.00000000000E+00 -0.00000000000E+00  0.11368683772E-12  0.17120000000E+03  0.17120000000E+03 0.  0.
         13    1    1    2    0    0 -0.77943553194E+00 -0.18373455583E+02  0.10835077323E+02  0.21344822662E+02  0.10566000000E+00 0. -1.
        994    1    1    2    0    0  0.49801278424E+01  0.11501136611E+02  0.11401922029E+02  0.17203639627E+03  0.17120000000E+03 0.  0.
        998    1    1    2    0    0 -0.42006923105E+01  0.68723189720E+01  0.14777629969E+04  0.14778187811E+04  0.10000000000E+02 0. -1.
</event>
<event>
 5    1  0.7732857E-009  0.3793871E+03  0.7957747E-01  0.3453832E+00
         13   -1    0    0    0    0  0.00000000000E+00  0.00000000000E+00  0.14999999963E+04  0.15000000000E+04  0.10566000000E+00 0. -1.
        994   -1    0    0    0    0 -0.00000000000E+00 -0.00000000000E+00  0.11368683772E-12  0.17120000000E+03  0.17120000000E+03 0.  0.
         13    1    1    2    0    0  0.16458841511E+02  0.15358456773E+01  0.27984558487E+02  0.32502291666E+02  0.10566000000E+00 0. -1.
        994    1    1    2    0    0 -0.23049199813E+02  0.27788080893E+00  0.62247422046E+01  0.17285696470E+03  0.17120000000E+03 0.  0.
        998    1    1    2    0    0  0.65903583017E+01 -0.18137264862E+01  0.14657906956E+04  0.14658407436E+04  0.10000000000E+02 0. -1.
</event>
<event>
 5    1  0.7732857E-009  0.3821360E+03  0.7957747E-01  0.3441910E+00
         13   -1    0    0    0    0  0.00000000000E+00  0.00000000000E+00  0.14999999963E+04  0.15000000000E+04  0.10566000000E+00 0. -1.
        994   -1    0    0    0    0 -0.00000000000E+00 -0.00000000000E+00  0.11368683772E-12  0.17120000000E+03  0.17120000000E+03 0.  0.
         13    1    1    2    0    0 -0.35435032196E+02  0.14766770754E+02  0.22853311783E+03  0.23173496960E+03  0.10566000000E+00 0. -1.
        994    1    1    2    0    0  0.24627675668E+02 -0.12332489333E+02  0.55810286885E+01  0.17349121183E+03  0.17120000000E+03 0.  0.
        998    1    1    2    0    0  0.10807356528E+02 -0.24342814210E+01  0.12658858498E+04  0.12659738186E+04  0.10000000000E+02 0. -1.
</event>
<event>
 5    1  0.7732857E-009  0.3812004E+03  0.7957747E-01  0.3445948E+00
         13   -1    0    0    0    0  0.00000000000E+00  0.00000000000E+00  0.14999999963E+04  0.15000000000E+04  0.10566000000E+00 0. -1.
        994   -1    0    0    0    0 -0.00000000000E+00 -0.00000000000E+00  0.11368683772E-12  0.17120000000E+03  0.17120000000E+03 0.  0.
         13    1    1    2    0    0 -0.79879062114E+01  0.14938268763E+02  0.38498052109E+02  0.42060310264E+02  0.10566000000E+00 0. -1.
        994    1    1    2    0    0  0.13952019962E+02 -0.12397613241E+02  0.46892289642E+01  0.17227823003E+03  0.17120000000E+03 0.  0.
        998    1    1    2    0    0 -0.59641137502E+01 -0.25406555223E+01  0.14568127152E+04  0.14568614597E+04  0.10000000000E+02 0. -1.
</event>
<event>
 5    1  0.7732857E-009  0.3757745E+03  0.7957747E-01  0.3469766E+00
         13   -1    0    0    0    0  0.00000000000E+00  0.00000000000E+00  0.14999999963E+04  0.15000000000E+04  0.10566000000E+00 0. -1.
        994   -1    0    0    0    0 -0.00000000000E+00 -0.00000000000E+00  0.11368683772E-12  0.17120000000E+03  0.17120000000E+03 0.  0.
         13    1    1    2    0    0 -0.16892713889E+02 -0.18618122508E+02  0.17342472542E+02  0.30541296406E+02  0.10566000000E+00 0. -1.
        994    1    1    2    0    0  0.26163455371E+02 -0.26753939272E+02  0.19038502935E+02  0.17627309567E+03  0.17120000000E+03 0.  0.
        998    1    1    2    0    0 -0.92707414811E+01  0.45372061780E+02  0.14636190208E+04  0.14643856079E+04  0.10000000000E+02 0. -1.
</event>
<event>
 5    1  0.7732857E-009  0.3814661E+03  0.7957747E-01  0.3444800E+00
         13   -1    0    0    0    0  0.00000000000E+00  0.00000000000E+00  0.14999999963E+04  0.15000000000E+04  0.10566000000E+00 0.  1.
        994   -1    0    0    0    0 -0.00000000000E+00 -0.00000000000E+00  0.11368683772E-12  0.17120000000E+03  0.17120000000E+03 0.  0.
         13    1    1    2    0    0 -0.10811157993E+02 -0.21589454460E+02  0.82530315838E+02  0.85989824266E+02  0.10566000000E+00 0.  1.
        994    1    1    2    0    0  0.11604495189E+02  0.16785819834E+02  0.47814909081E+01  0.17247820358E+03  0.17120000000E+03 0.  0.
        998    1    1    2    0    0 -0.79333719602E+00  0.48036346261E+01  0.14126881895E+04  0.14127319722E+04  0.10000000000E+02 0.  1.
</event>
<event>
 5    1  0.7732857E-009  0.3733662E+03  0.7957747E-01  0.3480562E+00
         13   -1    0    0    0    0  0.00000000000E+00  0.00000000000E+00  0.14999999963E+04  0.15000000000E+04  0.10566000000E+00 0.  1.
        994   -1    0    0    0    0 -0.00000000000E+00 -0.00000000000E+00  0.11368683772E-12  0.17120000000E+03  0.17120000000E+03 0.  0.
         13    1    1    2    0    0 -0.57398437874E+01  0.63467382836E+02  0.20326942470E+03  0.21302470437E+03  0.10566000000E+00 0.  1.
        994    1    1    2    0    0  0.26236820704E+02 -0.84274476505E+02  0.34635703513E+02  0.19570291288E+03  0.17120000000E+03 0.  0.
        998    1    1    2    0    0 -0.20496976917E+02  0.20807093669E+02  0.12620948681E+04  0.12624723828E+04  0.10000000000E+02 0.  1.
</event>
<event>
 5    1  0.7732857E-009  0.3790628E+03  0.7957747E-01  0.3455249E+00
         13   -1    0    0    0    0  0.00000000000E+00  0.00000000000E+00  0.14999999963E+04  0.15000000000E+04  0.10566000000E+00 0.  1.
        994   -1    0    0    0    0 -0.00000000000E+00 -0.00000000000E+00  0.11368683772E-12  0.17120000000E+03  0.17120000000E+03 0.  0.
         13    1    1    2    0    0 -0.34556528250E+01  0.35255270169E+02  0.13523269976E+03  0.13979545723E+03  0.10566000000E+00 0.  1.
        994    1    1    2    0    0  0.12135416712E+02 -0.19189707032E+02  0.63375523787E+01  0.17281527064E+03  0.17120000000E+03 0.  0.
        998    1    1    2    0    0 -0.86797638872E+01 -0.16065563137E+02  0.13584297441E+04  0.13585892721E+04  0.10000000000E+02 0.  1.
</event>
<event>
 5    1  0.7732857E-009  0.3699566E+03  0.7957747E-01  0.3496090E+00
         13   -1    0    0    0    0  0.00000000000E+00  0.00000000000E+00  0.14999999963E+04  0.15000000000E+04  0.10566000000E+00 0. -1.
        994   -1    0    0    0    0 -0.00000000000E+00 -0.00000000000E+00  0.11368683772E-12  0.17120000000E+03  0.17120000000E+03 0.  0.
         13    1    1    2    0    0 -0.77400383389E+02  0.56861564461E+01  0.32749714816E+03  0.33656729630E+03  0.10566000000E+00 0. -1.
        994    1    1    2    0    0  0.40724268424E+02 -0.32115746453E+02  0.18652031000E+02  0.17985334434E+03  0.17120000000E+03 0.  0.
        998    1    1    2    0    0  0.36676114965E+02  0.26429590007E+02  0.11538508171E+04  0.11547793594E+04  0.10000000000E+02 0. -1.
</event>
<event>
 5    1  0.7732857E-009  0.3837526E+03  0.7957747E-01  0.3434980E+00
         13   -1    0    0    0    0  0.00000000000E+00  0.00000000000E+00  0.14999999963E+04  0.15000000000E+04  0.10566000000E+00 0.  1.
        994   -1    0    0    0    0 -0.00000000000E+00 -0.00000000000E+00  0.11368683772E-12  0.17120000000E+03  0.17120000000E+03 0.  0.
         13    1    1    2    0    0  0.94273379881E+01  0.11452604243E+02  0.49215146074E+02  0.51402126538E+02  0.10566000000E+00 0.  1.
        994    1    1    2    0    0  0.67537944014E+00 -0.84012105040E+01  0.24853063089E+01  0.17142535758E+03  0.17120000000E+03 0.  0.
        998    1    1    2    0    0 -0.10102717428E+02 -0.30513937387E+01  0.14482995439E+04  0.14483725159E+04  0.10000000000E+02 0.  1.
</event>
<event>
 5    1  0.8656144E-009  0.3852120E+03  0.7957747E-01  0.3428774E+00
         13   -1    0    0    0    0  0.00000000000E+00  0.00000000000E+00  0.14999999963E+04  0.15000000000E+04  0.10566000000E+00 0. -1.
        994   -1    0    0    0    0 -0.00000000000E+00 -0.00000000000E+00  0.11368683772E-12  0.17120000000E+03  0.17120000000E+03 0.  0.
         13    1    1    2    0    0 -0.99350610085E+01 -0.47286131606E+01  0.37484524598E+02  0.39066174218E+02  0.10566000000E+00 0. -1.
        994    1    1    2    0    0  0.17383820689E+02  0.70682344185E+01  0.26830978605E+01  0.17224632412E+03  0.17120000000E+03 0.  0.
        998    1    1    2    0    0 -0.74487596803E+01 -0.23396212579E+01  0.14598323738E+04  0.14598875017E+04  0.10000000000E+02 0. -1.
</event>
<event>
 5    1  0.7732857E-009  0.3839921E+03  0.7957747E-01  0.3433958E+00
         13   -1    0    0    0    0  0.00000000000E+00  0.00000000000E+00  0.14999999963E+04  0.15000000000E+04  0.10566000000E+00 0. -1.
        994   -1    0    0    0    0 -0.00000000000E+00 -0.00000000000E+00  0.11368683772E-12  0.17120000000E+03  0.17120000000E+03 0.  0.
         13    1    1    2    0    0  0.17756557480E+02  0.15295052340E+02  0.12630113099E+03  0.12845707771E+03  0.10566000000E+00 0. -1.
        994    1    1    2    0    0 -0.16698828355E+02 -0.59762889404E+01  0.31699615025E+01  0.17214544883E+03  0.17120000000E+03 0.  0.
        998    1    1    2    0    0 -0.10577291256E+01 -0.93187633993E+01  0.13705289038E+04  0.13705974735E+04  0.10000000000E+02 0. -1.
</event>
<event>
 5    1  0.7732857E-009  0.3855341E+03  0.7957747E-01  0.3427410E+00
         13   -1    0    0    0    0  0.00000000000E+00  0.00000000000E+00  0.14999999963E+04  0.15000000000E+04  0.10566000000E+00 0. -1.
        994   -1    0    0    0    0 -0.00000000000E+00 -0.00000000000E+00  0.11368683772E-12  0.17120000000E+03  0.17120000000E+03 0.  0.
         13    1    1    2    0    0 -0.10862744843E+02 -0.11872367760E+02  0.94626975932E+02  0.95985561830E+02  0.10566000000E+00 0. -1.
        994    1    1    2    0    0  0.81393128679E+01  0.78324399749E+01  0.17841830971E+01  0.17158152243E+03  0.17120000000E+03 0.  0.
        998    1    1    2    0    0  0.27234319749E+01  0.40399277855E+01  0.14035888372E+04  0.14036329157E+04  0.10000000000E+02 0. -1.
</event>
<event>
 5    1  0.7732857E-009  0.3836768E+03  0.7957747E-01  0.3435304E+00
         13   -1    0    0    0    0  0.00000000000E+00  0.00000000000E+00  0.14999999963E+04  0.15000000000E+04  0.10566000000E+00 0. -1.
        994   -1    0    0    0    0 -0.00000000000E+00 -0.00000000000E+00  0.11368683772E-12  0.17120000000E+03  0.17120000000E+03 0.  0.
         13    1    1    2    0    0  0.13874574740E+02 -0.18639798068E+02  0.12183093288E+03  0.12402714730E+03  0.10566000000E+00 0. -1.
        994    1    1    2    0    0 -0.12378608283E+02  0.25648139868E+01  0.28165124679E+01  0.17168919872E+03  0.17120000000E+03 0.  0.
        998    1    1    2    0    0 -0.14959664572E+01  0.16074984081E+02  0.13753525509E+04  0.13754836540E+04  0.10000000000E+02 0. -1.
</event>
<event>
 5    1  0.7732857E-009  0.3715327E+03  0.7957747E-01  0.3488876E+00
         13   -1    0    0    0    0  0.00000000000E+00  0.00000000000E+00  0.14999999963E+04  0.15000000000E+04  0.10566000000E+00 0. -1.
        994   -1    0    0    0    0 -0.00000000000E+00 -0.00000000000E+00  0.11368683772E-12  0.17120000000E+03  0.17120000000E+03 0.  0.
         13    1    1    2    0    0  0.12830113598E+02 -0.19759062131E+02  0.28964794834E+02  0.37336347639E+02  0.10566000000E+00 0. -1.
        994    1    1    2    0    0 -0.12376438709E+02  0.16406846062E+02  0.99241597612E+01  0.17271447473E+03  0.17120000000E+03 0.  0.
        998    1    1    2    0    0 -0.45367488840E+00  0.33522160696E+01  0.14611110417E+04  0.14611491776E+04  0.10000000000E+02 0. -1.
</event>
<event>
 5    1  0.7732857E-009  0.3822331E+03  0.7957747E-01  0.3441492E+00
         13   -1    0    0    0    0  0.00000000000E+00  0.00000000000E+00  0.14999999963E+04  0.15000000000E+04  0.10566000000E+00 0. -1.
        994   -1    0    0    0    0 -0.00000000000E+00 -0.00000000000E+00  0.11368683772E-12  0.17120000000E+03  0.17120000000E+03 0.  0.
         13    1    1    2    0    0 -0.89337742013E+01  0.18117824930E+02  0.66632806164E+02  0.69627652000E+02  0.10566000000E+00 0. -1.
        994    1    1    2    0    0  0.20972618654E+02 -0.49162999466E+01  0.45514305856E+01  0.17260989618E+03  0.17120000000E+03 0.  0.
        998    1    1    2    0    0 -0.12038844453E+02 -0.13201524984E+02  0.14288157595E+04  0.14289624518E+04  0.10000000000E+02 0. -1.
</event>
<event>
 5    1  0.7732857E-009  0.3809346E+03  0.7957747E-01  0.3447099E+00
         13   -1    0    0    0    0  0.00000000000E+00  0.00000000000E+00  0.14999999963E+04  0.15000000000E+04  0.10566000000E+00 0. -1.
        994   -1    0    0    0    0 -0.00000000000E+00 -0.00000000000E+00  0.11368683772E-12  0.17120000000E+03  0.17120000000E+03 0.  0.
         13    1    1    2    0    0  0.38670693045E+02 -0.34991861517E+01  0.38856848448E+02  0.54932072960E+02  0.10566000000E+00 0. -1.
        994    1    1    2    0    0 -0.23551487165E+02 -0.14066635143E+02  0.19582457876E+02  0.17448626143E+03  0.17120000000E+03 0.  0.
        998    1    1    2    0    0 -0.15119205880E+02  0.17565821295E+02  0.14415606900E+04  0.14417816656E+04  0.10000000000E+02 0. -1.
</event>
<event>
 5    1  0.7732857E-009  0.3708660E+03  0.7957747E-01  0.3491920E+00
         13   -1    0    0    0    0  0.00000000000E+00  0.00000000000E+00  0.14999999963E+04  0.15000000000E+04  0.10566000000E+00 0. -1.
        994   -1    0    0    0    0 -0.00000000000E+00 -0.00000000000E+00  0.11368683772E-12  0.17120000000E+03  0.17120000000E+03 0.  0.
         13    1    1    2    0    0 -0.53027584410E+02  0.69712532787E+02  0.29906994714E+03  0.31163216519E+03  0.10566000000E+00 0. -1.
        994    1    1    2    0    0  0.68325334849E+02 -0.82947174666E+02  0.49749155253E+02  0.20816580799E+03  0.17120000000E+03 0.  0.
        998    1    1    2    0    0 -0.15297750439E+02  0.13234641879E+02  0.11511808939E+04  0.11514020268E+04  0.10000000000E+02 0. -1.
</event>
<event>
 5    1  0.7732857E-009  0.3829085E+03  0.7957747E-01  0.3438591E+00
         13   -1    0    0    0    0  0.00000000000E+00  0.00000000000E+00  0.14999999963E+04  0.15000000000E+04  0.10566000000E+00 0.  1.
        994   -1    0    0    0    0 -0.00000000000E+00 -0.00000000000E+00  0.11368683772E-12  0.17120000000E+03  0.17120000000E+03 0.  0.
         13    1    1    2    0    0 -0.47009532405E+01  0.11892651823E+02  0.29606036517E+02  0.32250002961E+02  0.10566000000E+00 0.  1.
        994    1    1    2    0    0  0.35429625869E+01 -0.87932965417E+01  0.29697655672E+01  0.17148800003E+03  0.17120000000E+03 0.  0.
        998    1    1    2    0    0  0.11579906536E+01 -0.30993552816E+01  0.14674241942E+04  0.14674619970E+04  0.10000000000E+02 0.  1.
</event>
<event>
 5    1  0.7732857E-009  0.3694687E+03  0.7957747E-01  0.3498336E+00
         13   -1    0    0    0    0  0.00000000000E+00  0.00000000000E+00  0.14999999963E+04  0.15000000000E+04  0.10566000000E+00 0. -1.
        994   -1    0    0    0    0 -0.00000000000E+00 -0.00000000000E+00  0.11368683772E-12  0.17120000000E+03  0.17120000000E+03 0.  0.
         13    1    1    2    0    0  0.14853677115E+02 -0.20851512225E+01  0.70739698128E+01  0.16584082501E+02  0.10566000000E+00 0. -1.
        994    1    1    2    0    0 -0.32691703715E+02 -0.64826193688E+01  0.13404483264E+02  0.17492824820E+03  0.17120000000E+03 0.  0.
        998    1    1    2    0    0  0.17838026600E+02  0.85677705913E+01  0.14795215432E+04  0.14796876693E+04  0.10000000000E+02 0. -1.
</event>
<event>
 5    1  0.7732857E-009  0.3818365E+03  0.7957747E-01  0.3443201E+00
         13   -1    0    0    0    0  0.00000000000E+00  0.00000000000E+00  0.14999999963E+04  0.15000000000E+04  0.10566000000E+00 0. -1.
        994   -1    0    0    0    0 -0.00000000000E+00 -0.00000000000E+00  0.11368683772E-12  0.17120000000E+03  0.17120000000E+03 0.  0.
         13    1    1    2    0    0 -0.41474092727E+02  0.40190011680E+02  0.32418652457E+03  0.32929052717E+03  0.10566000000E+00 0. -1.
        994    1    1    2    0    0  0.60587337050E+02 -0.51516952639E+02  0.24517701843E+02  0.19035592852E+03  0.17120000000E+03 0.  0.
        998    1    1    2    0    0 -0.19113244322E+02  0.11326940959E+02  0.11512957699E+04  0.11515535443E+04  0.10000000000E+02 0. -1.
</event>
<event>
 5    1  0.7732857E-009  0.3769503E+03  0.7957747E-01  0.3464546E+00
         13   -1    0    0    0    0  0.00000000000E+00  0.00000000000E+00  0.14999999963E+04  0.15000000000E+04  0.10566000000E+00 0.  1.
        994   -1    0    0    0    0 -0.00000000000E+00 -0.00000000000E+00  0.11368683772E-12  0.17120000000E+03  0.17120000000E+03 0.  0.
         13    1    1    2    0    0 -0.21915136794E+02  0.72553324238E+01  0.43864917789E+02  0.49568692195E+02  0.10566000000E+00 0. -1.
        994    1    1    2    0    0  0.20259373033E+02 -0.57613636126E+01  0.71801700367E+01  0.17264017594E+03  0.17120000000E+03 0.  0.
        998    1    1    2    0    0  0.16557637616E+01 -0.14939688112E+01  0.14489549085E+04  0.14489911319E+04  0.10000000000E+02 0.  1.
</event>
<event>
 5    1  0.7732857E-009  0.3744455E+03  0.7957747E-01  0.3475707E+00
         13   -1    0    0    0    0  0.00000000000E+00  0.00000000000E+00  0.14999999963E+04  0.15000000000E+04  0.10566000000E+00 0.  1.
        994   -1    0    0    0    0 -0.00000000000E+00 -0.00000000000E+00  0.11368683772E-12  0.17120000000E+03  0.17120000000E+03 0.  0.
         13    1    1    2    0    0 -0.46933468625E+02 -0.29746751093E+02  0.27184195852E+03  0.27746293673E+03  0.10566000000E+00 0.  1.
        994    1    1    2    0    0 -0.21490822648E+02  0.44576747356E+02  0.15349981056E+02  0.17886867747E+03  0.17120000000E+03 0.  0.
        998    1    1    2    0    0  0.68424291273E+02 -0.14829996264E+02  0.12128080567E+04  0.12148683858E+04  0.10000000000E+02 0.  1.
</event>
<event>
 5    1  0.7732857E-009  0.3843161E+03  0.7957747E-01  0.3432578E+00
         13   -1    0    0    0    0  0.00000000000E+00  0.00000000000E+00  0.14999999963E+04  0.15000000000E+04  0.10566000000E+00 0. -1.
        994   -1    0    0    0    0 -0.00000000000E+00 -0.00000000000E+00  0.11368683772E-12  0.17120000000E+03  0.17120000000E+03 0.  0.
         13    1    1    2    0    0 -0.48827467942E+01  0.15290278321E+02  0.64097283089E+02  0.66076521479E+02  0.10566000000E+00 0. -1.
        994    1    1    2    0    0 -0.65227487359E+01 -0.16009650198E+02  0.29556912637E+01  0.17209599432E+03  0.17120000000E+03 0.  0.
        998    1    1    2    0    0  0.11405495530E+02  0.71937187721E+00  0.14329470219E+04  0.14330274842E+04  0.10000000000E+02 0. -1.
</event>
<event>
 5    1  0.7732857E-009  0.3831431E+03  0.7957747E-01  0.3437586E+00
         13   -1    0    0    0    0  0.00000000000E+00  0.00000000000E+00  0.14999999963E+04  0.15000000000E+04  0.10566000000E+00 0. -1.
        994   -1    0    0    0    0 -0.00000000000E+00 -0.00000000000E+00  0.11368683772E-12  0.17120000000E+03  0.17120000000E+03 0.  0.
         13    1    1    2    0    0 -0.94186823008E+01 -0.17549861547E+02  0.75144070144E+02  0.77738997025E+02  0.10566000000E+00 0. -1.
        994    1    1    2    0    0  0.13786413085E+02  0.11877658091E+02  0.36512575717E+01  0.17220312317E+03  0.17120000000E+03 0.  0.
        998    1    1    2    0    0 -0.43677307839E+01  0.56722034564E+01  0.14212046686E+04  0.14212578798E+04  0.10000000000E+02 0. -1.
</event>
<event>
 5    1  0.7732857E-009  0.3812637E+03  0.7957747E-01  0.3445675E+00
         13   -1    0    0    0    0  0.00000000000E+00  0.00000000000E+00  0.14999999963E+04  0.15000000000E+04  0.10566000000E+00 0.  1.
        994   -1    0    0    0    0 -0.00000000000E+00 -0.00000000000E+00  0.11368683772E-12  0.17120000000E+03  0.17120000000E+03 0.  0.
         13    1    1    2    0    0 -0.29482092176E+02 -0.39564765891E+00  0.11574073790E+03  0.11943734705E+03  0.10566000000E+00 0.  1.
        994    1    1    2    0    0  0.28198757858E+02  0.65429302975E+01  0.62912635971E+01  0.17374406430E+03  0.17120000000E+03 0.  0.
        998    1    1    2    0    0  0.12833343183E+01 -0.61472826385E+01  0.13779679948E+04  0.13780185886E+04  0.10000000000E+02 0.  1.
</event>
<event>
 5    1  0.7732857E-009  0.3799084E+03  0.7957747E-01  0.3451557E+00
         13   -1    0    0    0    0  0.00000000000E+00  0.00000000000E+00  0.14999999963E+04  0.15000000000E+04  0.10566000000E+00 0.  1.
        994   -1    0    0    0    0 -0.00000000000E+00 -0.00000000000E+00  0.11368683772E-12  0.17120000000E+03  0.17120000000E+03 0.  0.
         13    1    1    2    0    0 -0.40565372828E+02  0.80053577900E+01  0.21620086524E+03  0.22011919617E+03  0.10566000000E+00 0.  1.
        994    1    1    2    0    0  0.10470133180E+02 -0.86541560604E+02  0.30023634515E+02  0.19444774113E+03  0.17120000000E+03 0.  0.
        998    1    1    2    0    0  0.30095239648E+02  0.78536202814E+02  0.12537754965E+04  0.12566330627E+04  0.10000000000E+02 0.  1.
</event>
<event>
 5    1  0.7732857E-009  0.3828063E+03  0.7957747E-01  0.3439029E+00
         13   -1    0    0    0    0  0.00000000000E+00  0.00000000000E+00  0.14999999963E+04  0.15000000000E+04  0.10566000000E+00 0.  1.
        994   -1    0    0    0    0 -0.00000000000E+00 -0.00000000000E+00  0.11368683772E-12  0.17120000000E+03  0.17120000000E+03 0.  0.
         13    1    1    2    0    0 -0.15705265569E+02 -0.26343782157E+02  0.16470715937E+03  0.16753838287E+03  0.10566000000E+00 0.  1.
        994    1    1    2    0    0  0.75176277103E+01  0.22875874730E+02  0.46460262104E+01  0.17294752363E+03  0.17120000000E+03 0.  0.
        998    1    1    2    0    0  0.81876378586E+01  0.34679074268E+01  0.13306468107E+04  0.13307140935E+04  0.10000000000E+02 0.  1.
</event>
<event>
 5    1  0.7732857E-009  0.3813918E+03  0.7957747E-01  0.3445121E+00
         13   -1    0    0    0    0  0.00000000000E+00  0.00000000000E+00  0.14999999963E+04  0.15000000000E+04  0.10566000000E+00 0. -1.
        994   -1    0    0    0    0 -0.00000000000E+00 -0.00000000000E+00  0.11368683772E-12  0.17120000000E+03  0.17120000000E+03 0.  0.
         13    1    1    2    0    0  0.41487586219E+01  0.15266077722E+02  0.34369574502E+02  0.37835752175E+02  0.10566000000E+00 0. -1.
        994    1    1    2    0    0 -0.51882876321E+01 -0.16635466595E+02  0.44433224863E+01  0.17214191875E+03  0.17120000000E+03 0.  0.
        998    1    1    2    0    0  0.10395290102E+01  0.13693888733E+01  0.14611870993E+04  0.14612223291E+04  0.10000000000E+02 0. -1.
</event>
<event>
 5    1  0.7732857E-009  0.3753870E+03  0.7957747E-01  0.3471494E+00
         13   -1    0    0    0    0  0.00000000000E+00  0.00000000000E+00  0.14999999963E+04  0.15000000000E+04  0.10566000000E+00 0. -1.
        994   -1    0    0    0    0 -0.00000000000E+00 -0.00000000000E+00  0.11368683772E-12  0.17120000000E+03  0.17120000000E+03 0.  0.
         13    1    1    2    0    0  0.31332416311E+02 -0.29143680878E+02  0.13193187798E+03  0.13869789486E+03  0.10566000000E+00 0. -1.
        994    1    1    2    0    0 -0.12363986661E+02  0.40478551334E+02  0.12585776361E+02  0.17680278010E+03  0.17120000000E+03 0.  0.
        998    1    1    2    0    0 -0.18968429651E+02 -0.11334870457E+02  0.13554823419E+04  0.13556993250E+04  0.10000000000E+02 0. -1.
</event>
<event>
 5    1  0.7997023E-009  0.3856706E+03  0.7957747E-01  0.3426833E+00
         13   -1    0    0    0    0  0.00000000000E+00  0.00000000000E+00  0.14999999963E+04  0.15000000000E+04  0.10566000000E+00 0.  1.
        994   -1    0    0    0    0 -0.00000000000E+00 -0.00000000000E+00  0.11368683772E-12  0.17120000000E+03  0.17120000000E+03 0.  0.
         13    1    1    2    0    0  0.74557418005E+01 -0.70474552633E+01  0.41012060624E+02  0.42275938691E+02  0.10566000000E+00 0.  1.
        994    1    1    2    0    0 -0.73720035023E+01  0.88799314778E+00  0.14785237704E+01  0.17136732769E+03  0.17120000000E+03 0.  0.
        998    1    1    2    0    0 -0.83738298127E-01  0.61594621155E+01  0.14575094119E+04  0.14575567336E+04  0.10000000000E+02 0.  1.
</event>
<event>
 5    1  0.7732857E-009  0.3830222E+03  0.7957747E-01  0.3438104E+00
         13   -1    0    0    0    0  0.00000000000E+00  0.00000000000E+00  0.14999999963E+04  0.15000000000E+04  0.10566000000E+00 0.  1.
        994   -1    0    0    0    0 -0.00000000000E+00 -0.00000000000E+00  0.11368683772E-12  0.17120000000E+03  0.17120000000E+03 0.  0.
         13    1    1    2    0    0 -0.21987022077E+02 -0.55441380384E+01  0.93719560649E+02  0.96423720207E+02  0.10566000000E+00 0.  1.
        994    1    1    2    0    0  0.21290628177E+02  0.46221872704E+00  0.41177343356E+01  0.17256853778E+03  0.17120000000E+03 0.  0.
        998    1    1    2    0    0  0.69639390045E+00  0.50819193114E+01  0.14021627013E+04  0.14022077420E+04  0.10000000000E+02 0.  1.
</event>
<event>
 5    1  0.7732857E-009  0.3845742E+03  0.7957747E-01  0.3431480E+00
         13   -1    0    0    0    0  0.00000000000E+00  0.00000000000E+00  0.14999999963E+04  0.15000000000E+04  0.10566000000E+00 0.  1.
        994   -1    0    0    0    0 -0.00000000000E+00 -0.00000000000E+00  0.11368683772E-12  0.17120000000E+03  0.17120000000E+03 0.  0.
         13    1    1    2    0    0  0.73296217479E+01 -0.11715284571E+02  0.51152516210E+02  0.52986435304E+02  0.10566000000E+00 0.  1.
        994    1    1    2    0    0 -0.75820654924E+01  0.80587500830E+01  0.22450054045E+01  0.17157188353E+03  0.17120000000E+03 0.  0.
        998    1    1    2    0    0  0.25244374440E+00  0.36565344882E+01  0.14466024747E+04  0.14466416812E+04  0.10000000000E+02 0.  0.
</event>
<event>
 5    1  0.7732857E-009  0.3721583E+03  0.7957747E-01  0.3486030E+00
         13   -1    0    0    0    0  0.00000000000E+00  0.00000000000E+00  0.14999999963E+04  0.15000000000E+04  0.10566000000E+00 0.  1.
        994   -1    0    0    0    0 -0.00000000000E+00 -0.00000000000E+00  0.11368683772E-12  0.17120000000E+03  0.17120000000E+03 0.  0.
         13    1    1    2    0    0 -0.44630875288E+02  0.25658157764E+02  0.99139487342E+02  0.11170902024E+03  0.10566000000E+00 0.  1.
        994    1    1    2    0    0  0.45364369617E+02 -0.23563048503E+02  0.21347237611E+02  0.17993967833E+03  0.17120000000E+03 0.  0.
        998    1    1    2    0    0 -0.73349432901E+00 -0.20951092607E+01  0.13795132713E+04  0.13795513014E+04  0.10000000000E+02 0.  1.
</event>
<event>
 5    1  0.7732857E-009  0.3796895E+03  0.7957747E-01  0.3452512E+00
         13   -1    0    0    0    0  0.00000000000E+00  0.00000000000E+00  0.14999999963E+04  0.15000000000E+04  0.10566000000E+00 0. -1.
        994   -1    0    0    0    0 -0.00000000000E+00 -0.00000000000E+00  0.11368683772E-12  0.17120000000E+03  0.17120000000E+03 0.  0.
         13    1    1    2    0    0 -0.19655228361E+02  0.23133059487E+02  0.10623231940E+03  0.11048431242E+03  0.10566000000E+00 0. -1.
        994    1    1    2    0    0  0.58083904297E+01 -0.18472502841E+02  0.55457583646E+01  0.17238087538E+03  0.17120000000E+03 0.  0.
        998    1    1    2    0    0  0.13846837931E+02 -0.46605566460E+01  0.13882219185E+04  0.13883348122E+04  0.10000000000E+02 0. -1.
</event>
<event>
 5    1  0.8007038E-009  0.3855224E+03  0.7957747E-01  0.3427460E+00
         13   -1    0    0    0    0  0.00000000000E+00  0.00000000000E+00  0.14999999963E+04  0.15000000000E+04  0.10566000000E+00 0.  1.
        994   -1    0    0    0    0 -0.00000000000E+00 -0.00000000000E+00  0.11368683772E-12  0.17120000000E+03  0.17120000000E+03 0.  0.
         13    1    1    2    0    0 -0.90312703579E+01  0.12943382610E+02  0.92961072387E+02  0.94291394841E+02  0.10566000000E+00 0.  1.
        994    1    1    2    0    0  0.13010998789E+02 -0.94607405637E+00  0.19299055906E+01  0.17170715093E+03  0.17120000000E+03 0.  0.
        998    1    1    2    0    0 -0.39797284310E+01 -0.11997308553E+02  0.14051090183E+04  0.14052014542E+04  0.10000000000E+02 0.  1.
</event>
<event>
 5    1  0.7923658E-009  0.3855473E+03  0.7957747E-01  0.3427354E+00
         13   -1    0    0    0    0  0.00000000000E+00  0.00000000000E+00  0.14999999963E+04  0.15000000000E+04  0.10566000000E+00 0.  1.
        994   -1    0    0    0    0 -0.00000000000E+00 -0.00000000000E+00  0.11368683772E-12  0.17120000000E+03  0.17120000000E+03 0.  0.
         13    1    1    2    0    0  0.11217166277E+02 -0.72678047759E+01  0.66378413402E+02  0.67710787437E+02  0.10566000000E+00 0.  1.
        994    1    1    2    0    0 -0.33030071321E+01  0.10245081998E+02  0.17391467074E+01  0.17154689211E+03  0.17120000000E+03 0.  0.
        998    1    1    2    0    0 -0.79141591448E+01 -0.29772772225E+01  0.14318824362E+04  0.14319423205E+04  0.10000000000E+02 0.  1.
</event>
<event>
 5    1  0.7732857E-009  0.3713630E+03  0.7957747E-01  0.3489650E+00
         13   -1    0    0    0    0  0.00000000000E+00  0.00000000000E+00  0.14999999963E+04  0.15000000000E+04  0.10566000000E+00 0.  1.
        994   -1    0    0    0    0 -0.00000000000E+00 -0.00000000000E+00  0.11368683772E-12  0.17120000000E+03  0.17120000000E+03 0.  0.
         13    1    1    2    0    0 -0.67072225759E+02 -0.26338286763E+02  0.18804595902E+03  0.20137944952E+03  0.10566000000E+00 0.  1.
        994    1    1    2    0    0  0.70027216453E+02  0.29915417475E+02  0.32319731968E+02  0.19013876070E+03  0.17120000000E+03 0.  0.
        998    1    1    2    0    0 -0.29549906936E+01 -0.35771307120E+01  0.12796343053E+04  0.12796817898E+04  0.10000000000E+02 0.  1.
</event>
<event>
 5    1  0.7732857E-009  0.3775884E+03  0.7957747E-01  0.3461727E+00
         13   -1    0    0    0    0  0.00000000000E+00  0.00000000000E+00  0.14999999963E+04  0.15000000000E+04  0.10566000000E+00 0.  1.
        994   -1    0    0    0    0 -0.00000000000E+00 -0.00000000000E+00  0.11368683772E-12  0.17120000000E+03  0.17120000000E+03 0.  0.
         13    1    1    2    0    0  0.95199954210E+01  0.10264403256E+02  0.15630834375E+02  0.20983861282E+02  0.10566000000E+00 0.  1.
        994    1    1    2    0    0 -0.12780423376E+02 -0.13901186257E+02  0.65580029500E+01  0.17236307494E+03  0.17120000000E+03 0.  0.
        998    1    1    2    0    0  0.32604279554E+01  0.36367830010E+01  0.14778111590E+04  0.14778530638E+04  0.10000000000E+02 0.  1.
</event>
<event>
 5    1  0.7732857E-009  0.3757226E+03  0.7957747E-01  0.3469997E+00
         13   -1    0    0    0    0  0.00000000000E+00  0.00000000000E+00  0.14999999963E+04  0.15000000000E+04  0.10566000000E+00 0. -1.
        994   -1    0    0    0    0 -0.00000000000E+00 -0.00000000000E+00  0.11368683772E-12  0.17120000000E+03  0.17120000000E+03 0.  0.
         13    1    1    2    0    0 -0.41367755674E+02  0.51705494282E+02  0.30653452453E+03  0.31360512630E+03  0.10566000000E+00 0. -1.
        994    1    1    2    0    0  0.10070586080E+02 -0.62022569786E+02  0.19815992946E+02  0.18344026124E+03  0.17120000000E+03 0.  0.
        998    1    1    2    0    0  0.31297169594E+02  0.10317075504E+02  0.11736494788E+04  0.11741546125E+04  0.10000000000E+02 0. -1.
</event>
<event>
 5    1  0.7732857E-009  0.3783346E+03  0.7957747E-01  0.3458442E+00
         13   -1    0    0    0    0  0.00000000000E+00  0.00000000000E+00  0.14999999963E+04  0.15000000000E+04  0.10566000000E+00 0. -1.
        994   -1    0    0    0    0 -0.00000000000E+00 -0.00000000000E+00  0.11368683772E-12  0.17120000000E+03  0.17120000000E+03 0.  0.
         13    1    1    2    0    0  0.86740954781E+02 -0.94714927856E+01  0.51205467119E+03  0.51943594395E+03  0.10566000000E+00 0. -1.
        994    1    1    2    0    0 -0.84901792660E+02  0.62701707026E+01  0.29738485736E+02  0.19349792498E+03  0.17120000000E+03 0.  0.
        998    1    1    2    0    0 -0.18391621210E+01  0.32013220830E+01  0.95820683935E+03  0.95826613107E+03  0.10000000000E+02 0.  0.
</event>
<event>
 5    1  0.7732857E-009  0.3743483E+03  0.7957747E-01  0.3476143E+00
         13   -1    0    0    0    0  0.00000000000E+00  0.00000000000E+00  0.14999999963E+04  0.15000000000E+04  0.10566000000E+00 0. -1.
        994   -1    0    0    0    0 -0.00000000000E+00 -0.00000000000E+00  0.11368683772E-12  0.17120000000E+03  0.17120000000E+03 0.  0.
         13    1    1    2    0    0  0.11333872663E+02  0.19797397355E+02  0.13511172743E+02  0.26513328054E+02  0.10566000000E+00 0. -1.
        994    1    1    2    0    0 -0.25975928832E+01 -0.31516939922E+02  0.16815291285E+02  0.17490642930E+03  0.17120000000E+03 0.  0.
        998    1    1    2    0    0 -0.87362797797E+01  0.11719542567E+02  0.14696735323E+04  0.14697802426E+04  0.10000000000E+02 0. -1.
</event>
<event>
 5    1  0.7732857E-009  0.3810774E+03  0.7957747E-01  0.3446481E+00
         13   -1    0    0    0    0  0.00000000000E+00  0.00000000000E+00  0.14999999963E+04  0.15000000000E+04  0.10566000000E+00 0.  1.
        994   -1    0    0    0    0 -0.00000000000E+00 -0.00000000000E+00  0.11368683772E-12  0.17120000000E+03  0.17120000000E+03 0.  0.
         13    1    1    2    0    0  0.47214132207E+01 -0.89414440089E+01  0.12535722627E+02  0.16105796149E+02  0.10566000000E+00 0.  1.
        994    1    1    2    0    0 -0.69506254114E+01  0.10421799020E+02  0.41131594592E+01  0.17170696890E+03  0.17120000000E+03 0.  0.
        998    1    1    2    0    0  0.22292121908E+01 -0.14803550109E+01  0.14833511142E+04  0.14833872350E+04  0.10000000000E+02 0.  1.
</event>
<event>
 5    1  0.7732857E-009  0.3729912E+03  0.7957747E-01  0.3482256E+00
         13   -1    0    0    0    0  0.00000000000E+00  0.00000000000E+00  0.14999999963E+04  0.15000000000E+04  0.10566000000E+00 0.  1.
        994   -1    0    0    0    0 -0.00000000000E+00 -0.00000000000E+00  0.11368683772E-12  0.17120000000E+03  0.17120000000E+03 0.  0.
         13    1    1    2    0    0  0.23210722870E+02  0.44717752148E+02  0.97049679298E+02  0.10934837186E+03  0.10566000000E+00 0.  1.
        994    1    1    2    0    0  0.28100770569E+01 -0.37897533378E+02  0.17648679993E+02  0.17625276019E+03  0.17120000000E+03 0.  0.
        998    1    1    2    0    0 -0.26020799927E+02 -0.68202187704E+01  0.13853016370E+04  0.13855988679E+04  0.10000000000E+02 0.  1.
</event>
<event>
 5    1  0.7732857E-009  0.3736476E+03  0.7957747E-01  0.3479293E+00
         13   -1    0    0    0    0  0.00000000000E+00  0.00000000000E+00  0.14999999963E+04  0.15000000000E+04  0.10566000000E+00 0. -1.
        994   -1    0    0    0    0 -0.00000000000E+00 -0.00000000000E+00  0.11368683772E-12  0.17120000000E+03  0.17120000000E+03 0.  0.
         13    1    1    2    0    0  0.98889978985E+02 -0.51691355804E+02  0.60026393705E+03  0.61054731962E+03  0.10566000000E+00 0. -1.
        994    1    1    2    0    0 -0.70633869655E+02  0.78876084003E+02  0.46680054418E+02  0.20663747881E+03  0.17120000000E+03 0.  0.
        998    1    1    2    0    0 -0.28256109330E+02 -0.27184728198E+02  0.85305600482E+03  0.85401520157E+03  0.10000000000E+02 0.  1.
</event>
<event>
 5    1  0.7853353E-009  0.3860506E+03  0.7957747E-01  0.3425229E+00
         13   -1    0    0    0    0  0.00000000000E+00  0.00000000000E+00  0.14999999963E+04  0.15000000000E+04  0.10566000000E+00 0.  1.
        994   -1    0    0    0    0 -0.00000000000E+00 -0.00000000000E+00  0.11368683772E-12  0.17120000000E+03  0.17120000000E+03 0.  0.
         13    1    1    2    0    0  0.32058413059E+00 -0.13113817055E+02  0.73615561871E+02  0.74775243801E+02  0.10566000000E+00 0.  1.
        994    1    1    2    0    0  0.28325025303E+01  0.16765049581E+02  0.20574874111E+01  0.17205453558E+03  0.17120000000E+03 0.  0.
        998    1    1    2    0    0 -0.31530866609E+01 -0.36512325261E+01  0.14243269470E+04  0.14243702206E+04  0.10000000000E+02 0.  1.
</event>
<event>
 5    1  0.7732857E-009  0.3724083E+03  0.7957747E-01  0.3484896E+00
         13   -1    0    0    0    0  0.00000000000E+00  0.00000000000E+00  0.14999999963E+04  0.15000000000E+04  0.10566000000E+00 0. -1.
        994   -1    0    0    0    0 -0.00000000000E+00 -0.00000000000E+00  0.11368683772E-12  0.17120000000E+03  0.17120000000E+03 0.  0.
         13    1    1    2    0    0 -0.18114561557E+02  0.75073932201E+02  0.37522930006E+03  0.38309433750E+03  0.10566000000E+00 0. -1.
        994    1    1    2    0    0  0.21710545177E+02 -0.38512437366E+02  0.14748109351E+02  0.17743027457E+03  0.17120000000E+03 0.  0.
        998    1    1    2    0    0 -0.35959836205E+01 -0.36561494835E+02  0.11100225869E+04  0.11106753879E+04  0.10000000000E+02 0. -1.
</event>
<event>
 5    1  0.7732857E-009  0.3758308E+03  0.7957747E-01  0.3469516E+00
         13   -1    0    0    0    0  0.00000000000E+00  0.00000000000E+00  0.14999999963E+04  0.15000000000E+04  0.10566000000E+00 0. -1.
        994   -1    0    0    0    0 -0.00000000000E+00 -0.00000000000E+00  0.11368683772E-12  0.17120000000E+03  0.17120000000E+03 0.  0.
         13    1    1    2    0    0  0.46692988920E+02  0.61123069041E+02  0.32802577382E+03  0.33692311324E+03  0.10566000000E+00 0. -1.
        994    1    1    2    0    0 -0.68183911101E+02 -0.61978699458E+02  0.35598905492E+02  0.19765405888E+03  0.17120000000E+03 0.  0.
        998    1    1    2    0    0  0.21490922181E+02  0.85563041679E+00  0.11363753170E+04  0.11366228279E+04  0.10000000000E+02 0. -1.
</event>
<event>
 5    1  0.7732857E-009  0.3695780E+03  0.7957747E-01  0.3497833E+00
         13   -1    0    0    0    0  0.00000000000E+00  0.00000000000E+00  0.14999999963E+04  0.15000000000E+04  0.10566000000E+00 0.  1.
        994   -1    0    0    0    0 -0.00000000000E+00 -0.00000000000E+00  0.11368683772E-12  0.17120000000E+03  0.17120000000E+03 0.  0.
         13    1    1    2    0    0  0.51989660578E+02 -0.29333219120E+02  0.23959837920E+03  0.24692257295E+03  0.10566000000E+00 0.  1.
        994    1    1    2    0    0  0.16461393468E+02  0.11255472667E+02  0.10868010170E+02  0.17269978803E+03  0.17120000000E+03 0.  0.
        998    1    1    2    0    0 -0.68451054046E+02  0.18077746453E+02  0.12495336069E+04  0.12515776390E+04  0.10000000000E+02 0.  1.
</event>
<event>
 5    1  0.7732857E-009  0.3842670E+03  0.7957747E-01  0.3432787E+00
         13   -1    0    0    0    0  0.00000000000E+00  0.00000000000E+00  0.14999999963E+04  0.15000000000E+04  0.10566000000E+00 0. -1.
        994   -1    0    0    0    0 -0.00000000000E+00 -0.00000000000E+00  0.11368683772E-12  0.17120000000E+03  0.17120000000E+03 0.  0.
         13    1    1    2    0    0  0.89164242085E+01  0.73728703502E+01  0.32333495745E+02  0.34341344601E+02  0.10566000000E+00 0. -1.
        994    1    1    2    0    0 -0.88269279178E+01 -0.10270024079E+02  0.25992701644E+01  0.17175443009E+03  0.17120000000E+03 0.  0.
        998    1    1    2    0    0 -0.89496290621E-01  0.28971537293E+01  0.14650672304E+04  0.14651042253E+04  0.10000000000E+02 0. -1.
</event>
<event>
 5    1  0.7732857E-009  0.3839800E+03  0.7957747E-01  0.3434010E+00
         13   -1    0    0    0    0  0.00000000000E+00  0.00000000000E+00  0.14999999963E+04  0.15000000000E+04  0.10566000000E+00 0.  1.
        994   -1    0    0    0    0 -0.00000000000E+00 -0.00000000000E+00  0.11368683772E-12  0.17120000000E+03  0.17120000000E+03 0.  0.
         13    1    1    2    0    0  0.11782576262E+02  0.13686825104E+02  0.77034025838E+02  0.79122756434E+02  0.10566000000E+00 0.  1.
        994    1    1    2    0    0 -0.20526345265E+02  0.51189994015E+01  0.36154444011E+01  0.17253998506E+03  0.17120000000E+03 0.  0.
        998    1    1    2    0    0  0.87437690032E+01 -0.18805824505E+02  0.14193505260E+04  0.14195372585E+04  0.10000000000E+02 0.  1.
</event>
<event>
 5    1  0.7732857E-009  0.3848663E+03  0.7957747E-01  0.3430240E+00
         13   -1    0    0    0    0  0.00000000000E+00  0.00000000000E+00  0.14999999963E+04  0.15000000000E+04  0.10566000000E+00 0.  1.
        994   -1    0    0    0    0 -0.00000000000E+00 -0.00000000000E+00  0.11368683772E-12  0.17120000000E+03  0.17120000000E+03 0.  0.
         13    1    1    2    0    0  0.15270579693E+02  0.31330268710E+00  0.67958279213E+02  0.69653626182E+02  0.10566000000E+00 0.  1.
        994    1    1    2    0    0 -0.11687736327E+02 -0.36219182250E+01  0.21893039372E+01  0.17165067586E+03  0.17120000000E+03 0.  0.
        998    1    1    2    0    0 -0.35828433656E+01  0.33086155379E+01  0.14298524131E+04  0.14298956980E+04  0.10000000000E+02 0.  1.
</event>
<event>
 5    1  0.7732857E-009  0.3849577E+03  0.7957747E-01  0.3429852E+00
         13   -1    0    0    0    0  0.00000000000E+00  0.00000000000E+00  0.14999999963E+04  0.15000000000E+04  0.10566000000E+00 0. -1.
        994   -1    0    0    0    0 -0.00000000000E+00 -0.00000000000E+00  0.11368683772E-12  0.17120000000E+03  0.17120000000E+03 0.  0.
         13    1    1    2    0    0  0.12936233583E+02  0.62044979245E+01  0.62730467685E+02  0.64350327690E+02  0.10566000000E+00 0. -1.
        994    1    1    2    0    0 -0.74675788900E+01 -0.38635781460E+01  0.18837018695E+01  0.17141668619E+03  0.17120000000E+03 0.  0.
        998    1    1    2    0    0 -0.54686546929E+01 -0.23409197785E+01  0.14353858267E+04  0.14354329861E+04  0.10000000000E+02 0. -1.
</event>
<event>
 5    1  0.7732857E-009  0.3860182E+03  0.7957747E-01  0.3425365E+00
         13   -1    0    0    0    0  0.00000000000E+00  0.00000000000E+00  0.14999999963E+04  0.15000000000E+04  0.10566000000E+00 0. -1.
        994   -1    0    0    0    0 -0.00000000000E+00 -0.00000000000E+00  0.11368683772E-12  0.17120000000E+03  0.17120000000E+03 0.  0.
         13    1    1    2    0    0  0.44325660987E+01  0.12579674915E+02  0.79058569196E+02  0.80175834206E+02  0.10566000000E+00 0. -1.
        994    1    1    2    0    0 -0.51551179890E+00 -0.10565438910E+02  0.14922934619E+01  0.17153297406E+03  0.17120000000E+03 0.  0.
        998    1    1    2    0    0 -0.39170542998E+01 -0.20142360049E+01  0.14194491336E+04  0.14194911917E+04  0.10000000000E+02 0.  0.
</event>
<event>
 5    1  0.7732857E-009  0.3783535E+03  0.7957747E-01  0.3458359E+00
         13   -1    0    0    0    0  0.00000000000E+00  0.00000000000E+00  0.14999999963E+04  0.15000000000E+04  0.10566000000E+00 0.  1.
        994   -1    0    0    0    0 -0.00000000000E+00 -0.00000000000E+00  0.11368683772E-12  0.17120000000E+03  0.17120000000E+03 0.  0.
         13    1    1    2    0    0  0.40156774807E+02 -0.52037923970E+02  0.33092766731E+03  0.33739241878E+03  0.10566000000E+00 0.  1.
        994    1    1    2    0    0 -0.36315821906E+02  0.58177871920E+02  0.20942360364E+02  0.18561122315E+03  0.17120000000E+03 0.  0.
        998    1    1    2    0    0 -0.38409529014E+01 -0.61399479500E+01  0.11481299686E+04  0.11481963581E+04  0.10000000000E+02 0.  1.
</event>
<event>
 5    1  0.7732857E-009  0.3747952E+03  0.7957747E-01  0.3474139E+00
         13   -1    0    0    0    0  0.00000000000E+00  0.00000000000E+00  0.14999999963E+04  0.15000000000E+04  0.10566000000E+00 0.  1.
        994   -1    0    0    0    0 -0.00000000000E+00 -0.00000000000E+00  0.11368683772E-12  0.17120000000E+03  0.17120000000E+03 0.  0.
         13    1    1    2    0    0 -0.93848227564E+01  0.78707992968E+01  0.79444194859E+01  0.14599635089E+02  0.10566000000E+00 0.  1.
        994    1    1    2    0    0  0.68789438086E+01 -0.84806322625E+01  0.71896144574E+01  0.17169849023E+03  0.17120000000E+03 0.  0.
        998    1    1    2    0    0  0.25058789477E+01  0.60983296577E+00  0.14848659623E+04  0.14849018747E+04  0.10000000000E+02 0.  1.
</event>
<event>
 5    1  0.7732857E-009  0.3720535E+03  0.7957747E-01  0.3486506E+00
         13   -1    0    0    0    0  0.00000000000E+00  0.00000000000E+00  0.14999999963E+04  0.15000000000E+04  0.10566000000E+00 0. -1.
        994   -1    0    0    0    0 -0.00000000000E+00 -0.00000000000E+00  0.11368683772E-12  0.17120000000E+03  0.17120000000E+03 0.  0.
         13    1    1    2    0    0 -0.54568463371E+02  0.71748465120E+01  0.15092016574E+03  0.16064278137E+03  0.10566000000E+00 0. -1.
        994    1    1    2    0    0  0.72822811713E+02 -0.26230249781E+01  0.26657235539E+02  0.18796300267E+03  0.17120000000E+03 0.  0.
        998    1    1    2    0    0 -0.18254348342E+02 -0.45518215339E+01  0.13224225950E+04  0.13225942160E+04  0.10000000000E+02 0. -1.
</event>
<event>
 5    1  0.7732857E-009  0.3828738E+03  0.7957747E-01  0.3438740E+00
         13   -1    0    0    0    0  0.00000000000E+00  0.00000000000E+00  0.14999999963E+04  0.15000000000E+04  0.10566000000E+00 0.  1.
        994   -1    0    0    0    0 -0.00000000000E+00 -0.00000000000E+00  0.11368683772E-12  0.17120000000E+03  0.17120000000E+03 0.  0.
         13    1    1    2    0    0  0.21712005335E+02 -0.10835538821E+02  0.10877079676E+03  0.11144468345E+03  0.10566000000E+00 0.  1.
        994    1    1    2    0    0 -0.15509409619E+02  0.20742502357E+01  0.35006628591E+01  0.17194923362E+03  0.17120000000E+03 0.  0.
        998    1    1    2    0    0 -0.62025957161E+01  0.87612885848E+01  0.13877285367E+04  0.13878060829E+04  0.10000000000E+02 0.  1.
</event>
<event>
 5    1  0.7732857E-009  0.3834173E+03  0.7957747E-01  0.3436413E+00
         13   -1    0    0    0    0  0.00000000000E+00  0.00000000000E+00  0.14999999963E+04  0.15000000000E+04  0.10566000000E+00 0.  1.
        994   -1    0    0    0    0 -0.00000000000E+00 -0.00000000000E+00  0.11368683772E-12  0.17120000000E+03  0.17120000000E+03 0.  0.
         13    1    1    2    0    0  0.11527744741E+02 -0.38194445038E+01  0.29703538107E+02  0.32090316222E+02  0.10566000000E+00 0.  1.
        994    1    1    2    0    0 -0.78448028878E+01  0.33474838290E+01  0.26584826468E+01  0.17143294348E+03  0.17120000000E+03 0.  0.
        998    1    1    2    0    0 -0.36829418533E+01  0.47196067487E+00  0.14676379755E+04  0.14676767403E+04  0.10000000000E+02 0.  1.
</event>
<event>
 5    1  0.7732857E-009  0.3745890E+03  0.7957747E-01  0.3475063E+00
         13   -1    0    0    0    0  0.00000000000E+00  0.00000000000E+00  0.14999999963E+04  0.15000000000E+04  0.10566000000E+00 0.  1.
        994   -1    0    0    0    0 -0.00000000000E+00 -0.00000000000E+00  0.11368683772E-12  0.17120000000E+03  0.17120000000E+03 0.  0.
         13    1    1    2    0    0  0.90336583491E+01  0.18800000946E+02  0.29185870820E+02  0.35873015461E+02  0.10566000000E+00 0.  1.
        994    1    1    2    0    0 -0.10048183738E+02 -0.43371239875E+01  0.72977271752E+01  0.17170461107E+03  0.17120000000E+03 0.  0.
        998    1    1    2    0    0  0.10145253886E+01 -0.14462876959E+02  0.14635163983E+04  0.14636223735E+04  0.10000000000E+02 0.  1.
</event>
<event>
 5    1  0.7732857E-009  0.3693098E+03  0.7957747E-01  0.3499069E+00
         13   -1    0    0    0    0  0.00000000000E+00  0.00000000000E+00  0.14999999963E+04  0.15000000000E+04  0.10566000000E+00 0. -1.
        994   -1    0    0    0    0 -0.00000000000E+00 -0.00000000000E+00  0.11368683772E-12  0.17120000000E+03  0.17120000000E+03 0.  0.
         13    1    1    2    0    0 -0.59174904720E+02  0.61758122694E+02  0.29740458070E+03  0.30945957871E+03  0.10566000000E+00 0. -1.
        994    1    1    2    0    0  0.62976193851E+02 -0.60228568399E+02  0.36430210685E+02  0.19552514338E+03  0.17120000000E+03 0.  0.
        998    1    1    2    0    0 -0.38012891307E+01 -0.15295542956E+01  0.11661652049E+04  0.11662152779E+04  0.10000000000E+02 0.  0.
</event>
<event>
 5    1  0.7732857E-009  0.3831562E+03  0.7957747E-01  0.3437530E+00
         13   -1    0    0    0    0  0.00000000000E+00  0.00000000000E+00  0.14999999963E+04  0.15000000000E+04  0.10566000000E+00 0. -1.
        994   -1    0    0    0    0 -0.00000000000E+00 -0.00000000000E+00  0.11368683772E-12  0.17120000000E+03  0.17120000000E+03 0.  0.
         13    1    1    2    0    0  0.11658123992E+02  0.23849520876E+02  0.14132421262E+03  0.14379588220E+03  0.10566000000E+00 0. -1.
        994    1    1    2    0    0 -0.30444777407E+01 -0.12379043681E+02  0.30861413016E+01  0.17170170015E+03  0.17120000000E+03 0.  0.
        998    1    1    2    0    0 -0.86136462515E+01 -0.11470477195E+02  0.13555896424E+04  0.13557024176E+04  0.10000000000E+02 0. -1.
</event>
<event>
 5    1  0.7732857E-009  0.3730862E+03  0.7957747E-01  0.3481827E+00
         13   -1    0    0    0    0  0.00000000000E+00  0.00000000000E+00  0.14999999963E+04  0.15000000000E+04  0.10566000000E+00 0.  1.
        994   -1    0    0    0    0 -0.00000000000E+00 -0.00000000000E+00  0.11368683772E-12  0.17120000000E+03  0.17120000000E+03 0.  0.
         13    1    1    2    0    0 -0.33006518611E+02  0.15449100781E+02  0.51829612499E+02  0.63359489278E+02  0.10566000000E+00 0.  1.
        994    1    1    2    0    0 -0.75343579255E+01 -0.74734619188E+01  0.12978201545E+02  0.17201887367E+03  0.17120000000E+03 0.  0.
        998    1    1    2    0    0  0.40540876536E+02 -0.79756388618E+01  0.14351921822E+04  0.14358216371E+04  0.10000000000E+02 0.  1.
</event>
<event>
 5    1  0.7732857E-009  0.3790145E+03  0.7957747E-01  0.3455461E+00
         13   -1    0    0    0    0  0.00000000000E+00  0.00000000000E+00  0.14999999963E+04  0.15000000000E+04  0.10566000000E+00 0.  1.
        994   -1    0    0    0    0 -0.00000000000E+00 -0.00000000000E+00  0.11368683772E-12  0.17120000000E+03  0.17120000000E+03 0.  0.
         13    1    1    2    0    0 -0.16607882876E+02  0.38528419321E+01  0.28824385345E+02  0.33489140317E+02  0.10566000000E+00 0.  1.
        994    1    1    2    0    0  0.18955893884E+02 -0.50822081410E+01  0.59242741188E+01  0.17242300246E+03  0.17120000000E+03 0.  0.
        998    1    1    2    0    0 -0.23480110083E+01  0.12293662088E+01  0.14652513368E+04  0.14652878572E+04  0.10000000000E+02 0.  1.
</event>
<event>
 5    1  0.7732857E-009  0.3774748E+03  0.7957747E-01  0.3462228E+00
         13   -1    0    0    0    0  0.00000000000E+00  0.00000000000E+00  0.14999999963E+04  0.15000000000E+04  0.10566000000E+00 0.  1.
        994   -1    0    0    0    0 -0.00000000000E+00 -0.00000000000E+00  0.11368683772E-12  0.17120000000E+03  0.17120000000E+03 0.  0.
         13    1    1    2    0    0 -0.59854267713E+02 -0.64887024381E+02  0.40768689924E+03  0.41713484424E+03  0.10566000000E+00 0.  1.
        994    1    1    2    0    0  0.69756922724E+02  0.87714562172E+02  0.48996937369E+02  0.21040440242E+03  0.17120000000E+03 0.  0.
        998    1    1    2    0    0 -0.99026550111E+01 -0.22827537791E+02  0.10433161597E+04  0.10436607533E+04  0.10000000000E+02 0.  1.
</event>
<event>
 5    1  0.7732857E-009  0.3818740E+03  0.7957747E-01  0.3443039E+00
         13   -1    0    0    0    0  0.00000000000E+00  0.00000000000E+00  0.14999999963E+04  0.15000000000E+04  0.10566000000E+00 0. -1.
        994   -1    0    0    0    0 -0.00000000000E+00 -0.00000000000E+00  0.11368683772E-12  0.17120000000E+03  0.17120000000E+03 0.  0.
         13    1    1    2    0    0 -0.21900195526E+00  0.13043179914E+02  0.25140495805E+02  0.28323633197E+02  0.10566000000E+00 0. -1.
        994    1    1    2    0    0 -0.78773271088E+00 -0.12921678587E+02  0.37471162533E+01  0.17172964561E+03  0.17120000000E+03 0.  0.
        998    1    1    2    0    0  0.10067346661E+01 -0.12150132718E+00  0.14711123842E+04  0.14711467212E+04  0.10000000000E+02 0. -1.
</event>
<event>
 5    1  0.7732857E-009  0.3769215E+03  0.7957747E-01  0.3464673E+00
         13   -1    0    0    0    0  0.00000000000E+00  0.00000000000E+00  0.14999999963E+04  0.15000000000E+04  0.10566000000E+00 0. -1.
        994   -1    0    0    0    0 -0.00000000000E+00 -0.00000000000E+00  0.11368683772E-12  0.17120000000E+03  0.17120000000E+03 0.  0.
         13    1    1    2    0    0  0.32432078393E+02 -0.37352957167E+02  0.19103712860E+03  0.19733798111E+03  0.10566000000E+00 0. -1.
        994    1    1    2    0    0 -0.27584942541E+02  0.37290155949E+02  0.12996260377E+02  0.17784776515E+03  0.17120000000E+03 0.  0.
        998    1    1    2    0    0 -0.48471358516E+01  0.62801217702E-01  0.12959666073E+04  0.12960142537E+04  0.10000000000E+02 0.  0.
</event>
<event>
 5    1  0.7732857E-009  0.3696885E+03  0.7957747E-01  0.3497324E+00
         13   -1    0    0    0    0  0.00000000000E+00  0.00000000000E+00  0.14999999963E+04  0.15000000000E+04  0.10566000000E+00 0. -1.
        994   -1    0    0    0    0 -0.00000000000E+00 -0.00000000000E+00  0.11368683772E-12  0.17120000000E+03  0.17120000000E+03 0.  0.
         13    1    1    2    0    0 -0.10327287565E+02 -0.14145233042E+02  0.11896189983E+02  0.21172410973E+02  0.10566000000E+00 0. -1.
        994    1    1    2    0    0  0.96457684165E+01  0.17496876108E+02  0.10814869938E+02  0.17270084810E+03  0.17120000000E+03 0.  0.
        998    1    1    2    0    0  0.68151914838E+00 -0.33516430662E+01  0.14772889364E+04  0.14773267409E+04  0.10000000000E+02 0. -1.
</event>
<event>
 5    1  0.1121134E-008  0.3863140E+03  0.7957747E-01  0.3424119E+00
         13   -1    0    0    0    0  0.00000000000E+00  0.00000000000E+00  0.14999999963E+04  0.15000000000E+04  0.10566000000E+00 0. -1.
        994   -1    0    0    0    0 -0.00000000000E+00 -0.00000000000E+00  0.11368683772E-12  0.17120000000E+03  0.17120000000E+03 0.  0.
         13    1    1    2    0    0  0.21260568501E+01  0.10527926013E+02  0.56381775869E+02  0.57395759059E+02  0.10566000000E+00 0. -1.
        994    1    1    2    0    0 -0.14734542185E+02 -0.12990693389E+02  0.22437803454E+01  0.17233786409E+03  0.17120000000E+03 0.  0.
        998    1    1    2    0    0  0.12608485335E+02  0.24627673757E+01  0.14413744401E+04  0.14414663769E+04  0.10000000000E+02 0. -1.
</event>
<event>
 5    1  0.7732857E-009  0.3710624E+03  0.7957747E-01  0.3491022E+00
         13   -1    0    0    0    0  0.00000000000E+00  0.00000000000E+00  0.14999999963E+04  0.15000000000E+04  0.10566000000E+00 0. -1.
        994   -1    0    0    0    0 -0.00000000000E+00 -0.00000000000E+00  0.11368683772E-12  0.17120000000E+03  0.17120000000E+03 0.  0.
         13    1    1    2    0    0 -0.85314434402E+02 -0.53189946046E+02  0.40474529009E+03  0.41704494253E+03  0.10566000000E+00 0. -1.
        994    1    1    2    0    0  0.94588927411E+02  0.43841395589E+02  0.47145838995E+02  0.20591576746E+03  0.17120000000E+03 0.  0.
        998    1    1    2    0    0 -0.92744930095E+01  0.93485504566E+01  0.10481088672E+04  0.10482392900E+04  0.10000000000E+02 0. -1.
</event>
<event>
 5    1  0.7732857E-009  0.2673560E+03  0.7957747E-01  0.4160692E+00
         13   -1    0    0    0    0  0.00000000000E+00  0.00000000000E+00  0.14999999963E+04  0.15000000000E+04  0.10566000000E+00 0.  1.
        994   -1    0    0    0    0 -0.00000000000E+00 -0.00000000000E+00  0.11368683772E-12  0.17120000000E+03  0.17120000000E+03 0.  0.
         13    1    1    2    0    0 -0.26180484900E+02 -0.15852877746E+03  0.59788987134E+03  0.61910346509E+03  0.10566000000E+00 0.  1.
        994    1    1    2    0    0  0.40724427214E+02  0.44218163055E+02  0.44636660886E+02  0.18685715510E+03  0.17120000000E+03 0.  0.
        998    1    1    2    0    0 -0.14543942313E+02  0.11431061441E+03  0.85747346405E+03  0.86523937981E+03  0.10000000000E+02 0.  1.
</event>
<event>
 5    1  0.7732857E-009  0.3789191E+03  0.7957747E-01  0.3455878E+00
         13   -1    0    0    0    0  0.00000000000E+00  0.00000000000E+00  0.14999999963E+04  0.15000000000E+04  0.10566000000E+00 0.  1.
        994   -1    0    0    0    0 -0.00000000000E+00 -0.00000000000E+00  0.11368683772E-12  0.17120000000E+03  0.17120000000E+03 0.  0.
         13    1    1    2    0    0 -0.31201460433E+01 -0.34594388689E+02  0.14855689135E+03  0.15256365285E+03  0.10566000000E+00 0.  1.
        994    1    1    2    0    0  0.59881672206E+01 -0.53008634561E+01  0.48943603781E+01  0.17145656028E+03  0.17120000000E+03 0.  0.
        998    1    1    2    0    0 -0.28680211773E+01  0.39895252145E+02  0.13465487446E+04  0.13471797869E+04  0.10000000000E+02 0.  1.
</event>
<event>
 5    1  0.7732857E-009  0.3730391E+03  0.7957747E-01  0.3482039E+00
         13   -1    0    0    0    0  0.00000000000E+00  0.00000000000E+00  0.14999999963E+04  0.15000000000E+04  0.10566000000E+00 0. -1.
        994   -1    0    0    0    0 -0.00000000000E+00 -0.00000000000E+00  0.11368683772E-12  0.17120000000E+03  0.17120000000E+03 0.  0.
         13    1    1    2    0    0  0.60833644673E+02 -0.28588324459E+02  0.15993656841E+03  0.17348700729E+03  0.10566000000E+00 0. -1.
        994    1    1    2    0    0 -0.59235481983E+02  0.24420715972E+02  0.27206391969E+02  0.18481028504E+03  0.17120000000E+03 0.  0.
        998    1    1    2    0    0 -0.15981626904E+01  0.41676084867E+01  0.13128570359E+04  0.13129027077E+04  0.10000000000E+02 0. -1.
</event>
<event>
 5    1  0.7732857E-009  0.3706721E+03  0.7957747E-01  0.3492808E+00
         13   -1    0    0    0    0  0.00000000000E+00  0.00000000000E+00  0.14999999963E+04  0.15000000000E+04  0.10566000000E+00 0.  1.
        994   -1    0    0    0    0 -0.00000000000E+00 -0.00000000000E+00  0.11368683772E-12  0.17120000000E+03  0.17120000000E+03 0.  0.
         13    1    1    2    0    0 -0.23791349178E+01 -0.42050143945E+02  0.74897076255E+02  0.85927050947E+02  0.10566000000E+00 0.  1.
        994    1    1    2    0    0  0.12205625313E+02  0.25059039014E+02  0.14021987606E+02  0.17402008178E+03  0.17120000000E+03 0.  0.
        998    1    1    2    0    0 -0.98264903949E+01  0.16991104932E+02  0.14110809324E+04  0.14112528673E+04  0.10000000000E+02 0.  1.
</event>
<event>
 5    1  0.7732857E-009  0.3777568E+03  0.7957747E-01  0.3460984E+00
         13   -1    0    0    0    0  0.00000000000E+00  0.00000000000E+00  0.14999999963E+04  0.15000000000E+04  0.10566000000E+00 0. -1.
        994   -1    0    0    0    0 -0.00000000000E+00 -0.00000000000E+00  0.11368683772E-12  0.17120000000E+03  0.17120000000E+03 0.  0.
         13    1    1    2    0    0  0.18410824737E+02  0.20116459322E+02  0.70922099006E+02  0.75984114751E+02  0.10566000000E+00 0. -1.
        994    1    1    2    0    0 -0.20542184102E+02  0.65881947953E+01  0.68387448527E+01  0.17268929923E+03  0.17120000000E+03 0.  0.
        998    1    1    2    0    0  0.21313593646E+01 -0.26704654118E+02  0.14222391524E+04  0.14225265860E+04  0.10000000000E+02 0. -1.
</event>
<event>
 5    1  0.7732857E-009  0.3853181E+03  0.7957747E-01  0.3428324E+00
         13   -1    0    0    0    0  0.00000000000E+00  0.00000000000E+00  0.14999999963E+04  0.15000000000E+04  0.10566000000E+00 0.  1.
        994   -1    0    0    0    0 -0.00000000000E+00 -0.00000000000E+00  0.11368683772E-12  0.17120000000E+03  0.17120000000E+03 0.  0.
         13    1    1    2    0    0 -0.29617577587E+01 -0.10491427096E+02  0.40463163531E+02  0.41906095243E+02  0.10566000000E+00 0.  1.
        994    1    1    2    0    0 -0.28176100259E+00  0.73567113891E+01  0.16503721232E+01  0.17136617029E+03  0.17120000000E+03 0.  0.
        998    1    1    2    0    0  0.32435187613E+01  0.31347157069E+01  0.14578864606E+04  0.14579277345E+04  0.10000000000E+02 0.  1.
</event>
<event>
 5    1  0.7732857E-009  0.3829730E+03  0.7957747E-01  0.3438314E+00
         13   -1    0    0    0    0  0.00000000000E+00  0.00000000000E+00  0.14999999963E+04  0.15000000000E+04  0.10566000000E+00 0.  1.
        994   -1    0    0    0    0 -0.00000000000E+00 -0.00000000000E+00  0.11368683772E-12  0.17120000000E+03  0.17120000000E+03 0.  0.
         13    1    1    2    0    0 -0.30679580890E+02  0.23340391879E+01  0.17821953342E+03  0.18085601366E+03  0.10566000000E+00 0.  1.
        994    1    1    2    0    0  0.30045601859E+02  0.59636177507E+02  0.17544439301E+02  0.18459810186E+03  0.17120000000E+03 0.  0.
        998    1    1    2    0    0  0.63397903105E+00 -0.61970216694E+02  0.13042360236E+04  0.13057458845E+04  0.10000000000E+02 0.  1.
</event>
<event>
 5    1  0.7732857E-009  0.3799818E+03  0.7957747E-01  0.3451238E+00
         13   -1    0    0    0    0  0.00000000000E+00  0.00000000000E+00  0.14999999963E+04  0.15000000000E+04  0.10566000000E+00 0.  1.
        994   -1    0    0    0    0 -0.00000000000E+00 -0.00000000000E+00  0.11368683772E-12  0.17120000000E+03  0.17120000000E+03 0.  0.
         13    1    1    2    0    0  0.19082595392E+02  0.21752757004E+00  0.41098897181E+02  0.45313610303E+02  0.10566000000E+00 0.  1.
        994    1    1    2    0    0 -0.21576868378E+02  0.37909326153E+01  0.57484687909E+01  0.17269168281E+03  0.17120000000E+03 0.  0.
        998    1    1    2    0    0  0.24942729850E+01 -0.40084601854E+01  0.14531526303E+04  0.14531947069E+04  0.10000000000E+02 0.  1.
</event>
<event>
 5    1  0.7732857E-009  0.3859504E+03  0.7957747E-01  0.3425652E+00
         13   -1    0    0    0    0  0.00000000000E+00  0.00000000000E+00  0.14999999963E+04  0.15000000000E+04  0.10566000000E+00 0.  1.
        994   -1    0    0    0    0 -0.00000000000E+00 -0.00000000000E+00  0.11368683772E-12  0.17120000000E+03  0.17120000000E+03 0.  0.
         13    1    1    2    0    0  0.32998563578E-01 -0.12414259996E+02  0.65259172044E+02  0.66429553965E+02  0.10566000000E+00 0.  1.
        994    1    1    2    0    0  0.66741932060E+00  0.12222478954E+02  0.16504290627E+01  0.17164497766E+03  0.17120000000E+03 0.  0.
        998    1    1    2    0    0 -0.70041788418E+00  0.19178104187E+00  0.14330903952E+04  0.14331254684E+04  0.10000000000E+02 0.  1.
</event>
<event>
 5    1  0.7732857E-009  0.3812758E+03  0.7957747E-01  0.3445622E+00
         13   -1    0    0    0    0  0.00000000000E+00  0.00000000000E+00  0.14999999963E+04  0.15000000000E+04  0.10566000000E+00 0. -1.
        994   -1    0    0    0    0 -0.00000000000E+00 -0.00000000000E+00  0.11368683772E-12  0.17120000000E+03  0.17120000000E+03 0.  0.
         13    1    1    2    0    0 -0.11971604883E+02  0.11098687130E+01  0.18184494683E+02  0.21799957407E+02  0.10566000000E+00 0. -1.
        994    1    1    2    0    0  0.29616352299E+02 -0.84648513661E+00  0.64182664834E+01  0.17386339179E+03  0.17120000000E+03 0.  0.
        998    1    1    2    0    0 -0.17644747416E+02 -0.26338357641E+00  0.14753972351E+04  0.14755366508E+04  0.10000000000E+02 0. -1.
</event>
<event>
 5    1  0.7732857E-009  0.3770169E+03  0.7957747E-01  0.3464251E+00
         13   -1    0    0    0    0  0.00000000000E+00  0.00000000000E+00  0.14999999963E+04  0.15000000000E+04  0.10566000000E+00 0. -1.
        994   -1    0    0    0    0 -0.00000000000E+00 -0.00000000000E+00  0.11368683772E-12  0.17120000000E+03  0.17120000000E+03 0.  0.
         13    1    1    2    0    0 -0.30086118956E+02  0.42632332417E+02  0.24033187661E+03  0.24593111311E+03  0.10566000000E+00 0. -1.
        994    1    1    2    0    0  0.20066042936E+02 -0.21642425812E+02  0.85930719678E+01  0.17393769448E+03  0.17120000000E+03 0.  0.
        998    1    1    2    0    0  0.10020076020E+02 -0.20989906605E+02  0.12510750477E+04  0.12513311924E+04  0.10000000000E+02 0. -1.
</event>
<event>
 5    1  0.7732857E-009  0.3816949E+03  0.7957747E-01  0.3443812E+00
         13   -1    0    0    0    0  0.00000000000E+00  0.00000000000E+00  0.14999999963E+04  0.15000000000E+04  0.10566000000E+00 0.  1.
        994   -1    0    0    0    0 -0.00000000000E+00 -0.00000000000E+00  0.11368683772E-12  0.17120000000E+03  0.17120000000E+03 0.  0.
         13    1    1    2    0    0  0.11802375205E+02  0.13872194809E+02  0.50088429585E+02  0.53297240000E+02  0.10566000000E+00 0.  1.
        994    1    1    2    0    0 -0.45145785488E+01 -0.76122635743E+01  0.35404462254E+01  0.17146516479E+03  0.17120000000E+03 0.  0.
        998    1    1    2    0    0 -0.72877966559E+01 -0.62599312346E+01  0.14463711205E+04  0.14464375952E+04  0.10000000000E+02 0.  1.
</event>
<event>
 5    1  0.7732857E-009  0.3850265E+03  0.7957747E-01  0.3429560E+00
         13   -1    0    0    0    0  0.00000000000E+00  0.00000000000E+00  0.14999999963E+04  0.15000000000E+04  0.10566000000E+00 0. -1.
        994   -1    0    0    0    0 -0.00000000000E+00 -0.00000000000E+00  0.11368683772E-12  0.17120000000E+03  0.17120000000E+03 0.  0.
         13    1    1    2    0    0 -0.15230178064E+02 -0.11037603982E+02  0.10547339603E+03  0.10713746058E+03  0.10566000000E+00 0. -1.
        994    1    1    2    0    0  0.16245705860E+02  0.58715012502E+01  0.25988446012E+01  0.17208890574E+03  0.17120000000E+03 0.  0.
        998    1    1    2    0    0 -0.10155277957E+01  0.51661027322E+01  0.13919277556E+04  0.13919736337E+04  0.10000000000E+02 0. -1.
</event>
<event>
 5    1  0.7732857E-009  0.3771833E+03  0.7957747E-01  0.3463516E+00
         13   -1    0    0    0    0  0.00000000000E+00  0.00000000000E+00  0.14999999963E+04  0.15000000000E+04  0.10566000000E+00 0.  1.
        994   -1    0    0    0    0 -0.00000000000E+00 -0.00000000000E+00  0.11368683772E-12  0.17120000000E+03  0.17120000000E+03 0.  0.
         13    1    1    2    0    0  0.19361635515E+02 -0.11278398861E+02  0.42405004156E+02  0.47961137937E+02  0.10566000000E+00 0.  1.
        994    1    1    2    0    0 -0.17594697672E+02  0.73108241364E+01  0.67877405382E+01  0.17239064637E+03  0.17120000000E+03 0.  0.
        998    1    1    2    0    0 -0.17669378423E+01  0.39675747245E+01  0.14508072516E+04  0.14508482157E+04  0.10000000000E+02 0.  1.
</event>
<event>
 5    1  0.7732857E-009  0.3804187E+03  0.7957747E-01  0.3449337E+00
         13   -1    0    0    0    0  0.00000000000E+00  0.00000000000E+00  0.14999999963E+04  0.15000000000E+04  0.10566000000E+00 0.  1.
        994   -1    0    0    0    0 -0.00000000000E+00 -0.00000000000E+00  0.11368683772E-12  0.17120000000E+03  0.17120000000E+03 0.  0.
         13    1    1    2    0    0  0.26075061308E+02  0.25952912196E+01  0.10396609851E+03  0.10721755996E+03  0.10566000000E+00 0.  1.
        994    1    1    2    0    0  0.17097948037E+02  0.86368345083E+01  0.51478192361E+01  0.17234521978E+03  0.17120000000E+03 0.  0.
        998    1    1    2    0    0 -0.43173009346E+02 -0.11232125728E+02  0.13908860785E+04  0.13916372203E+04  0.10000000000E+02 0.  1.
</event>
<event>
 5    1  0.7732857E-009  0.3781475E+03  0.7957747E-01  0.3459264E+00
         13   -1    0    0    0    0  0.00000000000E+00  0.00000000000E+00  0.14999999963E+04  0.15000000000E+04  0.10566000000E+00 0. -1.
        994   -1    0    0    0    0 -0.00000000000E+00 -0.00000000000E+00  0.11368683772E-12  0.17120000000E+03  0.17120000000E+03 0.  0.
         13    1    1    2    0    0  0.31538642466E+02  0.28663118593E+02  0.20719441935E+03  0.21153202809E+03  0.10566000000E+00 0. -1.
        994    1    1    2    0    0  0.38698932105E+01 -0.82626493497E+01  0.53512536394E+01  0.17152645091E+03  0.17120000000E+03 0.  0.
        998    1    1    2    0    0 -0.35408535677E+02 -0.20400469243E+02  0.12874543233E+04  0.12881415210E+04  0.10000000000E+02 0. -1.
</event>
<event>
 5    1  0.7732857E-009  0.3746815E+03  0.7957747E-01  0.3474648E+00
         13   -1    0    0    0    0  0.00000000000E+00  0.00000000000E+00  0.14999999963E+04  0.15000000000E+04  0.10566000000E+00 0. -1.
        994   -1    0    0    0    0 -0.00000000000E+00 -0.00000000000E+00  0.11368683772E-12  0.17120000000E+03  0.17120000000E+03 0.  0.
         13    1    1    2    0    0 -0.12454286468E+02 -0.56686494010E+02  0.21405412831E+03  0.22178288678E+03  0.10566000000E+00 0. -1.
        994    1    1    2    0    0  0.15594006388E+02  0.53009218991E+02  0.17303717964E+02  0.18072633729E+03  0.17120000000E+03 0.  0.
        998    1    1    2    0    0 -0.31397199197E+01  0.36772750198E+01  0.12686421500E+04  0.12686907759E+04  0.10000000000E+02 0. -1.
</event>
<event>
 5    1  0.7732857E-009  0.3729405E+03  0.7957747E-01  0.3482485E+00
         13   -1    0    0    0    0  0.00000000000E+00  0.00000000000E+00  0.14999999963E+04  0.15000000000E+04  0.10566000000E+00 0.  1.
        994   -1    0    0    0    0 -0.00000000000E+00 -0.00000000000E+00  0.11368683772E-12  0.17120000000E+03  0.17120000000E+03 0.  0.
         13    1    1    2    0    0  0.12717119346E+01 -0.10211998409E+02  0.32875082421E+01  0.10803751072E+02  0.10566000000E+00 0.  1.
        994    1    1    2    0    0 -0.71120050374E+01  0.19324782840E+01  0.79260658911E+01  0.17154176637E+03  0.17120000000E+03 0.  0.
        998    1    1    2    0    0  0.58402931029E+01  0.82795201246E+01  0.14887864221E+04  0.14888544826E+04  0.10000000000E+02 0.  1.
</event>
<event>
 5    1  0.7732857E-009  0.3816589E+03  0.7957747E-01  0.3443967E+00
         13   -1    0    0    0    0  0.00000000000E+00  0.00000000000E+00  0.14999999963E+04  0.15000000000E+04  0.10566000000E+00 0. -1.
        994   -1    0    0    0    0 -0.00000000000E+00 -0.00000000000E+00  0.11368683772E-12  0.17120000000E+03  0.17120000000E+03 0.  0.
         13    1    1    2    0    0 -0.15871542761E+02  0.15704587014E+00  0.37175962350E+02  0.40422690085E+02  0.10566000000E+00 0. -1.
        994    1    1    2    0    0  0.92664960988E+01 -0.34955533649E+01  0.36242800764E+01  0.17152452375E+03  0.17120000000E+03 0.  0.
        998    1    1    2    0    0  0.66050466624E+01  0.33385074947E+01  0.14591997539E+04  0.14592527862E+04  0.10000000000E+02 0. -1.
</event>
<event>
 5    1  0.7732857E-009  0.3730272E+03  0.7957747E-01  0.3482093E+00
         13   -1    0    0    0    0  0.00000000000E+00  0.00000000000E+00  0.14999999963E+04  0.15000000000E+04  0.10566000000E+00 0. -1.
        994   -1    0    0    0    0 -0.00000000000E+00 -0.00000000000E+00  0.11368683772E-12  0.17120000000E+03  0.17120000000E+03 0.  0.
         13    1    1    2    0    0 -0.10310793379E+02 -0.19872242310E+02  0.14083486537E+02  0.26449465620E+02  0.10566000000E+00 0. -1.
        994    1    1    2    0    0  0.15329151928E+02  0.26107404483E+02  0.15794023255E+02  0.17457225048E+03  0.17120000000E+03 0.  0.
        998    1    1    2    0    0 -0.50183585491E+01 -0.62351621722E+01  0.14701224865E+04  0.14701782839E+04  0.10000000000E+02 0. -1.
</event>
<event>
 5    1  0.7732857E-009  0.3817981E+03  0.7957747E-01  0.3443366E+00
         13   -1    0    0    0    0  0.00000000000E+00  0.00000000000E+00  0.14999999963E+04  0.15000000000E+04  0.10566000000E+00 0. -1.
        994   -1    0    0    0    0 -0.00000000000E+00 -0.00000000000E+00  0.11368683772E-12  0.17120000000E+03  0.17120000000E+03 0.  0.
         13    1    1    2    0    0  0.13438929347E+02  0.55837483786E+01  0.32680041704E+02  0.35774003938E+02  0.10566000000E+00 0. -1.
        994    1    1    2    0    0  0.30893485918E+01 -0.81527126386E+01  0.34808621773E+01  0.17145718766E+03  0.17120000000E+03 0.  0.
        998    1    1    2    0    0 -0.16528277939E+02  0.25689642600E+01  0.14638390924E+04  0.14639688084E+04  0.10000000000E+02 0. -1.
</event>
<event>
 5    1  0.1082627E-008  0.3859247E+03  0.7957747E-01  0.3425760E+00
         13   -1    0    0    0    0  0.00000000000E+00  0.00000000000E+00  0.14999999963E+04  0.15000000000E+04  0.10566000000E+00 0.  1.
        994   -1    0    0    0    0 -0.00000000000E+00 -0.00000000000E+00  0.11368683772E-12  0.17120000000E+03  0.17120000000E+03 0.  0.
         13    1    1    2    0    0  0.10023233669E+02 -0.38200719393E+01  0.47458196310E+02  0.48655418237E+02  0.10566000000E+00 0.  1.
        994    1    1    2    0    0 -0.13535750913E+02  0.45027242333E+01  0.18392218675E+01  0.17180312516E+03  0.17120000000E+03 0.  0.
        998    1    1    2    0    0  0.35125172446E+01 -0.68265229406E+00  0.14507025781E+04  0.14507414566E+04  0.10000000000E+02 0.  1.
</event>
<event>
 5    1  0.7732857E-009  0.3727576E+03  0.7957747E-01  0.3483313E+00
         13   -1    0    0    0    0  0.00000000000E+00  0.00000000000E+00  0.14999999963E+04  0.15000000000E+04  0.10566000000E+00 0. -1.
        994   -1    0    0    0    0 -0.00000000000E+00 -0.00000000000E+00  0.11368683772E-12  0.17120000000E+03  0.17120000000E+03 0.  0.
         13    1    1    2    0    0  0.21477436355E+02  0.13828244763E+02  0.20549771835E+02  0.32784217424E+02  0.10566000000E+00 0. -1.
        994    1    1    2    0    0 -0.24321905658E+02 -0.17003291863E+02  0.15519529634E+02  0.17444472715E+03  0.17120000000E+03 0.  0.
        998    1    1    2    0    0  0.28444693031E+01  0.31750470995E+01  0.14639306948E+04  0.14639710554E+04  0.10000000000E+02 0. -1.
</event>
<event>
 5    1  0.7732857E-009  0.3802935E+03  0.7957747E-01  0.3449881E+00
         13   -1    0    0    0    0  0.00000000000E+00  0.00000000000E+00  0.14999999963E+04  0.15000000000E+04  0.10566000000E+00 0. -1.
        994   -1    0    0    0    0 -0.00000000000E+00 -0.00000000000E+00  0.11368683772E-12  0.17120000000E+03  0.17120000000E+03 0.  0.
         13    1    1    2    0    0 -0.77214995876E+02  0.25249448082E+03  0.10073609760E+04  0.10413893439E+04  0.10566000000E+00 0. -1.
        994    1    1    2    0    0  0.63030013296E+02 -0.26307788304E+03  0.30863901453E+03  0.44469116970E+03  0.17120000000E+03 0.  0.
        998    1    1    2    0    0  0.14184982580E+02  0.10583402220E+02  0.18400000575E+03  0.18511948641E+03  0.10000000000E+02 0.  1.
</event>
<event>
 5    1  0.7732857E-009  0.3798689E+03  0.7957747E-01  0.3451730E+00
         13   -1    0    0    0    0  0.00000000000E+00  0.00000000000E+00  0.14999999963E+04  0.15000000000E+04  0.10566000000E+00 0. -1.
        994   -1    0    0    0    0 -0.00000000000E+00 -0.00000000000E+00  0.11368683772E-12  0.17120000000E+03  0.17120000000E+03 0.  0.
         13    1    1    2    0    0  0.17698968875E+01 -0.20014201477E+02  0.46041603077E+02  0.50234860144E+02  0.10566000000E+00 0. -1.
        994    1    1    2    0    0  0.92999537091E+01  0.16752472964E+02  0.54281397250E+01  0.17235439997E+03  0.17120000000E+03 0.  0.
        998    1    1    2    0    0 -0.11069850597E+02  0.32617285125E+01  0.14485302535E+04  0.14486107399E+04  0.10000000000E+02 0. -1.
</event>
<event>
 5    1  0.7732857E-009  0.3827088E+03  0.7957747E-01  0.3439448E+00
         13   -1    0    0    0    0  0.00000000000E+00  0.00000000000E+00  0.14999999963E+04  0.15000000000E+04  0.10566000000E+00 0.  1.
        994   -1    0    0    0    0 -0.00000000000E+00 -0.00000000000E+00  0.11368683772E-12  0.17120000000E+03  0.17120000000E+03 0.  0.
         13    1    1    2    0    0 -0.56747326936E+02 -0.18462076991E+02  0.10398792127E+03  0.11989414637E+03  0.10566000000E+00 0.  1.
        994    1    1    2    0    0  0.38833088562E+01  0.13000384707E+02  0.18497390873E+02  0.17273008875E+03  0.17120000000E+03 0.  0.
        998    1    1    2    0    0  0.52864018079E+02  0.54616922838E+01  0.13775146841E+04  0.13785757649E+04  0.10000000000E+02 0.  1.
</event>
<event>
 5    1  0.7732857E-009  0.3776882E+03  0.7957747E-01  0.3461287E+00
         13   -1    0    0    0    0  0.00000000000E+00  0.00000000000E+00  0.14999999963E+04  0.15000000000E+04  0.10566000000E+00 0. -1.
        994   -1    0    0    0    0 -0.00000000000E+00 -0.00000000000E+00  0.11368683772E-12  0.17120000000E+03  0.17120000000E+03 0.  0.
         13    1    1    2    0    0 -0.13210235697E+03 -0.81447097448E+02  0.78023685292E+03  0.79552135120E+03  0.10566000000E+00 0. -1.
        994    1    1    2    0    0  0.14035000124E+03  0.89859942222E+02  0.10542331288E+03  0.26114449441E+03  0.17120000000E+03 0.  0.
        998    1    1    2    0    0 -0.82476442697E+01 -0.84128447733E+01  0.61433983048E+03  0.61453415438E+03  0.10000000000E+02 0. -1.
</event>
<event>
 5    1  0.7732857E-009  0.3833506E+03  0.7957747E-01  0.3436698E+00
         13   -1    0    0    0    0  0.00000000000E+00  0.00000000000E+00  0.14999999963E+04  0.15000000000E+04  0.10566000000E+00 0.  1.
        994   -1    0    0    0    0 -0.00000000000E+00 -0.00000000000E+00  0.11368683772E-12  0.17120000000E+03  0.17120000000E+03 0.  0.
         13    1    1    2    0    0 -0.14962501638E+02  0.16712721168E+02  0.98607502895E+02  0.10112686238E+03  0.10566000000E+00 0.  1.
        994    1    1    2    0    0  0.14350036732E+02 -0.12946888540E+02  0.36872968406E+01  0.17232696143E+03  0.17120000000E+03 0.  0.
        998    1    1    2    0    0  0.61246490660E+00 -0.37658326280E+01  0.13977051965E+04  0.13977461762E+04  0.10000000000E+02 0.  1.
</event>
<event>
 5    1  0.7732857E-009  0.3808527E+03  0.7957747E-01  0.3447454E+00
         13   -1    0    0    0    0  0.00000000000E+00  0.00000000000E+00  0.14999999963E+04  0.15000000000E+04  0.10566000000E+00 0.  1.
        994   -1    0    0    0    0 -0.00000000000E+00 -0.00000000000E+00  0.11368683772E-12  0.17120000000E+03  0.17120000000E+03 0.  0.
         13    1    1    2    0    0 -0.13096837525E+02  0.25370708257E+01  0.22714662650E+02  0.26342569064E+02  0.10566000000E+00 0.  1.
        994    1    1    2    0    0  0.66714238880E+01  0.26656322015E+00  0.38519553259E+01  0.17137344168E+03  0.17120000000E+03 0.  0.
        998    1    1    2    0    0  0.64254136375E+01 -0.28036340459E+01  0.14734333783E+04  0.14734839893E+04  0.10000000000E+02 0.  1.
</event>
<event>
 5    1  0.7732857E-009  0.3817323E+03  0.7957747E-01  0.3443650E+00
         13   -1    0    0    0    0  0.00000000000E+00  0.00000000000E+00  0.14999999963E+04  0.15000000000E+04  0.10566000000E+00 0. -1.
        994   -1    0    0    0    0 -0.00000000000E+00 -0.00000000000E+00  0.11368683772E-12  0.17120000000E+03  0.17120000000E+03 0.  0.
         13    1    1    2    0    0 -0.77008405093E+01  0.12952250270E+02  0.33627982160E+02  0.36849912887E+02  0.10566000000E+00 0. -1.
        994    1    1    2    0    0  0.61175875482E+01 -0.80675657677E+01  0.36020713063E+01  0.17153695057E+03  0.17120000000E+03 0.  0.
        998    1    1    2    0    0  0.15832529611E+01 -0.48846845023E+01  0.14627699428E+04  0.14628131365E+04  0.10000000000E+02 0. -1.
</event>
<event>
 5    1  0.7732857E-009  0.3725421E+03  0.7957747E-01  0.3484289E+00
         13   -1    0    0    0    0  0.00000000000E+00  0.00000000000E+00  0.14999999963E+04  0.15000000000E+04  0.10566000000E+00 0.  1.
        994   -1    0    0    0    0 -0.00000000000E+00 -0.00000000000E+00  0.11368683772E-12  0.17120000000E+03  0.17120000000E+03 0.  0.
         13    1    1    2    0    0  0.39081881005E+02  0.49228321373E+02  0.22060965554E+03  0.22938930300E+03  0.10566000000E+00 0.  1.
        994    1    1    2    0    0 -0.27141592531E+02 -0.49118122385E+02  0.18819041157E+02  0.18114318177E+03  0.17120000000E+03 0.  0.
        998    1    1    2    0    0 -0.11940288474E+02 -0.11019898724E+00  0.12605712996E+04  0.12606675152E+04  0.10000000000E+02 0.  1.
</event>
<event>
 5    1  0.7732857E-009  0.3849653E+03  0.7957747E-01  0.3429820E+00
         13   -1    0    0    0    0  0.00000000000E+00  0.00000000000E+00  0.14999999963E+04  0.15000000000E+04  0.10566000000E+00 0.  1.
        994   -1    0    0    0    0 -0.00000000000E+00 -0.00000000000E+00  0.11368683772E-12  0.17120000000E+03  0.17120000000E+03 0.  0.
         13    1    1    2    0    0  0.17675646867E+02 -0.62309401386E+01  0.10748059080E+03  0.10910243659E+03  0.10566000000E+00 0.  1.
        994    1    1    2    0    0 -0.22885808705E+01  0.30516902859E+02  0.47336964712E+01  0.17397806426E+03  0.17120000000E+03 0.  0.
        998    1    1    2    0    0 -0.15387065997E+02 -0.24285962721E+02  0.13877857090E+04  0.13881194991E+04  0.10000000000E+02 0.  1.
</event>
<event>
 5    1  0.7732857E-009  0.3685038E+03  0.7957747E-01  0.3502795E+00
         13   -1    0    0    0    0  0.00000000000E+00  0.00000000000E+00  0.14999999963E+04  0.15000000000E+04  0.10566000000E+00 0. -1.
        994   -1    0    0    0    0 -0.00000000000E+00 -0.00000000000E+00  0.11368683772E-12  0.17120000000E+03  0.17120000000E+03 0.  0.
         13    1    1    2    0    0 -0.68195674612E+01  0.99336407682E+01  0.24979825237E+01  0.12305884771E+02  0.10566000000E+00 0. -1.
        994    1    1    2    0    0  0.76692099509E+01 -0.13755424148E+02  0.10915725798E+02  0.17226903826E+03  0.17120000000E+03 0.  0.
        998    1    1    2    0    0 -0.84964248968E+00  0.38217833794E+01  0.14865862880E+04  0.14866250770E+04  0.10000000000E+02 0. -1.
</event>
<event>
 5    1  0.7732857E-009  0.3773779E+03  0.7957747E-01  0.3462656E+00
         13   -1    0    0    0    0  0.00000000000E+00  0.00000000000E+00  0.14999999963E+04  0.15000000000E+04  0.10566000000E+00 0.  1.
        994   -1    0    0    0    0 -0.00000000000E+00 -0.00000000000E+00  0.11368683772E-12  0.17120000000E+03  0.17120000000E+03 0.  0.
         13    1    1    2    0    0 -0.42394083603E+01 -0.93973249322E+01  0.71786913573E+01  0.12562924531E+02  0.10566000000E+00 0.  1.
        994    1    1    2    0    0  0.77491462328E+01  0.86599850057E+01  0.59181600407E+01  0.17169597906E+03  0.17120000000E+03 0.  0.
        998    1    1    2    0    0 -0.35097378725E+01  0.73733992645E+00  0.14869031449E+04  0.14869410964E+04  0.10000000000E+02 0.  1.
</event>
<event>
 5    1  0.1052717E-008  0.3857977E+03  0.7957747E-01  0.3426296E+00
         13   -1    0    0    0    0  0.00000000000E+00  0.00000000000E+00  0.14999999963E+04  0.15000000000E+04  0.10566000000E+00 0.  1.
        994   -1    0    0    0    0 -0.00000000000E+00 -0.00000000000E+00  0.11368683772E-12  0.17120000000E+03  0.17120000000E+03 0.  0.
         13    1    1    2    0    0  0.13043296451E+02 -0.34333235365E+01  0.70709952379E+02  0.71984886068E+02  0.10566000000E+00 0.  1.
        994    1    1    2    0    0 -0.14304690647E+02  0.67889506195E+01  0.20574407101E+01  0.17194297627E+03  0.17120000000E+03 0.  0.
        998    1    1    2    0    0  0.12613941961E+01 -0.33556270830E+01  0.14272326032E+04  0.14272721377E+04  0.10000000000E+02 0.  1.
</event>
<event>
 5    1  0.7732857E-009  0.3693442E+03  0.7957747E-01  0.3498910E+00
         13   -1    0    0    0    0  0.00000000000E+00  0.00000000000E+00  0.14999999963E+04  0.15000000000E+04  0.10566000000E+00 0.  1.
        994   -1    0    0    0    0 -0.00000000000E+00 -0.00000000000E+00  0.11368683772E-12  0.17120000000E+03  0.17120000000E+03 0.  0.
         13    1    1    2    0    0 -0.35798239159E+02 -0.40748049637E+02  0.13264212006E+03  0.14330338675E+03  0.10566000000E+00 0.  1.
        994    1    1    2    0    0  0.44965493921E+02  0.43075094531E+02  0.23171978837E+02  0.18364024618E+03  0.17120000000E+03 0.  0.
        998    1    1    2    0    0 -0.91672547622E+01 -0.23270448945E+01  0.13441858974E+04  0.13442563671E+04  0.10000000000E+02 0.  1.
</event>
<event>
 5    1  0.7732857E-009  0.3843847E+03  0.7957747E-01  0.3432286E+00
         13   -1    0    0    0    0  0.00000000000E+00  0.00000000000E+00  0.14999999963E+04  0.15000000000E+04  0.10566000000E+00 0. -1.
        994   -1    0    0    0    0 -0.00000000000E+00 -0.00000000000E+00  0.11368683772E-12  0.17120000000E+03  0.17120000000E+03 0.  0.
         13    1    1    2    0    0 -0.55341269512E+01  0.92571391362E+01  0.31236311082E+02  0.33046020640E+02  0.10566000000E+00 0. -1.
        994    1    1    2    0    0 -0.85035189405E+01  0.14562390022E+01  0.21812223790E+01  0.17143111794E+03  0.17120000000E+03 0.  0.
        998    1    1    2    0    0  0.14037645892E+02 -0.10713378138E+02  0.14665824628E+04  0.14667228614E+04  0.10000000000E+02 0. -1.
</event>
<event>
 5    1  0.7732857E-009  0.3992465E+03  0.7957747E-01  0.3371411E+00
         13   -1    0    0    0    0  0.00000000000E+00  0.00000000000E+00  0.14999999963E+04  0.15000000000E+04  0.10566000000E+00 0. -1.
        994   -1    0    0    0    0 -0.00000000000E+00 -0.00000000000E+00  0.11368683772E-12  0.17120000000E+03  0.17120000000E+03 0.  0.
         13    1    1    2    0    0 -0.54798895080E+02 -0.54135605624E+01  0.44131271940E+02  0.70567739563E+02  0.10566000000E+00 0. -1.
        994    1    1    2    0    0  0.56201433446E+02  0.10469379342E+02  0.40195989331E+02  0.18491448452E+03  0.17120000000E+03 0.  0.
        998    1    1    2    0    0 -0.14025383669E+01 -0.50558187801E+01  0.14156727350E+04  0.14157177759E+04  0.10000000000E+02 0. -1.
</event>
<event>
 5    1  0.7732857E-009  0.3857066E+03  0.7957747E-01  0.3426681E+00
         13   -1    0    0    0    0  0.00000000000E+00  0.00000000000E+00  0.14999999963E+04  0.15000000000E+04  0.10566000000E+00 0.  1.
        994   -1    0    0    0    0 -0.00000000000E+00 -0.00000000000E+00  0.11368683772E-12  0.17120000000E+03  0.17120000000E+03 0.  0.
         13    1    1    2    0    0  0.14490812323E+02 -0.35326048273E+01  0.87279774786E+02  0.88545091278E+02  0.10566000000E+00 0.  1.
        994    1    1    2    0    0 -0.85135969676E+01  0.78511732635E+01  0.17199009305E+01  0.17159988437E+03  0.17120000000E+03 0.  0.
        998    1    1    2    0    0 -0.59772153559E+01 -0.43185684361E+01  0.14110003206E+04  0.14110550244E+04  0.10000000000E+02 0.  1.
</event>
<event>
 5    1  0.7732857E-009  0.3850019E+03  0.7957747E-01  0.3429664E+00
         13   -1    0    0    0    0  0.00000000000E+00  0.00000000000E+00  0.14999999963E+04  0.15000000000E+04  0.10566000000E+00 0. -1.
        994   -1    0    0    0    0 -0.00000000000E+00 -0.00000000000E+00  0.11368683772E-12  0.17120000000E+03  0.17120000000E+03 0.  0.
         13    1    1    2    0    0  0.13003810777E+02 -0.12854984890E+02  0.99879050605E+02  0.10153908432E+03  0.10566000000E+00 0. -1.
        994    1    1    2    0    0 -0.62335580222E+01  0.15401329410E+02  0.25375959000E+01  0.17202307283E+03  0.17120000000E+03 0.  0.
        998    1    1    2    0    0 -0.67702527546E+01 -0.25463445200E+01  0.13975833498E+04  0.13976378428E+04  0.10000000000E+02 0. -1.
</event>
<event>
 5    1  0.7732857E-009  0.3858517E+03  0.7957747E-01  0.3426068E+00
         13   -1    0    0    0    0  0.00000000000E+00  0.00000000000E+00  0.14999999963E+04  0.15000000000E+04  0.10566000000E+00 0. -1.
        994   -1    0    0    0    0 -0.00000000000E+00 -0.00000000000E+00  0.11368683772E-12  0.17120000000E+03  0.17120000000E+03 0.  0.
         13    1    1    2    0    0 -0.11353806460E+02 -0.44954832643E+01  0.65206212432E+02  0.66339879369E+02  0.10566000000E+00 0. -1.
        994    1    1    2    0    0  0.46224210721E+01 -0.60330479654E+01  0.13973335017E+01  0.17137431834E+03  0.17120000000E+03 0.  0.
        998    1    1    2    0    0  0.67313853884E+01  0.10528531230E+02  0.14333964503E+04  0.14334858023E+04  0.10000000000E+02 0. -1.
</event>
<event>
 5    1  0.7732857E-009  0.3845685E+03  0.7957747E-01  0.3431504E+00
         13   -1    0    0    0    0  0.00000000000E+00  0.00000000000E+00  0.14999999963E+04  0.15000000000E+04  0.10566000000E+00 0.  1.
        994   -1    0    0    0    0 -0.00000000000E+00 -0.00000000000E+00  0.11368683772E-12  0.17120000000E+03  0.17120000000E+03 0.  0.
         13    1    1    2    0    0  0.14773167888E+01 -0.18923419511E+02  0.91657233357E+02  0.93602018470E+02  0.10566000000E+00 0.  1.
        994    1    1    2    0    0 -0.31254061838E+01  0.20690024157E+02  0.32877911196E+01  0.17250534726E+03  0.17120000000E+03 0.  0.
        998    1    1    2    0    0  0.16480893950E+01 -0.17666046469E+01  0.14050549718E+04  0.14050926343E+04  0.10000000000E+02 0.  1.
</event>
<event>
 5    1  0.7732857E-009  0.3803279E+03  0.7957747E-01  0.3449732E+00
         13   -1    0    0    0    0  0.00000000000E+00  0.00000000000E+00  0.14999999963E+04  0.15000000000E+04  0.10566000000E+00 0.  1.
        994   -1    0    0    0    0 -0.00000000000E+00 -0.00000000000E+00  0.11368683772E-12  0.17120000000E+03  0.17120000000E+03 0.  0.
         13    1    1    2    0    0 -0.20715196063E+02 -0.72988676684E+01  0.59328148260E+02  0.63263205398E+02  0.10566000000E+00 0.  1.
        994    1    1    2    0    0  0.14157028176E+02  0.25784193337E+01  0.46594729502E+01  0.17186686819E+03  0.17120000000E+03 0.  0.
        998    1    1    2    0    0  0.65581678872E+01  0.47204483348E+01  0.14360123751E+04  0.14360699264E+04  0.10000000000E+02 0.  1.
</event>
<event>
 5    1  0.7732857E-009  0.3770909E+03  0.7957747E-01  0.3463924E+00
         13   -1    0    0    0    0  0.00000000000E+00  0.00000000000E+00  0.14999999963E+04  0.15000000000E+04  0.10566000000E+00 0.  1.
        994   -1    0    0    0    0 -0.00000000000E+00 -0.00000000000E+00  0.11368683772E-12  0.17120000000E+03  0.17120000000E+03 0.  0.
         13    1    1    2    0    0 -0.24169621853E+02  0.12037775700E+01  0.13465761564E+02  0.27693999341E+02  0.10566000000E+00 0.  1.
        994    1    1    2    0    0  0.20941929216E+02  0.34524840273E+00  0.16312754104E+02  0.17324615304E+03  0.17120000000E+03 0.  0.
        998    1    1    2    0    0  0.32276926369E+01 -0.15490259727E+01  0.14702214806E+04  0.14702598476E+04  0.10000000000E+02 0.  1.
</event>
<event>
 5    1  0.7732857E-009  0.3846610E+03  0.7957747E-01  0.3431111E+00
         13   -1    0    0    0    0  0.00000000000E+00  0.00000000000E+00  0.14999999963E+04  0.15000000000E+04  0.10566000000E+00 0.  1.
        994   -1    0    0    0    0 -0.00000000000E+00 -0.00000000000E+00  0.11368683772E-12  0.17120000000E+03  0.17120000000E+03 0.  0.
         13    1    1    2    0    0 -0.12114342299E+02 -0.17973172713E+02  0.12516140126E+03  0.12702432742E+03  0.10566000000E+00 0.  1.
        994    1    1    2    0    0  0.15473154800E+02  0.11836560755E+02  0.30490370682E+01  0.17233182909E+03  0.17120000000E+03 0.  0.
        998    1    1    2    0    0 -0.33588125010E+01  0.61366119575E+01  0.13717895579E+04  0.13718438435E+04  0.10000000000E+02 0.  1.
</event>
<event>
 5    1  0.7732857E-009  0.3855294E+03  0.7957747E-01  0.3427430E+00
         13   -1    0    0    0    0  0.00000000000E+00  0.00000000000E+00  0.14999999963E+04  0.15000000000E+04  0.10566000000E+00 0. -1.
        994   -1    0    0    0    0 -0.00000000000E+00 -0.00000000000E+00  0.11368683772E-12  0.17120000000E+03  0.17120000000E+03 0.  0.
         13    1    1    2    0    0 -0.33627166694E+01  0.15239116443E+02  0.90626263336E+02  0.91960150629E+02  0.10566000000E+00 0. -1.
        994    1    1    2    0    0  0.21227587593E+02 -0.48100268319E+01  0.29243847720E+01  0.17260283561E+03  0.17120000000E+03 0.  0.
        998    1    1    2    0    0 -0.17864870924E+02 -0.10429089612E+02  0.14064493482E+04  0.14066370138E+04  0.10000000000E+02 0. -1.
</event>
<event>
 5    1  0.7732857E-009  0.3693011E+03  0.7957747E-01  0.3499109E+00
         13   -1    0    0    0    0  0.00000000000E+00  0.00000000000E+00  0.14999999963E+04  0.15000000000E+04  0.10566000000E+00 0.  1.
        994   -1    0    0    0    0 -0.00000000000E+00 -0.00000000000E+00  0.11368683772E-12  0.17120000000E+03  0.17120000000E+03 0.  0.
         13    1    1    2    0    0 -0.31166242526E+02 -0.63346049895E+02  0.27341514388E+03  0.28238255750E+03  0.10566000000E+00 0.  1.
        994    1    1    2    0    0 -0.91454132690E+01  0.20676896058E+02  0.12354414136E+02  0.17312782608E+03  0.17120000000E+03 0.  0.
        998    1    1    2    0    0  0.40311655795E+02  0.42669153837E+02  0.12142304383E+04  0.12156896164E+04  0.10000000000E+02 0.  1.
</event>
<event>
 5    1  0.7732857E-009  0.3729552E+03  0.7957747E-01  0.3482419E+00
         13   -1    0    0    0    0  0.00000000000E+00  0.00000000000E+00  0.14999999963E+04  0.15000000000E+04  0.10566000000E+00 0. -1.
        994   -1    0    0    0    0 -0.00000000000E+00 -0.00000000000E+00  0.11368683772E-12  0.17120000000E+03  0.17120000000E+03 0.  0.
         13    1    1    2    0    0 -0.73602407623E+01  0.78531453434E+01  0.38925722858E+01  0.11445886549E+02  0.10566000000E+00 0. -1.
        994    1    1    2    0    0  0.68983128676E+01 -0.61452985632E+01  0.80247533136E+01  0.17163679116E+03  0.17120000000E+03 0.  0.
        998    1    1    2    0    0  0.46192789475E+00 -0.17078467802E+01  0.14880826707E+04  0.14881173223E+04  0.10000000000E+02 0. -1.
</event>
<event>
 5    1  0.7732857E-009  0.3784467E+03  0.7957747E-01  0.3457950E+00
         13   -1    0    0    0    0  0.00000000000E+00  0.00000000000E+00  0.14999999963E+04  0.15000000000E+04  0.10566000000E+00 0. -1.
        994   -1    0    0    0    0 -0.00000000000E+00 -0.00000000000E+00  0.11368683772E-12  0.17120000000E+03  0.17120000000E+03 0.  0.
         13    1    1    2    0    0 -0.16661444047E+02  0.41417820514E+01  0.27596178044E+02  0.32501050490E+02  0.10566000000E+00 0. -1.
        994    1    1    2    0    0  0.15821153127E+02 -0.35972911774E+01  0.58043479803E+01  0.17206504539E+03  0.17120000000E+03 0.  0.
        998    1    1    2    0    0  0.84029092009E+00 -0.54449087397E+00  0.14665994703E+04  0.14666339041E+04  0.10000000000E+02 0. -1.
</event>
<event>
 5    1  0.7732857E-009  0.3841519E+03  0.7957747E-01  0.3433277E+00
         13   -1    0    0    0    0  0.00000000000E+00  0.00000000000E+00  0.14999999963E+04  0.15000000000E+04  0.10566000000E+00 0.  1.
        994   -1    0    0    0    0 -0.00000000000E+00 -0.00000000000E+00  0.11368683772E-12  0.17120000000E+03  0.17120000000E+03 0.  0.
         13    1    1    2    0    0 -0.43023056769E+01  0.15543178411E+02  0.59499302039E+02  0.61646397595E+02  0.10566000000E+00 0.  1.
        994    1    1    2    0    0  0.14645356570E+02 -0.17961207724E+02  0.38249837338E+01  0.17280382505E+03  0.17120000000E+03 0.  0.
        998    1    1    2    0    0 -0.10343050893E+02  0.24180293134E+01  0.14366757105E+04  0.14367497774E+04  0.10000000000E+02 0.  1.
</event>
<event>
 5    1  0.7732857E-009  0.3783999E+03  0.7957747E-01  0.3458155E+00
         13   -1    0    0    0    0  0.00000000000E+00  0.00000000000E+00  0.14999999963E+04  0.15000000000E+04  0.10566000000E+00 0. -1.
        994   -1    0    0    0    0 -0.00000000000E+00 -0.00000000000E+00  0.11368683772E-12  0.17120000000E+03  0.17120000000E+03 0.  0.
         13    1    1    2    0    0  0.46936318901E+02  0.95664555985E+01  0.25164732003E+03  0.25616580558E+03  0.10566000000E+00 0. -1.
        994    1    1    2    0    0 -0.15816674894E+02 -0.36448122163E+01  0.58289221049E+01  0.17206646447E+03  0.17120000000E+03 0.  0.
        998    1    1    2    0    0 -0.31119644007E+02 -0.59216433822E+01  0.12425237541E+04  0.12429677300E+04  0.10000000000E+02 0. -1.
</event>
<event>
 5    1  0.7732857E-009  0.3819216E+03  0.7957747E-01  0.3442834E+00
         13   -1    0    0    0    0  0.00000000000E+00  0.00000000000E+00  0.14999999963E+04  0.15000000000E+04  0.10566000000E+00 0. -1.
        994   -1    0    0    0    0 -0.00000000000E+00 -0.00000000000E+00  0.11368683772E-12  0.17120000000E+03  0.17120000000E+03 0.  0.
         13    1    1    2    0    0  0.39712243758E+02 -0.38558335227E+02  0.27568805968E+03  0.28118983789E+03  0.10566000000E+00 0. -1.
        994    1    1    2    0    0 -0.95300843727E+02  0.39585066620E+02  0.39387758934E+02  0.20374018717E+03  0.17120000000E+03 0.  0.
        998    1    1    2    0    0  0.55588599969E+02 -0.10267313934E+01  0.11849241777E+04  0.11862699749E+04  0.10000000000E+02 0. -1.
</event>
<event>
 5    1  0.7732857E-009  0.3769565E+03  0.7957747E-01  0.3464518E+00
         13   -1    0    0    0    0  0.00000000000E+00  0.00000000000E+00  0.14999999963E+04  0.15000000000E+04  0.10566000000E+00 0.  1.
        994   -1    0    0    0    0 -0.00000000000E+00 -0.00000000000E+00  0.11368683772E-12  0.17120000000E+03  0.17120000000E+03 0.  0.
         13    1    1    2    0    0  0.85696972748E+02 -0.39870258247E+02  0.54210061427E+03  0.55027874371E+03  0.10566000000E+00 0.  1.
        994    1    1    2    0    0 -0.81366500773E+02  0.32049521990E+02  0.31955410232E+02  0.19488013637E+03  0.17120000000E+03 0.  0.
        998    1    1    2    0    0 -0.43304719756E+01  0.78207362565E+01  0.92594397178E+03  0.92604111992E+03  0.10000000000E+02 0.  1.
</event>
<event>
 5    1  0.7732857E-009  0.3793421E+03  0.7957747E-01  0.3454028E+00
         13   -1    0    0    0    0  0.00000000000E+00  0.00000000000E+00  0.14999999963E+04  0.15000000000E+04  0.10566000000E+00 0. -1.
        994   -1    0    0    0    0 -0.00000000000E+00 -0.00000000000E+00  0.11368683772E-12  0.17120000000E+03  0.17120000000E+03 0.  0.
         13    1    1    2    0    0  0.26207564500E+01  0.11595708151E+02  0.14195074564E+02  0.18515942260E+02  0.10566000000E+00 0. -1.
        994    1    1    2    0    0  0.15284851487E+02 -0.26358031835E+01  0.52720130606E+01  0.17198199983E+03  0.17120000000E+03 0.  0.
        998    1    1    2    0    0 -0.17905607937E+02 -0.89599049672E+01  0.14805329087E+04  0.14807020579E+04  0.10000000000E+02 0. -1.
</event>
<event>
 5    1  0.7732857E-009  0.3827723E+03  0.7957747E-01  0.3439175E+00
         13   -1    0    0    0    0  0.00000000000E+00  0.00000000000E+00  0.14999999963E+04  0.15000000000E+04  0.10566000000E+00 0.  1.
        994   -1    0    0    0    0 -0.00000000000E+00 -0.00000000000E+00  0.11368683772E-12  0.17120000000E+03  0.17120000000E+03 0.  0.
         13    1    1    2    0    0  0.17294728663E+02 -0.73432085430E+01  0.62853004199E+02  0.65601384529E+02  0.10566000000E+00 0.  1.
        994    1    1    2    0    0 -0.99708829037E+01  0.13760528155E+02  0.36973608718E+01  0.17208103068E+03  0.17120000000E+03 0.  0.
        998    1    1    2    0    0 -0.73238457595E+01 -0.64173196116E+01  0.14334496312E+04  0.14335175848E+04  0.10000000000E+02 0.  1.
</event>
<event>
 5    1  0.7732857E-009  0.3841430E+03  0.7957747E-01  0.3433315E+00
         13   -1    0    0    0    0  0.00000000000E+00  0.00000000000E+00  0.14999999963E+04  0.15000000000E+04  0.10566000000E+00 0. -1.
        994   -1    0    0    0    0 -0.00000000000E+00 -0.00000000000E+00  0.11368683772E-12  0.17120000000E+03  0.17120000000E+03 0.  0.
         13    1    1    2    0    0 -0.43021880806E+01 -0.97926114963E+01  0.27176227164E+02  0.29205522579E+02  0.10566000000E+00 0. -1.
        994    1    1    2    0    0  0.10552630542E+02  0.41645668772E+01  0.24807553033E+01  0.17159340248E+03  0.17120000000E+03 0.  0.
        998    1    1    2    0    0 -0.62504424614E+01  0.56280446191E+01  0.14703430138E+04  0.14704010749E+04  0.10000000000E+02 0. -1.
</event>
<event>
 5    1  0.7732857E-009  0.3847220E+03  0.7957747E-01  0.3430852E+00
         13   -1    0    0    0    0  0.00000000000E+00  0.00000000000E+00  0.14999999963E+04  0.15000000000E+04  0.10566000000E+00 0. -1.
        994   -1    0    0    0    0 -0.00000000000E+00 -0.00000000000E+00  0.11368683772E-12  0.17120000000E+03  0.17120000000E+03 0.  0.
         13    1    1    2    0    0  0.20664010612E+02 -0.59349862230E+01  0.11792849660E+03  0.11987229400E+03  0.10566000000E+00 0. -1.
        994    1    1    2    0    0 -0.25674890462E+02  0.48385043908E+01  0.40183684126E+01  0.17322874591E+03  0.17120000000E+03 0.  0.
        998    1    1    2    0    0  0.50108798505E+01  0.10964818322E+01  0.13780531313E+04  0.13780989601E+04  0.10000000000E+02 0. -1.
</event>
<event>
 5    1  0.7732857E-009  0.3834427E+03  0.7957747E-01  0.3436304E+00
         13   -1    0    0    0    0  0.00000000000E+00  0.00000000000E+00  0.14999999963E+04  0.15000000000E+04  0.10566000000E+00 0.  1.
        994   -1    0    0    0    0 -0.00000000000E+00 -0.00000000000E+00  0.11368683772E-12  0.17120000000E+03  0.17120000000E+03 0.  0.
         13    1    1    2    0    0  0.16804925965E+02 -0.88403446776E+01  0.76690576292E+02  0.79006410415E+02  0.10566000000E+00 0.  1.
        994    1    1    2    0    0 -0.35569011361E+01  0.77845393702E+01  0.26474272155E+01  0.17143424241E+03  0.17120000000E+03 0.  0.
        998    1    1    2    0    0 -0.13248024829E+02  0.10558053074E+01  0.14206619928E+04  0.14207593472E+04  0.10000000000E+02 0.  1.
</event>
<event>
 5    1  0.7732857E-009  0.2909567E+03  0.7957747E-01  0.3962773E+00
         13   -1    0    0    0    0  0.00000000000E+00  0.00000000000E+00  0.14999999963E+04  0.15000000000E+04  0.10566000000E+00 0. -1.
        994   -1    0    0    0    0 -0.00000000000E+00 -0.00000000000E+00  0.11368683772E-12  0.17120000000E+03  0.17120000000E+03 0.  0.
         13    1    1    2    0    0  0.12572783056E+02  0.17333386284E+03  0.58179195539E+03  0.60719403274E+03  0.10566000000E+00 0. -1.
        994    1    1    2    0    0 -0.67789494068E+01 -0.18260670475E+03  0.14240635535E+03  0.28806279319E+03  0.17120000000E+03 0.  0.
        998    1    1    2    0    0 -0.57938336487E+01  0.92728419112E+01  0.77580168554E+03  0.77594317407E+03  0.10000000000E+02 0.  1.
</event>
<event>
 5    1  0.7732857E-009  0.3807566E+03  0.7957747E-01  0.3447871E+00
         13   -1    0    0    0    0  0.00000000000E+00  0.00000000000E+00  0.14999999963E+04  0.15000000000E+04  0.10566000000E+00 0.  1.
        994   -1    0    0    0    0 -0.00000000000E+00 -0.00000000000E+00  0.11368683772E-12  0.17120000000E+03  0.17120000000E+03 0.  0.
         13    1    1    2    0    0 -0.41041318149E+02 -0.41076655455E+02  0.90098477265E+02  0.10718875029E+03  0.10566000000E+00 0.  1.
        994    1    1    2    0    0  0.38796384307E+02  0.41190625091E+02  0.28471079856E+02  0.18254278791E+03  0.17120000000E+03 0.  0.
        998    1    1    2    0    0  0.22449338417E+01 -0.11396963567E+00  0.13814304392E+04  0.13814684618E+04  0.10000000000E+02 0.  1.
</event>
<event>
 5    1  0.7732857E-009  0.3752534E+03  0.7957747E-01  0.3472090E+00
         13   -1    0    0    0    0  0.00000000000E+00  0.00000000000E+00  0.14999999963E+04  0.15000000000E+04  0.10566000000E+00 0.  1.
        994   -1    0    0    0    0 -0.00000000000E+00 -0.00000000000E+00  0.11368683772E-12  0.17120000000E+03  0.17120000000E+03 0.  0.
         13    1    1    2    0    0  0.25550101701E+01 -0.12586965123E+02  0.95516188151E+01  0.16006384788E+02  0.10566000000E+00 0.  1.
        994    1    1    2    0    0  0.38762382252E+01  0.14700383407E+02  0.73340212895E+01  0.17203009726E+03  0.17120000000E+03 0.  0.
        998    1    1    2    0    0 -0.64312483953E+01 -0.21134182844E+01  0.14831143562E+04  0.14831635180E+04  0.10000000000E+02 0.  1.
</event>
<event>
 5    1  0.7732857E-009  0.3783449E+03  0.7957747E-01  0.3458397E+00
         13   -1    0    0    0    0  0.00000000000E+00  0.00000000000E+00  0.14999999963E+04  0.15000000000E+04  0.10566000000E+00 0. -1.
        994   -1    0    0    0    0 -0.00000000000E+00 -0.00000000000E+00  0.11368683772E-12  0.17120000000E+03  0.17120000000E+03 0.  0.
         13    1    1    2    0    0  0.26105645617E+02  0.38080115535E+02  0.24375416765E+03  0.24808809996E+03  0.10566000000E+00 0. -1.
        994    1    1    2    0    0  0.95639678621E+01 -0.18070496942E+02  0.63772933461E+01  0.17253440878E+03  0.17120000000E+03 0.  0.
        998    1    1    2    0    0 -0.35669613479E+02 -0.20009618593E+02  0.12498685353E+04  0.12505774913E+04  0.10000000000E+02 0. -1.
</event>
<event>
 5    1  0.7732857E-009  0.3840950E+03  0.7957747E-01  0.3433519E+00
         13   -1    0    0    0    0  0.00000000000E+00  0.00000000000E+00  0.14999999963E+04  0.15000000000E+04  0.10566000000E+00 0.  1.
        994   -1    0    0    0    0 -0.00000000000E+00 -0.00000000000E+00  0.11368683772E-12  0.17120000000E+03  0.17120000000E+03 0.  0.
         13    1    1    2    0    0 -0.73882709292E+01 -0.15223543611E+02  0.67025368762E+02  0.69128532815E+02  0.10566000000E+00 0.  1.
        994    1    1    2    0    0  0.77599039500E+01  0.12511068748E+02  0.27953213151E+01  0.17185458030E+03  0.17120000000E+03 0.  0.
        998    1    1    2    0    0 -0.37163302086E+00  0.27124748631E+01  0.14301793062E+04  0.14302168869E+04  0.10000000000E+02 0.  1.
</event>
<event>
 5    1  0.1098123E-008  0.3860065E+03  0.7957747E-01  0.3425415E+00
         13   -1    0    0    0    0  0.00000000000E+00  0.00000000000E+00  0.14999999963E+04  0.15000000000E+04  0.10566000000E+00 0. -1.
        994   -1    0    0    0    0 -0.00000000000E+00 -0.00000000000E+00  0.11368683772E-12  0.17120000000E+03  0.17120000000E+03 0.  0.
         13    1    1    2    0    0 -0.19653074811E+02 -0.75978783120E+00  0.11581464031E+03  0.11747281686E+03  0.10566000000E+00 0. -1.
        994    1    1    2    0    0  0.55459956261E+02 -0.73783414633E+01  0.11460050000E+02  0.18047442871E+03  0.17120000000E+03 0.  0.
        998    1    1    2    0    0 -0.35806881449E+02  0.81381292945E+01  0.13727253060E+04  0.13732527544E+04  0.10000000000E+02 0. -1.
</event>
<event>
 5    1  0.7732857E-009  0.3721099E+03  0.7957747E-01  0.3486250E+00
         13   -1    0    0    0    0  0.00000000000E+00  0.00000000000E+00  0.14999999963E+04  0.15000000000E+04  0.10566000000E+00 0.  1.
        994   -1    0    0    0    0 -0.00000000000E+00 -0.00000000000E+00  0.11368683772E-12  0.17120000000E+03  0.17120000000E+03 0.  0.
         13    1    1    2    0    0 -0.14744552463E+02 -0.26544279441E+02  0.33063944263E+02  0.44891381941E+02  0.10566000000E+00 0.  1.
        994    1    1    2    0    0  0.12947351791E+02  0.21994983088E+02  0.14356479496E+02  0.17368638894E+03  0.17120000000E+03 0.  0.
        998    1    1    2    0    0  0.17972006718E+01  0.45492963521E+01  0.14525795725E+04  0.14526222291E+04  0.10000000000E+02 0.  1.
</event>
<event>
 5    1  0.7732857E-009  0.3836639E+03  0.7957747E-01  0.3435359E+00
         13   -1    0    0    0    0  0.00000000000E+00  0.00000000000E+00  0.14999999963E+04  0.15000000000E+04  0.10566000000E+00 0.  1.
        994   -1    0    0    0    0 -0.00000000000E+00 -0.00000000000E+00  0.11368683772E-12  0.17120000000E+03  0.17120000000E+03 0.  0.
         13    1    1    2    0    0 -0.11767400241E+02 -0.95796449760E+00  0.29616754465E+02  0.31883423805E+02  0.10566000000E+00 0.  1.
        994    1    1    2    0    0  0.86662489252E+01 -0.10169505640E+01  0.25464677609E+01  0.17144113438E+03  0.17120000000E+03 0.  0.
        998    1    1    2    0    0  0.31011513157E+01  0.19749150616E+01  0.14678367741E+04  0.14678754418E+04  0.10000000000E+02 0.  1.
</event>
<event>
 5    1  0.7732857E-009  0.4046366E+03  0.7957747E-01  0.3350434E+00
         13   -1    0    0    0    0  0.00000000000E+00  0.00000000000E+00  0.14999999963E+04  0.15000000000E+04  0.10566000000E+00 0. -1.
        994   -1    0    0    0    0 -0.00000000000E+00 -0.00000000000E+00  0.11368683772E-12  0.17120000000E+03  0.17120000000E+03 0.  0.
         13    1    1    2    0    0  0.69247507179E+02 -0.88550601714E+01  0.72127534697E+02  0.10037938915E+03  0.10566000000E+00 0. -1.
        994    1    1    2    0    0 -0.41944275096E+02 -0.17655716051E+01  0.37643197485E+02  0.18024674691E+03  0.17120000000E+03 0.  0.
        998    1    1    2    0    0 -0.27303232084E+02  0.10620631776E+02  0.13902292641E+04  0.13905738639E+04  0.10000000000E+02 0. -1.
</event>
<event>
 5    1  0.7842902E-009  0.3861358E+03  0.7957747E-01  0.3424869E+00
         13   -1    0    0    0    0  0.00000000000E+00  0.00000000000E+00  0.14999999963E+04  0.15000000000E+04  0.10566000000E+00 0. -1.
        994   -1    0    0    0    0 -0.00000000000E+00 -0.00000000000E+00  0.11368683772E-12  0.17120000000E+03  0.17120000000E+03 0.  0.
         13    1    1    2    0    0  0.82764799303E+01  0.69788914766E+01  0.53148924554E+02  0.54240431337E+02  0.10566000000E+00 0. -1.
        994    1    1    2    0    0 -0.18177875554E+02 -0.40855593795E+00  0.21512565001E+01  0.17217627590E+03  0.17120000000E+03 0.  0.
        998    1    1    2    0    0  0.99013956238E+01 -0.65703355386E+01  0.14446998152E+04  0.14447832928E+04  0.10000000000E+02 0. -1.
</event>
<event>
 5    1  0.7732857E-009  0.3772489E+03  0.7957747E-01  0.3463225E+00
         13   -1    0    0    0    0  0.00000000000E+00  0.00000000000E+00  0.14999999963E+04  0.15000000000E+04  0.10566000000E+00 0.  1.
        994   -1    0    0    0    0 -0.00000000000E+00 -0.00000000000E+00  0.11368683772E-12  0.17120000000E+03  0.17120000000E+03 0.  0.
         13    1    1    2    0    0  0.70688671617E+01 -0.11112773418E+02  0.13179995452E+02  0.18632929457E+02  0.10566000000E+00 0.  1.
        994    1    1    2    0    0 -0.66145581156E+01  0.97863811821E+01  0.59991987382E+01  0.17171184007E+03  0.17120000000E+03 0.  0.
        998    1    1    2    0    0 -0.45430904607E+00  0.13263922363E+01  0.14808208021E+04  0.14808552305E+04  0.10000000000E+02 0.  1.
</event>
<event>
 5    1  0.7732857E-009  0.3726183E+03  0.7957747E-01  0.3483944E+00
         13   -1    0    0    0    0  0.00000000000E+00  0.00000000000E+00  0.14999999963E+04  0.15000000000E+04  0.10566000000E+00 0. -1.
        994   -1    0    0    0    0 -0.00000000000E+00 -0.00000000000E+00  0.11368683772E-12  0.17120000000E+03  0.17120000000E+03 0.  0.
         13    1    1    2    0    0  0.14520748826E+02 -0.84936578968E+01  0.14178342457E+02  0.22000702939E+02  0.10566000000E+00 0. -1.
        994    1    1    2    0    0 -0.17363640206E+02  0.90378225021E+01  0.92210617078E+01  0.17256200687E+03  0.17120000000E+03 0.  0.
        998    1    1    2    0    0  0.28428913801E+01 -0.54416460530E+00  0.14766005921E+04  0.14766372902E+04  0.10000000000E+02 0. -1.
</event>
<event>
 5    1  0.7732857E-009  0.3857897E+03  0.7957747E-01  0.3426330E+00
         13   -1    0    0    0    0  0.00000000000E+00  0.00000000000E+00  0.14999999963E+04  0.15000000000E+04  0.10566000000E+00 0.  1.
        994   -1    0    0    0    0 -0.00000000000E+00 -0.00000000000E+00  0.11368683772E-12  0.17120000000E+03  0.17120000000E+03 0.  0.
         13    1    1    2    0    0 -0.61760086590E+01 -0.98351606260E+01  0.52836975739E+02  0.54098342274E+02  0.10566000000E+00 0.  1.
        994    1    1    2    0    0  0.57563677046E+01  0.12607284658E+02  0.18689076678E+01  0.17177023087E+03  0.17120000000E+03 0.  0.
        998    1    1    2    0    0  0.41964095431E+00 -0.27721240321E+01  0.14452941129E+04  0.14453314269E+04  0.10000000000E+02 0.  1.
</event>
<event>
 5    1  0.7732857E-009  0.3860785E+03  0.7957747E-01  0.3425111E+00
         13   -1    0    0    0    0  0.00000000000E+00  0.00000000000E+00  0.14999999963E+04  0.15000000000E+04  0.10566000000E+00 0. -1.
        994   -1    0    0    0    0 -0.00000000000E+00 -0.00000000000E+00  0.11368683772E-12  0.17120000000E+03  0.17120000000E+03 0.  0.
         13    1    1    2    0    0  0.66267423535E+01  0.10994905324E+02  0.76533557394E+02  0.77602823588E+02  0.10566000000E+00 0. -1.
        994    1    1    2    0    0 -0.76622058838E+01 -0.46326351129E+01  0.13583947121E+01  0.17143936521E+03  0.17120000000E+03 0.  0.
        998    1    1    2    0    0  0.10354635303E+01 -0.63622702115E+01  0.14221080442E+04  0.14221578112E+04  0.10000000000E+02 0. -1.
</event>
<event>
 5    1  0.7732857E-009  0.3837246E+03  0.7957747E-01  0.3435100E+00
         13   -1    0    0    0    0  0.00000000000E+00  0.00000000000E+00  0.14999999963E+04  0.15000000000E+04  0.10566000000E+00 0.  1.
        994   -1    0    0    0    0 -0.00000000000E+00 -0.00000000000E+00  0.11368683772E-12  0.17120000000E+03  0.17120000000E+03 0.  0.
         13    1    1    2    0    0  0.16436099217E+02  0.18094767759E+02  0.12822126588E+03  0.13053072499E+03  0.10566000000E+00 0.  1.
        994    1    1    2    0    0 -0.15498623510E+02 -0.10423199870E+02  0.34175519922E+01  0.17224973175E+03  0.17120000000E+03 0.  0.
        998    1    1    2    0    0 -0.93747570720E+00 -0.76715678893E+01  0.13683611784E+04  0.13684195433E+04  0.10000000000E+02 0.  1.
</event>
<event>
 5    1  0.7732857E-009  0.3820758E+03  0.7957747E-01  0.3442169E+00
         13   -1    0    0    0    0  0.00000000000E+00  0.00000000000E+00  0.14999999963E+04  0.15000000000E+04  0.10566000000E+00 0. -1.
        994   -1    0    0    0    0 -0.00000000000E+00 -0.00000000000E+00  0.11368683772E-12  0.17120000000E+03  0.17120000000E+03 0.  0.
         13    1    1    2    0    0  0.13221298270E+02 -0.83549918987E+00  0.27084290367E+02  0.30150799916E+02  0.10566000000E+00 0. -1.
        994    1    1    2    0    0 -0.10579579283E+02  0.70421227810E+01  0.36253731897E+01  0.17170935421E+03  0.17120000000E+03 0.  0.
        998    1    1    2    0    0 -0.26417189873E+01 -0.62066235911E+01  0.14692903327E+04  0.14693398459E+04  0.10000000000E+02 0. -1.
</event>
<event>
 5    1  0.7732857E-009  0.3792722E+03  0.7957747E-01  0.3454334E+00
         13   -1    0    0    0    0  0.00000000000E+00  0.00000000000E+00  0.14999999963E+04  0.15000000000E+04  0.10566000000E+00 0.  1.
        994   -1    0    0    0    0 -0.00000000000E+00 -0.00000000000E+00  0.11368683772E-12  0.17120000000E+03  0.17120000000E+03 0.  0.
         13    1    1    2    0    0  0.20777170789E+02 -0.37223543177E+02  0.50597272536E+02  0.66161757419E+02  0.10566000000E+00 0.  1.
        994    1    1    2    0    0 -0.19112875268E+02  0.28537805617E+02  0.20203149157E+02  0.17577632260E+03  0.17120000000E+03 0.  0.
        998    1    1    2    0    0 -0.16642955211E+01  0.86857375606E+01  0.14291995746E+04  0.14292619200E+04  0.10000000000E+02 0.  1.
</event>
<event>
 5    1  0.7732857E-009  0.3844397E+03  0.7957747E-01  0.3432052E+00
         13   -1    0    0    0    0  0.00000000000E+00  0.00000000000E+00  0.14999999963E+04  0.15000000000E+04  0.10566000000E+00 0. -1.
        994   -1    0    0    0    0 -0.00000000000E+00 -0.00000000000E+00  0.11368683772E-12  0.17120000000E+03  0.17120000000E+03 0.  0.
         13    1    1    2    0    0 -0.49617011440E+01  0.12305892319E+02  0.46199858550E+02  0.48067572833E+02  0.10566000000E+00 0. -1.
        994    1    1    2    0    0  0.48112834669E+01 -0.57583165837E+01  0.20940880049E+01  0.17137716261E+03  0.17120000000E+03 0.  0.
        998    1    1    2    0    0  0.15041767712E+00 -0.65475757355E+01  0.14517060497E+04  0.14517552646E+04  0.10000000000E+02 0. -1.
</event>
<event>
 5    1  0.7732857E-009  0.3791680E+03  0.7957747E-01  0.3454789E+00
         13   -1    0    0    0    0  0.00000000000E+00  0.00000000000E+00  0.14999999963E+04  0.15000000000E+04  0.10566000000E+00 0. -1.
        994   -1    0    0    0    0 -0.00000000000E+00 -0.00000000000E+00  0.11368683772E-12  0.17120000000E+03  0.17120000000E+03 0.  0.
         13    1    1    2    0    0 -0.37379975608E+02 -0.15040932858E+02  0.18388126016E+03  0.18824404703E+03  0.10566000000E+00 0. -1.
        994    1    1    2    0    0  0.16903363028E+02  0.49446078093E+01  0.55941652530E+01  0.17219438874E+03  0.17120000000E+03 0.  0.
        998    1    1    2    0    0  0.20476612580E+02  0.10096325048E+02  0.13105245709E+04  0.13107615642E+04  0.10000000000E+02 0. -1.
</event>
<event>
 5    1  0.7732857E-009  0.3717095E+03  0.7957747E-01  0.3488071E+00
         13   -1    0    0    0    0  0.00000000000E+00  0.00000000000E+00  0.14999999963E+04  0.15000000000E+04  0.10566000000E+00 0.  1.
        994   -1    0    0    0    0 -0.00000000000E+00 -0.00000000000E+00  0.11368683772E-12  0.17120000000E+03  0.17120000000E+03 0.  0.
         13    1    1    2    0    0 -0.44904266435E+02 -0.43540580992E+02  0.21149870878E+03  0.22055359965E+03  0.10566000000E+00 0.  1.
        994    1    1    2    0    0  0.37530437470E+02  0.36199863047E+02  0.17782981722E+02  0.17984615164E+03  0.17120000000E+03 0.  0.
        998    1    1    2    0    0  0.73738289653E+01  0.73407179449E+01  0.12707183058E+04  0.12708002487E+04  0.10000000000E+02 0.  1.
</event>
<event>
 5    1  0.7732857E-009  0.3707001E+03  0.7957747E-01  0.3492680E+00
         13   -1    0    0    0    0  0.00000000000E+00  0.00000000000E+00  0.14999999963E+04  0.15000000000E+04  0.10566000000E+00 0. -1.
        994   -1    0    0    0    0 -0.00000000000E+00 -0.00000000000E+00  0.11368683772E-12  0.17120000000E+03  0.17120000000E+03 0.  0.
         13    1    1    2    0    0  0.48494157547E+01  0.12856918200E+03  0.51133776285E+03  0.52727589578E+03  0.10566000000E+00 0. -1.
        994    1    1    2    0    0  0.40602536645E+01 -0.14164613239E+03  0.81716169882E+02  0.23678489162E+03  0.17120000000E+03 0.  0.
        998    1    1    2    0    0 -0.89096694192E+01  0.13076950385E+02  0.90694606355E+03  0.90713921260E+03  0.10000000000E+02 0. -1.
</event>
<event>
 5    1  0.7732857E-009  0.3905108E+03  0.7957747E-01  0.3406631E+00
         13   -1    0    0    0    0  0.00000000000E+00  0.00000000000E+00  0.14999999963E+04  0.15000000000E+04  0.10566000000E+00 0. -1.
        994   -1    0    0    0    0 -0.00000000000E+00 -0.00000000000E+00  0.11368683772E-12  0.17120000000E+03  0.17120000000E+03 0.  0.
         13    1    1    2    0    0  0.83075002505E+02  0.84634455218E+02  0.36186162231E+03  0.38079954295E+03  0.10566000000E+00 0. -1.
        994    1    1    2    0    0 -0.13377209925E+02 -0.48388836199E+02  0.31787614022E+02  0.18121898802E+03  0.17120000000E+03 0.  0.
        998    1    1    2    0    0 -0.69697792580E+02 -0.36245619018E+02  0.11063507599E+04  0.11091814690E+04  0.10000000000E+02 0. -1.
</event>
<event>
 5    1  0.7732857E-009  0.3709054E+03  0.7957747E-01  0.3491740E+00
         13   -1    0    0    0    0  0.00000000000E+00  0.00000000000E+00  0.14999999963E+04  0.15000000000E+04  0.10566000000E+00 0. -1.
        994   -1    0    0    0    0 -0.00000000000E+00 -0.00000000000E+00  0.11368683772E-12  0.17120000000E+03  0.17120000000E+03 0.  0.
         13    1    1    2    0    0  0.20727317329E+02 -0.23576944741E+01  0.14312106551E+02  0.25298773979E+02  0.10566000000E+00 0. -1.
        994    1    1    2    0    0 -0.90354302575E+01  0.90810761913E+00  0.11707628216E+02  0.17183996106E+03  0.17120000000E+03 0.  0.
        998    1    1    2    0    0 -0.11691887071E+02  0.14495868549E+01  0.14739802615E+04  0.14740612650E+04  0.10000000000E+02 0. -1.
</event>
<event>
 5    1  0.7732857E-009  0.3764319E+03  0.7957747E-01  0.3466843E+00
         13   -1    0    0    0    0  0.00000000000E+00  0.00000000000E+00  0.14999999963E+04  0.15000000000E+04  0.10566000000E+00 0. -1.
        994   -1    0    0    0    0 -0.00000000000E+00 -0.00000000000E+00  0.11368683772E-12  0.17120000000E+03  0.17120000000E+03 0.  0.
         13    1    1    2    0    0 -0.32051285586E+02 -0.48560843524E+02  0.29846221946E+03  0.30408082485E+03  0.10566000000E+00 0. -1.
        994    1    1    2    0    0 -0.47701517869E+01  0.35869849266E+02  0.10387563727E+02  0.17529045015E+03  0.17120000000E+03 0.  0.
        998    1    1    2    0    0  0.36821437373E+02  0.12690994258E+02  0.11911502131E+04  0.11918287250E+04  0.10000000000E+02 0. -1.
</event>
<event>
 5    1  0.7732857E-009  0.3810761E+03  0.7957747E-01  0.3446486E+00
         13   -1    0    0    0    0  0.00000000000E+00  0.00000000000E+00  0.14999999963E+04  0.15000000000E+04  0.10566000000E+00 0. -1.
        994   -1    0    0    0    0 -0.00000000000E+00 -0.00000000000E+00  0.11368683772E-12  0.17120000000E+03  0.17120000000E+03 0.  0.
         13    1    1    2    0    0 -0.15035890358E+02 -0.45346634502E+01 -0.40737529696E+00  0.15710451621E+02  0.10566000000E+00 0. -1.
        994    1    1    2    0    0  0.11687206338E+02  0.76525622362E+01  0.17629993205E+02  0.17267139069E+03  0.17120000000E+03 0.  0.
        998    1    1    2    0    0  0.33486840202E+01 -0.31178987860E+01  0.14827773784E+04  0.14828181577E+04  0.10000000000E+02 0. -1.
</event>
<event>
 5    1  0.7732857E-009  0.3825665E+03  0.7957747E-01  0.3440059E+00
         13   -1    0    0    0    0  0.00000000000E+00  0.00000000000E+00  0.14999999963E+04  0.15000000000E+04  0.10566000000E+00 0.  1.
        994   -1    0    0    0    0 -0.00000000000E+00 -0.00000000000E+00  0.11368683772E-12  0.17120000000E+03  0.17120000000E+03 0.  0.
         13    1    1    2    0    0 -0.17654884892E+02 -0.18964503914E+02  0.11471593838E+03  0.11760571861E+03  0.10566000000E+00 0.  1.
        994    1    1    2    0    0  0.56434072600E+01  0.20955837211E+02  0.44059831044E+01  0.17262632431E+03  0.17120000000E+03 0.  0.
        998    1    1    2    0    0  0.12011477632E+02 -0.19913332972E+01  0.13808780748E+04  0.13809679571E+04  0.10000000000E+02 0.  1.
</event>
<event>
 5    1  0.7732857E-009  0.3740248E+03  0.7957747E-01  0.3477596E+00
         13   -1    0    0    0    0  0.00000000000E+00  0.00000000000E+00  0.14999999963E+04  0.15000000000E+04  0.10566000000E+00 0. -1.
        994   -1    0    0    0    0 -0.00000000000E+00 -0.00000000000E+00  0.11368683772E-12  0.17120000000E+03  0.17120000000E+03 0.  0.
         13    1    1    2    0    0 -0.12515321608E+02  0.10641474906E+02  0.15854803019E+02  0.22831123624E+02  0.10566000000E+00 0. -1.
        994    1    1    2    0    0  0.72734375874E+00 -0.89698225579E+01  0.74566200109E+01  0.17159844967E+03  0.17120000000E+03 0.  0.
        998    1    1    2    0    0  0.11787977849E+02 -0.16716523480E+01  0.14766885732E+04  0.14767704267E+04  0.10000000000E+02 0. -1.
</event>
<event>
 5    1  0.7732857E-009  0.3715376E+03  0.7957747E-01  0.3488854E+00
         13   -1    0    0    0    0  0.00000000000E+00  0.00000000000E+00  0.14999999963E+04  0.15000000000E+04  0.10566000000E+00 0. -1.
        994   -1    0    0    0    0 -0.00000000000E+00 -0.00000000000E+00  0.11368683772E-12  0.17120000000E+03  0.17120000000E+03 0.  0.
         13    1    1    2    0    0  0.40958371430E+02  0.98488132015E+01  0.80339094821E+02  0.90713662876E+02  0.10566000000E+00 0. -1.
        994    1    1    2    0    0  0.79611610595E+01  0.11458602257E+02  0.12438744969E+02  0.17221742661E+03  0.17120000000E+03 0.  0.
        998    1    1    2    0    0 -0.48919532489E+02 -0.21307415459E+02  0.14072221565E+04  0.14082689105E+04  0.10000000000E+02 0. -1.
</event>
<event>
 5    1  0.7732857E-009  0.3790831E+03  0.7957747E-01  0.3455161E+00
         13   -1    0    0    0    0  0.00000000000E+00  0.00000000000E+00  0.14999999963E+04  0.15000000000E+04  0.10566000000E+00 0. -1.
        994   -1    0    0    0    0 -0.00000000000E+00 -0.00000000000E+00  0.11368683772E-12  0.17120000000E+03  0.17120000000E+03 0.  0.
         13    1    1    2    0    0 -0.64038705977E+02 -0.20442700421E+02  0.38862988508E+03  0.39440088566E+03  0.10566000000E+00 0. -1.
        994    1    1    2    0    0  0.56931980669E+02  0.23137046677E+02  0.17365796539E+02  0.18272269766E+03  0.17120000000E+03 0.  0.
        998    1    1    2    0    0  0.71067253081E+01 -0.26943462552E+01  0.10940043147E+04  0.10940764167E+04  0.10000000000E+02 0. -1.
</event>
<event>
 5    1  0.7732857E-009  0.3841517E+03  0.7957747E-01  0.3433278E+00
         13   -1    0    0    0    0  0.00000000000E+00  0.00000000000E+00  0.14999999963E+04  0.15000000000E+04  0.10566000000E+00 0. -1.
        994   -1    0    0    0    0 -0.00000000000E+00 -0.00000000000E+00  0.11368683772E-12  0.17120000000E+03  0.17120000000E+03 0.  0.
         13    1    1    2    0    0  0.46261048772E+01 -0.17877798391E+02  0.90696524182E+02  0.92557480435E+02  0.10566000000E+00 0. -1.
        994    1    1    2    0    0  0.15780507814E+02  0.27149158766E+01  0.28978692450E+01  0.17197160475E+03  0.17120000000E+03 0.  0.
        998    1    1    2    0    0 -0.20406612691E+02  0.15162882515E+02  0.14064056029E+04  0.14066709148E+04  0.10000000000E+02 0. -1.
</event>
<event>
 5    1  0.7732857E-009  0.3843387E+03  0.7957747E-01  0.3432482E+00
         13   -1    0    0    0    0  0.00000000000E+00  0.00000000000E+00  0.14999999963E+04  0.15000000000E+04  0.10566000000E+00 0.  1.
        994   -1    0    0    0    0 -0.00000000000E+00 -0.00000000000E+00  0.11368683772E-12  0.17120000000E+03  0.17120000000E+03 0.  0.
         13    1    1    2    0    0  0.64185742066E+01  0.82742288617E+01  0.26995130421E+02  0.28955296383E+02  0.10566000000E+00 0.  1.
        994    1    1    2    0    0 -0.30222707057E+01 -0.12619842574E+02  0.25140141050E+01  0.17170950706E+03  0.17120000000E+03 0.  0.
        998    1    1    2    0    0 -0.33963035008E+01  0.43456137124E+01  0.14704908518E+04  0.14705351966E+04  0.10000000000E+02 0.  1.
</event>
<event>
 5    1  0.7732857E-009  0.3859639E+03  0.7957747E-01  0.3425595E+00
         13   -1    0    0    0    0  0.00000000000E+00  0.00000000000E+00  0.14999999963E+04  0.15000000000E+04  0.10566000000E+00 0.  1.
        994   -1    0    0    0    0 -0.00000000000E+00 -0.00000000000E+00  0.11368683772E-12  0.17120000000E+03  0.17120000000E+03 0.  0.
         13    1    1    2    0    0  0.37975264022E+02  0.49026424554E+01  0.30143570478E+02  0.48731946255E+02  0.10566000000E+00 0.  1.
        994    1    1    2    0    0 -0.22727475246E+02  0.13645625352E+01  0.21565275248E+02  0.17404856006E+03  0.17120000000E+03 0.  0.
        998    1    1    2    0    0 -0.15247788776E+02 -0.62672049906E+01  0.14482911506E+04  0.14484194937E+04  0.10000000000E+02 0.  1.
</event>
<event>
 5    1  0.7732857E-009  0.3835735E+03  0.7957747E-01  0.3435745E+00
         13   -1    0    0    0    0  0.00000000000E+00  0.00000000000E+00  0.14999999963E+04  0.15000000000E+04  0.10566000000E+00 0. -1.
        994   -1    0    0    0    0 -0.00000000000E+00 -0.00000000000E+00  0.11368683772E-12  0.17120000000E+03  0.17120000000E+03 0.  0.
         13    1    1    2    0    0  0.78724142092E+01 -0.65084108975E+01  0.21048550945E+02  0.23396302674E+02  0.10566000000E+00 0. -1.
        994    1    1    2    0    0 -0.11776040581E+02  0.68394793155E+01  0.29529819973E+01  0.17176615997E+03  0.17120000000E+03 0.  0.
        998    1    1    2    0    0  0.39036263719E+01 -0.33106841803E+00  0.14759984633E+04  0.14760375374E+04  0.10000000000E+02 0. -1.
</event>
<event>
 5    1  0.7732857E-009  0.3758267E+03  0.7957747E-01  0.3469534E+00
         13   -1    0    0    0    0  0.00000000000E+00  0.00000000000E+00  0.14999999963E+04  0.15000000000E+04  0.10566000000E+00 0.  1.
        994   -1    0    0    0    0 -0.00000000000E+00 -0.00000000000E+00  0.11368683772E-12  0.17120000000E+03  0.17120000000E+03 0.  0.
         13    1    1    2    0    0  0.26685360341E+01 -0.12216722429E+02  0.95731708526E+01  0.15748846170E+02  0.10566000000E+00 0.  1.
        994    1    1    2    0    0  0.96260515564E+00  0.14688733601E+02  0.69896599201E+01  0.17197377954E+03  0.17120000000E+03 0.  0.
        998    1    1    2    0    0 -0.36311411897E+01 -0.24720111721E+01  0.14834371655E+04  0.14834773743E+04  0.10000000000E+02 0.  1.
</event>
<event>
 5    1  0.7732857E-009  0.3837057E+03  0.7957747E-01  0.3435180E+00
         13   -1    0    0    0    0  0.00000000000E+00  0.00000000000E+00  0.14999999963E+04  0.15000000000E+04  0.10566000000E+00 0. -1.
        994   -1    0    0    0    0 -0.00000000000E+00 -0.00000000000E+00  0.11368683772E-12  0.17120000000E+03  0.17120000000E+03 0.  0.
         13    1    1    2    0    0 -0.10539516878E+02  0.20454901708E+02  0.12154507233E+03  0.12370408316E+03  0.10566000000E+00 0. -1.
        994    1    1    2    0    0  0.14193879973E+02 -0.16933745328E+01  0.29491974341E+01  0.17182104502E+03  0.17120000000E+03 0.  0.
        998    1    1    2    0    0 -0.36543630949E+01 -0.18761527175E+02  0.13755057265E+04  0.13756748718E+04  0.10000000000E+02 0. -1.
</event>
<event>
 5    1  0.7732857E-009  0.3836684E+03  0.7957747E-01  0.3435339E+00
         13   -1    0    0    0    0  0.00000000000E+00  0.00000000000E+00  0.14999999963E+04  0.15000000000E+04  0.10566000000E+00 0. -1.
        994   -1    0    0    0    0 -0.00000000000E+00 -0.00000000000E+00  0.11368683772E-12  0.17120000000E+03  0.17120000000E+03 0.  0.
         13    1    1    2    0    0 -0.11576710045E+02 -0.40596405653E+01  0.32038381065E+02  0.34306995239E+02  0.10566000000E+00 0. -1.
        994    1    1    2    0    0  0.10687575228E+02 -0.26582221419E+01  0.26934150603E+01  0.17157501244E+03  0.17120000000E+03 0.  0.
        998    1    1    2    0    0  0.88913481692E+00  0.67178627072E+01  0.14652682002E+04  0.14653179923E+04  0.10000000000E+02 0. -1.
</event>
<event>
 5    1  0.7732857E-009  0.3860448E+03  0.7957747E-01  0.3425253E+00
         13   -1    0    0    0    0  0.00000000000E+00  0.00000000000E+00  0.14999999963E+04  0.15000000000E+04  0.10566000000E+00 0.  1.
        994   -1    0    0    0    0 -0.00000000000E+00 -0.00000000000E+00  0.11368683772E-12  0.17120000000E+03  0.17120000000E+03 0.  0.
         13    1    1    2    0    0 -0.88716366840E+01  0.66881975899E+01  0.55158870435E+02  0.56266775953E+02  0.10566000000E+00 0.  1.
        994    1    1    2    0    0  0.15582065490E+02  0.35488670574E+01  0.19498051904E+01  0.17195533421E+03  0.17120000000E+03 0.  0.
        998    1    1    2    0    0 -0.67104288059E+01 -0.10237064647E+02  0.14428913207E+04  0.14429778898E+04  0.10000000000E+02 0.  1.
</event>
<event>
 5    1  0.7732857E-009  0.3796565E+03  0.7957747E-01  0.3452656E+00
         13   -1    0    0    0    0  0.00000000000E+00  0.00000000000E+00  0.14999999963E+04  0.15000000000E+04  0.10566000000E+00 0. -1.
        994   -1    0    0    0    0 -0.00000000000E+00 -0.00000000000E+00  0.11368683772E-12  0.17120000000E+03  0.17120000000E+03 0.  0.
         13    1    1    2    0    0 -0.39697828693E+02 -0.22337537721E+02  0.21778648409E+03  0.22249909440E+03  0.10566000000E+00 0. -1.
        994    1    1    2    0    0  0.37765100212E+02  0.12163752241E+02  0.95929604459E+01  0.17599893339E+03  0.17120000000E+03 0.  0.
        998    1    1    2    0    0  0.19327284813E+01  0.10173785480E+02  0.12726205517E+04  0.12727019722E+04  0.10000000000E+02 0. -1.
</event>
<event>
 5    1  0.7732857E-009  0.3817861E+03  0.7957747E-01  0.3443418E+00
         13   -1    0    0    0    0  0.00000000000E+00  0.00000000000E+00  0.14999999963E+04  0.15000000000E+04  0.10566000000E+00 0. -1.
        994   -1    0    0    0    0 -0.00000000000E+00 -0.00000000000E+00  0.11368683772E-12  0.17120000000E+03  0.17120000000E+03 0.  0.
         13    1    1    2    0    0 -0.15480303991E+02  0.27274888742E-01  0.36165879419E+02  0.39339834186E+02  0.10566000000E+00 0. -1.
        994    1    1    2    0    0  0.81893630862E+01  0.45948846688E+01  0.35273220241E+01  0.17149361689E+03  0.17120000000E+03 0.  0.
        998    1    1    2    0    0  0.72909409049E+01 -0.46221595575E+01  0.14603067948E+04  0.14603665489E+04  0.10000000000E+02 0. -1.
</event>
<event>
 5    1  0.7732857E-009  0.3805332E+03  0.7957747E-01  0.3448840E+00
         13   -1    0    0    0    0  0.00000000000E+00  0.00000000000E+00  0.14999999963E+04  0.15000000000E+04  0.10566000000E+00 0.  1.
        994   -1    0    0    0    0 -0.00000000000E+00 -0.00000000000E+00  0.11368683772E-12  0.17120000000E+03  0.17120000000E+03 0.  0.
         13    1    1    2    0    0  0.13694545789E+02  0.33039450670E+02  0.18068701075E+03  0.18419270589E+03  0.10566000000E+00 0.  1.
        994    1    1    2    0    0 -0.83235371981E+01 -0.50267488077E+01  0.41798216353E+01  0.17152685033E+03  0.17120000000E+03 0.  0.
        998    1    1    2    0    0 -0.53710085912E+01 -0.28012701862E+02  0.13151331639E+04  0.13154804438E+04  0.10000000000E+02 0.  1.
</event>
<event>
 5    1  0.7732857E-009  0.3875777E+03  0.7957747E-01  0.3418813E+00
         13   -1    0    0    0    0  0.00000000000E+00  0.00000000000E+00  0.14999999963E+04  0.15000000000E+04  0.10566000000E+00 0. -1.
        994   -1    0    0    0    0 -0.00000000000E+00 -0.00000000000E+00  0.11368683772E-12  0.17120000000E+03  0.17120000000E+03 0.  0.
         13    1    1    2    0    0  0.41704234203E+02  0.61886317147E+01  0.38652058668E+02  0.57197334870E+02  0.10566000000E+00 0. -1.
        994    1    1    2    0    0  0.84044173673E+00  0.95312683161E+02  0.55273703720E+02  0.20359232853E+03  0.17120000000E+03 0.  0.
        998    1    1    2    0    0 -0.42544675940E+02 -0.10150131488E+03  0.14060742339E+04  0.14104103366E+04  0.10000000000E+02 0. -1.
</event>
<event>
 5    1  0.7732857E-009  0.3856486E+03  0.7957747E-01  0.3426926E+00
         13   -1    0    0    0    0  0.00000000000E+00  0.00000000000E+00  0.14999999963E+04  0.15000000000E+04  0.10566000000E+00 0.  1.
        994   -1    0    0    0    0 -0.00000000000E+00 -0.00000000000E+00  0.11368683772E-12  0.17120000000E+03  0.17120000000E+03 0.  0.
         13    1    1    2    0    0 -0.58322716554E+01 -0.13529334117E+02  0.79705610930E+02  0.81055868708E+02  0.10566000000E+00 0.  1.
        994    1    1    2    0    0  0.59047833069E+01  0.14490583660E+02  0.21124084491E+01  0.17192657081E+03  0.17120000000E+03 0.  0.
        998    1    1    2    0    0 -0.72511651447E-01 -0.96124954305E+00  0.14181819769E+04  0.14182175605E+04  0.10000000000E+02 0.  1.
</event>
<event>
 5    1  0.7732857E-009  0.4164799E+03  0.7957747E-01  0.3306232E+00
         13   -1    0    0    0    0  0.00000000000E+00  0.00000000000E+00  0.14999999963E+04  0.15000000000E+04  0.10566000000E+00 0.  1.
        994   -1    0    0    0    0 -0.00000000000E+00 -0.00000000000E+00  0.11368683772E-12  0.17120000000E+03  0.17120000000E+03 0.  0.
         13    1    1    2    0    0  0.49884136873E+02 -0.32971212079E+02  0.32458425580E+02  0.68037405100E+02  0.10566000000E+00 0.  1.
        994    1    1    2    0    0 -0.36778831471E+02  0.57471408262E+02  0.57850884424E+02  0.19316265177E+03  0.17120000000E+03 0.  0.
        998    1    1    2    0    0 -0.13105305402E+02 -0.24500196182E+02  0.14096906863E+04  0.14099999431E+04  0.10000000000E+02 0.  1.
</event>
<event>
 5    1  0.7732857E-009  0.3789619E+03  0.7957747E-01  0.3455691E+00
         13   -1    0    0    0    0  0.00000000000E+00  0.00000000000E+00  0.14999999963E+04  0.15000000000E+04  0.10566000000E+00 0.  1.
        994   -1    0    0    0    0 -0.00000000000E+00 -0.00000000000E+00  0.11368683772E-12  0.17120000000E+03  0.17120000000E+03 0.  0.
         13    1    1    2    0    0 -0.18489410226E+02 -0.15058879112E+02  0.58074436078E+02  0.62779609910E+02  0.10566000000E+00 0.  1.
        994    1    1    2    0    0  0.12511993719E+02  0.17557172564E+02  0.62187879895E+01  0.17266417584E+03  0.17120000000E+03 0.  0.
        998    1    1    2    0    0  0.59774165075E+01 -0.24982934520E+01  0.14357067722E+04  0.14357562142E+04  0.10000000000E+02 0.  1.
</event>
<event>
 5    1  0.7732857E-009  0.3777286E+03  0.7957747E-01  0.3461109E+00
         13   -1    0    0    0    0  0.00000000000E+00  0.00000000000E+00  0.14999999963E+04  0.15000000000E+04  0.10566000000E+00 0. -1.
        994   -1    0    0    0    0 -0.00000000000E+00 -0.00000000000E+00  0.11368683772E-12  0.17120000000E+03  0.17120000000E+03 0.  0.
         13    1    1    2    0    0  0.90829998661E+02 -0.22175572499E+02  0.36642740335E+03  0.37816781693E+03  0.10566000000E+00 0. -1.
        994    1    1    2    0    0 -0.18697859117E+02 -0.10617431228E+02  0.16748330039E+02  0.17335595271E+03  0.17120000000E+03 0.  0.
        998    1    1    2    0    0 -0.72132139544E+02  0.32793003727E+02  0.11168242629E+04  0.11196762304E+04  0.10000000000E+02 0. -1.
</event>
<event>
 5    1  0.7732857E-009  0.3857599E+03  0.7957747E-01  0.3426456E+00
         13   -1    0    0    0    0  0.00000000000E+00  0.00000000000E+00  0.14999999963E+04  0.15000000000E+04  0.10566000000E+00 0. -1.
        994   -1    0    0    0    0 -0.00000000000E+00 -0.00000000000E+00  0.11368683772E-12  0.17120000000E+03  0.17120000000E+03 0.  0.
         13    1    1    2    0    0 -0.22765658926E+02  0.78623747823E+02  0.36174228158E+03  0.37088739315E+03  0.10566000000E+00 0. -1.
        994    1    1    2    0    0 -0.84839017399E+01  0.78239208011E+02  0.42835217958E+02  0.19322951678E+03  0.17120000000E+03 0.  0.
        998    1    1    2    0    0  0.31249560666E+02 -0.15686295583E+03  0.10954224967E+04  0.11070830901E+04  0.10000000000E+02 0. -1.
</event>
<event>
 5    1  0.7732857E-009  0.3760398E+03  0.7957747E-01  0.3468585E+00
         13   -1    0    0    0    0  0.00000000000E+00  0.00000000000E+00  0.14999999963E+04  0.15000000000E+04  0.10566000000E+00 0.  1.
        994   -1    0    0    0    0 -0.00000000000E+00 -0.00000000000E+00  0.11368683772E-12  0.17120000000E+03  0.17120000000E+03 0.  0.
         13    1    1    2    0    0 -0.27296041614E+02 -0.94308104536E+01  0.64207027561E+02  0.70402895010E+02  0.10566000000E+00 0.  1.
        994    1    1    2    0    0  0.25744748008E+02 -0.44048889192E+00  0.83947382163E+01  0.17332887154E+03  0.17120000000E+03 0.  0.
        998    1    1    2    0    0  0.15512936056E+01  0.98712993455E+01  0.14273982305E+04  0.14274682334E+04  0.10000000000E+02 0.  1.
</event>
<event>
 5    1  0.7732857E-009  0.3731844E+03  0.7957747E-01  0.3481383E+00
         13   -1    0    0    0    0  0.00000000000E+00  0.00000000000E+00  0.14999999963E+04  0.15000000000E+04  0.10566000000E+00 0. -1.
        994   -1    0    0    0    0 -0.00000000000E+00 -0.00000000000E+00  0.11368683772E-12  0.17120000000E+03  0.17120000000E+03 0.  0.
         13    1    1    2    0    0 -0.80928635906E+01  0.21985091354E+02  0.32993785541E+02  0.40465290451E+02  0.10566000000E+00 0. -1.
        994    1    1    2    0    0 -0.26872826501E+02 -0.25701098571E+02  0.12357808015E+02  0.17562702153E+03  0.17120000000E+03 0.  0.
        998    1    1    2    0    0  0.34965690092E+02  0.37160072162E+01  0.14546484027E+04  0.14551076880E+04  0.10000000000E+02 0. -1.
</event>
<event>
 5    1  0.7732857E-009  0.3788612E+03  0.7957747E-01  0.3456132E+00
         13   -1    0    0    0    0  0.00000000000E+00  0.00000000000E+00  0.14999999963E+04  0.15000000000E+04  0.10566000000E+00 0.  1.
        994   -1    0    0    0    0 -0.00000000000E+00 -0.00000000000E+00  0.11368683772E-12  0.17120000000E+03  0.17120000000E+03 0.  0.
         13    1    1    2    0    0  0.18012367185E+02  0.18233252585E+02  0.81105864467E+02  0.85059210474E+02  0.10566000000E+00 0.  1.
        994    1    1    2    0    0  0.10028269965E+02  0.22419032722E+02  0.67357592658E+01  0.17308376492E+03  0.17120000000E+03 0.  0.
        998    1    1    2    0    0 -0.28040637149E+02 -0.40652285307E+02  0.14121583725E+04  0.14130570246E+04  0.10000000000E+02 0.  1.
</event>
<event>
 5    1  0.7732857E-009  0.3816211E+03  0.7957747E-01  0.3444130E+00
         13   -1    0    0    0    0  0.00000000000E+00  0.00000000000E+00  0.14999999963E+04  0.15000000000E+04  0.10566000000E+00 0.  1.
        994   -1    0    0    0    0 -0.00000000000E+00 -0.00000000000E+00  0.11368683772E-12  0.17120000000E+03  0.17120000000E+03 0.  0.
         13    1    1    2    0    0  0.15597501914E+02 -0.16608284202E+02  0.78086168241E+02  0.81342350622E+02  0.10566000000E+00 0.  1.
        994    1    1    2    0    0  0.86563021344E+01  0.25028131300E+02  0.56525505309E+01  0.17332838847E+03  0.17120000000E+03 0.  0.
        998    1    1    2    0    0 -0.24253804049E+02 -0.84198470978E+01  0.14162612775E+04  0.14165292609E+04  0.10000000000E+02 0.  1.
</event>
<event>
 5    1  0.7732857E-009  0.3706231E+03  0.7957747E-01  0.3493032E+00
         13   -1    0    0    0    0  0.00000000000E+00  0.00000000000E+00  0.14999999963E+04  0.15000000000E+04  0.10566000000E+00 0.  1.
        994   -1    0    0    0    0 -0.00000000000E+00 -0.00000000000E+00  0.11368683772E-12  0.17120000000E+03  0.17120000000E+03 0.  0.
         13    1    1    2    0    0  0.54360493242E+02 -0.25358969538E+02  0.17472344881E+03  0.18473341682E+03  0.10566000000E+00 0.  1.
        994    1    1    2    0    0 -0.64712113321E+02  0.68125811808E+01  0.23697235415E+02  0.18467557456E+03  0.17120000000E+03 0.  0.
        998    1    1    2    0    0  0.10351620078E+02  0.18546388357E+02  0.13015793121E+04  0.13017910086E+04  0.10000000000E+02 0.  1.
</event>
<event>
 5    1  0.7732857E-009  0.3777048E+03  0.7957747E-01  0.3461214E+00
         13   -1    0    0    0    0  0.00000000000E+00  0.00000000000E+00  0.14999999963E+04  0.15000000000E+04  0.10566000000E+00 0.  1.
        994   -1    0    0    0    0 -0.00000000000E+00 -0.00000000000E+00  0.11368683772E-12  0.17120000000E+03  0.17120000000E+03 0.  0.
         13    1    1    2    0    0 -0.69362694709E+01  0.40772863075E+02  0.12298455987E+03  0.12975265441E+03  0.10566000000E+00 0.  1.
        994    1    1    2    0    0 -0.29532119775E+00 -0.77801859148E+02  0.25965560047E+02  0.18983378732E+03  0.17120000000E+03 0.  0.
        998    1    1    2    0    0  0.72315906686E+01  0.37028996073E+02  0.13510498764E+04  0.13516135583E+04  0.10000000000E+02 0.  1.
</event>
<event>
 5    1  0.7732857E-009  0.3968343E+03  0.7957747E-01  0.3380981E+00
         13   -1    0    0    0    0  0.00000000000E+00  0.00000000000E+00  0.14999999963E+04  0.15000000000E+04  0.10566000000E+00 0.  1.
        994   -1    0    0    0    0 -0.00000000000E+00 -0.00000000000E+00  0.11368683772E-12  0.17120000000E+03  0.17120000000E+03 0.  0.
         13    1    1    2    0    0 -0.35635656412E+02  0.17828915534E+02  0.21029935859E+02  0.45055960796E+02  0.10566000000E+00 0.  1.
        994    1    1    2    0    0  0.17215751952E+02 -0.16431840987E+02  0.28092343791E+02  0.17511426924E+03  0.17120000000E+03 0.  0.
        998    1    1    2    0    0  0.18419904460E+02 -0.13970745464E+01  0.14508777166E+04  0.14510297700E+04  0.10000000000E+02 0.  1.
</event>
<event>
 5    1  0.7732857E-009  0.3692501E+03  0.7957747E-01  0.3499344E+00
         13   -1    0    0    0    0  0.00000000000E+00  0.00000000000E+00  0.14999999963E+04  0.15000000000E+04  0.10566000000E+00 0. -1.
        994   -1    0    0    0    0 -0.00000000000E+00 -0.00000000000E+00  0.11368683772E-12  0.17120000000E+03  0.17120000000E+03 0.  0.
         13    1    1    2    0    0 -0.46308778071E+02  0.72170642339E+02  0.35507658227E+03  0.36528412912E+03  0.10566000000E+00 0. -1.
        994    1    1    2    0    0  0.38491315302E+01 -0.52685531960E+02  0.20337247455E+02  0.18031534800E+03  0.17120000000E+03 0.  0.
        998    1    1    2    0    0  0.42459646541E+02 -0.19485110379E+02  0.11245861665E+04  0.11256005229E+04  0.10000000000E+02 0. -1.
</event>
<event>
 5    1  0.7732857E-009  0.3689136E+03  0.7957747E-01  0.3500899E+00
         13   -1    0    0    0    0  0.00000000000E+00  0.00000000000E+00  0.14999999963E+04  0.15000000000E+04  0.10566000000E+00 0.  1.
        994   -1    0    0    0    0 -0.00000000000E+00 -0.00000000000E+00  0.11368683772E-12  0.17120000000E+03  0.17120000000E+03 0.  0.
         13    1    1    2    0    0  0.47040203639E+02  0.14996902212E+02  0.13548706840E+03  0.14420279020E+03  0.10566000000E+00 0.  1.
        994    1    1    2    0    0  0.36955275270E+01 -0.20938545092E+02  0.11408628386E+02  0.17289209466E+03  0.17120000000E+03 0.  0.
        998    1    1    2    0    0 -0.50735731166E+02  0.59416428800E+01  0.13531042995E+04  0.13541051151E+04  0.10000000000E+02 0.  1.
</event>
<event>
 5    1  0.7732857E-009  0.3717476E+03  0.7957747E-01  0.3487897E+00
         13   -1    0    0    0    0  0.00000000000E+00  0.00000000000E+00  0.14999999963E+04  0.15000000000E+04  0.10566000000E+00 0.  1.
        994   -1    0    0    0    0 -0.00000000000E+00 -0.00000000000E+00  0.11368683772E-12  0.17120000000E+03  0.17120000000E+03 0.  0.
         13    1    1    2    0    0  0.53787387865E+01  0.12600493651E+02  0.24397804416E+01  0.13916427840E+02  0.10566000000E+00 0.  1.
        994    1    1    2    0    0 -0.41259230836E+01 -0.11744998826E+02  0.12411188894E+02  0.17210010415E+03  0.17120000000E+03 0.  0.
        998    1    1    2    0    0 -0.12528157029E+01 -0.85549482530E+00  0.14851490269E+04  0.14851834680E+04  0.10000000000E+02 0.  1.
</event>
<event>
 5    1  0.7732857E-009  0.3789729E+03  0.7957747E-01  0.3455643E+00
         13   -1    0    0    0    0  0.00000000000E+00  0.00000000000E+00  0.14999999963E+04  0.15000000000E+04  0.10566000000E+00 0. -1.
        994   -1    0    0    0    0 -0.00000000000E+00 -0.00000000000E+00  0.11368683772E-12  0.17120000000E+03  0.17120000000E+03 0.  0.
         13    1    1    2    0    0  0.81405148271E+02 -0.73817291008E+02  0.42490619598E+03  0.43888617791E+03  0.10566000000E+00 0. -1.
        994    1    1    2    0    0 -0.29782026622E+02  0.37953051209E+02  0.24213820881E+02  0.17950808430E+03  0.17120000000E+03 0.  0.
        998    1    1    2    0    0 -0.51623121649E+02  0.35864239798E+02  0.10508799794E+04  0.10528057378E+04  0.10000000000E+02 0. -1.
</event>
<event>
 5    1  0.7732857E-009  0.3757369E+03  0.7957747E-01  0.3469934E+00
         13   -1    0    0    0    0  0.00000000000E+00  0.00000000000E+00  0.14999999963E+04  0.15000000000E+04  0.10566000000E+00 0. -1.
        994   -1    0    0    0    0 -0.00000000000E+00 -0.00000000000E+00  0.11368683772E-12  0.17120000000E+03  0.17120000000E+03 0.  0.
         13    1    1    2    0    0 -0.10457559772E+02  0.18747907495E+03  0.98944354072E+03  0.10071029220E+04  0.10566000000E+00 0. -1.
        994    1    1    2    0    0 -0.35311415919E+02 -0.19137767822E+03  0.14793312703E+03  0.29843920970E+03  0.17120000000E+03 0.  0.
        998    1    1    2    0    0  0.45768975690E+02  0.38986032614E+01  0.36262332853E+03  0.36565786828E+03  0.10000000000E+02 0. -1.
</event>
<event>
 5    1  0.7732857E-009  0.3852690E+03  0.7957747E-01  0.3428532E+00
         13   -1    0    0    0    0  0.00000000000E+00  0.00000000000E+00  0.14999999963E+04  0.15000000000E+04  0.10566000000E+00 0. -1.
        994   -1    0    0    0    0 -0.00000000000E+00 -0.00000000000E+00  0.11368683772E-12  0.17120000000E+03  0.17120000000E+03 0.  0.
         13    1    1    2    0    0  0.13610915001E+02 -0.65222478559E+01  0.80576923798E+02  0.81978341878E+02  0.10566000000E+00 0. -1.
        994    1    1    2    0    0 -0.60835934989E+01 -0.65632819350E+01  0.17598258696E+01  0.17144277111E+03  0.17120000000E+03 0.  0.
        998    1    1    2    0    0 -0.75273215019E+01  0.13085529791E+02  0.14176632466E+04  0.14177788870E+04  0.10000000000E+02 0. -1.
</event>
<event>
 5    1  0.7732857E-009  0.3760109E+03  0.7957747E-01  0.3468714E+00
         13   -1    0    0    0    0  0.00000000000E+00  0.00000000000E+00  0.14999999963E+04  0.15000000000E+04  0.10566000000E+00 0. -1.
        994   -1    0    0    0    0 -0.00000000000E+00 -0.00000000000E+00  0.11368683772E-12  0.17120000000E+03  0.17120000000E+03 0.  0.
         13    1    1    2    0    0 -0.73431531114E+02  0.32688211344E+02  0.43425098748E+03  0.44162726389E+03  0.10566000000E+00 0. -1.
        994    1    1    2    0    0  0.69869595982E+02 -0.58774785417E+01  0.23001311910E+02  0.18642640786E+03  0.17120000000E+03 0.  0.
        998    1    1    2    0    0  0.35619351318E+01 -0.26810732802E+02  0.10427476969E+04  0.10431463283E+04  0.10000000000E+02 0. -1.
</event>
<event>
 5    1  0.7732857E-009  0.3845288E+03  0.7957747E-01  0.3431673E+00
         13   -1    0    0    0    0  0.00000000000E+00  0.00000000000E+00  0.14999999963E+04  0.15000000000E+04  0.10566000000E+00 0.  1.
        994   -1    0    0    0    0 -0.00000000000E+00 -0.00000000000E+00  0.11368683772E-12  0.17120000000E+03  0.17120000000E+03 0.  0.
         13    1    1    2    0    0  0.20577653655E+02  0.11464519120E+02  0.13515126379E+03  0.13718873969E+03  0.10566000000E+00 0.  1.
        994    1    1    2    0    0 -0.23378975113E+02 -0.10677441705E+02  0.40430569646E+01  0.17316573145E+03  0.17120000000E+03 0.  0.
        998    1    1    2    0    0  0.28013214576E+01 -0.78707741505E+00  0.13608056755E+04  0.13608455289E+04  0.10000000000E+02 0.  1.
</event>
<event>
 5    1  0.7732857E-009  0.2434263E+03  0.7957747E-01  0.4406500E+00
         13   -1    0    0    0    0  0.00000000000E+00  0.00000000000E+00  0.14999999963E+04  0.15000000000E+04  0.10566000000E+00 0.  1.
        994   -1    0    0    0    0 -0.00000000000E+00 -0.00000000000E+00  0.11368683772E-12  0.17120000000E+03  0.17120000000E+03 0.  0.
         13    1    1    2    0    0 -0.15193040880E+03  0.49055492561E+02  0.24199014983E+03  0.28991125236E+03  0.10566000000E+00 0.  1.
        994    1    1    2    0    0  0.16644266402E+03 -0.50053563098E+02  0.18011172184E+03  0.30324609137E+03  0.17120000000E+03 0.  0.
        998    1    1    2    0    0 -0.14512255228E+02  0.99807053729E+00  0.10778981246E+04  0.10780426563E+04  0.10000000000E+02 0.  0.
</event>
<event>
 5    1  0.7732857E-009  0.3844742E+03  0.7957747E-01  0.3431905E+00
         13   -1    0    0    0    0  0.00000000000E+00  0.00000000000E+00  0.14999999963E+04  0.15000000000E+04  0.10566000000E+00 0.  1.
        994   -1    0    0    0    0 -0.00000000000E+00 -0.00000000000E+00  0.11368683772E-12  0.17120000000E+03  0.17120000000E+03 0.  0.
         13    1    1    2    0    0  0.83213501516E+01  0.14265860084E+02  0.83779811696E+02  0.85392198965E+02  0.10566000000E+00 0.  1.
        994    1    1    2    0    0  0.55602743986E+01  0.10103629424E+02  0.23296801460E+01  0.17160380936E+03  0.17120000000E+03 0.  0.
        998    1    1    2    0    0 -0.13881624550E+02 -0.24369489508E+02  0.14138905044E+04  0.14142039917E+04  0.10000000000E+02 0.  1.
</event>
<event>
 5    1  0.7732857E-009  0.3837857E+03  0.7957747E-01  0.3434839E+00
         13   -1    0    0    0    0  0.00000000000E+00  0.00000000000E+00  0.14999999963E+04  0.15000000000E+04  0.10566000000E+00 0.  1.
        994   -1    0    0    0    0 -0.00000000000E+00 -0.00000000000E+00  0.11368683772E-12  0.17120000000E+03  0.17120000000E+03 0.  0.
         13    1    1    2    0    0  0.10163790138E+02  0.17001992192E+02  0.96563355592E+02  0.98574150646E+02  0.10566000000E+00 0.  1.
        994    1    1    2    0    0 -0.48693977163E+01  0.55588546753E+01  0.24145483707E+01  0.17137643345E+03  0.17120000000E+03 0.  0.
        998    1    1    2    0    0 -0.52943924221E+01 -0.22560846867E+02  0.14010220923E+04  0.14012494159E+04  0.10000000000E+02 0.  1.
</event>
<event>
 5    1  0.7849960E-009  0.3861206E+03  0.7957747E-01  0.3424933E+00
         13   -1    0    0    0    0  0.00000000000E+00  0.00000000000E+00  0.14999999963E+04  0.15000000000E+04  0.10566000000E+00 0. -1.
        994   -1    0    0    0    0 -0.00000000000E+00 -0.00000000000E+00  0.11368683772E-12  0.17120000000E+03  0.17120000000E+03 0.  0.
         13    1    1    2    0    0  0.94944005154E+01 -0.40392034816E+01  0.48303375580E+02  0.49393178298E+02  0.10566000000E+00 0. -1.
        994    1    1    2    0    0 -0.13413226000E+02  0.12206876841E+01  0.16694156537E+01  0.17173710041E+03  0.17120000000E+03 0.  0.
        998    1    1    2    0    0  0.39188254846E+01  0.28185157975E+01  0.14500272050E+04  0.14500697213E+04  0.10000000000E+02 0. -1.
</event>
<event>
 5    1  0.7732857E-009  0.3853215E+03  0.7957747E-01  0.3428310E+00
         13   -1    0    0    0    0  0.00000000000E+00  0.00000000000E+00  0.14999999963E+04  0.15000000000E+04  0.10566000000E+00 0. -1.
        994   -1    0    0    0    0 -0.00000000000E+00 -0.00000000000E+00  0.11368683772E-12  0.17120000000E+03  0.17120000000E+03 0.  0.
         13    1    1    2    0    0 -0.78093847910E+01 -0.15658495169E+02  0.10290739717E+03  0.10438447450E+03  0.10566000000E+00 0. -1.
        994    1    1    2    0    0  0.17622917034E+02  0.59905144465E+01  0.26096076965E+01  0.17222863734E+03  0.17120000000E+03 0.  0.
        998    1    1    2    0    0 -0.98135322433E+01  0.96679807225E+01  0.13944829914E+04  0.13945868882E+04  0.10000000000E+02 0. -1.
</event>
<event>
 5    1  0.7732857E-009  0.3687168E+03  0.7957747E-01  0.3501809E+00
         13   -1    0    0    0    0  0.00000000000E+00  0.00000000000E+00  0.14999999963E+04  0.15000000000E+04  0.10566000000E+00 0. -1.
        994   -1    0    0    0    0 -0.00000000000E+00 -0.00000000000E+00  0.11368683772E-12  0.17120000000E+03  0.17120000000E+03 0.  0.
         13    1    1    2    0    0 -0.73536690866E+02  0.77468018188E+01  0.22670868904E+03  0.23846278262E+03  0.10566000000E+00 0. -1.
        994    1    1    2    0    0  0.76837751970E+02 -0.66133658266E+01  0.30892616254E+02  0.19029338001E+03  0.17120000000E+03 0.  0.
        998    1    1    2    0    0 -0.33010611040E+01 -0.11334359922E+01  0.12423986910E+04  0.12424438374E+04  0.10000000000E+02 0. -1.
</event>
<event>
 5    1  0.7732857E-009  0.3781077E+03  0.7957747E-01  0.3459440E+00
         13   -1    0    0    0    0  0.00000000000E+00  0.00000000000E+00  0.14999999963E+04  0.15000000000E+04  0.10566000000E+00 0. -1.
        994   -1    0    0    0    0 -0.00000000000E+00 -0.00000000000E+00  0.11368683772E-12  0.17120000000E+03  0.17120000000E+03 0.  0.
         13    1    1    2    0    0 -0.82544656683E+02 -0.80822296060E+02  0.58637988743E+03  0.59765144309E+03  0.10566000000E+00 0. -1.
        994    1    1    2    0    0  0.80419983591E+02  0.11294577157E+03  0.72752340746E+02  0.23200531063E+03  0.17120000000E+03 0.  0.
        998    1    1    2    0    0  0.21246730919E+01 -0.32123475513E+02  0.84086776811E+03  0.84154324628E+03  0.10000000000E+02 0. -1.
</event>
<event>
 5    1  0.7732857E-009  0.3839960E+03  0.7957747E-01  0.3433941E+00
         13   -1    0    0    0    0  0.00000000000E+00  0.00000000000E+00  0.14999999963E+04  0.15000000000E+04  0.10566000000E+00 0.  1.
        994   -1    0    0    0    0 -0.00000000000E+00 -0.00000000000E+00  0.11368683772E-12  0.17120000000E+03  0.17120000000E+03 0.  0.
         13    1    1    2    0    0  0.22706707011E+02 -0.53381800873E+00  0.12219397790E+03  0.12428700216E+03  0.10566000000E+00 0.  1.
        994    1    1    2    0    0 -0.12586469387E+02 -0.56550745721E+01  0.27578617000E+01  0.17177731189E+03  0.17120000000E+03 0.  0.
        998    1    1    2    0    0 -0.10120237624E+02  0.61888925809E+01  0.13750481567E+04  0.13751356859E+04  0.10000000000E+02 0.  1.
</event>
<event>
 5    1  0.7732857E-009  0.3780210E+03  0.7957747E-01  0.3459821E+00
         13   -1    0    0    0    0  0.00000000000E+00  0.00000000000E+00  0.14999999963E+04  0.15000000000E+04  0.10566000000E+00 0. -1.
        994   -1    0    0    0    0 -0.00000000000E+00 -0.00000000000E+00  0.11368683772E-12  0.17120000000E+03  0.17120000000E+03 0.  0.
         13    1    1    2    0    0  0.82556508231E+02  0.13022093364E+03  0.88682093158E+03  0.90012468273E+03  0.10566000000E+00 0. -1.
        994    1    1    2    0    0 -0.65039138982E+02 -0.14031708140E+03  0.90370884359E+02  0.24778076938E+03  0.17120000000E+03 0.  0.
        998    1    1    2    0    0 -0.17517369249E+02  0.10096147766E+02  0.52280818034E+03  0.52329454789E+03  0.10000000000E+02 0. -1.
</event>
<event>
 5    1  0.7732857E-009  0.3806054E+03  0.7957747E-01  0.3448527E+00
         13   -1    0    0    0    0  0.00000000000E+00  0.00000000000E+00  0.14999999963E+04  0.15000000000E+04  0.10566000000E+00 0.  1.
        994   -1    0    0    0    0 -0.00000000000E+00 -0.00000000000E+00  0.11368683772E-12  0.17120000000E+03  0.17120000000E+03 0.  0.
         13    1    1    2    0    0  0.13464354411E+02  0.44420819133E+01  0.24591298549E+02  0.28385983509E+02  0.10566000000E+00 0.  1.
        994    1    1    2    0    0 -0.11166280364E+02 -0.31326748893E+01  0.42766971711E+01  0.17164565129E+03  0.17120000000E+03 0.  0.
        998    1    1    2    0    0 -0.22980740469E+01 -0.13094070240E+01  0.14711320006E+04  0.14711683652E+04  0.10000000000E+02 0.  0.
</event>
<event>
 5    1  0.7732857E-009  0.3766703E+03  0.7957747E-01  0.3465786E+00
         13   -1    0    0    0    0  0.00000000000E+00  0.00000000000E+00  0.14999999963E+04  0.15000000000E+04  0.10566000000E+00 0.  1.
        994   -1    0    0    0    0 -0.00000000000E+00 -0.00000000000E+00  0.11368683772E-12  0.17120000000E+03  0.17120000000E+03 0.  0.
         13    1    1    2    0    0  0.47553876439E+01 -0.20591414322E+02  0.35181636508E+02  0.41041183790E+02  0.10566000000E+00 0.  1.
        994    1    1    2    0    0 -0.25500540736E+01  0.22118372905E+02  0.75009190084E+01  0.17280459769E+03  0.17120000000E+03 0.  0.
        998    1    1    2    0    0 -0.22053335702E+01 -0.15269585830E+01  0.14573174408E+04  0.14573542185E+04  0.10000000000E+02 0.  1.
</event>
<event>
 5    1  0.7732857E-009  0.3702949E+03  0.7957747E-01  0.3494537E+00
         13   -1    0    0    0    0  0.00000000000E+00  0.00000000000E+00  0.14999999963E+04  0.15000000000E+04  0.10566000000E+00 0. -1.
        994   -1    0    0    0    0 -0.00000000000E+00 -0.00000000000E+00  0.11368683772E-12  0.17120000000E+03  0.17120000000E+03 0.  0.
         13    1    1    2    0    0 -0.15863290308E+02  0.10375095799E+02  0.14961466692E+02  0.24148358989E+02  0.10566000000E+00 0. -1.
        994    1    1    2    0    0  0.41300610866E+02  0.12929470762E+00  0.15030006012E+02  0.17675151557E+03  0.17120000000E+03 0.  0.
        998    1    1    2    0    0 -0.25437320557E+02 -0.10504390506E+02  0.14700085236E+04  0.14703001254E+04  0.10000000000E+02 0. -1.
</event>
<event>
 5    1  0.7732857E-009  0.3149010E+03  0.7957747E-01  0.3795066E+00
         13   -1    0    0    0    0  0.00000000000E+00  0.00000000000E+00  0.14999999963E+04  0.15000000000E+04  0.10566000000E+00 0.  1.
        994   -1    0    0    0    0 -0.00000000000E+00 -0.00000000000E+00  0.11368683772E-12  0.17120000000E+03  0.17120000000E+03 0.  0.
         13    1    1    2    0    0  0.62340580360E+02  0.19987509881E+03  0.93480653648E+03  0.95796642681E+03  0.10566000000E+00 0.  1.
        994    1    1    2    0    0 -0.26225787890E+02 -0.97187290830E+02  0.77088531179E+02  0.21303812590E+03  0.17120000000E+03 0.  0.
        998    1    1    2    0    0 -0.36114792470E+02 -0.10268780798E+03  0.48810492862E+03  0.50019544729E+03  0.10000000000E+02 0. -1.
</event>
<event>
 5    1  0.7732857E-009  0.3949233E+03  0.7957747E-01  0.3388646E+00
         13   -1    0    0    0    0  0.00000000000E+00  0.00000000000E+00  0.14999999963E+04  0.15000000000E+04  0.10566000000E+00 0. -1.
        994   -1    0    0    0    0 -0.00000000000E+00 -0.00000000000E+00  0.11368683772E-12  0.17120000000E+03  0.17120000000E+03 0.  0.
         13    1    1    2    0    0  0.50024509712E+02  0.29285203707E+01  0.40443285647E+02  0.64394862539E+02  0.10566000000E+00 0. -1.
        994    1    1    2    0    0 -0.49865662717E+02 -0.45351117991E+01  0.34457324348E+02  0.18166975191E+03  0.17120000000E+03 0.  0.
        998    1    1    2    0    0 -0.15884699463E+00  0.16065914284E+01  0.14250993863E+04  0.14251353856E+04  0.10000000000E+02 0.  0.
</event>
<event>
 5    1  0.7732857E-009  0.3753407E+03  0.7957747E-01  0.3471700E+00
         13   -1    0    0    0    0  0.00000000000E+00  0.00000000000E+00  0.14999999963E+04  0.15000000000E+04  0.10566000000E+00 0.  1.
        994   -1    0    0    0    0 -0.00000000000E+00 -0.00000000000E+00  0.11368683772E-12  0.17120000000E+03  0.17120000000E+03 0.  0.
         13    1    1    2    0    0 -0.11952215604E+02 -0.63275242640E+02  0.12834696494E+03  0.14359514742E+03  0.10566000000E+00 0.  1.
        994    1    1    2    0    0  0.10936455033E+02  0.74452163382E+02  0.34252011412E+02  0.19011935979E+03  0.17120000000E+03 0.  0.
        998    1    1    2    0    0  0.10157605715E+01 -0.11176920743E+02  0.13374010199E+04  0.13374854928E+04  0.10000000000E+02 0.  1.
</event>
<event>
 5    1  0.7732857E-009  0.3806474E+03  0.7957747E-01  0.3448344E+00
         13   -1    0    0    0    0  0.00000000000E+00  0.00000000000E+00  0.14999999963E+04  0.15000000000E+04  0.10566000000E+00 0.  1.
        994   -1    0    0    0    0 -0.00000000000E+00 -0.00000000000E+00  0.11368683772E-12  0.17120000000E+03  0.17120000000E+03 0.  0.
         13    1    1    2    0    0 -0.11683115497E+02 -0.11705318296E+02  0.34723318237E+02  0.38460754771E+02  0.10566000000E+00 0.  1.
        994    1    1    2    0    0  0.10137970526E+02  0.24757309186E+01  0.41700823576E+01  0.17156846236E+03  0.17120000000E+03 0.  0.
        998    1    1    2    0    0  0.15451449713E+01  0.92295873778E+01  0.14611065957E+04  0.14611707829E+04  0.10000000000E+02 0.  1.
</event>
<event>
 5    1  0.7732857E-009  0.3707771E+03  0.7957747E-01  0.3492327E+00
         13   -1    0    0    0    0  0.00000000000E+00  0.00000000000E+00  0.14999999963E+04  0.15000000000E+04  0.10566000000E+00 0.  1.
        994   -1    0    0    0    0 -0.00000000000E+00 -0.00000000000E+00  0.11368683772E-12  0.17120000000E+03  0.17120000000E+03 0.  0.
         13    1    1    2    0    0 -0.88803544680E+01  0.31368094309E+02  0.55256847590E+02  0.64157216318E+02  0.10566000000E+00 0.  1.
        994    1    1    2    0    0  0.29130108227E+01 -0.29665825029E+02  0.11933654260E+02  0.17418495604E+03  0.17120000000E+03 0.  0.
        998    1    1    2    0    0  0.59673436453E+01 -0.17022692794E+01  0.14328094944E+04  0.14328578276E+04  0.10000000000E+02 0.  1.
</event>
<event>
 5    1  0.7732857E-009  0.3726779E+03  0.7957747E-01  0.3483673E+00
         13   -1    0    0    0    0  0.00000000000E+00  0.00000000000E+00  0.14999999963E+04  0.15000000000E+04  0.10566000000E+00 0. -1.
        994   -1    0    0    0    0 -0.00000000000E+00 -0.00000000000E+00  0.11368683772E-12  0.17120000000E+03  0.17120000000E+03 0.  0.
         13    1    1    2    0    0 -0.44607919676E+02 -0.12021253402E+02  0.91048146825E+02  0.10209874258E+03  0.10566000000E+00 0. -1.
        994    1    1    2    0    0 -0.56986609938E+01  0.13448806618E+02  0.13115128305E+02  0.17232176800E+03  0.17120000000E+03 0.  0.
        998    1    1    2    0    0  0.50306580670E+02 -0.14275532157E+01  0.13958367211E+04  0.13967794894E+04  0.10000000000E+02 0. -1.
</event>
<event>
 5    1  0.7732857E-009  0.3847559E+03  0.7957747E-01  0.3430708E+00
         13   -1    0    0    0    0  0.00000000000E+00  0.00000000000E+00  0.14999999963E+04  0.15000000000E+04  0.10566000000E+00 0.  1.
        994   -1    0    0    0    0 -0.00000000000E+00 -0.00000000000E+00  0.11368683772E-12  0.17120000000E+03  0.17120000000E+03 0.  0.
         13    1    1    2    0    0 -0.20127947736E+01  0.20090411452E+02  0.10792781247E+03  0.10980027252E+03  0.10566000000E+00 0.  1.
        994    1    1    2    0    0  0.76559482514E+01 -0.21677732683E+02  0.34928776559E+01  0.17277204008E+03  0.17120000000E+03 0.  0.
        998    1    1    2    0    0 -0.56431534778E+01  0.15873212312E+01  0.13885793061E+04  0.13886276874E+04  0.10000000000E+02 0.  1.
</event>
<event>
 5    1  0.7732857E-009  0.3818123E+03  0.7957747E-01  0.3443305E+00
         13   -1    0    0    0    0  0.00000000000E+00  0.00000000000E+00  0.14999999963E+04  0.15000000000E+04  0.10566000000E+00 0. -1.
        994   -1    0    0    0    0 -0.00000000000E+00 -0.00000000000E+00  0.11368683772E-12  0.17120000000E+03  0.17120000000E+03 0.  0.
         13    1    1    2    0    0  0.13943558102E+02 -0.11363974938E+02  0.48859395220E+02  0.52065481888E+02  0.10566000000E+00 0. -1.
        994    1    1    2    0    0 -0.11431502968E+00  0.20710867568E+02  0.46478048557E+01  0.17251085529E+03  0.17120000000E+03 0.  0.
        998    1    1    2    0    0 -0.13829243072E+02 -0.93468926304E+01  0.14464927962E+04  0.14466236628E+04  0.10000000000E+02 0. -1.
</event>
<event>
 5    1  0.7732857E-009  0.3846057E+03  0.7957747E-01  0.3431346E+00
         13   -1    0    0    0    0  0.00000000000E+00  0.00000000000E+00  0.14999999963E+04  0.15000000000E+04  0.10566000000E+00 0. -1.
        994   -1    0    0    0    0 -0.00000000000E+00 -0.00000000000E+00  0.11368683772E-12  0.17120000000E+03  0.17120000000E+03 0.  0.
         13    1    1    2    0    0  0.14002265247E+02  0.13489800445E+02  0.10818936360E+03  0.10992264420E+03  0.10566000000E+00 0. -1.
        994    1    1    2    0    0 -0.79158603271E+01 -0.10960687673E+01  0.20363490152E+01  0.17139850912E+03  0.17120000000E+03 0.  0.
        998    1    1    2    0    0 -0.60864049200E+01 -0.12393731677E+02  0.13897742837E+04  0.13898788467E+04  0.10000000000E+02 0. -1.
</event>
<event>
 5    1  0.7732857E-009  0.3720173E+03  0.7957747E-01  0.3486671E+00
         13   -1    0    0    0    0  0.00000000000E+00  0.00000000000E+00  0.14999999963E+04  0.15000000000E+04  0.10566000000E+00 0. -1.
        994   -1    0    0    0    0 -0.00000000000E+00 -0.00000000000E+00  0.11368683772E-12  0.17120000000E+03  0.17120000000E+03 0.  0.
         13    1    1    2    0    0  0.45287248581E+02  0.62864781593E+02  0.29450999482E+03  0.30453089147E+03  0.10566000000E+00 0. -1.
        994    1    1    2    0    0 -0.51249217135E+02 -0.56492706936E+02  0.28468388986E+02  0.18957267041E+03  0.17120000000E+03 0.  0.
        998    1    1    2    0    0  0.59619685540E+01 -0.63720746565E+01  0.11770216125E+04  0.11770964381E+04  0.10000000000E+02 0. -1.
</event>
<event>
 5    1  0.7732857E-009  0.3821403E+03  0.7957747E-01  0.3441892E+00
         13   -1    0    0    0    0  0.00000000000E+00  0.00000000000E+00  0.14999999963E+04  0.15000000000E+04  0.10566000000E+00 0.  1.
        994   -1    0    0    0    0 -0.00000000000E+00 -0.00000000000E+00  0.11368683772E-12  0.17120000000E+03  0.17120000000E+03 0.  0.
         13    1    1    2    0    0  0.11022022314E+02 -0.10647351029E+02  0.38303261031E+02  0.41255327286E+02  0.10566000000E+00 0.  1.
        994    1    1    2    0    0  0.12925775270E+01  0.64928882842E+01  0.32021235990E+01  0.17135787683E+03  0.17120000000E+03 0.  0.
        998    1    1    2    0    0 -0.12314599841E+02  0.41544627445E+01  0.14584946116E+04  0.14585867959E+04  0.10000000000E+02 0.  1.
</event>
<event>
 5    1  0.7732857E-009  0.3720962E+03  0.7957747E-01  0.3486312E+00
         13   -1    0    0    0    0  0.00000000000E+00  0.00000000000E+00  0.14999999963E+04  0.15000000000E+04  0.10566000000E+00 0.  1.
        994   -1    0    0    0    0 -0.00000000000E+00 -0.00000000000E+00  0.11368683772E-12  0.17120000000E+03  0.17120000000E+03 0.  0.
         13    1    1    2    0    0 -0.12674183552E+03  0.11956598236E+02  0.58629763433E+03  0.59995948222E+03  0.10566000000E+00 0.  1.
        994    1    1    2    0    0  0.12440884066E+03 -0.16461987520E+02  0.64341767703E+02  0.22180590556E+03  0.17120000000E+03 0.  0.
        998    1    1    2    0    0  0.23329948552E+01  0.45053892841E+01  0.84936059424E+03  0.84943461223E+03  0.10000000000E+02 0.  1.
</event>
<event>
 5    1  0.8522293E-009  0.3861505E+03  0.7957747E-01  0.3424807E+00
         13   -1    0    0    0    0  0.00000000000E+00  0.00000000000E+00  0.14999999963E+04  0.15000000000E+04  0.10566000000E+00 0. -1.
        994   -1    0    0    0    0 -0.00000000000E+00 -0.00000000000E+00  0.11368683772E-12  0.17120000000E+03  0.17120000000E+03 0.  0.
         13    1    1    2    0    0 -0.49211657306E+01  0.10674721094E+02  0.57434606101E+02  0.58625188141E+02  0.10566000000E+00 0. -1.
        994    1    1    2    0    0  0.15261496809E+02 -0.23349513773E+02  0.36135716000E+01  0.17349527653E+03  0.17120000000E+03 0.  0.
        998    1    1    2    0    0 -0.10340331078E+02  0.12674792679E+02  0.14389518186E+04  0.14390795353E+04  0.10000000000E+02 0. -1.
</event>
<event>
 5    1  0.7732857E-009  0.3773009E+03  0.7957747E-01  0.3462996E+00
         13   -1    0    0    0    0  0.00000000000E+00  0.00000000000E+00  0.14999999963E+04  0.15000000000E+04  0.10566000000E+00 0. -1.
        994   -1    0    0    0    0 -0.00000000000E+00 -0.00000000000E+00  0.11368683772E-12  0.17120000000E+03  0.17120000000E+03 0.  0.
         13    1    1    2    0    0  0.59240543440E+02  0.10192763685E+03  0.34851587745E+03  0.36791576908E+03  0.10566000000E+00 0. -1.
        994    1    1    2    0    0 -0.61770253650E+02 -0.99696425772E+02  0.66019234637E+02  0.21776804378E+03  0.17120000000E+03 0.  0.
        998    1    1    2    0    0  0.25297102102E+01 -0.22312110735E+01  0.10854648842E+04  0.10855161871E+04  0.10000000000E+02 0. -1.
</event>
<event>
 5    1  0.7732857E-009  0.3856409E+03  0.7957747E-01  0.3426959E+00
         13   -1    0    0    0    0  0.00000000000E+00  0.00000000000E+00  0.14999999963E+04  0.15000000000E+04  0.10566000000E+00 0. -1.
        994   -1    0    0    0    0 -0.00000000000E+00 -0.00000000000E+00  0.11368683772E-12  0.17120000000E+03  0.17120000000E+03 0.  0.
         13    1    1    2    0    0 -0.25660683365E+01  0.14397504793E+02  0.76067045682E+02  0.77460179795E+02  0.10566000000E+00 0. -1.
        994    1    1    2    0    0  0.99905688749E+01 -0.18252045855E+02  0.27344248745E+01  0.17248149386E+03  0.17120000000E+03 0.  0.
        998    1    1    2    0    0 -0.74245005384E+01  0.38545410622E+01  0.14211985257E+04  0.14212583263E+04  0.10000000000E+02 0. -1.
</event>
<event>
 5    1  0.7732857E-009  0.3709120E+03  0.7957747E-01  0.3491710E+00
         13   -1    0    0    0    0  0.00000000000E+00  0.00000000000E+00  0.14999999963E+04  0.15000000000E+04  0.10566000000E+00 0. -1.
        994   -1    0    0    0    0 -0.00000000000E+00 -0.00000000000E+00  0.11368683772E-12  0.17120000000E+03  0.17120000000E+03 0.  0.
         13    1    1    2    0    0 -0.21711713874E+02 -0.48431935599E+02  0.18642968734E+03  0.19383779402E+03  0.10566000000E+00 0. -1.
        994    1    1    2    0    0 -0.19445745035E+02  0.79751014650E+01  0.10317231552E+02  0.17279358932E+03  0.17120000000E+03 0.  0.
        998    1    1    2    0    0  0.41157458909E+02  0.40456834134E+02  0.13032530774E+04  0.13045686167E+04  0.10000000000E+02 0. -1.
</event>
<event>
 5    1  0.7732857E-009  0.3797894E+03  0.7957747E-01  0.3452076E+00
         13   -1    0    0    0    0  0.00000000000E+00  0.00000000000E+00  0.14999999963E+04  0.15000000000E+04  0.10566000000E+00 0.  1.
        994   -1    0    0    0    0 -0.00000000000E+00 -0.00000000000E+00  0.11368683772E-12  0.17120000000E+03  0.17120000000E+03 0.  0.
         13    1    1    2    0    0 -0.35505357318E+02  0.16063943332E+02  0.16756223870E+03  0.17203428633E+03  0.10566000000E+00 0.  1.
        994    1    1    2    0    0  0.28466630763E+02 -0.13774715831E+02  0.75922565288E+01  0.17426179794E+03  0.17120000000E+03 0.  0.
        998    1    1    2    0    0  0.70387265548E+01 -0.22892275004E+01  0.13248455011E+04  0.13249039157E+04  0.10000000000E+02 0.  1.
</event>
<event>
 5    1  0.7732857E-009  0.3795964E+03  0.7957747E-01  0.3452918E+00
         13   -1    0    0    0    0  0.00000000000E+00  0.00000000000E+00  0.14999999963E+04  0.15000000000E+04  0.10566000000E+00 0.  1.
        994   -1    0    0    0    0 -0.00000000000E+00 -0.00000000000E+00  0.11368683772E-12  0.17120000000E+03  0.17120000000E+03 0.  0.
         13    1    1    2    0    0  0.65007426763E+02 -0.95466779836E+02  0.57088569531E+03  0.58245202365E+03  0.10566000000E+00 0.  1.
        994    1    1    2    0    0 -0.59559473794E+02  0.14290902283E+03  0.89266019979E+02  0.24748370057E+03  0.17120000000E+03 0.  0.
        998    1    1    2    0    0 -0.54479529685E+01 -0.47442242995E+02  0.83984828099E+03  0.84126427577E+03  0.10000000000E+02 0.  1.
</event>
<event>
 5    1  0.7732857E-009  0.3847971E+03  0.7957747E-01  0.3430533E+00
         13   -1    0    0    0    0  0.00000000000E+00  0.00000000000E+00  0.14999999963E+04  0.15000000000E+04  0.10566000000E+00 0. -1.
        994   -1    0    0    0    0 -0.00000000000E+00 -0.00000000000E+00  0.11368683772E-12  0.17120000000E+03  0.17120000000E+03 0.  0.
         13    1    1    2    0    0 -0.70319769529E+01  0.13557548985E+02  0.66052476265E+02  0.67795255137E+02  0.10566000000E+00 0. -1.
        994    1    1    2    0    0  0.54611842488E+01 -0.11849601701E+02  0.22913377316E+01  0.17171175796E+03  0.17120000000E+03 0.  0.
        998    1    1    2    0    0  0.15707927041E+01 -0.17079472842E+01  0.14316561823E+04  0.14316929869E+04  0.10000000000E+02 0. -1.
</event>
<event>
 5    1  0.7732857E-009  0.3801541E+03  0.7957747E-01  0.3450488E+00
         13   -1    0    0    0    0  0.00000000000E+00  0.00000000000E+00  0.14999999963E+04  0.15000000000E+04  0.10566000000E+00 0.  1.
        994   -1    0    0    0    0 -0.00000000000E+00 -0.00000000000E+00  0.11368683772E-12  0.17120000000E+03  0.17120000000E+03 0.  0.
         13    1    1    2    0    0 -0.10719454853E+02  0.34821211050E+02  0.14904360433E+03  0.15343216940E+03  0.10566000000E+00 0.  1.
        994    1    1    2    0    0  0.12771167270E+02 -0.32646895625E+02  0.81724031248E+01  0.17494327847E+03  0.17120000000E+03 0.  0.
        998    1    1    2    0    0 -0.20517124175E+01 -0.21743154256E+01  0.13427839888E+04  0.13428245521E+04  0.10000000000E+02 0.  0.
</event>
<event>
 5    1  0.7732857E-009  0.3742001E+03  0.7957747E-01  0.3476808E+00
         13   -1    0    0    0    0  0.00000000000E+00  0.00000000000E+00  0.14999999963E+04  0.15000000000E+04  0.10566000000E+00 0.  1.
        994   -1    0    0    0    0 -0.00000000000E+00 -0.00000000000E+00  0.11368683772E-12  0.17120000000E+03  0.17120000000E+03 0.  0.
         13    1    1    2    0    0 -0.27298153992E+01 -0.41751307014E+02  0.63987024107E+02  0.76452429311E+02  0.10566000000E+00 0.  1.
        994    1    1    2    0    0 -0.34580441170E+02  0.16837633250E+02  0.18444382991E+02  0.17643397652E+03  0.17120000000E+03 0.  0.
        998    1    1    2    0    0  0.37310256569E+02  0.24913673763E+02  0.14175685892E+04  0.14183135942E+04  0.10000000000E+02 0.  1.
</event>
<event>
 5    1  0.7732857E-009  0.3716101E+03  0.7957747E-01  0.3488524E+00
         13   -1    0    0    0    0  0.00000000000E+00  0.00000000000E+00  0.14999999963E+04  0.15000000000E+04  0.10566000000E+00 0.  1.
        994   -1    0    0    0    0 -0.00000000000E+00 -0.00000000000E+00  0.11368683772E-12  0.17120000000E+03  0.17120000000E+03 0.  0.
         13    1    1    2    0    0 -0.18991801085E+02 -0.41310460552E+02  0.89208145009E+02  0.10012665459E+03  0.10566000000E+00 0.  1.
        994    1    1    2    0    0  0.20608778487E+02  0.86133423767E+00  0.13289949251E+02  0.17294949089E+03  0.17120000000E+03 0.  0.
        998    1    1    2    0    0 -0.16169774015E+01  0.40449126314E+02  0.13975019020E+04  0.13981238545E+04  0.10000000000E+02 0.  1.
</event>
<event>
 5    1  0.7732857E-009  0.3795922E+03  0.7957747E-01  0.3452936E+00
         13   -1    0    0    0    0  0.00000000000E+00  0.00000000000E+00  0.14999999963E+04  0.15000000000E+04  0.10566000000E+00 0.  1.
        994   -1    0    0    0    0 -0.00000000000E+00 -0.00000000000E+00  0.11368683772E-12  0.17120000000E+03  0.17120000000E+03 0.  0.
         13    1    1    2    0    0  0.89049264432E+01 -0.56202425262E+01  0.10844258947E+02  0.15116016577E+02  0.10566000000E+00 0.  1.
        994    1    1    2    0    0 -0.10890035242E+02 -0.19725520301E+01  0.47492556834E+01  0.17162307321E+03  0.17120000000E+03 0.  0.
        998    1    1    2    0    0  0.19851087984E+01  0.75927945562E+01  0.14844064816E+04  0.14844609102E+04  0.10000000000E+02 0.  1.
</event>
<event>
 5    1  0.7732857E-009  0.3856578E+03  0.7957747E-01  0.3426887E+00
         13   -1    0    0    0    0  0.00000000000E+00  0.00000000000E+00  0.14999999963E+04  0.15000000000E+04  0.10566000000E+00 0. -1.
        994   -1    0    0    0    0 -0.00000000000E+00 -0.00000000000E+00  0.11368683772E-12  0.17120000000E+03  0.17120000000E+03 0.  0.
         13    1    1    2    0    0  0.10736914254E+02  0.27263650094E+01  0.47304755789E+02  0.48584621828E+02  0.10566000000E+00 0. -1.
        994    1    1    2    0    0 -0.79321091584E+01  0.27919772651E+00  0.15106830175E+01  0.17139054370E+03  0.17120000000E+03 0.  0.
        998    1    1    2    0    0 -0.28048050957E+01 -0.30055627359E+01  0.14511845575E+04  0.14512248345E+04  0.10000000000E+02 0. -1.
</event>
<event>
 5    1  0.7732857E-009  0.3858612E+03  0.7957747E-01  0.3426028E+00
         13   -1    0    0    0    0  0.00000000000E+00  0.00000000000E+00  0.14999999963E+04  0.15000000000E+04  0.10566000000E+00 0. -1.
        994   -1    0    0    0    0 -0.00000000000E+00 -0.00000000000E+00  0.11368683772E-12  0.17120000000E+03  0.17120000000E+03 0.  0.
         13    1    1    2    0    0  0.12676838768E+02  0.68840779092E+00  0.65581312698E+02  0.66798921291E+02  0.10566000000E+00 0. -1.
        994    1    1    2    0    0 -0.12628030605E+02 -0.26010771994E+00  0.17265497301E+01  0.17167398110E+03  0.17120000000E+03 0.  0.
        998    1    1    2    0    0 -0.48808162882E-01 -0.42830007098E+00  0.14326921339E+04  0.14327270976E+04  0.10000000000E+02 0.  0.
</event>
<event>
 5    1  0.7732857E-009  0.3851405E+03  0.7957747E-01  0.3429077E+00
         13   -1    0    0    0    0  0.00000000000E+00  0.00000000000E+00  0.14999999963E+04  0.15000000000E+04  0.10566000000E+00 0. -1.
        994   -1    0    0    0    0 -0.00000000000E+00 -0.00000000000E+00  0.11368683772E-12  0.17120000000E+03  0.17120000000E+03 0.  0.
         13    1    1    2    0    0 -0.10238577924E+02 -0.92348132056E+01  0.58441494945E+02  0.60046063553E+02  0.10566000000E+00 0. -1.
        994    1    1    2    0    0  0.93910934082E+01  0.13738171913E+02  0.24712451155E+01  0.17202464084E+03  0.17120000000E+03 0.  0.
        998    1    1    2    0    0  0.84748451542E+00 -0.45033587078E+01  0.14390872562E+04  0.14391292956E+04  0.10000000000E+02 0. -1.
</event>
<event>
 5    1  0.7732857E-009  0.3804767E+03  0.7957747E-01  0.3449085E+00
         13   -1    0    0    0    0  0.00000000000E+00  0.00000000000E+00  0.14999999963E+04  0.15000000000E+04  0.10566000000E+00 0. -1.
        994   -1    0    0    0    0 -0.00000000000E+00 -0.00000000000E+00  0.11368683772E-12  0.17120000000E+03  0.17120000000E+03 0.  0.
         13    1    1    2    0    0  0.96101710725E+01 -0.44531790726E+01  0.12714258805E+02  0.16548405750E+02  0.10566000000E+00 0. -1.
        994    1    1    2    0    0 -0.54660660378E+01  0.71349604847E+01  0.41623688586E+01  0.17148629932E+03  0.17120000000E+03 0.  0.
        998    1    1    2    0    0 -0.41441050348E+01 -0.26817814121E+01  0.14831233686E+04  0.14831652949E+04  0.10000000000E+02 0. -1.
</event>
<event>
 5    1  0.7732857E-009  0.3846052E+03  0.7957747E-01  0.3431348E+00
         13   -1    0    0    0    0  0.00000000000E+00  0.00000000000E+00  0.14999999963E+04  0.15000000000E+04  0.10566000000E+00 0.  1.
        994   -1    0    0    0    0 -0.00000000000E+00 -0.00000000000E+00  0.11368683772E-12  0.17120000000E+03  0.17120000000E+03 0.  0.
         13    1    1    2    0    0 -0.91700229880E+01 -0.19985045446E+02  0.11909252481E+03  0.12110545815E+03  0.10566000000E+00 0.  1.
        994    1    1    2    0    0  0.64612421202E+01  0.26457282553E+02  0.42725203167E+01  0.17340539173E+03  0.17120000000E+03 0.  0.
        998    1    1    2    0    0  0.27087808678E+01 -0.64722371075E+01  0.13766349512E+04  0.13766891501E+04  0.10000000000E+02 0.  1.
</event>
<event>
 5    1  0.7732857E-009  0.3842077E+03  0.7957747E-01  0.3433039E+00
         13   -1    0    0    0    0  0.00000000000E+00  0.00000000000E+00  0.14999999963E+04  0.15000000000E+04  0.10566000000E+00 0. -1.
        994   -1    0    0    0    0 -0.00000000000E+00 -0.00000000000E+00  0.11368683772E-12  0.17120000000E+03  0.17120000000E+03 0.  0.
         13    1    1    2    0    0 -0.47277881982E+01  0.12233421395E+02  0.41233811239E+02  0.43269468839E+02  0.10566000000E+00 0. -1.
        994    1    1    2    0    0  0.31077824238E+01 -0.12841288864E+02  0.25997452259E+01  0.17172872703E+03  0.17120000000E+03 0.  0.
        998    1    1    2    0    0  0.16200057744E+01  0.60786746925E+00  0.14561664398E+04  0.14562018041E+04  0.10000000000E+02 0. -1.
</event>
<event>
 5    1  0.7732857E-009  0.3814626E+03  0.7957747E-01  0.3444814E+00
         13   -1    0    0    0    0  0.00000000000E+00  0.00000000000E+00  0.14999999963E+04  0.15000000000E+04  0.10566000000E+00 0. -1.
        994   -1    0    0    0    0 -0.00000000000E+00 -0.00000000000E+00  0.11368683772E-12  0.17120000000E+03  0.17120000000E+03 0.  0.
         13    1    1    2    0    0 -0.27177578521E+02 -0.26353501954E+02  0.18021782488E+03  0.18415103423E+03  0.10566000000E+00 0. -1.
        994    1    1    2    0    0  0.30097917157E+02  0.29937689079E+02  0.94154144275E+01  0.17663589633E+03  0.17120000000E+03 0.  0.
        998    1    1    2    0    0 -0.29203386358E+01 -0.35841871244E+01  0.13103667570E+04  0.13104130694E+04  0.10000000000E+02 0. -1.
</event>
<event>
 5    1  0.7732857E-009  0.3805061E+03  0.7957747E-01  0.3448958E+00
         13   -1    0    0    0    0  0.00000000000E+00  0.00000000000E+00  0.14999999963E+04  0.15000000000E+04  0.10566000000E+00 0.  1.
        994   -1    0    0    0    0 -0.00000000000E+00 -0.00000000000E+00  0.11368683772E-12  0.17120000000E+03  0.17120000000E+03 0.  0.
         13    1    1    2    0    0  0.35857766880E+02 -0.46885844998E+01  0.15768423060E+03  0.16177790336E+03  0.10566000000E+00 0.  1.
        994    1    1    2    0    0 -0.29417246456E+02  0.74657474467E+01  0.69580540143E+01  0.17400852361E+03  0.17120000000E+03 0.  0.
        998    1    1    2    0    0 -0.64405204247E+01 -0.27771629470E+01  0.13353577117E+04  0.13354135730E+04  0.10000000000E+02 0.  1.
</event>
<event>
 5    1  0.7732857E-009  0.3720770E+03  0.7957747E-01  0.3486400E+00
         13   -1    0    0    0    0  0.00000000000E+00  0.00000000000E+00  0.14999999963E+04  0.15000000000E+04  0.10566000000E+00 0.  1.
        994   -1    0    0    0    0 -0.00000000000E+00 -0.00000000000E+00  0.11368683772E-12  0.17120000000E+03  0.17120000000E+03 0.  0.
         13    1    1    2    0    0  0.31624348449E+02  0.43875685881E+02  0.10844523206E+03  0.12118397066E+03  0.10566000000E+00 0.  1.
        994    1    1    2    0    0 -0.19781875663E+02 -0.55335793026E+02  0.24304013038E+02  0.18262939973E+03  0.17120000000E+03 0.  0.
        998    1    1    2    0    0 -0.11842472786E+02  0.11460107145E+02  0.13672507512E+04  0.13673866296E+04  0.10000000000E+02 0.  1.
</event>
<event>
 5    1  0.7732857E-009  0.3832833E+03  0.7957747E-01  0.3436986E+00
         13   -1    0    0    0    0  0.00000000000E+00  0.00000000000E+00  0.14999999963E+04  0.15000000000E+04  0.10566000000E+00 0. -1.
        994   -1    0    0    0    0 -0.00000000000E+00 -0.00000000000E+00  0.11368683772E-12  0.17120000000E+03  0.17120000000E+03 0.  0.
         13    1    1    2    0    0 -0.10026931131E+02 -0.48381287231E+01  0.23641943421E+02  0.26132345670E+02  0.10566000000E+00 0. -1.
        994    1    1    2    0    0  0.12428560780E+02  0.45897336367E+01  0.30655714061E+01  0.17173925732E+03  0.17120000000E+03 0.  0.
        998    1    1    2    0    0 -0.24016296487E+01  0.24839508646E+00  0.14732924815E+04  0.14733283970E+04  0.10000000000E+02 0. -1.
</event>
<event>
 5    1  0.7732857E-009  0.3780094E+03  0.7957747E-01  0.3459872E+00
         13   -1    0    0    0    0  0.00000000000E+00  0.00000000000E+00  0.14999999963E+04  0.15000000000E+04  0.10566000000E+00 0.  1.
        994   -1    0    0    0    0 -0.00000000000E+00 -0.00000000000E+00  0.11368683772E-12  0.17120000000E+03  0.17120000000E+03 0.  0.
         13    1    1    2    0    0 -0.25715775288E+02  0.14029874640E+02  0.77594646218E+02  0.82940212001E+02  0.10566000000E+00 0.  1.
        994    1    1    2    0    0  0.23652605395E+02 -0.19936566535E+02  0.83681787753E+01  0.17417341601E+03  0.17120000000E+03 0.  0.
        998    1    1    2    0    0  0.20631698931E+01  0.59066918948E+01  0.14140371713E+04  0.14140863720E+04  0.10000000000E+02 0.  1.
</event>
<event>
 5    1  0.7732857E-009  0.3835217E+03  0.7957747E-01  0.3435966E+00
         13   -1    0    0    0    0  0.00000000000E+00  0.00000000000E+00  0.14999999963E+04  0.15000000000E+04  0.10566000000E+00 0. -1.
        994   -1    0    0    0    0 -0.00000000000E+00 -0.00000000000E+00  0.11368683772E-12  0.17120000000E+03  0.17120000000E+03 0.  0.
         13    1    1    2    0    0  0.78406262478E+02 -0.18483914950E+03  0.91951923043E+03  0.94118472123E+03  0.10566000000E+00 0. -1.
        994    1    1    2    0    0 -0.76027579081E+02  0.21972514525E+03  0.20822355071E+03  0.35598570099E+03  0.17120000000E+03 0.  0.
        998    1    1    2    0    0 -0.23786833978E+01 -0.34885995752E+02  0.37225721513E+03  0.37402957778E+03  0.10000000000E+02 0. -1.
</event>
<event>
 5    1  0.7732857E-009  0.3731266E+03  0.7957747E-01  0.3481644E+00
         13   -1    0    0    0    0  0.00000000000E+00  0.00000000000E+00  0.14999999963E+04  0.15000000000E+04  0.10566000000E+00 0.  1.
        994   -1    0    0    0    0 -0.00000000000E+00 -0.00000000000E+00  0.11368683772E-12  0.17120000000E+03  0.17120000000E+03 0.  0.
         13    1    1    2    0    0 -0.69589007686E+02 -0.97809768418E+02  0.42737618231E+03  0.44391417319E+03  0.10566000000E+00 0.  1.
        994    1    1    2    0    0  0.66215836148E+02  0.87651130453E+02  0.56578072722E+02  0.21113449727E+03  0.17120000000E+03 0.  0.
        998    1    1    2    0    0  0.33731715380E+01  0.10158637965E+02  0.10160457412E+04  0.10161513295E+04  0.10000000000E+02 0.  1.
</event>
<event>
 5    1  0.7732857E-009  0.3843149E+03  0.7957747E-01  0.3432583E+00
         13   -1    0    0    0    0  0.00000000000E+00  0.00000000000E+00  0.14999999963E+04  0.15000000000E+04  0.10566000000E+00 0.  1.
        994   -1    0    0    0    0 -0.00000000000E+00 -0.00000000000E+00  0.11368683772E-12  0.17120000000E+03  0.17120000000E+03 0.  0.
         13    1    1    2    0    0 -0.48822033581E+01  0.11844068505E+02  0.41775360515E+02  0.43695649424E+02  0.10566000000E+00 0.  1.
        994    1    1    2    0    0 -0.52069862533E+01 -0.85688103582E+01  0.23020920815E+01  0.17150882439E+03  0.17120000000E+03 0.  0.
        998    1    1    2    0    0  0.10089189611E+02 -0.32752581463E+01  0.14559225437E+04  0.14559955262E+04  0.10000000000E+02 0.  1.
</event>
<event>
 5    1  0.7732857E-009  0.3785290E+03  0.7957747E-01  0.3457589E+00
         13   -1    0    0    0    0  0.00000000000E+00  0.00000000000E+00  0.14999999963E+04  0.15000000000E+04  0.10566000000E+00 0.  1.
        994   -1    0    0    0    0 -0.00000000000E+00 -0.00000000000E+00  0.11368683772E-12  0.17120000000E+03  0.17120000000E+03 0.  0.
         13    1    1    2    0    0 -0.58644510513E+00 -0.23837170826E+02  0.57506753793E+02  0.62254257097E+02  0.10566000000E+00 0.  1.
        994    1    1    2    0    0 -0.33148374554E+01  0.10477720491E+02  0.52833647469E+01  0.17163369342E+03  0.17120000000E+03 0.  0.
        998    1    1    2    0    0  0.39012825606E+01  0.13359450335E+02  0.14372098777E+04  0.14373120495E+04  0.10000000000E+02 0.  1.
</event>
<event>
 5    1  0.7732857E-009  0.3754297E+03  0.7957747E-01  0.3471303E+00
         13   -1    0    0    0    0  0.00000000000E+00  0.00000000000E+00  0.14999999963E+04  0.15000000000E+04  0.10566000000E+00 0.  1.
        994   -1    0    0    0    0 -0.00000000000E+00 -0.00000000000E+00  0.11368683772E-12  0.17120000000E+03  0.17120000000E+03 0.  0.
         13    1    1    2    0    0  0.78732393496E+01  0.10644032205E+02  0.10562083536E+02  0.16936708420E+02  0.10566000000E+00 0.  1.
        994    1    1    2    0    0 -0.59622658325E+01 -0.13513228962E+02  0.71990546633E+01  0.17198669239E+03  0.17120000000E+03 0.  0.
        998    1    1    2    0    0 -0.19109735171E+01  0.28691967575E+01  0.14822388581E+04  0.14822765992E+04  0.10000000000E+02 0.  1.
</event>
<event>
 5    1  0.7732857E-009  0.3853596E+03  0.7957747E-01  0.3428148E+00
         13   -1    0    0    0    0  0.00000000000E+00  0.00000000000E+00  0.14999999963E+04  0.15000000000E+04  0.10566000000E+00 0.  1.
        994   -1    0    0    0    0 -0.00000000000E+00 -0.00000000000E+00  0.11368683772E-12  0.17120000000E+03  0.17120000000E+03 0.  0.
         13    1    1    2    0    0  0.11833383192E+02  0.51761511442E+00  0.48614212851E+02  0.50036484072E+02  0.10566000000E+00 0.  1.
        994    1    1    2    0    0 -0.77261924163E+01  0.71293473280E+01  0.18148302253E+01  0.17153208228E+03  0.17120000000E+03 0.  0.
        998    1    1    2    0    0 -0.41071907759E+01 -0.76469624424E+01  0.14495709532E+04  0.14496314336E+04  0.10000000000E+02 0.  1.
</event>
<event>
 5    1  0.7732857E-009  0.3823015E+03  0.7957747E-01  0.3441198E+00
         13   -1    0    0    0    0  0.00000000000E+00  0.00000000000E+00  0.14999999963E+04  0.15000000000E+04  0.10566000000E+00 0. -1.
        994   -1    0    0    0    0 -0.00000000000E+00 -0.00000000000E+00  0.11368683772E-12  0.17120000000E+03  0.17120000000E+03 0.  0.
         13    1    1    2    0    0 -0.65424453290E+01 -0.17498961649E+02  0.57532486670E+02  0.60489796132E+02  0.10566000000E+00 0. -1.
        994    1    1    2    0    0  0.63471855594E+01  0.11159423142E+02  0.35228618503E+01  0.17171683099E+03  0.17120000000E+03 0.  0.
        998    1    1    2    0    0  0.19525976952E+00  0.63395385073E+01  0.14389446478E+04  0.14389933729E+04  0.10000000000E+02 0. -1.
</event>
<event>
 5    1  0.9361624E-009  0.3846147E+03  0.7957747E-01  0.3431308E+00
         13   -1    0    0    0    0  0.00000000000E+00  0.00000000000E+00  0.14999999963E+04  0.15000000000E+04  0.10566000000E+00 0.  1.
        994   -1    0    0    0    0 -0.00000000000E+00 -0.00000000000E+00  0.11368683772E-12  0.17120000000E+03  0.17120000000E+03 0.  0.
         13    1    1    2    0    0 -0.19166853412E+01  0.10946819895E+02  0.32826184100E+02  0.34656544477E+02  0.10566000000E+00 0.  1.
        994    1    1    2    0    0  0.30380017511E+01 -0.12234399798E+02  0.23449797512E+01  0.17167949477E+03  0.17120000000E+03 0.  0.
        998    1    1    2    0    0 -0.11213164099E+01  0.12875799029E+01  0.14648288324E+04  0.14648639608E+04  0.10000000000E+02 0.  1.
</event>
<event>
 5    1  0.8788963E-009  0.3853336E+03  0.7957747E-01  0.3428259E+00
         13   -1    0    0    0    0  0.00000000000E+00  0.00000000000E+00  0.14999999963E+04  0.15000000000E+04  0.10566000000E+00 0.  1.
        994   -1    0    0    0    0 -0.00000000000E+00 -0.00000000000E+00  0.11368683772E-12  0.17120000000E+03  0.17120000000E+03 0.  0.
         13    1    1    2    0    0 -0.69411055452E+00 -0.13714552535E+02  0.59885319727E+02  0.61439673042E+02  0.10566000000E+00 0.  1.
        994    1    1    2    0    0  0.30041397501E+01  0.20946270343E+02  0.29369760034E+01  0.17252778595E+03  0.17120000000E+03 0.  0.
        998    1    1    2    0    0 -0.23100291956E+01 -0.72317178083E+01  0.14371777005E+04  0.14372325410E+04  0.10000000000E+02 0.  1.
</event>
<event>
 5    1  0.7732857E-009  0.4296018E+03  0.7957747E-01  0.3260059E+00
         13   -1    0    0    0    0  0.00000000000E+00  0.00000000000E+00  0.14999999963E+04  0.15000000000E+04  0.10566000000E+00 0. -1.
        994   -1    0    0    0    0 -0.00000000000E+00 -0.00000000000E+00  0.11368683772E-12  0.17120000000E+03  0.17120000000E+03 0.  0.
         13    1    1    2    0    0  0.37236092036E+02  0.40495103122E+02  0.21891345894E+02  0.59208294318E+02  0.10566000000E+00 0. -1.
        994    1    1    2    0    0  0.23283086396E+02  0.77005010747E+02  0.76360573143E+02  0.20399081088E+03  0.17120000000E+03 0.  0.
        998    1    1    2    0    0 -0.60519178431E+02 -0.11750011387E+03  0.14017480772E+04  0.14080008948E+04  0.10000000000E+02 0. -1.
</event>
<event>
 5    1  0.7732857E-009  0.3829718E+03  0.7957747E-01  0.3438320E+00
         13   -1    0    0    0    0  0.00000000000E+00  0.00000000000E+00  0.14999999963E+04  0.15000000000E+04  0.10566000000E+00 0.  1.
        994   -1    0    0    0    0 -0.00000000000E+00 -0.00000000000E+00  0.11368683772E-12  0.17120000000E+03  0.17120000000E+03 0.  0.
         13    1    1    2    0    0 -0.62684994193E+01  0.21790323245E+02  0.89226467312E+02  0.92062402234E+02  0.10566000000E+00 0.  1.
        994    1    1    2    0    0  0.12823365370E+02 -0.25147148546E+02  0.52827490238E+01  0.17359195032E+03  0.17120000000E+03 0.  0.
        998    1    1    2    0    0 -0.65548659509E+01  0.33568253005E+01  0.14054907799E+04  0.14055456474E+04  0.10000000000E+02 0.  1.
</event>
<event>
 5    1  0.7732857E-009  0.3790535E+03  0.7957747E-01  0.3455290E+00
         13   -1    0    0    0    0  0.00000000000E+00  0.00000000000E+00  0.14999999963E+04  0.15000000000E+04  0.10566000000E+00 0.  1.
        994   -1    0    0    0    0 -0.00000000000E+00 -0.00000000000E+00  0.11368683772E-12  0.17120000000E+03  0.17120000000E+03 0.  0.
         13    1    1    2    0    0 -0.22907833854E+02  0.37264387800E+01  0.56225896080E+02  0.60827771222E+02  0.10566000000E+00 0.  1.
        994    1    1    2    0    0  0.17548791598E+02  0.15513745506E+01  0.56531873183E+01  0.17219687969E+03  0.17120000000E+03 0.  0.
        998    1    1    2    0    0  0.53590422555E+01 -0.52778133306E+01  0.14381209129E+04  0.14381753491E+04  0.10000000000E+02 0.  1.
</event>
<event>
 5    1  0.7732857E-009  0.3817948E+03  0.7957747E-01  0.3443381E+00
         13   -1    0    0    0    0  0.00000000000E+00  0.00000000000E+00  0.14999999963E+04  0.15000000000E+04  0.10566000000E+00 0. -1.
        994   -1    0    0    0    0 -0.00000000000E+00 -0.00000000000E+00  0.11368683772E-12  0.17120000000E+03  0.17120000000E+03 0.  0.
         13    1    1    2    0    0 -0.12645640618E+02  0.13437098551E+02  0.53896990472E+02  0.56968101514E+02  0.10566000000E+00 0. -1.
        994    1    1    2    0    0 -0.96633130058E+01 -0.11866667721E+02  0.40085398955E+01  0.17192936286E+03  0.17120000000E+03 0.  0.
        998    1    1    2    0    0  0.22308953624E+02 -0.15704308299E+01  0.14420944659E+04  0.14423025356E+04  0.10000000000E+02 0. -1.
</event>
<event>
 5    1  0.7732857E-009  0.3839024E+03  0.7957747E-01  0.3434341E+00
         13   -1    0    0    0    0  0.00000000000E+00  0.00000000000E+00  0.14999999963E+04  0.15000000000E+04  0.10566000000E+00 0. -1.
        994   -1    0    0    0    0 -0.00000000000E+00 -0.00000000000E+00  0.11368683772E-12  0.17120000000E+03  0.17120000000E+03 0.  0.
         13    1    1    2    0    0  0.11629631926E+02 -0.18718526468E+02  0.12037453584E+03  0.12237512662E+03  0.10566000000E+00 0. -1.
        994    1    1    2    0    0 -0.10406192508E+02 -0.25062982818E+01  0.25542943627E+01  0.17155330015E+03  0.17120000000E+03 0.  0.
        998    1    1    2    0    0 -0.12234394188E+01  0.21224824750E+02  0.13770711661E+04  0.13772715732E+04  0.10000000000E+02 0. -1.
</event>
<event>
 5    1  0.7732857E-009  0.3839973E+03  0.7957747E-01  0.3433936E+00
         13   -1    0    0    0    0  0.00000000000E+00  0.00000000000E+00  0.14999999963E+04  0.15000000000E+04  0.10566000000E+00 0. -1.
        994   -1    0    0    0    0 -0.00000000000E+00 -0.00000000000E+00  0.11368683772E-12  0.17120000000E+03  0.17120000000E+03 0.  0.
         13    1    1    2    0    0 -0.26693617507E+01  0.19391028616E+02  0.85112971658E+02  0.87334795995E+02  0.10566000000E+00 0. -1.
        994    1    1    2    0    0  0.77549727039E+01 -0.19642692367E+02  0.36016089477E+01  0.17253517483E+03  0.17120000000E+03 0.  0.
        998    1    1    2    0    0 -0.50856109533E+01  0.25166375099E+00  0.14112854157E+04  0.14113300292E+04  0.10000000000E+02 0. -1.
</event>
<event>
 5    1  0.7732857E-009  0.3833187E+03  0.7957747E-01  0.3436834E+00
         13   -1    0    0    0    0  0.00000000000E+00  0.00000000000E+00  0.14999999963E+04  0.15000000000E+04  0.10566000000E+00 0.  1.
        994   -1    0    0    0    0 -0.00000000000E+00 -0.00000000000E+00  0.11368683772E-12  0.17120000000E+03  0.17120000000E+03 0.  0.
         13    1    1    2    0    0 -0.67554936634E+01  0.18053646309E+02  0.82975049299E+02  0.85184745171E+02  0.10566000000E+00 0.  1.
        994    1    1    2    0    0  0.16841145444E+02  0.11528350693E+02  0.38457167316E+01  0.17245508571E+03  0.17120000000E+03 0.  0.
        998    1    1    2    0    0 -0.10085651780E+02 -0.29581997003E+02  0.14131792302E+04  0.14135601691E+04  0.10000000000E+02 0.  1.
</event>
<event>
 5    1  0.7732857E-009  0.3858633E+03  0.7957747E-01  0.3426019E+00
         13   -1    0    0    0    0  0.00000000000E+00  0.00000000000E+00  0.14999999963E+04  0.15000000000E+04  0.10566000000E+00 0.  1.
        994   -1    0    0    0    0 -0.00000000000E+00 -0.00000000000E+00  0.11368683772E-12  0.17120000000E+03  0.17120000000E+03 0.  0.
         13    1    1    2    0    0 -0.13455350077E+02 -0.41494695870E+01  0.84403227298E+02  0.85569740480E+02  0.10566000000E+00 0.  1.
        994    1    1    2    0    0  0.73812082400E+01  0.16475205925E+01  0.13897212789E+01  0.17137259957E+03  0.17120000000E+03 0.  0.
        998    1    1    2    0    0  0.60741418371E+01  0.25019489945E+01  0.14142070477E+04  0.14142576599E+04  0.10000000000E+02 0.  1.
</event>
<event>
 5    1  0.7732857E-009  0.3802831E+03  0.7957747E-01  0.3449927E+00
         13   -1    0    0    0    0  0.00000000000E+00  0.00000000000E+00  0.14999999963E+04  0.15000000000E+04  0.10566000000E+00 0.  1.
        994   -1    0    0    0    0 -0.00000000000E+00 -0.00000000000E+00  0.11368683772E-12  0.17120000000E+03  0.17120000000E+03 0.  0.
         13    1    1    2    0    0  0.55353585872E+01 -0.10703613211E+02  0.16520462927E+02  0.20448579164E+02  0.10566000000E+00 0.  1.
        994    1    1    2    0    0 -0.47555307453E+01  0.67870816224E+01  0.42197029306E+01  0.17145239993E+03  0.17120000000E+03 0.  0.
        998    1    1    2    0    0 -0.77982784187E+00  0.39165315885E+01  0.14792598304E+04  0.14792990209E+04  0.10000000000E+02 0.  1.
</event>
<event>
 5    1  0.7732857E-009  0.3759357E+03  0.7957747E-01  0.3469048E+00
         13   -1    0    0    0    0  0.00000000000E+00  0.00000000000E+00  0.14999999963E+04  0.15000000000E+04  0.10566000000E+00 0. -1.
        994   -1    0    0    0    0 -0.00000000000E+00 -0.00000000000E+00  0.11368683772E-12  0.17120000000E+03  0.17120000000E+03 0.  0.
         13    1    1    2    0    0 -0.23400374400E+02 -0.54112591597E+02  0.24109956857E+03  0.24820306852E+03  0.10566000000E+00 0. -1.
        994    1    1    2    0    0  0.18105912204E+02  0.52271884425E+02  0.16639807320E+02  0.18068341691E+03  0.17120000000E+03 0.  0.
        998    1    1    2    0    0  0.52944621967E+01  0.18407071718E+01  0.12422606204E+04  0.12423135146E+04  0.10000000000E+02 0. -1.
</event>
<event>
 5    1  0.7732857E-009  0.3791701E+03  0.7957747E-01  0.3454780E+00
         13   -1    0    0    0    0  0.00000000000E+00  0.00000000000E+00  0.14999999963E+04  0.15000000000E+04  0.10566000000E+00 0.  1.
        994   -1    0    0    0    0 -0.00000000000E+00 -0.00000000000E+00  0.11368683772E-12  0.17120000000E+03  0.17120000000E+03 0.  0.
         13    1    1    2    0    0  0.18572953207E+02 -0.13099918007E+02  0.52699440254E+02  0.57391677182E+02  0.10566000000E+00 0.  1.
        994    1    1    2    0    0 -0.23303580152E+02  0.12743844047E+02  0.69210413015E+01  0.17338628326E+03  0.17120000000E+03 0.  0.
        998    1    1    2    0    0  0.47306269456E+01  0.35607395969E+00  0.14403795147E+04  0.14404220396E+04  0.10000000000E+02 0.  1.
</event>
<event>
 5    1  0.7732857E-009  0.3731750E+03  0.7957747E-01  0.3481425E+00
         13   -1    0    0    0    0  0.00000000000E+00  0.00000000000E+00  0.14999999963E+04  0.15000000000E+04  0.10566000000E+00 0. -1.
        994   -1    0    0    0    0 -0.00000000000E+00 -0.00000000000E+00  0.11368683772E-12  0.17120000000E+03  0.17120000000E+03 0.  0.
         13    1    1    2    0    0 -0.65251578162E+02 -0.22830000764E+03  0.91746097293E+03  0.94768840341E+03  0.10566000000E+00 0. -1.
        994    1    1    2    0    0  0.77749988315E+02  0.22393706761E+03  0.23382047470E+03  0.37439861822E+03  0.17120000000E+03 0.  0.
        998    1    1    2    0    0 -0.12498410153E+02  0.43629400303E+01  0.34871854865E+03  0.34911297838E+03  0.10000000000E+02 0.  0.
</event>
<event>
 5    1  0.7732857E-009  0.3825280E+03  0.7957747E-01  0.3440224E+00
         13   -1    0    0    0    0  0.00000000000E+00  0.00000000000E+00  0.14999999963E+04  0.15000000000E+04  0.10566000000E+00 0. -1.
        994   -1    0    0    0    0 -0.00000000000E+00 -0.00000000000E+00  0.11368683772E-12  0.17120000000E+03  0.17120000000E+03 0.  0.
         13    1    1    2    0    0  0.95067228943E+01 -0.12106391234E+02  0.40508971479E+02  0.43335094591E+02  0.10566000000E+00 0. -1.
        994    1    1    2    0    0  0.19436167507E+01  0.14041164475E+02  0.35288422547E+01  0.17182207272E+03  0.17120000000E+03 0.  0.
        998    1    1    2    0    0 -0.11450339645E+02 -0.19347732408E+01  0.14559621825E+04  0.14560428327E+04  0.10000000000E+02 0. -1.
</event>
<event>
 5    1  0.7732857E-009  0.3763921E+03  0.7957747E-01  0.3467020E+00
         13   -1    0    0    0    0  0.00000000000E+00  0.00000000000E+00  0.14999999963E+04  0.15000000000E+04  0.10566000000E+00 0. -1.
        994   -1    0    0    0    0 -0.00000000000E+00 -0.00000000000E+00  0.11368683772E-12  0.17120000000E+03  0.17120000000E+03 0.  0.
         13    1    1    2    0    0  0.16167293639E+02  0.13185858605E+02  0.34074404604E+02  0.39954029383E+02  0.10566000000E+00 0. -1.
        994    1    1    2    0    0 -0.10406368269E+02 -0.94311327779E+01  0.66331915498E+01  0.17190310642E+03  0.17120000000E+03 0.  0.
        998    1    1    2    0    0 -0.57609253703E+01 -0.37547258268E+01  0.14592924001E+04  0.14593428642E+04  0.10000000000E+02 0. -1.
</event>
<event>
 5    1  0.7732857E-009  0.4024801E+03  0.7957747E-01  0.3358759E+00
         13   -1    0    0    0    0  0.00000000000E+00  0.00000000000E+00  0.14999999963E+04  0.15000000000E+04  0.10566000000E+00 0.  1.
        994   -1    0    0    0    0 -0.00000000000E+00 -0.00000000000E+00  0.11368683772E-12  0.17120000000E+03  0.17120000000E+03 0.  0.
         13    1    1    2    0    0  0.10994584056E+02  0.64025835383E+02  0.58598950773E+02  0.87487351490E+02  0.10566000000E+00 0.  1.
        994    1    1    2    0    0 -0.19381504952E+02 -0.70089520608E+02  0.50500925317E+02  0.19273807899E+03  0.17120000000E+03 0.  0.
        998    1    1    2    0    0  0.83869208955E+01  0.60636852245E+01  0.13909001202E+04  0.13909745695E+04  0.10000000000E+02 0.  1.
</event>
<event>
 5    1  0.7732857E-009  0.3840975E+03  0.7957747E-01  0.3433509E+00
         13   -1    0    0    0    0  0.00000000000E+00  0.00000000000E+00  0.14999999963E+04  0.15000000000E+04  0.10566000000E+00 0. -1.
        994   -1    0    0    0    0 -0.00000000000E+00 -0.00000000000E+00  0.11368683772E-12  0.17120000000E+03  0.17120000000E+03 0.  0.
         13    1    1    2    0    0  0.21532801573E+01 -0.17342829805E+02  0.71515865444E+02  0.73620245417E+02  0.10566000000E+00 0. -1.
        994    1    1    2    0    0 -0.28365662915E+01  0.14701077766E+02  0.28186199746E+01  0.17187656156E+03  0.17120000000E+03 0.  0.
        998    1    1    2    0    0  0.68328613426E+00  0.26417520388E+01  0.14256655109E+04  0.14257031930E+04  0.10000000000E+02 0. -1.
</event>
<event>
 5    1  0.7732857E-009  0.3701094E+03  0.7957747E-01  0.3495388E+00
         13   -1    0    0    0    0  0.00000000000E+00  0.00000000000E+00  0.14999999963E+04  0.15000000000E+04  0.10566000000E+00 0. -1.
        994   -1    0    0    0    0 -0.00000000000E+00 -0.00000000000E+00  0.11368683772E-12  0.17120000000E+03  0.17120000000E+03 0.  0.
         13    1    1    2    0    0  0.25245888562E+02 -0.36949304366E+02  0.11365516804E+03  0.12214792004E+03  0.10566000000E+00 0. -1.
        994    1    1    2    0    0  0.30092488986E+01  0.12999441592E+02  0.98274844466E+01  0.17200017590E+03  0.17120000000E+03 0.  0.
        998    1    1    2    0    0 -0.28255137461E+02  0.23949862774E+02  0.13765173438E+04  0.13770519041E+04  0.10000000000E+02 0. -1.
</event>
<event>
 5    1  0.7732857E-009  0.3819678E+03  0.7957747E-01  0.3442635E+00
         13   -1    0    0    0    0  0.00000000000E+00  0.00000000000E+00  0.14999999963E+04  0.15000000000E+04  0.10566000000E+00 0. -1.
        994   -1    0    0    0    0 -0.00000000000E+00 -0.00000000000E+00  0.11368683772E-12  0.17120000000E+03  0.17120000000E+03 0.  0.
         13    1    1    2    0    0 -0.26521121753E+02  0.81010603007E+01  0.12023704964E+03  0.12339350205E+03  0.10566000000E+00 0. -1.
        994    1    1    2    0    0  0.15470900762E+02 -0.11616265102E+02  0.43871895030E+01  0.17234550710E+03  0.17120000000E+03 0.  0.
        998    1    1    2    0    0  0.11050220990E+02  0.35152048017E+01  0.13753757571E+04  0.13754609909E+04  0.10000000000E+02 0. -1.
</event>
<event>
 5    1  0.7732857E-009  0.4190510E+03  0.7957747E-01  0.3296962E+00
         13   -1    0    0    0    0  0.00000000000E+00  0.00000000000E+00  0.14999999963E+04  0.15000000000E+04  0.10566000000E+00 0.  1.
        994   -1    0    0    0    0 -0.00000000000E+00 -0.00000000000E+00  0.11368683772E-12  0.17120000000E+03  0.17120000000E+03 0.  0.
         13    1    1    2    0    0  0.12712184243E+03 -0.86430937062E+02  0.26114947480E+03  0.30303354444E+03  0.10566000000E+00 0.  1.
        994    1    1    2    0    0 -0.11983048005E+03  0.44760639219E+02  0.11350712111E+03  0.24198381209E+03  0.17120000000E+03 0.  0.
        998    1    1    2    0    0 -0.72913623846E+01  0.41670297843E+02  0.11253434004E+04  0.11261826435E+04  0.10000000000E+02 0.  1.
</event>
<event>
 5    1  0.7732857E-009  0.3853537E+03  0.7957747E-01  0.3428174E+00
         13   -1    0    0    0    0  0.00000000000E+00  0.00000000000E+00  0.14999999963E+04  0.15000000000E+04  0.10566000000E+00 0. -1.
        994   -1    0    0    0    0 -0.00000000000E+00 -0.00000000000E+00  0.11368683772E-12  0.17120000000E+03  0.17120000000E+03 0.  0.
         13    1    1    2    0    0  0.49528308417E+01 -0.11459818240E+02  0.52408488494E+02  0.53875029445E+02  0.10566000000E+00 0. -1.
        994    1    1    2    0    0 -0.85749890422E+01  0.99371990134E+01  0.20207680192E+01  0.17171430303E+03  0.17120000000E+03 0.  0.
        998    1    1    2    0    0  0.36221582006E+01  0.15226192266E+01  0.14455707398E+04  0.14456106675E+04  0.10000000000E+02 0. -1.
</event>
<event>
 5    1  0.7732857E-009  0.3859894E+03  0.7957747E-01  0.3425487E+00
         13   -1    0    0    0    0  0.00000000000E+00  0.00000000000E+00  0.14999999963E+04  0.15000000000E+04  0.10566000000E+00 0. -1.
        994   -1    0    0    0    0 -0.00000000000E+00 -0.00000000000E+00  0.11368683772E-12  0.17120000000E+03  0.17120000000E+03 0.  0.
         13    1    1    2    0    0  0.88587193579E+01  0.49068619465E+01  0.41016133996E+02  0.42247942137E+02  0.10566000000E+00 0. -1.
        994    1    1    2    0    0 -0.23192929104E+02 -0.85231646542E+01  0.31437452239E+01  0.17300254169E+03  0.17120000000E+03 0.  0.
        998    1    1    2    0    0  0.14334209746E+02  0.36163027077E+01  0.14558401171E+04  0.14559495162E+04  0.10000000000E+02 0. -1.
</event>
<event>
 5    1  0.7732857E-009  0.3840666E+03  0.7957747E-01  0.3433640E+00
         13   -1    0    0    0    0  0.00000000000E+00  0.00000000000E+00  0.14999999963E+04  0.15000000000E+04  0.10566000000E+00 0. -1.
        994   -1    0    0    0    0 -0.00000000000E+00 -0.00000000000E+00  0.11368683772E-12  0.17120000000E+03  0.17120000000E+03 0.  0.
         13    1    1    2    0    0  0.84933984321E+00  0.21108894115E+02  0.10777279645E+03  0.10982392092E+03  0.10566000000E+00 0. -1.
        994    1    1    2    0    0  0.16732641047E+01 -0.11195349175E+02  0.25170278959E+01  0.17159228154E+03  0.17120000000E+03 0.  0.
        998    1    1    2    0    0 -0.25226039479E+01 -0.99135449403E+01  0.13897101719E+04  0.13897837975E+04  0.10000000000E+02 0. -1.
</event>
<event>
 5    1  0.7732857E-009  0.3823984E+03  0.7957747E-01  0.3440781E+00
         13   -1    0    0    0    0  0.00000000000E+00  0.00000000000E+00  0.14999999963E+04  0.15000000000E+04  0.10566000000E+00 0.  1.
        994   -1    0    0    0    0 -0.00000000000E+00 -0.00000000000E+00  0.11368683772E-12  0.17120000000E+03  0.17120000000E+03 0.  0.
         13    1    1    2    0    0  0.14022628477E+02  0.66508394101E+01  0.40624333875E+02  0.43488106892E+02  0.10566000000E+00 0.  1.
        994    1    1    2    0    0 -0.58263835977E+01 -0.49538543966E+01  0.31213110580E+01  0.17139915403E+03  0.17120000000E+03 0.  0.
        998    1    1    2    0    0 -0.81962448798E+01 -0.16969850135E+01  0.14562543513E+04  0.14563127391E+04  0.10000000000E+02 0.  1.
</event>
<event>
 5    1  0.8091268E-009  0.3844964E+03  0.7957747E-01  0.3431811E+00
         13   -1    0    0    0    0  0.00000000000E+00  0.00000000000E+00  0.14999999963E+04  0.15000000000E+04  0.10566000000E+00 0. -1.
        994   -1    0    0    0    0 -0.00000000000E+00 -0.00000000000E+00  0.11368683772E-12  0.17120000000E+03  0.17120000000E+03 0.  0.
         13    1    1    2    0    0 -0.17577712171E+02 -0.47226503890E+01  0.81186328906E+02  0.83201625929E+02  0.10566000000E+00 0. -1.
        994    1    1    2    0    0  0.22821515395E+02  0.68798140046E+01  0.37541116023E+01  0.17289212463E+03  0.17120000000E+03 0.  0.
        998    1    1    2    0    0 -0.52438032242E+01 -0.21571636156E+01  0.14150595558E+04  0.14151062494E+04  0.10000000000E+02 0. -1.
</event>
<event>
 5    1  0.7732857E-009  0.3852661E+03  0.7957747E-01  0.3428544E+00
         13   -1    0    0    0    0  0.00000000000E+00  0.00000000000E+00  0.14999999963E+04  0.15000000000E+04  0.10566000000E+00 0.  1.
        994   -1    0    0    0    0 -0.00000000000E+00 -0.00000000000E+00  0.11368683772E-12  0.17120000000E+03  0.17120000000E+03 0.  0.
         13    1    1    2    0    0 -0.95475206253E+01 -0.29981395344E+01  0.35525996928E+02  0.36908692913E+02  0.10566000000E+00 0.  1.
        994    1    1    2    0    0 -0.97024477789E+01  0.11782745055E+02  0.22639430708E+01  0.17189396735E+03  0.17120000000E+03 0.  0.
        998    1    1    2    0    0  0.19249968404E+02 -0.87846055206E+01  0.14622100563E+04  0.14623973397E+04  0.10000000000E+02 0.  1.
</event>
<event>
 5    1  0.7732857E-009  0.3785410E+03  0.7957747E-01  0.3457536E+00
         13   -1    0    0    0    0  0.00000000000E+00  0.00000000000E+00  0.14999999963E+04  0.15000000000E+04  0.10566000000E+00 0.  1.
        994   -1    0    0    0    0 -0.00000000000E+00 -0.00000000000E+00  0.11368683772E-12  0.17120000000E+03  0.17120000000E+03 0.  0.
         13    1    1    2    0    0  0.36269647491E+01 -0.10173552018E+03  0.37570138230E+03  0.38924903438E+03  0.10566000000E+00 0.  1.
        994    1    1    2    0    0 -0.38641854493E+01  0.38771402534E+02  0.21019765580E+02  0.17683162649E+03  0.17120000000E+03 0.  0.
        998    1    1    2    0    0  0.23722070029E+00  0.62964117648E+02  0.11032788484E+04  0.11051193391E+04  0.10000000000E+02 0.  1.
</event>
<event>
 5    1  0.7732857E-009  0.3771641E+03  0.7957747E-01  0.3463600E+00
         13   -1    0    0    0    0  0.00000000000E+00  0.00000000000E+00  0.14999999963E+04  0.15000000000E+04  0.10566000000E+00 0.  1.
        994   -1    0    0    0    0 -0.00000000000E+00 -0.00000000000E+00  0.11368683772E-12  0.17120000000E+03  0.17120000000E+03 0.  0.
         13    1    1    2    0    0 -0.14811067455E+02 -0.22526004385E+02  0.19825228760E+02  0.33464002333E+02  0.10566000000E+00 0.  1.
        994    1    1    2    0    0  0.15113497893E+02 -0.25760693868E+02  0.17983789714E+02  0.17471373117E+03  0.17120000000E+03 0.  0.
        998    1    1    2    0    0 -0.30243043877E+00  0.48286698253E+02  0.14621909778E+04  0.14630222665E+04  0.10000000000E+02 0.  1.
</event>
<event>
 5    1  0.7732857E-009  0.3843803E+03  0.7957747E-01  0.3432305E+00
         13   -1    0    0    0    0  0.00000000000E+00  0.00000000000E+00  0.14999999963E+04  0.15000000000E+04  0.10566000000E+00 0. -1.
        994   -1    0    0    0    0 -0.00000000000E+00 -0.00000000000E+00  0.11368683772E-12  0.17120000000E+03  0.17120000000E+03 0.  0.
         13    1    1    2    0    0  0.17879710953E+02  0.31416345864E+01  0.84445563150E+02  0.86374870370E+02  0.10566000000E+00 0. -1.
        994    1    1    2    0    0 -0.11734468653E+02 -0.36483210012E+01  0.24358834881E+01  0.17165774532E+03  0.17120000000E+03 0.  0.
        998    1    1    2    0    0 -0.61452422993E+01  0.50668641475E+00  0.14131185496E+04  0.14131673843E+04  0.10000000000E+02 0. -1.
</event>
<event>
 5    1  0.7732857E-009  0.3795544E+03  0.7957747E-01  0.3453101E+00
         13   -1    0    0    0    0  0.00000000000E+00  0.00000000000E+00  0.14999999963E+04  0.15000000000E+04  0.10566000000E+00 0.  1.
        994   -1    0    0    0    0 -0.00000000000E+00 -0.00000000000E+00  0.11368683772E-12  0.17120000000E+03  0.17120000000E+03 0.  0.
         13    1    1    2    0    0 -0.87662009961E+01  0.24658653068E+02  0.78030678820E+02  0.82302451071E+02  0.10566000000E+00 0.  1.
        994    1    1    2    0    0  0.12211389991E+02 -0.99299872114E+01  0.51880302396E+01  0.17200022776E+03  0.17120000000E+03 0.  0.
        998    1    1    2    0    0 -0.34451889952E+01 -0.14728665857E+02  0.14167812872E+04  0.14168973212E+04  0.10000000000E+02 0.  1.
</event>
<event>
 5    1  0.7732857E-009  0.3827027E+03  0.7957747E-01  0.3439474E+00
         13   -1    0    0    0    0  0.00000000000E+00  0.00000000000E+00  0.14999999963E+04  0.15000000000E+04  0.10566000000E+00 0. -1.
        994   -1    0    0    0    0 -0.00000000000E+00 -0.00000000000E+00  0.11368683772E-12  0.17120000000E+03  0.17120000000E+03 0.  0.
         13    1    1    2    0    0 -0.90128430349E+01 -0.31045080128E+02  0.18024966980E+03  0.18312559342E+03  0.10566000000E+00 0. -1.
        994    1    1    2    0    0  0.25379756258E+02  0.17949657617E+02  0.59833398143E+01  0.17410216136E+03  0.17120000000E+03 0.  0.
        998    1    1    2    0    0 -0.16366913224E+02  0.13095422511E+02  0.13137669867E+04  0.13139722452E+04  0.10000000000E+02 0. -1.
</event>
<event>
 5    1  0.7732857E-009  0.4036764E+03  0.7957747E-01  0.3354130E+00
         13   -1    0    0    0    0  0.00000000000E+00  0.00000000000E+00  0.14999999963E+04  0.15000000000E+04  0.10566000000E+00 0. -1.
        994   -1    0    0    0    0 -0.00000000000E+00 -0.00000000000E+00  0.11368683772E-12  0.17120000000E+03  0.17120000000E+03 0.  0.
         13    1    1    2    0    0  0.21258647986E+02 -0.20804523790E+02  0.19439633623E+01  0.29808530355E+02  0.10566000000E+00 0. -1.
        994    1    1    2    0    0 -0.15457932564E+02  0.34547760309E+02  0.35707718318E+02  0.17893288286E+03  0.17120000000E+03 0.  0.
        998    1    1    2    0    0 -0.58007154220E+01 -0.13743236519E+02  0.14623483146E+04  0.14624585868E+04  0.10000000000E+02 0. -1.
</event>
<event>
 5    1  0.7732857E-009  0.3838528E+03  0.7957747E-01  0.3434552E+00
         13   -1    0    0    0    0  0.00000000000E+00  0.00000000000E+00  0.14999999963E+04  0.15000000000E+04  0.10566000000E+00 0. -1.
        994   -1    0    0    0    0 -0.00000000000E+00 -0.00000000000E+00  0.11368683772E-12  0.17120000000E+03  0.17120000000E+03 0.  0.
         13    1    1    2    0    0  0.72963493741E+01  0.15555166077E+02  0.68060951893E+02  0.70196183960E+02  0.10566000000E+00 0. -1.
        994    1    1    2    0    0 -0.95931736211E+01 -0.35917805825E+01  0.25472099034E+01  0.17152509480E+03  0.17120000000E+03 0.  0.
        998    1    1    2    0    0  0.22968242470E+01 -0.11963385495E+02  0.14293918345E+04  0.14294787212E+04  0.10000000000E+02 0. -1.
</event>
<event>
 5    1  0.7732857E-009  0.3766542E+03  0.7957747E-01  0.3465858E+00
         13   -1    0    0    0    0  0.00000000000E+00  0.00000000000E+00  0.14999999963E+04  0.15000000000E+04  0.10566000000E+00 0. -1.
        994   -1    0    0    0    0 -0.00000000000E+00 -0.00000000000E+00  0.11368683772E-12  0.17120000000E+03  0.17120000000E+03 0.  0.
         13    1    1    2    0    0 -0.40862418508E+01  0.16487997342E+02  0.22986617516E+02  0.28582287832E+02  0.10566000000E+00 0. -1.
        994    1    1    2    0    0  0.33369451684E+02  0.93495377707E+01  0.99020352059E+01  0.17495263491E+03  0.17120000000E+03 0.  0.
        998    1    1    2    0    0 -0.29283209833E+02 -0.25837535113E+02  0.14671113436E+04  0.14676650773E+04  0.10000000000E+02 0. -1.
</event>
<event>
 5    1  0.8083925E-009  0.3859296E+03  0.7957747E-01  0.3425739E+00
         13   -1    0    0    0    0  0.00000000000E+00  0.00000000000E+00  0.14999999963E+04  0.15000000000E+04  0.10566000000E+00 0. -1.
        994   -1    0    0    0    0 -0.00000000000E+00 -0.00000000000E+00  0.11368683772E-12  0.17120000000E+03  0.17120000000E+03 0.  0.
         13    1    1    2    0    0  0.83067582114E+01  0.70536155136E+01  0.51471020372E+02  0.52612097715E+02  0.10566000000E+00 0. -1.
        994    1    1    2    0    0 -0.59603298778E+01 -0.36044179575E+01  0.13284239649E+01  0.17134678891E+03  0.17120000000E+03 0.  0.
        998    1    1    2    0    0 -0.23464283336E+01 -0.34491975560E+01  0.14472005519E+04  0.14472411134E+04  0.10000000000E+02 0. -1.
</event>
<event>
 5    1  0.7732857E-009  0.3820209E+03  0.7957747E-01  0.3442406E+00
         13   -1    0    0    0    0  0.00000000000E+00  0.00000000000E+00  0.14999999963E+04  0.15000000000E+04  0.10566000000E+00 0. -1.
        994   -1    0    0    0    0 -0.00000000000E+00 -0.00000000000E+00  0.11368683772E-12  0.17120000000E+03  0.17120000000E+03 0.  0.
         13    1    1    2    0    0 -0.14507004110E+02 -0.95458403498E+01  0.48400126780E+02  0.51421393142E+02  0.10566000000E+00 0. -1.
        994    1    1    2    0    0  0.70356653434E+01  0.23827408619E+00  0.32810466449E+01  0.17137608535E+03  0.17120000000E+03 0.  0.
        998    1    1    2    0    0  0.74713387666E+01  0.93075662636E+01  0.14483188229E+04  0.14484025215E+04  0.10000000000E+02 0. -1.
</event>
<event>
 5    1  0.7732857E-009  0.3694991E+03  0.7957747E-01  0.3498196E+00
         13   -1    0    0    0    0  0.00000000000E+00  0.00000000000E+00  0.14999999963E+04  0.15000000000E+04  0.10566000000E+00 0.  1.
        994   -1    0    0    0    0 -0.00000000000E+00 -0.00000000000E+00  0.11368683772E-12  0.17120000000E+03  0.17120000000E+03 0.  0.
         13    1    1    2    0    0  0.36389543645E+02  0.31049428584E+02  0.11400361481E+03  0.12363292949E+03  0.10566000000E+00 0.  1.
        994    1    1    2    0    0 -0.28564831629E+02 -0.21517110425E+02  0.13973860657E+02  0.17545268430E+03  0.17120000000E+03 0.  0.
        998    1    1    2    0    0 -0.78247120156E+01 -0.95323181583E+01  0.13720225208E+04  0.13721143862E+04  0.10000000000E+02 0.  1.
</event>
<event>
 5    1  0.7732857E-009  0.3817969E+03  0.7957747E-01  0.3443371E+00
         13   -1    0    0    0    0  0.00000000000E+00  0.00000000000E+00  0.14999999963E+04  0.15000000000E+04  0.10566000000E+00 0.  1.
        994   -1    0    0    0    0 -0.00000000000E+00 -0.00000000000E+00  0.11368683772E-12  0.17120000000E+03  0.17120000000E+03 0.  0.
         13    1    1    2    0    0 -0.13479882879E+02 -0.21650650257E+03  0.10834379681E+04  0.11049410006E+04  0.10566000000E+00 0.  1.
        994    1    1    2    0    0  0.27086421739E+02  0.21973191729E+03  0.18822150637E+03  0.33727224194E+03  0.17120000000E+03 0.  0.
        998    1    1    2    0    0 -0.13606538860E+02 -0.32254147180E+01  0.22834052178E+03  0.22898675745E+03  0.10000000000E+02 0. -1.
</event>
<event>
 5    1  0.7732857E-009  0.3844691E+03  0.7957747E-01  0.3431927E+00
         13   -1    0    0    0    0  0.00000000000E+00  0.00000000000E+00  0.14999999963E+04  0.15000000000E+04  0.10566000000E+00 0.  1.
        994   -1    0    0    0    0 -0.00000000000E+00 -0.00000000000E+00  0.11368683772E-12  0.17120000000E+03  0.17120000000E+03 0.  0.
         13    1    1    2    0    0 -0.11051877468E+02  0.95131667438E+01  0.54183561117E+02  0.56111619086E+02  0.10566000000E+00 0.  1.
        994    1    1    2    0    0  0.12618420064E+02 -0.88527358436E+01  0.26770582301E+01  0.17191335637E+03  0.17120000000E+03 0.  0.
        998    1    1    2    0    0 -0.15665425952E+01 -0.66043090026E+00  0.14431393769E+04  0.14431750245E+04  0.10000000000E+02 0.  1.
</event>
<event>
 5    1  0.7732857E-009  0.3857073E+03  0.7957747E-01  0.3426678E+00
         13   -1    0    0    0    0  0.00000000000E+00  0.00000000000E+00  0.14999999963E+04  0.15000000000E+04  0.10566000000E+00 0. -1.
        994   -1    0    0    0    0 -0.00000000000E+00 -0.00000000000E+00  0.11368683772E-12  0.17120000000E+03  0.17120000000E+03 0.  0.
         13    1    1    2    0    0 -0.13213419611E+02 -0.37958169301E-01  0.76810368675E+02  0.77938692564E+02  0.10566000000E+00 0. -1.
        994    1    1    2    0    0 -0.52009368137E+01 -0.70720209860E+01  0.15322854416E+01  0.17143176813E+03  0.17120000000E+03 0.  0.
        998    1    1    2    0    0  0.18414356425E+02  0.71099791553E+01  0.14216573422E+04  0.14218295393E+04  0.10000000000E+02 0. -1.
</event>
<event>
 5    1  0.7732857E-009  0.3848146E+03  0.7957747E-01  0.3430459E+00
         13   -1    0    0    0    0  0.00000000000E+00  0.00000000000E+00  0.14999999963E+04  0.15000000000E+04  0.10566000000E+00 0.  1.
        994   -1    0    0    0    0 -0.00000000000E+00 -0.00000000000E+00  0.11368683772E-12  0.17120000000E+03  0.17120000000E+03 0.  0.
         13    1    1    2    0    0 -0.64913304680E+01 -0.85371024795E+01  0.35294048704E+02  0.36887674472E+02  0.10566000000E+00 0.  1.
        994    1    1    2    0    0 -0.69214762760E+01 -0.26546651142E+01  0.19030916326E+01  0.17137098891E+03  0.17120000000E+03 0.  0.
        998    1    1    2    0    0  0.13412806744E+02  0.11191767594E+02  0.14628028559E+04  0.14629413366E+04  0.10000000000E+02 0.  1.
</event>
<event>
 5    1  0.7732857E-009  0.3826869E+03  0.7957747E-01  0.3439542E+00
         13   -1    0    0    0    0  0.00000000000E+00  0.00000000000E+00  0.14999999963E+04  0.15000000000E+04  0.10566000000E+00 0. -1.
        994   -1    0    0    0    0 -0.00000000000E+00 -0.00000000000E+00  0.11368683772E-12  0.17120000000E+03  0.17120000000E+03 0.  0.
         13    1    1    2    0    0  0.98340356381E+01  0.15935224547E+02  0.66426691505E+02  0.69015622482E+02  0.10566000000E+00 0. -1.
        994    1    1    2    0    0 -0.86634549350E+01  0.64866905199E+01  0.31711407612E+01  0.17157106032E+03  0.17120000000E+03 0.  0.
        998    1    1    2    0    0 -0.11705807032E+01 -0.22421915066E+02  0.14304021640E+04  0.14306133172E+04  0.10000000000E+02 0. -1.
</event>
<event>
 5    1  0.7732857E-009  0.3784322E+03  0.7957747E-01  0.3458014E+00
         13   -1    0    0    0    0  0.00000000000E+00  0.00000000000E+00  0.14999999963E+04  0.15000000000E+04  0.10566000000E+00 0.  1.
        994   -1    0    0    0    0 -0.00000000000E+00 -0.00000000000E+00  0.11368683772E-12  0.17120000000E+03  0.17120000000E+03 0.  0.
         13    1    1    2    0    0 -0.74966147900E+01 -0.18719455372E+02  0.41046127202E+02  0.45731968742E+02  0.10566000000E+00 0.  1.
        994    1    1    2    0    0  0.88036033070E+01 -0.31969537505E+01  0.52215123269E+01  0.17153550109E+03  0.17120000000E+03 0.  0.
        998    1    1    2    0    0 -0.13069885171E+01  0.21916409122E+02  0.14537323567E+04  0.14539325302E+04  0.10000000000E+02 0.  1.
</event>
<event>
 5    1  0.7732857E-009  0.3812220E+03  0.7957747E-01  0.3445855E+00
         13   -1    0    0    0    0  0.00000000000E+00  0.00000000000E+00  0.14999999963E+04  0.15000000000E+04  0.10566000000E+00 0.  1.
        994   -1    0    0    0    0 -0.00000000000E+00 -0.00000000000E+00  0.11368683772E-12  0.17120000000E+03  0.17120000000E+03 0.  0.
         13    1    1    2    0    0 -0.14555621132E+02 -0.11861369164E+02  0.48133685752E+02  0.51666440299E+02  0.10566000000E+00 0.  1.
        994    1    1    2    0    0  0.12996048762E+02  0.95242340991E+01  0.43823847184E+01  0.17201236471E+03  0.17120000000E+03 0.  0.
        998    1    1    2    0    0  0.15595723696E+01  0.23371350648E+01  0.14474839258E+04  0.14475211950E+04  0.10000000000E+02 0.  1.
</event>
<event>
 5    1  0.7732857E-009  0.3718255E+03  0.7957747E-01  0.3487543E+00
         13   -1    0    0    0    0  0.00000000000E+00  0.00000000000E+00  0.14999999963E+04  0.15000000000E+04  0.10566000000E+00 0.  1.
        994   -1    0    0    0    0 -0.00000000000E+00 -0.00000000000E+00  0.11368683772E-12  0.17120000000E+03  0.17120000000E+03 0.  0.
         13    1    1    2    0    0 -0.41873695354E+02  0.33986864376E+02  0.15828926060E+03  0.16722444348E+03  0.10566000000E+00 0.  1.
        994    1    1    2    0    0  0.49010389630E+02 -0.18284240203E+02  0.17779366868E+02  0.17989407333E+03  0.17120000000E+03 0.  0.
        998    1    1    2    0    0 -0.71366942765E+01 -0.15702624173E+02  0.13239313688E+04  0.13240814832E+04  0.10000000000E+02 0.  1.
</event>
<event>
 5    1  0.7732857E-009  0.3833368E+03  0.7957747E-01  0.3436757E+00
         13   -1    0    0    0    0  0.00000000000E+00  0.00000000000E+00  0.14999999963E+04  0.15000000000E+04  0.10566000000E+00 0. -1.
        994   -1    0    0    0    0 -0.00000000000E+00 -0.00000000000E+00  0.11368683772E-12  0.17120000000E+03  0.17120000000E+03 0.  0.
         13    1    1    2    0    0 -0.17621403833E+02 -0.96290997901E+01  0.79677164944E+02  0.82168699718E+02  0.10566000000E+00 0. -1.
        994    1    1    2    0    0  0.90456983889E+01  0.17909921350E+02  0.37904377287E+01  0.17241344890E+03  0.17120000000E+03 0.  0.
        998    1    1    2    0    0  0.85757054441E+01 -0.82808215601E+01  0.14165323936E+04  0.14166178514E+04  0.10000000000E+02 0. -1.
</event>
<event>
 5    1  0.7732857E-009  0.3846637E+03  0.7957747E-01  0.3431100E+00
         13   -1    0    0    0    0  0.00000000000E+00  0.00000000000E+00  0.14999999963E+04  0.15000000000E+04  0.10566000000E+00 0.  1.
        994   -1    0    0    0    0 -0.00000000000E+00 -0.00000000000E+00  0.11368683772E-12  0.17120000000E+03  0.17120000000E+03 0.  0.
         13    1    1    2    0    0  0.11966573977E+02  0.10604545781E+02  0.68631737219E+02  0.70469722589E+02  0.10566000000E+00 0.  1.
        994    1    1    2    0    0 -0.88876343803E+01 -0.13966479045E+02  0.26999671817E+01  0.17201971516E+03  0.17120000000E+03 0.  0.
        998    1    1    2    0    0 -0.30789395971E+01  0.33619332638E+01  0.14286682919E+04  0.14287105622E+04  0.10000000000E+02 0.  1.
</event>
<event>
 5    1  0.7732857E-009  0.3852377E+03  0.7957747E-01  0.3428665E+00
         13   -1    0    0    0    0  0.00000000000E+00  0.00000000000E+00  0.14999999963E+04  0.15000000000E+04  0.10566000000E+00 0. -1.
        994   -1    0    0    0    0 -0.00000000000E+00 -0.00000000000E+00  0.11368683772E-12  0.17120000000E+03  0.17120000000E+03 0.  0.
         13    1    1    2    0    0  0.17921105283E+01  0.10867842307E+02  0.37983131683E+02  0.39548086086E+02  0.10566000000E+00 0. -1.
        994    1    1    2    0    0 -0.11249582124E+02 -0.16618533859E+02  0.28367161897E+01  0.17239552118E+03  0.17120000000E+03 0.  0.
        998    1    1    2    0    0  0.94574715953E+01  0.57506915525E+01  0.14591801484E+04  0.14592563927E+04  0.10000000000E+02 0. -1.
</event>
<event>
 5    1  0.7732857E-009  0.3863438E+03  0.7957747E-01  0.3423993E+00
         13   -1    0    0    0    0  0.00000000000E+00  0.00000000000E+00  0.14999999963E+04  0.15000000000E+04  0.10566000000E+00 0.  1.
        994   -1    0    0    0    0 -0.00000000000E+00 -0.00000000000E+00  0.11368683772E-12  0.17120000000E+03  0.17120000000E+03 0.  0.
         13    1    1    2    0    0  0.70897574648E+01 -0.87746720060E+01  0.67279284725E+02  0.68218566731E+02  0.10566000000E+00 0.  1.
        994    1    1    2    0    0 -0.66236690354E+01  0.40778179911E+01  0.11625360189E+01  0.17138055047E+03  0.17120000000E+03 0.  0.
        998    1    1    2    0    0 -0.46608842947E+00  0.46968540149E+01  0.14315581755E+04  0.14316008828E+04  0.10000000000E+02 0.  1.
</event>
<event>
 5    1  0.7732857E-009  0.3642368E+03  0.7957747E-01  0.3522804E+00
         13   -1    0    0    0    0  0.00000000000E+00  0.00000000000E+00  0.14999999963E+04  0.15000000000E+04  0.10566000000E+00 0. -1.
        994   -1    0    0    0    0 -0.00000000000E+00 -0.00000000000E+00  0.11368683772E-12  0.17120000000E+03  0.17120000000E+03 0.  0.
         13    1    1    2    0    0 -0.17076441856E+03  0.13605366993E+03  0.11392998907E+04  0.11600324737E+04  0.10566000000E+00 0. -1.
        994    1    1    2    0    0  0.15870000560E+03 -0.12293388902E+03  0.15817810931E+03  0.30761694868E+03  0.17120000000E+03 0.  0.
        998    1    1    2    0    0  0.12064412957E+02 -0.13119780904E+02  0.20252199622E+03  0.20355057765E+03  0.10000000000E+02 0.  0.
</event>
<event>
 5    1  0.7732857E-009  0.3775471E+03  0.7957747E-01  0.3461909E+00
         13   -1    0    0    0    0  0.00000000000E+00  0.00000000000E+00  0.14999999963E+04  0.15000000000E+04  0.10566000000E+00 0.  1.
        994   -1    0    0    0    0 -0.00000000000E+00 -0.00000000000E+00  0.11368683772E-12  0.17120000000E+03  0.17120000000E+03 0.  0.
         13    1    1    2    0    0 -0.41643128998E+02  0.10191700115E+03  0.39793522166E+03  0.41288458087E+03  0.10566000000E+00 0.  1.
        994    1    1    2    0    0  0.55074859859E+02 -0.49383930390E+02  0.34909878584E+02  0.18973706120E+03  0.17120000000E+03 0.  0.
        998    1    1    2    0    0 -0.13431730861E+02 -0.52533070759E+02  0.10671548960E+04  0.10685783579E+04  0.10000000000E+02 0.  1.
</event>
<event>
 5    1  0.7732857E-009  0.3835741E+03  0.7957747E-01  0.3435742E+00
         13   -1    0    0    0    0  0.00000000000E+00  0.00000000000E+00  0.14999999963E+04  0.15000000000E+04  0.10566000000E+00 0. -1.
        994   -1    0    0    0    0 -0.00000000000E+00 -0.00000000000E+00  0.11368683772E-12  0.17120000000E+03  0.17120000000E+03 0.  0.
         13    1    1    2    0    0 -0.12119287613E+02 -0.90156462636E+01  0.46505091046E+02  0.48896765405E+02  0.10566000000E+00 0. -1.
        994    1    1    2    0    0  0.15717730951E+02  0.83057177549E+01  0.33845787145E+01  0.17215378993E+03  0.17120000000E+03 0.  0.
        998    1    1    2    0    0 -0.35984433377E+01  0.70992850872E+00  0.14501103265E+04  0.14501494447E+04  0.10000000000E+02 0. -1.
</event>
<event>
 5    1  0.7732857E-009  0.3745367E+03  0.7957747E-01  0.3475297E+00
         13   -1    0    0    0    0  0.00000000000E+00  0.00000000000E+00  0.14999999963E+04  0.15000000000E+04  0.10566000000E+00 0. -1.
        994   -1    0    0    0    0 -0.00000000000E+00 -0.00000000000E+00  0.11368683772E-12  0.17120000000E+03  0.17120000000E+03 0.  0.
         13    1    1    2    0    0 -0.22599869929E+01  0.35016951764E+02  0.11648844183E+03  0.12165879622E+03  0.10566000000E+00 0. -1.
        994    1    1    2    0    0 -0.15257671467E+02  0.41799800797E+02  0.13687860934E+02  0.17741707196E+03  0.17120000000E+03 0.  0.
        998    1    1    2    0    0  0.17517658460E+02 -0.76816752561E+02  0.13698236935E+04  0.13721241318E+04  0.10000000000E+02 0. -1.
</event>
<event>
 5    1  0.7732857E-009  0.3842626E+03  0.7957747E-01  0.3432806E+00
         13   -1    0    0    0    0  0.00000000000E+00  0.00000000000E+00  0.14999999963E+04  0.15000000000E+04  0.10566000000E+00 0.  1.
        994   -1    0    0    0    0 -0.00000000000E+00 -0.00000000000E+00  0.11368683772E-12  0.17120000000E+03  0.17120000000E+03 0.  0.
         13    1    1    2    0    0  0.93870331757E+01 -0.18439963871E+02  0.10621960754E+03  0.10821628736E+03  0.10566000000E+00 0.  1.
        994    1    1    2    0    0 -0.34252566931E+01  0.13782818605E+02  0.26618720668E+01  0.17180868440E+03  0.17120000000E+03 0.  0.
        998    1    1    2    0    0 -0.59617764826E+01  0.46571452659E+01  0.13911185167E+04  0.13911750282E+04  0.10000000000E+02 0.  1.
</event>
<event>
 5    1  0.7732857E-009  0.3847251E+03  0.7957747E-01  0.3430839E+00
         13   -1    0    0    0    0  0.00000000000E+00  0.00000000000E+00  0.14999999963E+04  0.15000000000E+04  0.10566000000E+00 0. -1.
        994   -1    0    0    0    0 -0.00000000000E+00 -0.00000000000E+00  0.11368683772E-12  0.17120000000E+03  0.17120000000E+03 0.  0.
         13    1    1    2    0    0 -0.13500781551E+02  0.41395359220E+01  0.60719619714E+02  0.62340117440E+02  0.10566000000E+00 0. -1.
        994    1    1    2    0    0 -0.20986901105E+00  0.10356307217E+02  0.21199634471E+01  0.17152618281E+03  0.17120000000E+03 0.  0.
        998    1    1    2    0    0  0.13710650562E+02 -0.14495843139E+02  0.14371604131E+04  0.14373336998E+04  0.10000000000E+02 0. -1.
</event>
<event>
 5    1  0.7732857E-009  0.3853637E+03  0.7957747E-01  0.3428131E+00
         13   -1    0    0    0    0  0.00000000000E+00  0.00000000000E+00  0.14999999963E+04  0.15000000000E+04  0.10566000000E+00 0.  1.
        994   -1    0    0    0    0 -0.00000000000E+00 -0.00000000000E+00  0.11368683772E-12  0.17120000000E+03  0.17120000000E+03 0.  0.
         13    1    1    2    0    0  0.12740975519E+02  0.46169410577E+01  0.62130369056E+02  0.63591214212E+02  0.10566000000E+00 0.  1.
        994    1    1    2    0    0 -0.86385281143E+01 -0.13154413018E+02  0.22636098301E+01  0.17193669381E+03  0.17120000000E+03 0.  0.
        998    1    1    2    0    0 -0.41024474048E+01  0.85374719603E+01  0.14356060174E+04  0.14356720920E+04  0.10000000000E+02 0.  1.
</event>
<event>
 5    1  0.7732857E-009  0.3841743E+03  0.7957747E-01  0.3433182E+00
         13   -1    0    0    0    0  0.00000000000E+00  0.00000000000E+00  0.14999999963E+04  0.15000000000E+04  0.10566000000E+00 0. -1.
        994   -1    0    0    0    0 -0.00000000000E+00 -0.00000000000E+00  0.11368683772E-12  0.17120000000E+03  0.17120000000E+03 0.  0.
         13    1    1    2    0    0 -0.21366750385E+01  0.19333700432E+02  0.92158328438E+02  0.94188778615E+02  0.10566000000E+00 0. -1.
        994    1    1    2    0    0  0.61645409637E+01 -0.12070143151E+02  0.26466048472E+01  0.17175603174E+03  0.17120000000E+03 0.  0.
        998    1    1    2    0    0 -0.40278659253E+01 -0.72635572805E+01  0.14051950630E+04  0.14052551896E+04  0.10000000000E+02 0. -1.
</event>
<event>
 5    1  0.7732857E-009  0.3852787E+03  0.7957747E-01  0.3428491E+00
         13   -1    0    0    0    0  0.00000000000E+00  0.00000000000E+00  0.14999999963E+04  0.15000000000E+04  0.10566000000E+00 0. -1.
        994   -1    0    0    0    0 -0.00000000000E+00 -0.00000000000E+00  0.11368683772E-12  0.17120000000E+03  0.17120000000E+03 0.  0.
         13    1    1    2    0    0  0.12874471562E+02  0.57902589532E+01  0.66018604785E+02  0.67511083968E+02  0.10566000000E+00 0. -1.
        994    1    1    2    0    0 -0.10397333722E+02 -0.48928744683E+01  0.19258320355E+01  0.17159601860E+03  0.17120000000E+03 0.  0.
        998    1    1    2    0    0 -0.24771378399E+01 -0.89738448494E+00  0.14320555595E+04  0.14320928974E+04  0.10000000000E+02 0. -1.
</event>
<event>
 5    1  0.7732857E-009  0.3779834E+03  0.7957747E-01  0.3459987E+00
         13   -1    0    0    0    0  0.00000000000E+00  0.00000000000E+00  0.14999999963E+04  0.15000000000E+04  0.10566000000E+00 0.  1.
        994   -1    0    0    0    0 -0.00000000000E+00 -0.00000000000E+00  0.11368683772E-12  0.17120000000E+03  0.17120000000E+03 0.  0.
         13    1    1    2    0    0 -0.11682444192E+02 -0.18009973645E+02  0.41780173424E+02  0.46972680447E+02  0.10566000000E+00 0.  1.
        994    1    1    2    0    0  0.18753153160E+02  0.12685262457E+02  0.68815834992E+01  0.17282763908E+03  0.17120000000E+03 0.  0.
        998    1    1    2    0    0 -0.70707089679E+01  0.53247111876E+01  0.14513382394E+04  0.14513996805E+04  0.10000000000E+02 0.  1.
</event>
<event>
 5    1  0.7732857E-009  0.3834570E+03  0.7957747E-01  0.3436243E+00
         13   -1    0    0    0    0  0.00000000000E+00  0.00000000000E+00  0.14999999963E+04  0.15000000000E+04  0.10566000000E+00 0. -1.
        994   -1    0    0    0    0 -0.00000000000E+00 -0.00000000000E+00  0.11368683772E-12  0.17120000000E+03  0.17120000000E+03 0.  0.
         13    1    1    2    0    0  0.15129900737E+02 -0.25562509398E+01  0.47528203699E+02  0.49943864749E+02  0.10566000000E+00 0. -1.
        994    1    1    2    0    0 -0.13763636334E+02  0.43258128624E+01  0.30864397326E+01  0.17183456129E+03  0.17120000000E+03 0.  0.
        998    1    1    2    0    0 -0.13662644032E+01 -0.17695619226E+01  0.14493853528E+04  0.14494215740E+04  0.10000000000E+02 0. -1.
</event>
<event>
 5    1  0.7732857E-009  0.3855584E+03  0.7957747E-01  0.3427307E+00
         13   -1    0    0    0    0  0.00000000000E+00  0.00000000000E+00  0.14999999963E+04  0.15000000000E+04  0.10566000000E+00 0. -1.
        994   -1    0    0    0    0 -0.00000000000E+00 -0.00000000000E+00  0.11368683772E-12  0.17120000000E+03  0.17120000000E+03 0.  0.
         13    1    1    2    0    0 -0.95316730680E+01 -0.91560084353E+01  0.70690384536E+02  0.71915414981E+02  0.10566000000E+00 0. -1.
        994    1    1    2    0    0  0.42322469255E+01 -0.83599509551E+01  0.16414196745E+01  0.17146409231E+03  0.17120000000E+03 0.  0.
        998    1    1    2    0    0  0.52994261425E+01  0.17515959390E+02  0.14276681921E+04  0.14278204927E+04  0.10000000000E+02 0. -1.
</event>
<event>
 5    1  0.7732857E-009  0.3788154E+03  0.7957747E-01  0.3456333E+00
         13   -1    0    0    0    0  0.00000000000E+00  0.00000000000E+00  0.14999999963E+04  0.15000000000E+04  0.10566000000E+00 0. -1.
        994   -1    0    0    0    0 -0.00000000000E+00 -0.00000000000E+00  0.11368683772E-12  0.17120000000E+03  0.17120000000E+03 0.  0.
         13    1    1    2    0    0 -0.40102947586E+01 -0.10601190347E+02  0.11880212122E+02  0.16420058006E+02  0.10566000000E+00 0. -1.
        994    1    1    2    0    0  0.18554219115E+01 -0.77646849599E+01  0.49462163138E+01  0.17145739406E+03  0.17120000000E+03 0.  0.
        998    1    1    2    0    0  0.21548728471E+01  0.18365875307E+02  0.14831735678E+04  0.14833225479E+04  0.10000000000E+02 0. -1.
</event>
<event>
 5    1  0.7732857E-009  0.3841966E+03  0.7957747E-01  0.3433087E+00
         13   -1    0    0    0    0  0.00000000000E+00  0.00000000000E+00  0.14999999963E+04  0.15000000000E+04  0.10566000000E+00 0. -1.
        994   -1    0    0    0    0 -0.00000000000E+00 -0.00000000000E+00  0.11368683772E-12  0.17120000000E+03  0.17120000000E+03 0.  0.
         13    1    1    2    0    0  0.10073521221E+01 -0.22799746521E+02  0.11659850982E+03  0.11881105528E+03  0.10566000000E+00 0. -1.
        994    1    1    2    0    0  0.23862324027E+01  0.26561969226E+02  0.43781585717E+01  0.17332005247E+03  0.17120000000E+03 0.  0.
        998    1    1    2    0    0 -0.33935845248E+01 -0.37622227042E+01  0.13790233279E+04  0.13790688923E+04  0.10000000000E+02 0. -1.
</event>
<event>
 5    1  0.7732857E-009  0.4032795E+03  0.7957747E-01  0.3355663E+00
         13   -1    0    0    0    0  0.00000000000E+00  0.00000000000E+00  0.14999999963E+04  0.15000000000E+04  0.10566000000E+00 0.  1.
        994   -1    0    0    0    0 -0.00000000000E+00 -0.00000000000E+00  0.11368683772E-12  0.17120000000E+03  0.17120000000E+03 0.  0.
         13    1    1    2    0    0 -0.27829659596E+02  0.54014085335E+02  0.54584320116E+02  0.81679070357E+02  0.10566000000E+00 0.  1.
        994    1    1    2    0    0 -0.52342349322E+01 -0.33692630219E+02  0.34379422628E+02  0.17791564082E+03  0.17120000000E+03 0.  0.
        998    1    1    2    0    0  0.33063894528E+02 -0.20321455116E+02  0.14110362535E+04  0.14116052888E+04  0.10000000000E+02 0.  1.
</event>
<event>
 5    1  0.7732857E-009  0.3778876E+03  0.7957747E-01  0.3460408E+00
         13   -1    0    0    0    0  0.00000000000E+00  0.00000000000E+00  0.14999999963E+04  0.15000000000E+04  0.10566000000E+00 0. -1.
        994   -1    0    0    0    0 -0.00000000000E+00 -0.00000000000E+00  0.11368683772E-12  0.17120000000E+03  0.17120000000E+03 0.  0.
         13    1    1    2    0    0 -0.22827807852E+02 -0.43911971512E-01  0.46540714315E+02  0.51837823956E+02  0.10566000000E+00 0. -1.
        994    1    1    2    0    0  0.24577264359E+02 -0.31527277930E+01  0.72729726425E+01  0.17313670248E+03  0.17120000000E+03 0.  0.
        998    1    1    2    0    0 -0.17494565070E+01  0.31966397645E+01  0.14461863093E+04  0.14462254736E+04  0.10000000000E+02 0. -1.
</event>
<event>
 5    1  0.7732857E-009  0.3714783E+03  0.7957747E-01  0.3489124E+00
         13   -1    0    0    0    0  0.00000000000E+00  0.00000000000E+00  0.14999999963E+04  0.15000000000E+04  0.10566000000E+00 0. -1.
        994   -1    0    0    0    0 -0.00000000000E+00 -0.00000000000E+00  0.11368683772E-12  0.17120000000E+03  0.17120000000E+03 0.  0.
         13    1    1    2    0    0  0.53458097623E-01 -0.24879797760E+02  0.31959568684E+02  0.40502251651E+02  0.10566000000E+00 0. -1.
        994    1    1    2    0    0 -0.44578922974E+01  0.28882184724E+02  0.11442069657E+02  0.17405290677E+03  0.17120000000E+03 0.  0.
        998    1    1    2    0    0  0.44044341998E+01 -0.40023869645E+01  0.14565983579E+04  0.14566448416E+04  0.10000000000E+02 0. -1.
</event>
<event>
 5    1  0.7732857E-009  0.3765017E+03  0.7957747E-01  0.3466534E+00
         13   -1    0    0    0    0  0.00000000000E+00  0.00000000000E+00  0.14999999963E+04  0.15000000000E+04  0.10566000000E+00 0.  1.
        994   -1    0    0    0    0 -0.00000000000E+00 -0.00000000000E+00  0.11368683772E-12  0.17120000000E+03  0.17120000000E+03 0.  0.
         13    1    1    2    0    0  0.14660126938E+02 -0.40364815512E+02  0.14473997590E+03  0.15097651950E+03  0.10566000000E+00 0.  1.
        994    1    1    2    0    0 -0.63324574279E+01  0.37224498576E+02  0.10746851869E+02  0.17564366808E+03  0.17120000000E+03 0.  0.
        998    1    1    2    0    0 -0.83276695097E+01  0.31403169365E+01  0.13445131685E+04  0.13445798124E+04  0.10000000000E+02 0.  1.
</event>
<event>
 5    1  0.7732857E-009  0.3787578E+03  0.7957747E-01  0.3456585E+00
         13   -1    0    0    0    0  0.00000000000E+00  0.00000000000E+00  0.14999999963E+04  0.15000000000E+04  0.10566000000E+00 0.  1.
        994   -1    0    0    0    0 -0.00000000000E+00 -0.00000000000E+00  0.11368683772E-12  0.17120000000E+03  0.17120000000E+03 0.  0.
         13    1    1    2    0    0 -0.36846554989E+01  0.18016352591E+02  0.32067691465E+02  0.36966385362E+02  0.10566000000E+00 0.  1.
        994    1    1    2    0    0 -0.15621455757E+01 -0.28821082178E+02  0.75630291549E+01  0.17378070804E+03  0.17120000000E+03 0.  0.
        998    1    1    2    0    0  0.52468010746E+01  0.10804729587E+02  0.14603692757E+04  0.14604529066E+04  0.10000000000E+02 0.  1.
</event>
<event>
 5    1  0.7732857E-009  0.3832172E+03  0.7957747E-01  0.3437269E+00
         13   -1    0    0    0    0  0.00000000000E+00  0.00000000000E+00  0.14999999963E+04  0.15000000000E+04  0.10566000000E+00 0.  1.
        994   -1    0    0    0    0 -0.00000000000E+00 -0.00000000000E+00  0.11368683772E-12  0.17120000000E+03  0.17120000000E+03 0.  0.
         13    1    1    2    0    0  0.18413214837E+02  0.15502259157E+02  0.11686354932E+03  0.11931666624E+03  0.10566000000E+00 0.  1.
        994    1    1    2    0    0 -0.94530819935E+01 -0.68494120440E+01  0.29687640476E+01  0.17162321744E+03  0.17120000000E+03 0.  0.
        998    1    1    2    0    0 -0.89601328432E+01 -0.86528471126E+01  0.13801676829E+04  0.13802601163E+04  0.10000000000E+02 0.  1.
</event>
<event>
 5    1  0.7732857E-009  0.3782952E+03  0.7957747E-01  0.3458615E+00
         13   -1    0    0    0    0  0.00000000000E+00  0.00000000000E+00  0.14999999963E+04  0.15000000000E+04  0.10566000000E+00 0.  1.
        994   -1    0    0    0    0 -0.00000000000E+00 -0.00000000000E+00  0.11368683772E-12  0.17120000000E+03  0.17120000000E+03 0.  0.
         13    1    1    2    0    0  0.31259389753E+01 -0.46983279024E+02  0.22119176482E+03  0.22614819918E+03  0.10566000000E+00 0.  1.
        994    1    1    2    0    0 -0.98351196640E+01  0.25905979206E+02  0.75818847736E+01  0.17359370471E+03  0.17120000000E+03 0.  0.
        998    1    1    2    0    0  0.67091806887E+01  0.21077299818E+02  0.12712263467E+04  0.12714580961E+04  0.10000000000E+02 0.  1.
</event>
<event>
 5    1  0.7732857E-009  0.3752003E+03  0.7957747E-01  0.3472327E+00
         13   -1    0    0    0    0  0.00000000000E+00  0.00000000000E+00  0.14999999963E+04  0.15000000000E+04  0.10566000000E+00 0.  1.
        994   -1    0    0    0    0 -0.00000000000E+00 -0.00000000000E+00  0.11368683772E-12  0.17120000000E+03  0.17120000000E+03 0.  0.
         13    1    1    2    0    0 -0.58501815500E+02 -0.72310117728E+01  0.22529276732E+03  0.23287677454E+03  0.10566000000E+00 0.  1.
        994    1    1    2    0    0  0.58207802757E+02  0.12143600175E+01  0.18178489107E+02  0.18174025541E+03  0.17120000000E+03 0.  0.
        998    1    1    2    0    0  0.29401274364E+00  0.60166517554E+01  0.12565287398E+04  0.12565829700E+04  0.10000000000E+02 0.  1.
</event>
<event>
 5    1  0.8594549E-009  0.3862715E+03  0.7957747E-01  0.3424297E+00
         13   -1    0    0    0    0  0.00000000000E+00  0.00000000000E+00  0.14999999963E+04  0.15000000000E+04  0.10566000000E+00 0.  1.
        994   -1    0    0    0    0 -0.00000000000E+00 -0.00000000000E+00  0.11368683772E-12  0.17120000000E+03  0.17120000000E+03 0.  0.
         13    1    1    2    0    0 -0.11306464763E+02  0.34776951351E+01  0.69899748627E+02  0.70893698811E+02  0.10566000000E+00 0.  1.
        994    1    1    2    0    0  0.64272974894E+01 -0.13585607077E+02  0.17402855453E+01  0.17186723791E+03  0.17120000000E+03 0.  0.
        998    1    1    2    0    0  0.48791672736E+01  0.10107911942E+02  0.14283599621E+04  0.14284390633E+04  0.10000000000E+02 0.  1.
</event>
<event>
 5    1  0.7732857E-009  0.3696620E+03  0.7957747E-01  0.3497446E+00
         13   -1    0    0    0    0  0.00000000000E+00  0.00000000000E+00  0.14999999963E+04  0.15000000000E+04  0.10566000000E+00 0. -1.
        994   -1    0    0    0    0 -0.00000000000E+00 -0.00000000000E+00  0.11368683772E-12  0.17120000000E+03  0.17120000000E+03 0.  0.
         13    1    1    2    0    0 -0.36775521396E+01 -0.19541894239E+02  0.17036738713E+02  0.26185332730E+02  0.10566000000E+00 0. -1.
        994    1    1    2    0    0 -0.17748142667E+01  0.10106740327E+02  0.98104380100E+01  0.17178760392E+03  0.17120000000E+03 0.  0.
        998    1    1    2    0    0  0.54523664062E+01  0.94351539115E+01  0.14731528196E+04  0.14732270634E+04  0.10000000000E+02 0. -1.
</event>
<event>
 5    1  0.7732857E-009  0.3706317E+03  0.7957747E-01  0.3492993E+00
         13   -1    0    0    0    0  0.00000000000E+00  0.00000000000E+00  0.14999999963E+04  0.15000000000E+04  0.10566000000E+00 0.  1.
        994   -1    0    0    0    0 -0.00000000000E+00 -0.00000000000E+00  0.11368683772E-12  0.17120000000E+03  0.17120000000E+03 0.  0.
         13    1    1    2    0    0 -0.79462628449E+02 -0.10724399458E+03  0.59793916325E+03  0.61265556213E+03  0.10566000000E+00 0.  1.
        994    1    1    2    0    0  0.16518660098E+03  0.63569613877E+02  0.12624452856E+03  0.27672157477E+03  0.17120000000E+03 0.  0.
        998    1    1    2    0    0 -0.85723972529E+02  0.43674380705E+02  0.77581630447E+03  0.78182286310E+03  0.10000000000E+02 0. -1.
</event>
<event>
 5    1  0.7732857E-009  0.3780931E+03  0.7957747E-01  0.3459504E+00
         13   -1    0    0    0    0  0.00000000000E+00  0.00000000000E+00  0.14999999963E+04  0.15000000000E+04  0.10566000000E+00 0. -1.
        994   -1    0    0    0    0 -0.00000000000E+00 -0.00000000000E+00  0.11368683772E-12  0.17120000000E+03  0.17120000000E+03 0.  0.
         13    1    1    2    0    0 -0.86873499950E+01  0.91088737436E+01  0.13427133948E+02  0.18404910239E+02  0.10566000000E+00 0. -1.
        994    1    1    2    0    0  0.12081264259E+01 -0.56476043462E+01  0.52110819034E+01  0.17137663312E+03  0.17120000000E+03 0.  0.
        998    1    1    2    0    0  0.74792235691E+01 -0.34612693973E+01  0.14813617804E+04  0.14814184566E+04  0.10000000000E+02 0. -1.
</event>
<event>
 5    1  0.7732857E-009  0.3857758E+03  0.7957747E-01  0.3426389E+00
         13   -1    0    0    0    0  0.00000000000E+00  0.00000000000E+00  0.14999999963E+04  0.15000000000E+04  0.10566000000E+00 0. -1.
        994   -1    0    0    0    0 -0.00000000000E+00 -0.00000000000E+00  0.11368683772E-12  0.17120000000E+03  0.17120000000E+03 0.  0.
         13    1    1    2    0    0 -0.53354233816E+01 -0.12927094561E+02  0.78014918990E+02  0.79258534339E+02  0.10566000000E+00 0. -1.
        994    1    1    2    0    0  0.11881543283E+01  0.11470396674E+02  0.16818001707E+01  0.17159618341E+03  0.17120000000E+03 0.  0.
        998    1    1    2    0    0  0.41472690533E+01  0.14566978874E+01  0.14203032771E+04  0.14203452822E+04  0.10000000000E+02 0. -1.
</event>
<event>
 5    1  0.7732857E-009  0.3798592E+03  0.7957747E-01  0.3451772E+00
         13   -1    0    0    0    0  0.00000000000E+00  0.00000000000E+00  0.14999999963E+04  0.15000000000E+04  0.10566000000E+00 0. -1.
        994   -1    0    0    0    0 -0.00000000000E+00 -0.00000000000E+00  0.11368683772E-12  0.17120000000E+03  0.17120000000E+03 0.  0.
         13    1    1    2    0    0  0.12629672949E+02 -0.17162503304E+01  0.17405175056E+02  0.21573257444E+02  0.10566000000E+00 0. -1.
        994    1    1    2    0    0 -0.12296452105E+02 -0.13220192426E+01  0.47159641632E+01  0.17171089304E+03  0.17120000000E+03 0.  0.
        998    1    1    2    0    0 -0.33322084411E+00  0.30382695731E+01  0.14778788571E+04  0.14779158495E+04  0.10000000000E+02 0. -1.
</event>
<event>
 5    1  0.7732857E-009  0.3829985E+03  0.7957747E-01  0.3438205E+00
         13   -1    0    0    0    0  0.00000000000E+00  0.00000000000E+00  0.14999999963E+04  0.15000000000E+04  0.10566000000E+00 0. -1.
        994   -1    0    0    0    0 -0.00000000000E+00 -0.00000000000E+00  0.11368683772E-12  0.17120000000E+03  0.17120000000E+03 0.  0.
         13    1    1    2    0    0 -0.43936140821E+01 -0.30800563818E+02  0.17282321327E+03  0.17560140314E+03  0.10566000000E+00 0.  1.
        994    1    1    2    0    0  0.58005636171E+01  0.24946339742E+02  0.48014687437E+01  0.17317176591E+03  0.17120000000E+03 0.  0.
        998    1    1    2    0    0 -0.14069495350E+01  0.58542240765E+01  0.13223753143E+04  0.13224268310E+04  0.10000000000E+02 0. -1.
</event>
<event>
 5    1  0.7732857E-009  0.3802640E+03  0.7957747E-01  0.3450010E+00
         13   -1    0    0    0    0  0.00000000000E+00  0.00000000000E+00  0.14999999963E+04  0.15000000000E+04  0.10566000000E+00 0. -1.
        994   -1    0    0    0    0 -0.00000000000E+00 -0.00000000000E+00  0.11368683772E-12  0.17120000000E+03  0.17120000000E+03 0.  0.
         13    1    1    2    0    0  0.15413799733E+01 -0.17924082546E+02  0.37666004898E+02  0.41741917497E+02  0.10566000000E+00 0. -1.
        994    1    1    2    0    0 -0.24674931599E+01  0.21602952806E+02  0.55806263046E+01  0.17266545538E+03  0.17120000000E+03 0.  0.
        998    1    1    2    0    0  0.92611318660E+00 -0.36788702604E+01  0.14567533651E+04  0.14567926271E+04  0.10000000000E+02 0. -1.
</event>
<event>
 5    1  0.7732857E-009  0.3854447E+03  0.7957747E-01  0.3427788E+00
         13   -1    0    0    0    0  0.00000000000E+00  0.00000000000E+00  0.14999999963E+04  0.15000000000E+04  0.10566000000E+00 0.  1.
        994   -1    0    0    0    0 -0.00000000000E+00 -0.00000000000E+00  0.11368683772E-12  0.17120000000E+03  0.17120000000E+03 0.  0.
         13    1    1    2    0    0  0.12200843359E+02  0.33504864797E+01  0.56507023868E+02  0.57906314412E+02  0.10566000000E+00 0.  1.
        994    1    1    2    0    0 -0.10491216518E+02  0.80362446561E+00  0.17731651720E+01  0.17153219975E+03  0.17120000000E+03 0.  0.
        998    1    1    2    0    0 -0.17096268410E+01 -0.41541109453E+01  0.14417198072E+04  0.14417614858E+04  0.10000000000E+02 0.  1.
</event>
<event>
 5    1  0.7732857E-009  0.3837499E+03  0.7957747E-01  0.3434991E+00
         13   -1    0    0    0    0  0.00000000000E+00  0.00000000000E+00  0.14999999963E+04  0.15000000000E+04  0.10566000000E+00 0. -1.
        994   -1    0    0    0    0 -0.00000000000E+00 -0.00000000000E+00  0.11368683772E-12  0.17120000000E+03  0.17120000000E+03 0.  0.
         13    1    1    2    0    0 -0.12718047712E+02  0.21020678752E+02  0.12802975302E+03  0.13036581797E+03  0.10566000000E+00 0. -1.
        994    1    1    2    0    0  0.14722167059E+02 -0.15035328712E+02  0.37155619335E+01  0.17252839973E+03  0.17120000000E+03 0.  0.
        998    1    1    2    0    0 -0.20041193468E+01 -0.59853500401E+01  0.13682546813E+04  0.13683057823E+04  0.10000000000E+02 0. -1.
</event>
<event>
 5    1  0.7732857E-009  0.3775225E+03  0.7957747E-01  0.3462017E+00
         13   -1    0    0    0    0  0.00000000000E+00  0.00000000000E+00  0.14999999963E+04  0.15000000000E+04  0.10566000000E+00 0. -1.
        994   -1    0    0    0    0 -0.00000000000E+00 -0.00000000000E+00  0.11368683772E-12  0.17120000000E+03  0.17120000000E+03 0.  0.
         13    1    1    2    0    0 -0.41791457618E+02 -0.27714035717E+02  0.21184497093E+03  0.21769909641E+03  0.10566000000E+00 0. -1.
        994    1    1    2    0    0  0.34050906857E+02  0.24838058650E+02  0.11399896521E+02  0.17667991130E+03  0.17120000000E+03 0.  0.
        998    1    1    2    0    0  0.77405507609E+01  0.28759770675E+01  0.12767551288E+04  0.12768209923E+04  0.10000000000E+02 0.  0.
</event>
<event>
 5    1  0.7732857E-009  0.3815288E+03  0.7957747E-01  0.3444529E+00
         13   -1    0    0    0    0  0.00000000000E+00  0.00000000000E+00  0.14999999963E+04  0.15000000000E+04  0.10566000000E+00 0. -1.
        994   -1    0    0    0    0 -0.00000000000E+00 -0.00000000000E+00  0.11368683772E-12  0.17120000000E+03  0.17120000000E+03 0.  0.
         13    1    1    2    0    0 -0.31840465519E+02 -0.49001857844E+01  0.16724922219E+03  0.17032363474E+03  0.10566000000E+00 0. -1.
        994    1    1    2    0    0  0.73619915943E+01 -0.64720443287E+00  0.35450755772E+01  0.17139610659E+03  0.17120000000E+03 0.  0.
        998    1    1    2    0    0  0.24478473925E+02  0.55473902173E+01  0.13292056985E+04  0.13294802587E+04  0.10000000000E+02 0. -1.
</event>
<event>
 5    1  0.7732857E-009  0.3809457E+03  0.7957747E-01  0.3447051E+00
         13   -1    0    0    0    0  0.00000000000E+00  0.00000000000E+00  0.14999999963E+04  0.15000000000E+04  0.10566000000E+00 0.  1.
        994   -1    0    0    0    0 -0.00000000000E+00 -0.00000000000E+00  0.11368683772E-12  0.17120000000E+03  0.17120000000E+03 0.  0.
         13    1    1    2    0    0 -0.14794123500E+02 -0.13744355872E+02  0.54213605866E+02  0.57852395227E+02  0.10566000000E+00 0.  1.
        994    1    1    2    0    0  0.13804418686E+02  0.59734949638E+01  0.44108455642E+01  0.17191608469E+03  0.17120000000E+03 0.  0.
        998    1    1    2    0    0  0.98970481458E+00  0.77708609080E+01  0.14413755448E+04  0.14414315201E+04  0.10000000000E+02 0.  1.
</event>
<event>
 5    1  0.7732857E-009  0.3833910E+03  0.7957747E-01  0.3436525E+00
         13   -1    0    0    0    0  0.00000000000E+00  0.00000000000E+00  0.14999999963E+04  0.15000000000E+04  0.10566000000E+00 0. -1.
        994   -1    0    0    0    0 -0.00000000000E+00 -0.00000000000E+00  0.11368683772E-12  0.17120000000E+03  0.17120000000E+03 0.  0.
         13    1    1    2    0    0  0.19988435256E+02 -0.71213046935E+01  0.87892260559E+02  0.90417427273E+02  0.10566000000E+00 0. -1.
        994    1    1    2    0    0 -0.18437048405E+02  0.10318429757E+02  0.39082165518E+01  0.17254306391E+03  0.17120000000E+03 0.  0.
        998    1    1    2    0    0 -0.15513868518E+01 -0.31971250632E+01  0.14081995192E+04  0.14082395088E+04  0.10000000000E+02 0. -1.
</event>
<event>
 5    1  0.7732857E-009  0.4290591E+03  0.7957747E-01  0.3261914E+00
         13   -1    0    0    0    0  0.00000000000E+00  0.00000000000E+00  0.14999999963E+04  0.15000000000E+04  0.10566000000E+00 0.  1.
        994   -1    0    0    0    0 -0.00000000000E+00 -0.00000000000E+00  0.11368683772E-12  0.17120000000E+03  0.17120000000E+03 0.  0.
         13    1    1    2    0    0  0.84545950971E+02  0.11152574782E+03  0.18358960586E+03  0.23084879207E+03  0.10566000000E+00 0.  1.
        994    1    1    2    0    0 -0.65775348705E+02 -0.10288812598E+03  0.11685495066E+03  0.24057614690E+03  0.17120000000E+03 0.  0.
        998    1    1    2    0    0 -0.18770602266E+02 -0.86376218426E+01  0.11995554398E+04  0.11997750610E+04  0.10000000000E+02 0.  1.
</event>
<event>
 5    1  0.7732857E-009  0.3819894E+03  0.7957747E-01  0.3442542E+00
         13   -1    0    0    0    0  0.00000000000E+00  0.00000000000E+00  0.14999999963E+04  0.15000000000E+04  0.10566000000E+00 0. -1.
        994   -1    0    0    0    0 -0.00000000000E+00 -0.00000000000E+00  0.11368683772E-12  0.17120000000E+03  0.17120000000E+03 0.  0.
         13    1    1    2    0    0  0.14864231332E+02  0.24814067997E+02  0.14369100207E+03  0.14657352620E+03  0.10566000000E+00 0. -1.
        994    1    1    2    0    0 -0.20979187984E+02  0.49950322008E+01  0.46783475460E+01  0.17261634804E+03  0.17120000000E+03 0.  0.
        998    1    1    2    0    0  0.61149566517E+01 -0.29809100198E+02  0.13516306467E+04  0.13520101258E+04  0.10000000000E+02 0. -1.
</event>
<event>
 5    1  0.7732857E-009  0.3872545E+03  0.7957747E-01  0.3420167E+00
         13   -1    0    0    0    0  0.00000000000E+00  0.00000000000E+00  0.14999999963E+04  0.15000000000E+04  0.10566000000E+00 0.  1.
        994   -1    0    0    0    0 -0.00000000000E+00 -0.00000000000E+00  0.11368683772E-12  0.17120000000E+03  0.17120000000E+03 0.  0.
         13    1    1    2    0    0  0.16614709658E+02  0.18176008585E+02  0.62568661957E+01  0.25408175923E+02  0.10566000000E+00 0.  1.
        994    1    1    2    0    0 -0.43338638702E+01 -0.13782890518E+02  0.21148308243E+02  0.17310528989E+03  0.17120000000E+03 0.  0.
        998    1    1    2    0    0 -0.12280845788E+02 -0.43931180673E+01  0.14725948218E+04  0.14726865342E+04  0.10000000000E+02 0.  1.
</event>
<event>
 5    1  0.7732857E-009  0.3773666E+03  0.7957747E-01  0.3462706E+00
         13   -1    0    0    0    0  0.00000000000E+00  0.00000000000E+00  0.14999999963E+04  0.15000000000E+04  0.10566000000E+00 0.  1.
        994   -1    0    0    0    0 -0.00000000000E+00 -0.00000000000E+00  0.11368683772E-12  0.17120000000E+03  0.17120000000E+03 0.  0.
         13    1    1    2    0    0  0.11786098350E+01 -0.20775706475E+02  0.36613738445E+02  0.42114084433E+02  0.10566000000E+00 0.  1.
        994    1    1    2    0    0 -0.10522344126E+02  0.20494141167E+02  0.72602626013E+01  0.17289557820E+03  0.17120000000E+03 0.  0.
        998    1    1    2    0    0  0.93437342906E+01  0.28156530855E+00  0.14561259952E+04  0.14561903374E+04  0.10000000000E+02 0.  1.
</event>
<event>
 5    1  0.7732857E-009  0.3887937E+03  0.7957747E-01  0.3413740E+00
         13   -1    0    0    0    0  0.00000000000E+00  0.00000000000E+00  0.14999999963E+04  0.15000000000E+04  0.10566000000E+00 0. -1.
        994   -1    0    0    0    0 -0.00000000000E+00 -0.00000000000E+00  0.11368683772E-12  0.17120000000E+03  0.17120000000E+03 0.  0.
         13    1    1    2    0    0  0.34778076591E+02 -0.14048376973E+01  0.19902282746E+02  0.40094889985E+02  0.10566000000E+00 0. -1.
        994    1    1    2    0    0 -0.28181209267E+02  0.50232425353E+01  0.24318271966E+02  0.17527187987E+03  0.17120000000E+03 0.  0.
        998    1    1    2    0    0 -0.65968673246E+01 -0.36184048380E+01  0.14557794416E+04  0.14558332301E+04  0.10000000000E+02 0. -1.
</event>
<event>
 5    1  0.7732857E-009  0.3857803E+03  0.7957747E-01  0.3426369E+00
         13   -1    0    0    0    0  0.00000000000E+00  0.00000000000E+00  0.14999999963E+04  0.15000000000E+04  0.10566000000E+00 0. -1.
        994   -1    0    0    0    0 -0.00000000000E+00 -0.00000000000E+00  0.11368683772E-12  0.17120000000E+03  0.17120000000E+03 0.  0.
         13    1    1    2    0    0 -0.63362871443E+02  0.27304871740E+01  0.10575229522E+03  0.12331207624E+03  0.10566000000E+00 0. -1.
        994    1    1    2    0    0  0.14228899573E+02  0.15744394975E+02  0.21208243612E+02  0.17380902495E+03  0.17120000000E+03 0.  0.
        998    1    1    2    0    0  0.49133971870E+02 -0.18474882149E+02  0.13730394574E+04  0.13740788988E+04  0.10000000000E+02 0. -1.
</event>
<event>
 5    1  0.7732857E-009  0.3717484E+03  0.7957747E-01  0.3487894E+00
         13   -1    0    0    0    0  0.00000000000E+00  0.00000000000E+00  0.14999999963E+04  0.15000000000E+04  0.10566000000E+00 0.  1.
        994   -1    0    0    0    0 -0.00000000000E+00 -0.00000000000E+00  0.11368683772E-12  0.17120000000E+03  0.17120000000E+03 0.  0.
         13    1    1    2    0    0  0.10347155029E+02 -0.13137769434E+02  0.13213951060E+02  0.21313945424E+02  0.10566000000E+00 0.  1.
        994    1    1    2    0    0  0.16329735957E+01  0.94941320918E+01  0.86770914810E+01  0.17169023578E+03  0.17120000000E+03 0.  0.
        998    1    1    2    0    0 -0.11980128625E+02  0.36436373421E+01  0.14781089537E+04  0.14781958188E+04  0.10000000000E+02 0.  1.
</event>
<event>
 5    1  0.7732857E-009  0.3803350E+03  0.7957747E-01  0.3449701E+00
         13   -1    0    0    0    0  0.00000000000E+00  0.00000000000E+00  0.14999999963E+04  0.15000000000E+04  0.10566000000E+00 0. -1.
        994   -1    0    0    0    0 -0.00000000000E+00 -0.00000000000E+00  0.11368683772E-12  0.17120000000E+03  0.17120000000E+03 0.  0.
         13    1    1    2    0    0  0.21031162038E+02 -0.57872525144E+02  0.36710091616E+03  0.37222927445E+03  0.10566000000E+00 0. -1.
        994    1    1    2    0    0 -0.19721403935E+02  0.57040055568E+02  0.16224521439E+02  0.18225031360E+03  0.17120000000E+03 0.  0.
        998    1    1    2    0    0 -0.13097581030E+01  0.83246957687E+00  0.11166745587E+04  0.11167204120E+04  0.10000000000E+02 0.  0.
</event>
<event>
 5    1  0.7732857E-009  0.3823393E+03  0.7957747E-01  0.3441035E+00
         13   -1    0    0    0    0  0.00000000000E+00  0.00000000000E+00  0.14999999963E+04  0.15000000000E+04  0.10566000000E+00 0. -1.
        994   -1    0    0    0    0 -0.00000000000E+00 -0.00000000000E+00  0.11368683772E-12  0.17120000000E+03  0.17120000000E+03 0.  0.
         13    1    1    2    0    0  0.13231971274E+02  0.21144433394E+02  0.10017078257E+03  0.10322969036E+03  0.10566000000E+00 0. -1.
        994    1    1    2    0    0  0.91306708740E+01 -0.32567682016E+02  0.67612353629E+01  0.17464013676E+03  0.17120000000E+03 0.  0.
        998    1    1    2    0    0 -0.22362642148E+02  0.11423248622E+02  0.13930679783E+04  0.13933301729E+04  0.10000000000E+02 0. -1.
</event>
<event>
 5    1  0.7732857E-009  0.3834168E+03  0.7957747E-01  0.3436414E+00
         13   -1    0    0    0    0  0.00000000000E+00  0.00000000000E+00  0.14999999963E+04  0.15000000000E+04  0.10566000000E+00 0. -1.
        994   -1    0    0    0    0 -0.00000000000E+00 -0.00000000000E+00  0.11368683772E-12  0.17120000000E+03  0.17120000000E+03 0.  0.
         13    1    1    2    0    0 -0.20847571483E+02 -0.65146321868E+01  0.98303361569E+02  0.10070066400E+03  0.10566000000E+00 0. -1.
        994    1    1    2    0    0  0.14635257920E+02 -0.24793728700E+01  0.31468824947E+01  0.17187111722E+03  0.17120000000E+03 0.  0.
        998    1    1    2    0    0  0.62123135630E+01  0.89940050567E+01  0.13985497522E+04  0.13986282188E+04  0.10000000000E+02 0. -1.
</event>
<event>
 5    1  0.7732857E-009  0.3796076E+03  0.7957747E-01  0.3452869E+00
         13   -1    0    0    0    0  0.00000000000E+00  0.00000000000E+00  0.14999999963E+04  0.15000000000E+04  0.10566000000E+00 0.  1.
        994   -1    0    0    0    0 -0.00000000000E+00 -0.00000000000E+00  0.11368683772E-12  0.17120000000E+03  0.17120000000E+03 0.  0.
         13    1    1    2    0    0  0.10208718819E+02  0.11671274249E+02  0.26304841363E+02  0.30535101534E+02  0.10566000000E+00 0.  1.
        994    1    1    2    0    0 -0.95432198234E+01 -0.37820906597E+00  0.46367229852E+01  0.17152887596E+03  0.17120000000E+03 0.  0.
        998    1    1    2    0    0 -0.66549899567E+00 -0.11293065183E+02  0.14690584319E+04  0.14691360225E+04  0.10000000000E+02 0.  1.
</event>
<event>
 5    1  0.7732857E-009  0.3730489E+03  0.7957747E-01  0.3481995E+00
         13   -1    0    0    0    0  0.00000000000E+00  0.00000000000E+00  0.14999999963E+04  0.15000000000E+04  0.10566000000E+00 0. -1.
        994   -1    0    0    0    0 -0.00000000000E+00 -0.00000000000E+00  0.11368683772E-12  0.17120000000E+03  0.17120000000E+03 0.  0.
         13    1    1    2    0    0 -0.51609364123E+02 -0.83682939447E+01  0.14967900312E+03  0.15854768982E+03  0.10566000000E+00 0. -1.
        994    1    1    2    0    0  0.61723818322E+02  0.18924642716E+02  0.22082921166E+02  0.18429614010E+03  0.17120000000E+03 0.  0.
        998    1    1    2    0    0 -0.10114454199E+02 -0.10556348771E+02  0.13282380720E+04  0.13283561701E+04  0.10000000000E+02 0. -1.
</event>
<event>
 5    1  0.8827182E-009  0.3862869E+03  0.7957747E-01  0.3424233E+00
         13   -1    0    0    0    0  0.00000000000E+00  0.00000000000E+00  0.14999999963E+04  0.15000000000E+04  0.10566000000E+00 0.  1.
        994   -1    0    0    0    0 -0.00000000000E+00 -0.00000000000E+00  0.11368683772E-12  0.17120000000E+03  0.17120000000E+03 0.  0.
         13    1    1    2    0    0 -0.11607477706E+01 -0.10359737527E+02  0.55593501015E+02  0.56562531910E+02  0.10566000000E+00 0.  1.
        994    1    1    2    0    0  0.31198844152E+01  0.69308668464E+01  0.11817885524E+01  0.17137271433E+03  0.17120000000E+03 0.  0.
        998    1    1    2    0    0 -0.19591366446E+01  0.34288706807E+01  0.14432247067E+04  0.14432647538E+04  0.10000000000E+02 0.  1.
</event>
<event>
 5    1  0.7732857E-009  0.3810792E+03  0.7957747E-01  0.3446473E+00
         13   -1    0    0    0    0  0.00000000000E+00  0.00000000000E+00  0.14999999963E+04  0.15000000000E+04  0.10566000000E+00 0. -1.
        994   -1    0    0    0    0 -0.00000000000E+00 -0.00000000000E+00  0.11368683772E-12  0.17120000000E+03  0.17120000000E+03 0.  0.
         13    1    1    2    0    0  0.11411590177E+03  0.19681919378E+02  0.55520386378E+03  0.56715179494E+03  0.10566000000E+00 0. -1.
        994    1    1    2    0    0 -0.31907810238E+02  0.23809394154E+02  0.22709366339E+02  0.17722909164E+03  0.17120000000E+03 0.  0.
        998    1    1    2    0    0 -0.82208091533E+02 -0.43491313532E+02  0.92208676616E+03  0.92681911342E+03  0.10000000000E+02 0. -1.
</event>
<event>
 5    1  0.7732857E-009  0.3822871E+03  0.7957747E-01  0.3441260E+00
         13   -1    0    0    0    0  0.00000000000E+00  0.00000000000E+00  0.14999999963E+04  0.15000000000E+04  0.10566000000E+00 0.  1.
        994   -1    0    0    0    0 -0.00000000000E+00 -0.00000000000E+00  0.11368683772E-12  0.17120000000E+03  0.17120000000E+03 0.  0.
         13    1    1    2    0    0  0.16953069150E+02 -0.78076537981E+01  0.55184153972E+02  0.58255197408E+02  0.10566000000E+00 0.  1.
        994    1    1    2    0    0 -0.19282950383E+02  0.84309492926E+01  0.44539714201E+01  0.17254619944E+03  0.17120000000E+03 0.  0.
        998    1    1    2    0    0  0.23298812328E+01 -0.62329549449E+00  0.14403618709E+04  0.14403986031E+04  0.10000000000E+02 0.  1.
</event>
<event>
 5    1  0.9525114E-009  0.3858509E+03  0.7957747E-01  0.3426071E+00
         13   -1    0    0    0    0  0.00000000000E+00  0.00000000000E+00  0.14999999963E+04  0.15000000000E+04  0.10566000000E+00 0. -1.
        994   -1    0    0    0    0 -0.00000000000E+00 -0.00000000000E+00  0.11368683772E-12  0.17120000000E+03  0.17120000000E+03 0.  0.
         13    1    1    2    0    0 -0.64071973692E+01 -0.14487192808E+02  0.90274327385E+02  0.91653675772E+02  0.10566000000E+00 0. -1.
        994    1    1    2    0    0  0.20733444770E+02  0.21618456981E+02  0.41563757457E+01  0.17385036346E+03  0.17120000000E+03 0.  0.
        998    1    1    2    0    0 -0.14326247400E+02 -0.71312641729E+01  0.14055692931E+04  0.14056959608E+04  0.10000000000E+02 0. -1.
</event>
<event>
 5    1  0.7732857E-009  0.3843726E+03  0.7957747E-01  0.3432338E+00
         13   -1    0    0    0    0  0.00000000000E+00  0.00000000000E+00  0.14999999963E+04  0.15000000000E+04  0.10566000000E+00 0.  1.
        994   -1    0    0    0    0 -0.00000000000E+00 -0.00000000000E+00  0.11368683772E-12  0.17120000000E+03  0.17120000000E+03 0.  0.
         13    1    1    2    0    0 -0.10661027041E+02 -0.15861858805E+02  0.83473641264E+02  0.85633614966E+02  0.10566000000E+00 0.  1.
        994    1    1    2    0    0  0.11578943354E+02  0.28617103851E+02  0.50887998802E+01  0.17403547468E+03  0.17120000000E+03 0.  0.
        998    1    1    2    0    0 -0.91791631266E+00 -0.12755245046E+02  0.14114375551E+04  0.14115309104E+04  0.10000000000E+02 0.  1.
</event>
<event>
 5    1  0.7732857E-009  0.3801731E+03  0.7957747E-01  0.3450405E+00
         13   -1    0    0    0    0  0.00000000000E+00  0.00000000000E+00  0.14999999963E+04  0.15000000000E+04  0.10566000000E+00 0.  1.
        994   -1    0    0    0    0 -0.00000000000E+00 -0.00000000000E+00  0.11368683772E-12  0.17120000000E+03  0.17120000000E+03 0.  0.
         13    1    1    2    0    0 -0.48664587002E+01  0.13320830534E+02  0.22962915245E+02  0.26989508832E+02  0.10566000000E+00 0.  1.
        994    1    1    2    0    0 -0.27913875256E+01 -0.15405901996E+02  0.48652123451E+01  0.17198326649E+03  0.17120000000E+03 0.  0.
        998    1    1    2    0    0  0.76578462258E+01  0.20850714620E+01  0.14721718687E+04  0.14722272247E+04  0.10000000000E+02 0.  1.
</event>
<event>
 5    1  0.7732857E-009  0.3820875E+03  0.7957747E-01  0.3442119E+00
         13   -1    0    0    0    0  0.00000000000E+00  0.00000000000E+00  0.14999999963E+04  0.15000000000E+04  0.10566000000E+00 0. -1.
        994   -1    0    0    0    0 -0.00000000000E+00 -0.00000000000E+00  0.11368683772E-12  0.17120000000E+03  0.17120000000E+03 0.  0.
         13    1    1    2    0    0 -0.17112952334E+02 -0.38101144148E+01  0.52936658102E+02  0.55764424542E+02  0.10566000000E+00 0. -1.
        994    1    1    2    0    0 -0.48654992591E+01 -0.10598951538E+02  0.35347764058E+01  0.17163317133E+03  0.17120000000E+03 0.  0.
        998    1    1    2    0    0  0.21978451593E+02  0.14409065953E+02  0.14435285618E+04  0.14438024041E+04  0.10000000000E+02 0. -1.
</event>
<event>
 5    1  0.7732857E-009  0.3734924E+03  0.7957747E-01  0.3479993E+00
         13   -1    0    0    0    0  0.00000000000E+00  0.00000000000E+00  0.14999999963E+04  0.15000000000E+04  0.10566000000E+00 0.  1.
        994   -1    0    0    0    0 -0.00000000000E+00 -0.00000000000E+00  0.11368683772E-12  0.17120000000E+03  0.17120000000E+03 0.  0.
         13    1    1    2    0    0 -0.65886743931E+01 -0.77401974899E+01  0.36197080007E+01  0.10790492921E+02  0.10566000000E+00 0.  1.
        994    1    1    2    0    0  0.70838944362E+01 -0.17294351962E+02  0.86492016060E+01  0.17243411744E+03  0.17120000000E+03 0.  0.
        998    1    1    2    0    0 -0.49522004311E+00  0.25034549452E+02  0.14877310867E+04  0.14879753896E+04  0.10000000000E+02 0.  1.
</event>
<event>
 5    1  0.7732857E-009  0.3858968E+03  0.7957747E-01  0.3425878E+00
         13   -1    0    0    0    0  0.00000000000E+00  0.00000000000E+00  0.14999999963E+04  0.15000000000E+04  0.10566000000E+00 0.  1.
        994   -1    0    0    0    0 -0.00000000000E+00 -0.00000000000E+00  0.11368683772E-12  0.17120000000E+03  0.17120000000E+03 0.  0.
         13    1    1    2    0    0  0.25029551540E+01  0.12967676283E+02  0.68528783799E+02  0.69789904611E+02  0.10566000000E+00 0.  1.
        994    1    1    2    0    0 -0.82592982976E+01 -0.18377106911E+02  0.25178047376E+01  0.17239986487E+03  0.17120000000E+03 0.  0.
        998    1    1    2    0    0  0.57563431436E+01  0.54094306276E+01  0.14289534077E+04  0.14290102305E+04  0.10000000000E+02 0.  1.
</event>
<event>
 5    1  0.7732857E-009  0.3854668E+03  0.7957747E-01  0.3427695E+00
         13   -1    0    0    0    0  0.00000000000E+00  0.00000000000E+00  0.14999999963E+04  0.15000000000E+04  0.10566000000E+00 0.  1.
        994   -1    0    0    0    0 -0.00000000000E+00 -0.00000000000E+00  0.11368683772E-12  0.17120000000E+03  0.17120000000E+03 0.  0.
         13    1    1    2    0    0  0.57635453609E+01 -0.11099598373E+02  0.55868620609E+02  0.57251493186E+02  0.10566000000E+00 0.  1.
        994    1    1    2    0    0 -0.71001795970E+01  0.66927095941E+01  0.17112481973E+01  0.17148636471E+03  0.17120000000E+03 0.  0.
        998    1    1    2    0    0  0.13366342361E+01  0.44068887784E+01  0.14424201275E+04  0.14424621421E+04  0.10000000000E+02 0.  1.
</event>
<event>
 5    1  0.7732857E-009  0.3803377E+03  0.7957747E-01  0.3449689E+00
         13   -1    0    0    0    0  0.00000000000E+00  0.00000000000E+00  0.14999999963E+04  0.15000000000E+04  0.10566000000E+00 0.  1.
        994   -1    0    0    0    0 -0.00000000000E+00 -0.00000000000E+00  0.11368683772E-12  0.17120000000E+03  0.17120000000E+03 0.  0.
         13    1    1    2    0    0 -0.10245057922E+02  0.11116886343E+02  0.27628068456E+02  0.31493931232E+02  0.10566000000E+00 0.  1.
        994    1    1    2    0    0  0.52552641003E+01 -0.31802258978E+01  0.40887903716E+01  0.17135895029E+03  0.17120000000E+03 0.  0.
        998    1    1    2    0    0  0.49897938221E+01 -0.79366604457E+01  0.14682831375E+04  0.14683471185E+04  0.10000000000E+02 0.  1.
</event>
<event>
 5    1  0.7732857E-009  0.3813484E+03  0.7957747E-01  0.3445308E+00
         13   -1    0    0    0    0  0.00000000000E+00  0.00000000000E+00  0.14999999963E+04  0.15000000000E+04  0.10566000000E+00 0.  1.
        994   -1    0    0    0    0 -0.00000000000E+00 -0.00000000000E+00  0.11368683772E-12  0.17120000000E+03  0.17120000000E+03 0.  0.
         13    1    1    2    0    0  0.15310463623E+02 -0.18313445088E+01  0.32291123413E+02  0.35783961971E+02  0.10566000000E+00 0.  1.
        994    1    1    2    0    0 -0.17010201859E+02  0.89854971804E+01  0.46866947923E+01  0.17234120585E+03  0.17120000000E+03 0.  0.
        998    1    1    2    0    0  0.16997382365E+01 -0.71541526716E+01  0.14630221781E+04  0.14630748322E+04  0.10000000000E+02 0.  1.
</event>
<event>
 5    1  0.7732857E-009  0.3853582E+03  0.7957747E-01  0.3428154E+00
         13   -1    0    0    0    0  0.00000000000E+00  0.00000000000E+00  0.14999999963E+04  0.15000000000E+04  0.10566000000E+00 0.  1.
        994   -1    0    0    0    0 -0.00000000000E+00 -0.00000000000E+00  0.11368683772E-12  0.17120000000E+03  0.17120000000E+03 0.  0.
         13    1    1    2    0    0  0.14175196786E+02  0.48685718117E+01  0.56622378436E+02  0.58572554146E+02  0.10566000000E+00 0.  1.
        994    1    1    2    0    0 -0.53232104681E+02 -0.39747560139E+02  0.16086810428E+02  0.18434139789E+03  0.17120000000E+03 0.  0.
        998    1    1    2    0    0  0.39056907895E+02  0.34878988327E+02  0.14272908074E+04  0.14282860480E+04  0.10000000000E+02 0.  1.
</event>
<event>
 5    1  0.7732857E-009  0.3808427E+03  0.7957747E-01  0.3447497E+00
         13   -1    0    0    0    0  0.00000000000E+00  0.00000000000E+00  0.14999999963E+04  0.15000000000E+04  0.10566000000E+00 0.  1.
        994   -1    0    0    0    0 -0.00000000000E+00 -0.00000000000E+00  0.11368683772E-12  0.17120000000E+03  0.17120000000E+03 0.  0.
         13    1    1    2    0    0  0.15947440520E+02 -0.40727505009E+01  0.34754263738E+02  0.38454884836E+02  0.10566000000E+00 0.  1.
        994    1    1    2    0    0 -0.15927013531E+02 -0.51419658580E+01  0.46426887286E+01  0.17207877304E+03  0.17120000000E+03 0.  0.
        998    1    1    2    0    0 -0.20426988822E-01  0.92147163588E+01  0.14606030438E+04  0.14606663421E+04  0.10000000000E+02 0.  1.
</event>
<event>
 5    1  0.7732857E-009  0.3725207E+03  0.7957747E-01  0.3484386E+00
         13   -1    0    0    0    0  0.00000000000E+00  0.00000000000E+00  0.14999999963E+04  0.15000000000E+04  0.10566000000E+00 0. -1.
        994   -1    0    0    0    0 -0.00000000000E+00 -0.00000000000E+00  0.11368683772E-12  0.17120000000E+03  0.17120000000E+03 0.  0.
         13    1    1    2    0    0  0.55350546270E+01  0.49467640198E+02  0.14100526806E+03  0.14953321050E+03  0.10566000000E+00 0. -1.
        994    1    1    2    0    0 -0.29587962242E+02 -0.44729550387E+02  0.17881735627E+02  0.18029247532E+03  0.17120000000E+03 0.  0.
        998    1    1    2    0    0  0.24052907615E+02 -0.47380898116E+01  0.13411129926E+04  0.13413743142E+04  0.10000000000E+02 0. -1.
</event>
<event>
 5    1  0.8826835E-009  0.3861423E+03  0.7957747E-01  0.3424842E+00
         13   -1    0    0    0    0  0.00000000000E+00  0.00000000000E+00  0.14999999963E+04  0.15000000000E+04  0.10566000000E+00 0.  1.
        994   -1    0    0    0    0 -0.00000000000E+00 -0.00000000000E+00  0.11368683772E-12  0.17120000000E+03  0.17120000000E+03 0.  0.
         13    1    1    2    0    0  0.80332467731E+01 -0.89441431334E+01  0.69714362874E+02  0.70743440015E+02  0.10566000000E+00 0.  1.
        994    1    1    2    0    0 -0.77650470153E+01  0.17779561811E+01  0.12720055463E+01  0.17138995035E+03  0.17120000000E+03 0.  0.
        998    1    1    2    0    0 -0.26819975785E+00  0.71661869523E+01  0.14290136279E+04  0.14290666096E+04  0.10000000000E+02 0.  1.
</event>
<event>
 5    1  0.7732857E-009  0.3809634E+03  0.7957747E-01  0.3446974E+00
         13   -1    0    0    0    0  0.00000000000E+00  0.00000000000E+00  0.14999999963E+04  0.15000000000E+04  0.10566000000E+00 0.  1.
        994   -1    0    0    0    0 -0.00000000000E+00 -0.00000000000E+00  0.11368683772E-12  0.17120000000E+03  0.17120000000E+03 0.  0.
         13    1    1    2    0    0  0.79472097520E+01 -0.79165885561E+01  0.15647436315E+02  0.19253154143E+02  0.10566000000E+00 0.  1.
        994    1    1    2    0    0 -0.52917367906E+01  0.83165045915E+01  0.39714529843E+01  0.17152952855E+03  0.17120000000E+03 0.  0.
        998    1    1    2    0    0 -0.26554729614E+01 -0.39991603540E+00  0.14803811070E+04  0.14804173173E+04  0.10000000000E+02 0.  1.
</event>
<event>
 5    1  0.7732857E-009  0.3787682E+03  0.7957747E-01  0.3456540E+00
         13   -1    0    0    0    0  0.00000000000E+00  0.00000000000E+00  0.14999999963E+04  0.15000000000E+04  0.10566000000E+00 0. -1.
        994   -1    0    0    0    0 -0.00000000000E+00 -0.00000000000E+00  0.11368683772E-12  0.17120000000E+03  0.17120000000E+03 0.  0.
         13    1    1    2    0    0  0.10515453302E+02 -0.36525759416E+01  0.10933975517E+02  0.15603815361E+02  0.10566000000E+00 0. -1.
        994    1    1    2    0    0 -0.49289266121E+01  0.79432908068E+01  0.50496277048E+01  0.17152938211E+03  0.17120000000E+03 0.  0.
        998    1    1    2    0    0 -0.55865266904E+01 -0.42907148651E+01  0.14840163931E+04  0.14840668025E+04  0.10000000000E+02 0. -1.
</event>
<event>
 5    1  0.7732857E-009  0.3774689E+03  0.7957747E-01  0.3462254E+00
         13   -1    0    0    0    0  0.00000000000E+00  0.00000000000E+00  0.14999999963E+04  0.15000000000E+04  0.10566000000E+00 0.  1.
        994   -1    0    0    0    0 -0.00000000000E+00 -0.00000000000E+00  0.11368683772E-12  0.17120000000E+03  0.17120000000E+03 0.  0.
         13    1    1    2    0    0 -0.57114745209E+02  0.38494110832E+02  0.33897957645E+03  0.34590613626E+03  0.10566000000E+00 0.  1.
        994    1    1    2    0    0  0.56966839883E+02 -0.38125450910E+02  0.21423928263E+02  0.18565342861E+03  0.17120000000E+03 0.  0.
        998    1    1    2    0    0  0.14790532689E+00 -0.36865992183E+00  0.11395964916E+04  0.11396404351E+04  0.10000000000E+02 0.  0.
</event>
<event>
 5    1  0.9809143E-009  0.3850415E+03  0.7957747E-01  0.3429496E+00
         13   -1    0    0    0    0  0.00000000000E+00  0.00000000000E+00  0.14999999963E+04  0.15000000000E+04  0.10566000000E+00 0. -1.
        994   -1    0    0    0    0 -0.00000000000E+00 -0.00000000000E+00  0.11368683772E-12  0.17120000000E+03  0.17120000000E+03 0.  0.
         13    1    1    2    0    0 -0.15173671340E+02 -0.14625776640E+02  0.12386755548E+03  0.12564766655E+03  0.10566000000E+00 0. -1.
        994    1    1    2    0    0  0.16489554399E+02  0.19902044674E+02  0.38091453830E+01  0.17318183038E+03  0.17120000000E+03 0.  0.
        998    1    1    2    0    0 -0.13158830592E+01 -0.52762680347E+01  0.13723232954E+04  0.13723705031E+04  0.10000000000E+02 0. -1.
</event>
<event>
 5    1  0.7732857E-009  0.3709902E+03  0.7957747E-01  0.3491352E+00
         13   -1    0    0    0    0  0.00000000000E+00  0.00000000000E+00  0.14999999963E+04  0.15000000000E+04  0.10566000000E+00 0. -1.
        994   -1    0    0    0    0 -0.00000000000E+00 -0.00000000000E+00  0.11368683772E-12  0.17120000000E+03  0.17120000000E+03 0.  0.
         13    1    1    2    0    0  0.27276291337E+01 -0.10244431810E+02 -0.42355602563E+00  0.10610320803E+02  0.10566000000E+00 0. -1.
        994    1    1    2    0    0 -0.74842951710E+01  0.14648791596E+01  0.11667440832E+02  0.17176649767E+03  0.17120000000E+03 0.  0.
        998    1    1    2    0    0  0.47566660374E+01  0.87795526501E+01  0.14887561115E+04  0.14888231815E+04  0.10000000000E+02 0. -1.
</event>
<event>
 5    1  0.7732857E-009  0.3830347E+03  0.7957747E-01  0.3438050E+00
         13   -1    0    0    0    0  0.00000000000E+00  0.00000000000E+00  0.14999999963E+04  0.15000000000E+04  0.10566000000E+00 0. -1.
        994   -1    0    0    0    0 -0.00000000000E+00 -0.00000000000E+00  0.11368683772E-12  0.17120000000E+03  0.17120000000E+03 0.  0.
         13    1    1    2    0    0 -0.20740230683E+03  0.10218657693E+03  0.12799474078E+04  0.13006625970E+04  0.10566000000E+00 0. -1.
        994    1    1    2    0    0  0.20273746143E+03 -0.10266535415E+03  0.20046111865E+03  0.34804705616E+03  0.17120000000E+03 0.  0.
        998    1    1    2    0    0  0.46648453969E+01  0.47877722150E+00  0.19591469821E+02  0.22490346817E+02  0.10000000000E+02 0.  1.
</event>
<event>
 5    1  0.7732857E-009  0.3410038E+03  0.7957747E-01  0.3640779E+00
         13   -1    0    0    0    0  0.00000000000E+00  0.00000000000E+00  0.14999999963E+04  0.15000000000E+04  0.10566000000E+00 0.  1.
        994   -1    0    0    0    0 -0.00000000000E+00 -0.00000000000E+00  0.11368683772E-12  0.17120000000E+03  0.17120000000E+03 0.  0.
         13    1    1    2    0    0 -0.17929161443E+03  0.21543476555E+03  0.81261596056E+03  0.85959428322E+03  0.10566000000E+00 0.  1.
        994    1    1    2    0    0  0.12506994568E+03 -0.21690125058E+03  0.32306606922E+03  0.44313628704E+03  0.17120000000E+03 0.  0.
        998    1    1    2    0    0  0.54221668750E+02  0.14664850288E+01  0.36431796650E+03  0.36846942974E+03  0.10000000000E+02 0.  1.
</event>
<event>
 5    1  0.7732857E-009  0.3693950E+03  0.7957747E-01  0.3498676E+00
         13   -1    0    0    0    0  0.00000000000E+00  0.00000000000E+00  0.14999999963E+04  0.15000000000E+04  0.10566000000E+00 0.  1.
        994   -1    0    0    0    0 -0.00000000000E+00 -0.00000000000E+00  0.11368683772E-12  0.17120000000E+03  0.17120000000E+03 0.  0.
         13    1    1    2    0    0  0.17409005537E+02 -0.66362405210E+01  0.13885965816E+02  0.23236703138E+02  0.10566000000E+00 0.  1.
        994    1    1    2    0    0 -0.90655454963E+01  0.16060579466E+02  0.10764982164E+02  0.17252666799E+03  0.17120000000E+03 0.  0.
        998    1    1    2    0    0 -0.83434600407E+01 -0.94243389449E+01  0.14753490483E+04  0.14754366289E+04  0.10000000000E+02 0.  1.
</event>
<event>
 5    1  0.7732857E-009  0.3761106E+03  0.7957747E-01  0.3468271E+00
         13   -1    0    0    0    0  0.00000000000E+00  0.00000000000E+00  0.14999999963E+04  0.15000000000E+04  0.10566000000E+00 0.  1.
        994   -1    0    0    0    0 -0.00000000000E+00 -0.00000000000E+00  0.11368683772E-12  0.17120000000E+03  0.17120000000E+03 0.  0.
         13    1    1    2    0    0 -0.17711908633E+02  0.57389254560E+02  0.25588344253E+03  0.26283756499E+03  0.10566000000E+00 0.  1.
        994    1    1    2    0    0  0.17289682637E+02 -0.50960651483E+02  0.15980350135E+02  0.18016862301E+03  0.17120000000E+03 0.  0.
        998    1    1    2    0    0  0.42222599543E+00 -0.64286030766E+01  0.12281362036E+04  0.12281938120E+04  0.10000000000E+02 0.  1.
</event>
<event>
 5    1  0.7732857E-009  0.3740154E+03  0.7957747E-01  0.3477638E+00
         13   -1    0    0    0    0  0.00000000000E+00  0.00000000000E+00  0.14999999963E+04  0.15000000000E+04  0.10566000000E+00 0. -1.
        994   -1    0    0    0    0 -0.00000000000E+00 -0.00000000000E+00  0.11368683772E-12  0.17120000000E+03  0.17120000000E+03 0.  0.
         13    1    1    2    0    0 -0.29681311325E+02  0.12881560898E+02  0.66742686049E+02  0.74172179139E+02  0.10566000000E+00 0. -1.
        994    1    1    2    0    0  0.34395579983E+02 -0.90421012082E+01  0.11511103943E+02  0.17523344724E+03  0.17120000000E+03 0.  0.
        998    1    1    2    0    0 -0.47142686581E+01 -0.38394596897E+01  0.14217462063E+04  0.14217943736E+04  0.10000000000E+02 0. -1.
</event>
<event>
 5    1  0.1070828E-008  0.3847807E+03  0.7957747E-01  0.3430603E+00
         13   -1    0    0    0    0  0.00000000000E+00  0.00000000000E+00  0.14999999963E+04  0.15000000000E+04  0.10566000000E+00 0. -1.
        994   -1    0    0    0    0 -0.00000000000E+00 -0.00000000000E+00  0.11368683772E-12  0.17120000000E+03  0.17120000000E+03 0.  0.
         13    1    1    2    0    0 -0.11307633238E+02 -0.77672413186E+01  0.54809270802E+02  0.56500087939E+02  0.10566000000E+00 0. -1.
        994    1    1    2    0    0  0.41864489012E+01  0.52125985893E+01  0.18861578041E+01  0.17134087408E+03  0.17120000000E+03 0.  0.
        998    1    1    2    0    0  0.71211843366E+01  0.25546427293E+01  0.14433045677E+04  0.14433590380E+04  0.10000000000E+02 0. -1.
</event>
<event>
 5    1  0.7732857E-009  0.3810228E+03  0.7957747E-01  0.3446717E+00
         13   -1    0    0    0    0  0.00000000000E+00  0.00000000000E+00  0.14999999963E+04  0.15000000000E+04  0.10566000000E+00 0.  1.
        994   -1    0    0    0    0 -0.00000000000E+00 -0.00000000000E+00  0.11368683772E-12  0.17120000000E+03  0.17120000000E+03 0.  0.
         13    1    1    2    0    0 -0.12024600949E+03  0.14066436843E+03  0.10505849730E+04  0.10667588125E+04  0.10566000000E+00 0.  1.
        994    1    1    2    0    0  0.14911247696E+03 -0.12713054545E+03  0.14436982552E+03  0.29757149207E+03  0.17120000000E+03 0.  0.
        998    1    1    2    0    0 -0.28866467474E+02 -0.13533822980E+02  0.30504519773E+03  0.30686969542E+03  0.10000000000E+02 0. -1.
</event>
<event>
 5    1  0.7732857E-009  0.3846583E+03  0.7957747E-01  0.3431123E+00
         13   -1    0    0    0    0  0.00000000000E+00  0.00000000000E+00  0.14999999963E+04  0.15000000000E+04  0.10566000000E+00 0.  1.
        994   -1    0    0    0    0 -0.00000000000E+00 -0.00000000000E+00  0.11368683772E-12  0.17120000000E+03  0.17120000000E+03 0.  0.
         13    1    1    2    0    0 -0.13393476672E+03  0.16343376017E+02  0.73503711282E+03  0.74731867102E+03  0.10566000000E+00 0.  1.
        994    1    1    2    0    0  0.18384238526E+03 -0.20773643651E+02  0.12405904350E+03  0.28094421717E+03  0.17120000000E+03 0.  0.
        998    1    1    2    0    0 -0.49907618538E+02  0.44302676338E+01  0.64090383996E+03  0.64293711181E+03  0.10000000000E+02 0.  1.
</event>
<event>
 5    1  0.7732857E-009  0.3812753E+03  0.7957747E-01  0.3445624E+00
         13   -1    0    0    0    0  0.00000000000E+00  0.00000000000E+00  0.14999999963E+04  0.15000000000E+04  0.10566000000E+00 0. -1.
        994   -1    0    0    0    0 -0.00000000000E+00 -0.00000000000E+00  0.11368683772E-12  0.17120000000E+03  0.17120000000E+03 0.  0.
         13    1    1    2    0    0 -0.18018520926E+02  0.83879056960E+01  0.55082047364E+02  0.58558237372E+02  0.10566000000E+00 0. -1.
        994    1    1    2    0    0  0.14663035618E+02 -0.18381750342E+01  0.42180676747E+01  0.17188838121E+03  0.17120000000E+03 0.  0.
        998    1    1    2    0    0  0.33554853081E+01 -0.65497306618E+01  0.14406998812E+04  0.14407533814E+04  0.10000000000E+02 0.  0.
</event>
<event>
 5    1  0.7732857E-009  0.3856188E+03  0.7957747E-01  0.3427052E+00
         13   -1    0    0    0    0  0.00000000000E+00  0.00000000000E+00  0.14999999963E+04  0.15000000000E+04  0.10566000000E+00 0.  1.
        994   -1    0    0    0    0 -0.00000000000E+00 -0.00000000000E+00  0.11368683772E-12  0.17120000000E+03  0.17120000000E+03 0.  0.
         13    1    1    2    0    0  0.41992013437E+01  0.13141666494E+02  0.68008837468E+02  0.69394162780E+02  0.10566000000E+00 0.  1.
        994    1    1    2    0    0 -0.64284159639E+01 -0.16767855831E+02  0.23823796047E+01  0.17215574708E+03  0.17120000000E+03 0.  0.
        998    1    1    2    0    0  0.22292146202E+01  0.36261893363E+01  0.14296087792E+04  0.14296500901E+04  0.10000000000E+02 0.  1.
</event>
<event>
 5    1  0.7732857E-009  0.4596068E+03  0.7957747E-01  0.3164131E+00
         13   -1    0    0    0    0  0.00000000000E+00  0.00000000000E+00  0.14999999963E+04  0.15000000000E+04  0.10566000000E+00 0. -1.
        994   -1    0    0    0    0 -0.00000000000E+00 -0.00000000000E+00  0.11368683772E-12  0.17120000000E+03  0.17120000000E+03 0.  0.
         13    1    1    2    0    0 -0.86281320590E+02  0.23589788606E+02  0.34825335506E+02  0.95988330366E+02  0.10566000000E+00 0. -1.
        994    1    1    2    0    0  0.94254732555E+02 -0.15467948518E+02  0.11979475273E+03  0.22974645769E+03  0.17120000000E+03 0.  0.
        998    1    1    2    0    0 -0.79734119644E+01 -0.81218400875E+01  0.13453799080E+04  0.13454652119E+04  0.10000000000E+02 0. -1.
</event>
<event>
 5    1  0.7732857E-009  0.2792784E+03  0.7957747E-01  0.4056043E+00
         13   -1    0    0    0    0  0.00000000000E+00  0.00000000000E+00  0.14999999963E+04  0.15000000000E+04  0.10566000000E+00 0.  1.
        994   -1    0    0    0    0 -0.00000000000E+00 -0.00000000000E+00  0.11368683772E-12  0.17120000000E+03  0.17120000000E+03 0.  0.
         13    1    1    2    0    0 -0.14954511297E+01 -0.13527626813E+03  0.64064896441E+03  0.65477707035E+03  0.10566000000E+00 0.  1.
        994    1    1    2    0    0 -0.40835607228E+01  0.66172401303E+02  0.32297224598E+02  0.18640818887E+03  0.17120000000E+03 0.  0.
        998    1    1    2    0    0  0.55790118525E+01  0.69103866828E+02  0.82705380727E+03  0.83001474077E+03  0.10000000000E+02 0.  1.
</event>
<event>
 5    1  0.7732857E-009  0.3744559E+03  0.7957747E-01  0.3475660E+00
         13   -1    0    0    0    0  0.00000000000E+00  0.00000000000E+00  0.14999999963E+04  0.15000000000E+04  0.10566000000E+00 0.  1.
        994   -1    0    0    0    0 -0.00000000000E+00 -0.00000000000E+00  0.11368683772E-12  0.17120000000E+03  0.17120000000E+03 0.  0.
         13    1    1    2    0    0 -0.20450687837E+02  0.38908534631E+02  0.11583143391E+03  0.12389123031E+03  0.10566000000E+00 0.  1.
        994    1    1    2    0    0  0.36272329195E+02 -0.52690926813E+02  0.21023869144E+02  0.18396591724E+03  0.17120000000E+03 0.  0.
        998    1    1    2    0    0 -0.15821641359E+02  0.13782392182E+02  0.13631446932E+04  0.13633428524E+04  0.10000000000E+02 0.  1.
</event>
<event>
 5    1  0.7732857E-009  0.3829414E+03  0.7957747E-01  0.3438450E+00
         13   -1    0    0    0    0  0.00000000000E+00  0.00000000000E+00  0.14999999963E+04  0.15000000000E+04  0.10566000000E+00 0.  1.
        994   -1    0    0    0    0 -0.00000000000E+00 -0.00000000000E+00  0.11368683772E-12  0.17120000000E+03  0.17120000000E+03 0.  0.
         13    1    1    2    0    0  0.38615380034E+01 -0.24306897215E+02  0.13095245648E+03  0.13324523913E+03  0.10566000000E+00 0.  1.
        994    1    1    2    0    0  0.75705416229E+01 -0.34180729244E+01  0.28841397539E+01  0.17142565323E+03  0.17120000000E+03 0.  0.
        998    1    1    2    0    0 -0.11432079626E+02  0.27724970140E+02  0.13661634000E+04  0.13665291076E+04  0.10000000000E+02 0.  1.
</event>
<event>
 5    1  0.7732857E-009  0.3746814E+03  0.7957747E-01  0.3474649E+00
         13   -1    0    0    0    0  0.00000000000E+00  0.00000000000E+00  0.14999999963E+04  0.15000000000E+04  0.10566000000E+00 0.  1.
        994   -1    0    0    0    0 -0.00000000000E+00 -0.00000000000E+00  0.11368683772E-12  0.17120000000E+03  0.17120000000E+03 0.  0.
         13    1    1    2    0    0 -0.31024861241E+02 -0.83737157516E+02  0.26247541941E+03  0.27725044729E+03  0.10566000000E+00 0.  1.
        994    1    1    2    0    0  0.37855266421E+02  0.64735317539E+02  0.33704615192E+02  0.18991872898E+03  0.17120000000E+03 0.  0.
        998    1    1    2    0    0 -0.68304051798E+01  0.19001839977E+02  0.12038199617E+04  0.12040308237E+04  0.10000000000E+02 0.  1.
</event>
<event>
 5    1  0.7732857E-009  0.4330291E+03  0.7957747E-01  0.3248450E+00
         13   -1    0    0    0    0  0.00000000000E+00  0.00000000000E+00  0.14999999963E+04  0.15000000000E+04  0.10566000000E+00 0. -1.
        994   -1    0    0    0    0 -0.00000000000E+00 -0.00000000000E+00  0.11368683772E-12  0.17120000000E+03  0.17120000000E+03 0.  0.
         13    1    1    2    0    0  0.19513617584E+02 -0.11343212301E+03  0.11796844310E+03  0.16481563194E+03  0.10566000000E+00 0. -1.
        994    1    1    2    0    0 -0.23215758667E+02  0.96006920330E+02  0.95185970002E+02  0.21937663751E+03  0.17120000000E+03 0.  0.
        998    1    1    2    0    0  0.37021410829E+01  0.17425202678E+02  0.12868455832E+04  0.12870077305E+04  0.10000000000E+02 0. -1.
</event>
<event>
 5    1  0.7732857E-009  0.3697088E+03  0.7957747E-01  0.3497230E+00
         13   -1    0    0    0    0  0.00000000000E+00  0.00000000000E+00  0.14999999963E+04  0.15000000000E+04  0.10566000000E+00 0.  1.
        994   -1    0    0    0    0 -0.00000000000E+00 -0.00000000000E+00  0.11368683772E-12  0.17120000000E+03  0.17120000000E+03 0.  0.
         13    1    1    2    0    0  0.13770982382E+02 -0.25567402004E+02  0.35483476879E+02  0.45852156944E+02  0.10566000000E+00 0.  1.
        994    1    1    2    0    0  0.26977568041E+02  0.27452966575E+02  0.15976604267E+02  0.17619916695E+03  0.17120000000E+03 0.  0.
        998    1    1    2    0    0 -0.40748550423E+02 -0.18855645711E+01  0.14485399151E+04  0.14491486761E+04  0.10000000000E+02 0.  1.
</event>
<event>
 5    1  0.7732857E-009  0.3798459E+03  0.7957747E-01  0.3451830E+00
         13   -1    0    0    0    0  0.00000000000E+00  0.00000000000E+00  0.14999999963E+04  0.15000000000E+04  0.10566000000E+00 0. -1.
        994   -1    0    0    0    0 -0.00000000000E+00 -0.00000000000E+00  0.11368683772E-12  0.17120000000E+03  0.17120000000E+03 0.  0.
         13    1    1    2    0    0  0.53584429035E+01 -0.15115884192E+02  0.28844627069E+02  0.33003432246E+02  0.10566000000E+00 0. -1.
        994    1    1    2    0    0 -0.16766407904E+02  0.57792455403E+01  0.52635966786E+01  0.17219656664E+03  0.17120000000E+03 0.  0.
        998    1    1    2    0    0  0.11407965000E+02  0.93366386521E+01  0.14658917725E+04  0.14660000011E+04  0.10000000000E+02 0. -1.
</event>
<event>
 5    1  0.7732857E-009  0.3772995E+03  0.7957747E-01  0.3463002E+00
         13   -1    0    0    0    0  0.00000000000E+00  0.00000000000E+00  0.14999999963E+04  0.15000000000E+04  0.10566000000E+00 0.  1.
        994   -1    0    0    0    0 -0.00000000000E+00 -0.00000000000E+00  0.11368683772E-12  0.17120000000E+03  0.17120000000E+03 0.  0.
         13    1    1    2    0    0 -0.14609079321E+02 -0.14606894015E+02  0.36521263981E+02  0.41959509508E+02  0.10566000000E+00 0.  1.
        994    1    1    2    0    0  0.17039176714E+02  0.33109092729E+01  0.65195352927E+01  0.17220116145E+03  0.17120000000E+03 0.  0.
        998    1    1    2    0    0 -0.24300973928E+01  0.11295984743E+02  0.14569591970E+04  0.14570393290E+04  0.10000000000E+02 0.  1.
</event>
<event>
 5    1  0.7732857E-009  0.3779321E+03  0.7957747E-01  0.3460212E+00
         13   -1    0    0    0    0  0.00000000000E+00  0.00000000000E+00  0.14999999963E+04  0.15000000000E+04  0.10566000000E+00 0.  1.
        994   -1    0    0    0    0 -0.00000000000E+00 -0.00000000000E+00  0.11368683772E-12  0.17120000000E+03  0.17120000000E+03 0.  0.
         13    1    1    2    0    0  0.41071287469E+02 -0.52228144830E+02  0.13130590458E+03  0.14715937451E+03  0.10566000000E+00 0.  1.
        994    1    1    2    0    0 -0.33533996640E+02  0.51107375975E+02  0.28758612216E+02  0.18404616428E+03  0.17120000000E+03 0.  0.
        998    1    1    2    0    0 -0.75372908281E+01  0.11207688548E+01  0.13399354795E+04  0.13399944612E+04  0.10000000000E+02 0.  1.
</event>
<event>
 5    1  0.7732857E-009  0.3728238E+03  0.7957747E-01  0.3483013E+00
         13   -1    0    0    0    0  0.00000000000E+00  0.00000000000E+00  0.14999999963E+04  0.15000000000E+04  0.10566000000E+00 0.  1.
        994   -1    0    0    0    0 -0.00000000000E+00 -0.00000000000E+00  0.11368683772E-12  0.17120000000E+03  0.17120000000E+03 0.  0.
         13    1    1    2    0    0 -0.13772693096E+02 -0.31428416948E+01  0.92298983521E+01  0.16875032345E+02  0.10566000000E+00 0.  1.
        994    1    1    2    0    0  0.12464534076E+02  0.24700818204E+01  0.83536388199E+01  0.17187405038E+03  0.17120000000E+03 0.  0.
        998    1    1    2    0    0  0.13081590201E+01  0.67275987449E+00  0.14824164591E+04  0.14824509173E+04  0.10000000000E+02 0.  1.
</event>
<event>
 5    1  0.7732857E-009  0.3842377E+03  0.7957747E-01  0.3432912E+00
         13   -1    0    0    0    0  0.00000000000E+00  0.00000000000E+00  0.14999999963E+04  0.15000000000E+04  0.10566000000E+00 0.  1.
        994   -1    0    0    0    0 -0.00000000000E+00 -0.00000000000E+00  0.11368683772E-12  0.17120000000E+03  0.17120000000E+03 0.  0.
         13    1    1    2    0    0  0.23962210131E+02  0.38695025986E+01  0.13903096381E+03  0.14113391026E+03  0.10566000000E+00 0.  1.
        994    1    1    2    0    0 -0.19332894037E+02 -0.11847376983E+02  0.37058734986E+01  0.17273475224E+03  0.17120000000E+03 0.  0.
        998    1    1    2    0    0 -0.46293160937E+01  0.79778743845E+01  0.13572631590E+04  0.13573313375E+04  0.10000000000E+02 0.  1.
</event>
<event>
 5    1  0.7732857E-009  0.3832932E+03  0.7957747E-01  0.3436943E+00
         13   -1    0    0    0    0  0.00000000000E+00  0.00000000000E+00  0.14999999963E+04  0.15000000000E+04  0.10566000000E+00 0.  1.
        994   -1    0    0    0    0 -0.00000000000E+00 -0.00000000000E+00  0.11368683772E-12  0.17120000000E+03  0.17120000000E+03 0.  0.
         13    1    1    2    0    0  0.13425259195E+02 -0.14238426655E+02  0.73274173690E+02  0.75842508344E+02  0.10566000000E+00 0.  1.
        994    1    1    2    0    0 -0.15352654740E+02  0.13634642874E+02  0.38753836254E+01  0.17247047890E+03  0.17120000000E+03 0.  0.
        998    1    1    2    0    0  0.19273955446E+01  0.60378378048E+00  0.14228504390E+04  0.14228870128E+04  0.10000000000E+02 0.  0.
</event>
<event>
 5    1  0.7732857E-009  0.3853679E+03  0.7957747E-01  0.3428113E+00
         13   -1    0    0    0    0  0.00000000000E+00  0.00000000000E+00  0.14999999963E+04  0.15000000000E+04  0.10566000000E+00 0.  1.
        994   -1    0    0    0    0 -0.00000000000E+00 -0.00000000000E+00  0.11368683772E-12  0.17120000000E+03  0.17120000000E+03 0.  0.
         13    1    1    2    0    0 -0.82301888988E+01 -0.59271692866E+01  0.35430323201E+02  0.36853579354E+02  0.10566000000E+00 0.  1.
        994    1    1    2    0    0  0.70515454529E+01  0.29014264658E+01  0.16385922256E+01  0.17137755849E+03  0.17120000000E+03 0.  0.
        998    1    1    2    0    0  0.11786434458E+01  0.30257428209E+01  0.14629310809E+04  0.14629688622E+04  0.10000000000E+02 0.  1.
</event>
<event>
 5    1  0.7732857E-009  0.3718161E+03  0.7957747E-01  0.3487586E+00
         13   -1    0    0    0    0  0.00000000000E+00  0.00000000000E+00  0.14999999963E+04  0.15000000000E+04  0.10566000000E+00 0. -1.
        994   -1    0    0    0    0 -0.00000000000E+00 -0.00000000000E+00  0.11368683772E-12  0.17120000000E+03  0.17120000000E+03 0.  0.
         13    1    1    2    0    0 -0.29949741054E+02  0.18401036587E+02  0.72341153366E+02  0.80429091571E+02  0.10566000000E+00 0. -1.
        994    1    1    2    0    0  0.13301715725E+02 -0.12121027910E+02  0.94364879035E+01  0.17240168869E+03  0.17120000000E+03 0.  0.
        998    1    1    2    0    0  0.16648025330E+02 -0.62800086765E+01  0.14182223550E+04  0.14183692197E+04  0.10000000000E+02 0. -1.
</event>
<event>
 5    1  0.7732857E-009  0.4060771E+03  0.7957747E-01  0.3344922E+00
         13   -1    0    0    0    0  0.00000000000E+00  0.00000000000E+00  0.14999999963E+04  0.15000000000E+04  0.10566000000E+00 0. -1.
        994   -1    0    0    0    0 -0.00000000000E+00 -0.00000000000E+00  0.11368683772E-12  0.17120000000E+03  0.17120000000E+03 0.  0.
         13    1    1    2    0    0 -0.16653123618E+02  0.57912612764E+02  0.45472642624E+02  0.75491520283E+02  0.10566000000E+00 0. -1.
        994    1    1    2    0    0  0.12446762385E+02 -0.58020449651E+02  0.45736422221E+02  0.18687577368E+03  0.17120000000E+03 0.  0.
        998    1    1    2    0    0  0.42063612334E+01  0.10783688701E+00  0.14087909314E+04  0.14088327060E+04  0.10000000000E+02 0. -1.
</event>
<event>
 5    1  0.7732857E-009  0.3811882E+03  0.7957747E-01  0.3446001E+00
         13   -1    0    0    0    0  0.00000000000E+00  0.00000000000E+00  0.14999999963E+04  0.15000000000E+04  0.10566000000E+00 0.  1.
        994   -1    0    0    0    0 -0.00000000000E+00 -0.00000000000E+00  0.11368683772E-12  0.17120000000E+03  0.17120000000E+03 0.  0.
         13    1    1    2    0    0  0.99553634712E+01  0.81486910929E+01  0.22214242179E+02  0.25670881325E+02  0.10566000000E+00 0.  1.
        994    1    1    2    0    0 -0.71999349117E+01  0.17669976414E-01  0.37071805909E+01  0.17139143083E+03  0.17120000000E+03 0.  0.
        998    1    1    2    0    0 -0.27554285595E+01 -0.81663610693E+01  0.14740785735E+04  0.14741376878E+04  0.10000000000E+02 0.  1.
</event>
<event>
 5    1  0.7732857E-009  0.3823246E+03  0.7957747E-01  0.3441099E+00
         13   -1    0    0    0    0  0.00000000000E+00  0.00000000000E+00  0.14999999963E+04  0.15000000000E+04  0.10566000000E+00 0.  1.
        994   -1    0    0    0    0 -0.00000000000E+00 -0.00000000000E+00  0.11368683772E-12  0.17120000000E+03  0.17120000000E+03 0.  0.
         13    1    1    2    0    0 -0.12640109247E+02 -0.88956417775E+01  0.36993823574E+02  0.40093128477E+02  0.10566000000E+00 0.  1.
        994    1    1    2    0    0  0.19303012726E+02  0.18259189717E+02  0.53099120381E+01  0.17333101129E+03  0.17120000000E+03 0.  0.
        998    1    1    2    0    0 -0.66629034788E+01 -0.93635479391E+01  0.14576962607E+04  0.14577758602E+04  0.10000000000E+02 0.  1.
</event>
<event>
 5    1  0.7732857E-009  0.3818399E+03  0.7957747E-01  0.3443186E+00
         13   -1    0    0    0    0  0.00000000000E+00  0.00000000000E+00  0.14999999963E+04  0.15000000000E+04  0.10566000000E+00 0.  1.
        994   -1    0    0    0    0 -0.00000000000E+00 -0.00000000000E+00  0.11368683772E-12  0.17120000000E+03  0.17120000000E+03 0.  0.
         13    1    1    2    0    0 -0.68228971296E+01 -0.51083104376E+02  0.30297494222E+03  0.30732696311E+03  0.10566000000E+00 0.  1.
        994    1    1    2    0    0  0.91857070597E+01  0.59674608546E+02  0.15416105436E+02  0.18218817861E+03  0.17120000000E+03 0.  0.
        998    1    1    2    0    0 -0.23628099301E+01 -0.85915041699E+01  0.11816089486E+04  0.11816848583E+04  0.10000000000E+02 0.  1.
</event>
<event>
 5    1  0.7732857E-009  0.3773777E+03  0.7957747E-01  0.3462656E+00
         13   -1    0    0    0    0  0.00000000000E+00  0.00000000000E+00  0.14999999963E+04  0.15000000000E+04  0.10566000000E+00 0.  1.
        994   -1    0    0    0    0 -0.00000000000E+00 -0.00000000000E+00  0.11368683772E-12  0.17120000000E+03  0.17120000000E+03 0.  0.
         13    1    1    2    0    0 -0.30152280460E+01  0.26509199490E+02  0.60594307591E+02  0.66208085112E+02  0.10566000000E+00 0.  1.
        994    1    1    2    0    0  0.50880737858E+01 -0.27733631868E+02  0.81483985730E+01  0.17369766616E+03  0.17120000000E+03 0.  0.
        998    1    1    2    0    0 -0.20728457398E+01  0.12244323790E+01  0.14312572901E+04  0.14312942487E+04  0.10000000000E+02 0.  1.
</event>
<event>
 5    1  0.7732857E-009  0.3845032E+03  0.7957747E-01  0.3431782E+00
         13   -1    0    0    0    0  0.00000000000E+00  0.00000000000E+00  0.14999999963E+04  0.15000000000E+04  0.10566000000E+00 0.  1.
        994   -1    0    0    0    0 -0.00000000000E+00 -0.00000000000E+00  0.11368683772E-12  0.17120000000E+03  0.17120000000E+03 0.  0.
         13    1    1    2    0    0 -0.94624307800E+01 -0.51015987493E+01  0.31158161154E+02  0.32960674699E+02  0.10566000000E+00 0.  1.
        994    1    1    2    0    0 -0.42690650203E+01  0.10727665800E+02  0.23162011946E+01  0.17160452359E+03  0.17120000000E+03 0.  0.
        998    1    1    2    0    0  0.13731495800E+02 -0.56260670504E+01  0.14665256339E+04  0.14666348017E+04  0.10000000000E+02 0.  1.
</event>
<event>
 5    1  0.7732857E-009  0.3713968E+03  0.7957747E-01  0.3489496E+00
         13   -1    0    0    0    0  0.00000000000E+00  0.00000000000E+00  0.14999999963E+04  0.15000000000E+04  0.10566000000E+00 0.  1.
        994   -1    0    0    0    0 -0.00000000000E+00 -0.00000000000E+00  0.11368683772E-12  0.17120000000E+03  0.17120000000E+03 0.  0.
         13    1    1    2    0    0 -0.23978398496E+02 -0.13903330932E+02  0.26986230174E+02  0.38685061568E+02  0.10566000000E+00 0.  1.
        994    1    1    2    0    0  0.19347775489E+02  0.38133682729E+02  0.18130818028E+02  0.17738850227E+03  0.17120000000E+03 0.  0.
        998    1    1    2    0    0  0.46306230071E+01 -0.24230351797E+02  0.14548829481E+04  0.14551264362E+04  0.10000000000E+02 0.  1.
</event>
<event>
 5    1  0.7732857E-009  0.3754973E+03  0.7957747E-01  0.3471002E+00
         13   -1    0    0    0    0  0.00000000000E+00  0.00000000000E+00  0.14999999963E+04  0.15000000000E+04  0.10566000000E+00 0.  1.
        994   -1    0    0    0    0 -0.00000000000E+00 -0.00000000000E+00  0.11368683772E-12  0.17120000000E+03  0.17120000000E+03 0.  0.
         13    1    1    2    0    0 -0.91980498874E+01 -0.15432198082E+02  0.22817341526E+02  0.29041334296E+02  0.10566000000E+00 0.  1.
        994    1    1    2    0    0  0.11543791129E+01  0.54453169239E+01  0.65287344721E+01  0.17141484312E+03  0.17120000000E+03 0.  0.
        998    1    1    2    0    0  0.80436707745E+01  0.99868811583E+01  0.14706539203E+04  0.14707438226E+04  0.10000000000E+02 0.  1.
</event>
<event>
 5    1  0.7732857E-009  0.3691987E+03  0.7957747E-01  0.3499582E+00
         13   -1    0    0    0    0  0.00000000000E+00  0.00000000000E+00  0.14999999963E+04  0.15000000000E+04  0.10566000000E+00 0.  1.
        994   -1    0    0    0    0 -0.00000000000E+00 -0.00000000000E+00  0.11368683772E-12  0.17120000000E+03  0.17120000000E+03 0.  0.
         13    1    1    2    0    0  0.55702025207E+02  0.12121901958E+03  0.52334955671E+03  0.54008474890E+03  0.10566000000E+00 0.  1.
        994    1    1    2    0    0 -0.31290954326E+02 -0.13318984776E+03  0.78939136213E+02  0.23293665790E+03  0.17120000000E+03 0.  0.
        998    1    1    2    0    0 -0.24411070880E+02  0.11970828180E+02  0.89771130335E+03  0.89817859320E+03  0.10000000000E+02 0.  1.
</event>
<event>
 5    1  0.7732857E-009  0.3837955E+03  0.7957747E-01  0.3434797E+00
         13   -1    0    0    0    0  0.00000000000E+00  0.00000000000E+00  0.14999999963E+04  0.15000000000E+04  0.10566000000E+00 0.  1.
        994   -1    0    0    0    0 -0.00000000000E+00 -0.00000000000E+00  0.11368683772E-12  0.17120000000E+03  0.17120000000E+03 0.  0.
         13    1    1    2    0    0 -0.14982192122E+02  0.53335397766E+01  0.51718029882E+02  0.54108026265E+02  0.10566000000E+00 0.  1.
        994    1    1    2    0    0  0.21698463586E+02 -0.21448070672E+02  0.53085911098E+01  0.17397834405E+03  0.17120000000E+03 0.  0.
        998    1    1    2    0    0 -0.67162714643E+01  0.16114530895E+02  0.14429733753E+04  0.14431136297E+04  0.10000000000E+02 0.  1.
</event>
<event>
 5    1  0.7732857E-009  0.3856458E+03  0.7957747E-01  0.3426938E+00
         13   -1    0    0    0    0  0.00000000000E+00  0.00000000000E+00  0.14999999963E+04  0.15000000000E+04  0.10566000000E+00 0.  1.
        994   -1    0    0    0    0 -0.00000000000E+00 -0.00000000000E+00  0.11368683772E-12  0.17120000000E+03  0.17120000000E+03 0.  0.
         13    1    1    2    0    0 -0.34021720261E+01  0.10963039695E+02  0.51516676705E+02  0.52780130320E+02  0.10566000000E+00 0.  1.
        994    1    1    2    0    0 -0.32234581432E+01 -0.61688081706E+01  0.14688370853E+01  0.17134772353E+03  0.17120000000E+03 0.  0.
        998    1    1    2    0    0  0.66256301693E+01 -0.47942315239E+01  0.14470144825E+04  0.14470721461E+04  0.10000000000E+02 0.  1.
</event>
<event>
 5    1  0.7955220E-009  0.3852626E+03  0.7957747E-01  0.3428559E+00
         13   -1    0    0    0    0  0.00000000000E+00  0.00000000000E+00  0.14999999963E+04  0.15000000000E+04  0.10566000000E+00 0. -1.
        994   -1    0    0    0    0 -0.00000000000E+00 -0.00000000000E+00  0.11368683772E-12  0.17120000000E+03  0.17120000000E+03 0.  0.
         13    1    1    2    0    0  0.47318777527E+01  0.98352865199E+01  0.38120914201E+02  0.39652727416E+02  0.10566000000E+00 0. -1.
        994    1    1    2    0    0 -0.11762718653E+02 -0.11436432642E+02  0.23846950156E+01  0.17200081486E+03  0.17120000000E+03 0.  0.
        998    1    1    2    0    0  0.70308409001E+01  0.16011461217E+01  0.14594943871E+04  0.14595464577E+04  0.10000000000E+02 0. -1.
</event>
<event>
 5    1  0.7732857E-009  0.3827055E+03  0.7957747E-01  0.3439462E+00
         13   -1    0    0    0    0  0.00000000000E+00  0.00000000000E+00  0.14999999963E+04  0.15000000000E+04  0.10566000000E+00 0. -1.
        994   -1    0    0    0    0 -0.00000000000E+00 -0.00000000000E+00  0.11368683772E-12  0.17120000000E+03  0.17120000000E+03 0.  0.
         13    1    1    2    0    0  0.36623451465E+02 -0.20217709500E+02  0.24861423312E+03  0.25210926410E+03  0.10566000000E+00 0. -1.
        994    1    1    2    0    0 -0.44042819957E+02  0.20591963871E+02  0.10645432712E+02  0.17828786892E+03  0.17120000000E+03 0.  0.
        998    1    1    2    0    0  0.74193684920E+01 -0.37425437111E+00  0.12407403304E+04  0.12408028670E+04  0.10000000000E+02 0. -1.
</event>
<event>
 5    1  0.7732857E-009  0.3828483E+03  0.7957747E-01  0.3438849E+00
         13   -1    0    0    0    0  0.00000000000E+00  0.00000000000E+00  0.14999999963E+04  0.15000000000E+04  0.10566000000E+00 0.  1.
        994   -1    0    0    0    0 -0.00000000000E+00 -0.00000000000E+00  0.11368683772E-12  0.17120000000E+03  0.17120000000E+03 0.  0.
         13    1    1    2    0    0  0.15980135975E+02  0.19424451418E+00  0.45658101761E+02  0.48374330974E+02  0.10566000000E+00 0.  1.
        994    1    1    2    0    0 -0.14421238654E+02 -0.65341700493E+00  0.33926532356E+01  0.17184105788E+03  0.17120000000E+03 0.  0.
        998    1    1    2    0    0 -0.15588973206E+01  0.45917249075E+00  0.14509492413E+04  0.14509846111E+04  0.10000000000E+02 0.  1.
</event>
<event>
 5    1  0.7732857E-009  0.3746361E+03  0.7957747E-01  0.3474852E+00
         13   -1    0    0    0    0  0.00000000000E+00  0.00000000000E+00  0.14999999963E+04  0.15000000000E+04  0.10566000000E+00 0. -1.
        994   -1    0    0    0    0 -0.00000000000E+00 -0.00000000000E+00  0.11368683772E-12  0.17120000000E+03  0.17120000000E+03 0.  0.
         13    1    1    2    0    0 -0.29029269940E+02 -0.12601017721E+02  0.70171684989E+02  0.76977663637E+02  0.10566000000E+00 0. -1.
        994    1    1    2    0    0  0.25083141389E+02 -0.50960485770E+01  0.90985986994E+01  0.17334173817E+03  0.17120000000E+03 0.  0.
        998    1    1    2    0    0  0.39461285512E+01  0.17697066298E+02  0.14207297126E+04  0.14208805982E+04  0.10000000000E+02 0. -1.
</event>
<event>
 5    1  0.7732857E-009  0.3854866E+03  0.7957747E-01  0.3427611E+00
         13   -1    0    0    0    0  0.00000000000E+00  0.00000000000E+00  0.14999999963E+04  0.15000000000E+04  0.10566000000E+00 0. -1.
        994   -1    0    0    0    0 -0.00000000000E+00 -0.00000000000E+00  0.11368683772E-12  0.17120000000E+03  0.17120000000E+03 0.  0.
         13    1    1    2    0    0 -0.12300622309E+02  0.76027068220E+00  0.47990790406E+02  0.49548062006E+02  0.10566000000E+00 0. -1.
        994    1    1    2    0    0  0.30868772522E+02 -0.17870485046E+02  0.55772817138E+01  0.17496508630E+03  0.17120000000E+03 0.  0.
        998    1    1    2    0    0 -0.18568150213E+02  0.17110214364E+02  0.14464319242E+04  0.14466868517E+04  0.10000000000E+02 0. -1.
</event>
<event>
 5    1  0.7732857E-009  0.3766939E+03  0.7957747E-01  0.3465682E+00
         13   -1    0    0    0    0  0.00000000000E+00  0.00000000000E+00  0.14999999963E+04  0.15000000000E+04  0.10566000000E+00 0. -1.
        994   -1    0    0    0    0 -0.00000000000E+00 -0.00000000000E+00  0.11368683772E-12  0.17120000000E+03  0.17120000000E+03 0.  0.
         13    1    1    2    0    0 -0.35291380264E+02  0.17200492065E+02  0.12230643533E+03  0.12845315775E+03  0.10566000000E+00 0. -1.
        994    1    1    2    0    0  0.31865504601E+02 -0.18824416800E+02  0.10455118509E+02  0.17546657389E+03  0.17120000000E+03 0.  0.
        998    1    1    2    0    0  0.34258756637E+01  0.16239247353E+01  0.13672384424E+04  0.13672802684E+04  0.10000000000E+02 0. -1.
</event>
<event>
 5    1  0.7732857E-009  0.3844202E+03  0.7957747E-01  0.3432135E+00
         13   -1    0    0    0    0  0.00000000000E+00  0.00000000000E+00  0.14999999963E+04  0.15000000000E+04  0.10566000000E+00 0.  1.
        994   -1    0    0    0    0 -0.00000000000E+00 -0.00000000000E+00  0.11368683772E-12  0.17120000000E+03  0.17120000000E+03 0.  0.
         13    1    1    2    0    0  0.50047011768E+01 -0.92074693087E+01  0.27474496764E+02  0.29405503931E+02  0.10566000000E+00 0.  1.
        994    1    1    2    0    0 -0.99511800454E+01  0.98134529797E+01  0.25620970212E+01  0.17178863229E+03  0.17120000000E+03 0.  0.
        998    1    1    2    0    0  0.49464788686E+01 -0.60598367105E+00  0.14699634025E+04  0.14700058638E+04  0.10000000000E+02 0.  1.
</event>
<event>
 5    1  0.7732857E-009  0.3754892E+03  0.7957747E-01  0.3471038E+00
         13   -1    0    0    0    0  0.00000000000E+00  0.00000000000E+00  0.14999999963E+04  0.15000000000E+04  0.10566000000E+00 0.  1.
        994   -1    0    0    0    0 -0.00000000000E+00 -0.00000000000E+00  0.11368683772E-12  0.17120000000E+03  0.17120000000E+03 0.  0.
         13    1    1    2    0    0 -0.47211407435E+02 -0.70661806125E+00  0.17645549744E+03  0.18266354328E+03  0.10566000000E+00 0.  1.
        994    1    1    2    0    0  0.22776647488E+02 -0.14438393509E+02  0.88996380232E+01  0.17353929363E+03  0.17120000000E+03 0.  0.
        998    1    1    2    0    0  0.24434759947E+02  0.15145011570E+02  0.13146448608E+04  0.13149971631E+04  0.10000000000E+02 0.  1.
</event>
<event>
 5    1  0.7732857E-009  0.3799609E+03  0.7957747E-01  0.3451329E+00
         13   -1    0    0    0    0  0.00000000000E+00  0.00000000000E+00  0.14999999963E+04  0.15000000000E+04  0.10566000000E+00 0. -1.
        994   -1    0    0    0    0 -0.00000000000E+00 -0.00000000000E+00  0.11368683772E-12  0.17120000000E+03  0.17120000000E+03 0.  0.
         13    1    1    2    0    0 -0.98429015610E+01  0.17419558008E+02  0.46047720739E+02  0.50206846760E+02  0.10566000000E+00 0. -1.
        994    1    1    2    0    0  0.10281882409E+02 -0.13314591884E+02  0.50996048282E+01  0.17210009132E+03  0.17120000000E+03 0.  0.
        998    1    1    2    0    0 -0.43898084827E+00 -0.41049661240E+01  0.14488526707E+04  0.14488930619E+04  0.10000000000E+02 0. -1.
</event>
<event>
 5    1  0.7732857E-009  0.3396370E+03  0.7957747E-01  0.3648240E+00
         13   -1    0    0    0    0  0.00000000000E+00  0.00000000000E+00  0.14999999963E+04  0.15000000000E+04  0.10566000000E+00 0.  1.
        994   -1    0    0    0    0 -0.00000000000E+00 -0.00000000000E+00  0.11368683772E-12  0.17120000000E+03  0.17120000000E+03 0.  0.
         13    1    1    2    0    0 -0.15600239510E+03 -0.23956708247E+03  0.96447063034E+03  0.10059486777E+04  0.10566000000E+00 0.  1.
        994    1    1    2    0    0  0.61824118377E+02  0.22173773542E+03  0.32368991415E+03  0.43252103469E+03  0.17120000000E+03 0.  0.
        998    1    1    2    0    0  0.94178276726E+02  0.17829347050E+02  0.21183945179E+03  0.23273028758E+03  0.10000000000E+02 0.  1.
</event>
<event>
 5    1  0.7732857E-009  0.3717043E+03  0.7957747E-01  0.3488095E+00
         13   -1    0    0    0    0  0.00000000000E+00  0.00000000000E+00  0.14999999963E+04  0.15000000000E+04  0.10566000000E+00 0. -1.
        994   -1    0    0    0    0 -0.00000000000E+00 -0.00000000000E+00  0.11368683772E-12  0.17120000000E+03  0.17120000000E+03 0.  0.
         13    1    1    2    0    0 -0.71072267575E+02  0.20270002296E+02  0.21689033095E+03  0.22913656853E+03  0.10566000000E+00 0. -1.
        994    1    1    2    0    0  0.61001915394E+02  0.17805562868E+02  0.26184103383E+02  0.18448121590E+03  0.17120000000E+03 0.  0.
        998    1    1    2    0    0  0.10070352181E+02 -0.38075565164E+02  0.12569255619E+04  0.12575822156E+04  0.10000000000E+02 0. -1.
</event>
<event>
 5    1  0.7732857E-009  0.3723023E+03  0.7957747E-01  0.3485376E+00
         13   -1    0    0    0    0  0.00000000000E+00  0.00000000000E+00  0.14999999963E+04  0.15000000000E+04  0.10566000000E+00 0. -1.
        994   -1    0    0    0    0 -0.00000000000E+00 -0.00000000000E+00  0.11368683772E-12  0.17120000000E+03  0.17120000000E+03 0.  0.
         13    1    1    2    0    0  0.19088345299E+02  0.21794682038E+02  0.48110888395E+02  0.56160856809E+02  0.10566000000E+00 0. -1.
        994    1    1    2    0    0 -0.16754764394E+02 -0.17884094879E+02  0.10133551118E+02  0.17324171506E+03  0.17120000000E+03 0.  0.
        998    1    1    2    0    0 -0.23335809051E+01 -0.39105871595E+01  0.14417555568E+04  0.14417974281E+04  0.10000000000E+02 0. -1.
</event>
<event>
 5    1  0.7732857E-009  0.3751662E+03  0.7957747E-01  0.3472480E+00
         13   -1    0    0    0    0  0.00000000000E+00  0.00000000000E+00  0.14999999963E+04  0.15000000000E+04  0.10566000000E+00 0.  1.
        994   -1    0    0    0    0 -0.00000000000E+00 -0.00000000000E+00  0.11368683772E-12  0.17120000000E+03  0.17120000000E+03 0.  0.
         13    1    1    2    0    0 -0.83297705687E+01 -0.59937134484E+02  0.34377569955E+03  0.34906100890E+03  0.10566000000E+00 0.  1.
        994    1    1    2    0    0 -0.15100209022E+02  0.11432967390E+02  0.78130324184E+01  0.17242161272E+03  0.17120000000E+03 0.  0.
        998    1    1    2    0    0  0.23429979591E+02  0.48504167094E+02  0.11484112643E+04  0.11497173784E+04  0.10000000000E+02 0.  1.
</event>
<event>
 5    1  0.7732857E-009  0.3738306E+03  0.7957747E-01  0.3478469E+00
         13   -1    0    0    0    0  0.00000000000E+00  0.00000000000E+00  0.14999999963E+04  0.15000000000E+04  0.10566000000E+00 0. -1.
        994   -1    0    0    0    0 -0.00000000000E+00 -0.00000000000E+00  0.11368683772E-12  0.17120000000E+03  0.17120000000E+03 0.  0.
         13    1    1    2    0    0  0.26513295630E+02 -0.11818486787E+02  0.26665606878E+02  0.39416966263E+02  0.10566000000E+00 0. -1.
        994    1    1    2    0    0 -0.27708561057E+02  0.81222139442E+01  0.15938828460E+02  0.17434798814E+03  0.17120000000E+03 0.  0.
        998    1    1    2    0    0  0.11952654264E+01  0.36962728430E+01  0.14573955609E+04  0.14574350456E+04  0.10000000000E+02 0. -1.
</event>
<event>
 5    1  0.7732857E-009  0.3834994E+03  0.7957747E-01  0.3436061E+00
         13   -1    0    0    0    0  0.00000000000E+00  0.00000000000E+00  0.14999999963E+04  0.15000000000E+04  0.10566000000E+00 0. -1.
        994   -1    0    0    0    0 -0.00000000000E+00 -0.00000000000E+00  0.11368683772E-12  0.17120000000E+03  0.17120000000E+03 0.  0.
         13    1    1    2    0    0  0.19545041860E+02 -0.73700350197E+01  0.10721571258E+03  0.10923161752E+03  0.10566000000E+00 0. -1.
        994    1    1    2    0    0  0.53170433055E+01 -0.13646318680E+02  0.30861376633E+01  0.17185301047E+03  0.17120000000E+03 0.  0.
        998    1    1    2    0    0 -0.24862085166E+02  0.21016353699E+02  0.13896981460E+04  0.13901153720E+04  0.10000000000E+02 0. -1.
</event>
<event>
 5    1  0.7732857E-009  0.3744754E+03  0.7957747E-01  0.3475572E+00
         13   -1    0    0    0    0  0.00000000000E+00  0.00000000000E+00  0.14999999963E+04  0.15000000000E+04  0.10566000000E+00 0. -1.
        994   -1    0    0    0    0 -0.00000000000E+00 -0.00000000000E+00  0.11368683772E-12  0.17120000000E+03  0.17120000000E+03 0.  0.
         13    1    1    2    0    0 -0.55957451404E+01 -0.97733191893E+01  0.57781109057E+01  0.12658114446E+02  0.10566000000E+00 0. -1.
        994    1    1    2    0    0  0.24803309137E+02  0.71482379234E+01  0.92205936668E+01  0.17338039335E+03  0.17120000000E+03 0.  0.
        998    1    1    2    0    0 -0.19207563996E+02  0.26250812659E+01  0.14850012917E+04  0.14851614922E+04  0.10000000000E+02 0. -1.
</event>
<event>
 5    1  0.7732857E-009  0.3845505E+03  0.7957747E-01  0.3431581E+00
         13   -1    0    0    0    0  0.00000000000E+00  0.00000000000E+00  0.14999999963E+04  0.15000000000E+04  0.10566000000E+00 0.  1.
        994   -1    0    0    0    0 -0.00000000000E+00 -0.00000000000E+00  0.11368683772E-12  0.17120000000E+03  0.17120000000E+03 0.  0.
         13    1    1    2    0    0  0.10021158389E+02  0.42069394904E+01  0.30991390807E+02  0.32842037445E+02  0.10566000000E+00 0.  1.
        994    1    1    2    0    0 -0.10994129982E+02 -0.23960492644E+01  0.22705756592E+01  0.17158440331E+03  0.17120000000E+03 0.  0.
        998    1    1    2    0    0  0.97297159277E+00 -0.18108902260E+01  0.14667380298E+04  0.14667735592E+04  0.10000000000E+02 0.  1.
</event>
<event>
 5    1  0.7732857E-009  0.3773032E+03  0.7957747E-01  0.3462986E+00
         13   -1    0    0    0    0  0.00000000000E+00  0.00000000000E+00  0.14999999963E+04  0.15000000000E+04  0.10566000000E+00 0.  1.
        994   -1    0    0    0    0 -0.00000000000E+00 -0.00000000000E+00  0.11368683772E-12  0.17120000000E+03  0.17120000000E+03 0.  0.
         13    1    1    2    0    0  0.96243214822E+01 -0.22500156222E+02  0.52815770102E+02  0.58209976203E+02  0.10566000000E+00 0.  1.
        994    1    1    2    0    0 -0.75832190498E+01  0.11138114336E+02  0.61133598664E+01  0.17183822616E+03  0.17120000000E+03 0.  0.
        998    1    1    2    0    0 -0.20411024324E+01  0.11362041886E+02  0.14410708663E+04  0.14411517976E+04  0.10000000000E+02 0.  1.
</event>
<event>
 5    1  0.7732857E-009  0.3847330E+03  0.7957747E-01  0.3430805E+00
         13   -1    0    0    0    0  0.00000000000E+00  0.00000000000E+00  0.14999999963E+04  0.15000000000E+04  0.10566000000E+00 0. -1.
        994   -1    0    0    0    0 -0.00000000000E+00 -0.00000000000E+00  0.11368683772E-12  0.17120000000E+03  0.17120000000E+03 0.  0.
         13    1    1    2    0    0  0.58443863158E+01 -0.14101729760E+02  0.74923018919E+02  0.76462314649E+02  0.10566000000E+00 0. -1.
        994    1    1    2    0    0  0.59794981754E+01 -0.72253512859E+01  0.20523288471E+01  0.17146898306E+03  0.17120000000E+03 0.  0.
        998    1    1    2    0    0 -0.11823884491E+02  0.21327081046E+02  0.14230246485E+04  0.14232687023E+04  0.10000000000E+02 0. -1.
</event>
<event>
 5    1  0.7732857E-009  0.3800111E+03  0.7957747E-01  0.3451110E+00
         13   -1    0    0    0    0  0.00000000000E+00  0.00000000000E+00  0.14999999963E+04  0.15000000000E+04  0.10566000000E+00 0. -1.
        994   -1    0    0    0    0 -0.00000000000E+00 -0.00000000000E+00  0.11368683772E-12  0.17120000000E+03  0.17120000000E+03 0.  0.
         13    1    1    2    0    0  0.73141679513E+01  0.10696497936E+02  0.18226343235E+02  0.22363427123E+02  0.10566000000E+00 0. -1.
        994    1    1    2    0    0 -0.10429718433E+02 -0.13413555088E+02  0.50932072966E+01  0.17211648163E+03  0.17120000000E+03 0.  0.
        998    1    1    2    0    0  0.31155504817E+01  0.27170571518E+01  0.14766804457E+04  0.14767200913E+04  0.10000000000E+02 0. -1.
</event>
<event>
 5    1  0.7732857E-009  0.3798686E+03  0.7957747E-01  0.3451731E+00
         13   -1    0    0    0    0  0.00000000000E+00  0.00000000000E+00  0.14999999963E+04  0.15000000000E+04  0.10566000000E+00 0. -1.
        994   -1    0    0    0    0 -0.00000000000E+00 -0.00000000000E+00  0.11368683772E-12  0.17120000000E+03  0.17120000000E+03 0.  0.
         13    1    1    2    0    0  0.41440268250E+02 -0.14308953056E+02  0.25603035604E+03  0.25975680231E+03  0.10566000000E+00 0. -1.
        994    1    1    2    0    0 -0.87316902603E+01  0.97526070662E+01  0.47727940778E+01  0.17176604822E+03  0.17120000000E+03 0.  0.
        998    1    1    2    0    0 -0.32708577989E+02  0.45563459898E+01  0.12391968462E+04  0.12396771495E+04  0.10000000000E+02 0. -1.
</event>
<event>
 5    1  0.7732857E-009  0.3852717E+03  0.7957747E-01  0.3428521E+00
         13   -1    0    0    0    0  0.00000000000E+00  0.00000000000E+00  0.14999999963E+04  0.15000000000E+04  0.10566000000E+00 0.  1.
        994   -1    0    0    0    0 -0.00000000000E+00 -0.00000000000E+00  0.11368683772E-12  0.17120000000E+03  0.17120000000E+03 0.  0.
         13    1    1    2    0    0  0.77201424768E+01  0.76533230835E+01  0.37954669462E+02  0.39480907438E+02  0.10566000000E+00 0.  1.
        994    1    1    2    0    0 -0.70644022351E+01 -0.14556656069E+02  0.23560060519E+01  0.17197904750E+03  0.17120000000E+03 0.  0.
        998    1    1    2    0    0 -0.65574024174E+00  0.69033329853E+01  0.14596893208E+04  0.14597400451E+04  0.10000000000E+02 0.  1.
</event>
<event>
 5    1  0.7732857E-009  0.3830426E+03  0.7957747E-01  0.3438016E+00
         13   -1    0    0    0    0  0.00000000000E+00  0.00000000000E+00  0.14999999963E+04  0.15000000000E+04  0.10566000000E+00 0. -1.
        994   -1    0    0    0    0 -0.00000000000E+00 -0.00000000000E+00  0.11368683772E-12  0.17120000000E+03  0.17120000000E+03 0.  0.
         13    1    1    2    0    0 -0.12065375492E+02 -0.12578209215E+02  0.60429723449E+02  0.62893141701E+02  0.10566000000E+00 0. -1.
        994    1    1    2    0    0 -0.10211684474E+02  0.12192297989E+02  0.34426209287E+01  0.17197157401E+03  0.17120000000E+03 0.  0.
        998    1    1    2    0    0  0.22277059966E+02  0.38591122579E+00  0.14361276519E+04  0.14363352843E+04  0.10000000000E+02 0. -1.
</event>
<event>
 5    1  0.7732857E-009  0.3857112E+03  0.7957747E-01  0.3426662E+00
         13   -1    0    0    0    0  0.00000000000E+00  0.00000000000E+00  0.14999999963E+04  0.15000000000E+04  0.10566000000E+00 0. -1.
        994   -1    0    0    0    0 -0.00000000000E+00 -0.00000000000E+00  0.11368683772E-12  0.17120000000E+03  0.17120000000E+03 0.  0.
         13    1    1    2    0    0  0.53250308546E+01  0.10474464157E+02  0.54585440963E+02  0.55835937192E+02  0.10566000000E+00 0. -1.
        994    1    1    2    0    0 -0.54512028422E+01 -0.56173557321E+01  0.14785219731E+01  0.17138522785E+03  0.17120000000E+03 0.  0.
        998    1    1    2    0    0  0.12617198768E+00 -0.48571084253E+01  0.14439360333E+04  0.14439788350E+04  0.10000000000E+02 0. -1.
</event>
<event>
 5    1  0.7732857E-009  0.3743899E+03  0.7957747E-01  0.3475956E+00
         13   -1    0    0    0    0  0.00000000000E+00  0.00000000000E+00  0.14999999963E+04  0.15000000000E+04  0.10566000000E+00 0. -1.
        994   -1    0    0    0    0 -0.00000000000E+00 -0.00000000000E+00  0.11368683772E-12  0.17120000000E+03  0.17120000000E+03 0.  0.
         13    1    1    2    0    0 -0.42971778939E+00 -0.61442828655E+02  0.31400665534E+03  0.31996186743E+03  0.10566000000E+00 0. -1.
        994    1    1    2    0    0 -0.17861246170E+02  0.15316383688E+02  0.88803778338E+01  0.17303732786E+03  0.17120000000E+03 0.  0.
        998    1    1    2    0    0  0.18290963960E+02  0.46126444967E+02  0.11771129631E+04  0.11782008047E+04  0.10000000000E+02 0. -1.
</event>
<event>
 5    1  0.7732857E-009  0.3830249E+03  0.7957747E-01  0.3438092E+00
         13   -1    0    0    0    0  0.00000000000E+00  0.00000000000E+00  0.14999999963E+04  0.15000000000E+04  0.10566000000E+00 0.  1.
        994   -1    0    0    0    0 -0.00000000000E+00 -0.00000000000E+00  0.11368683772E-12  0.17120000000E+03  0.17120000000E+03 0.  0.
         13    1    1    2    0    0 -0.25928621915E+02  0.19977155887E+02  0.18754349828E+03  0.19037845231E+03  0.10566000000E+00 0.  1.
        994    1    1    2    0    0  0.25251201040E+02 -0.14705238073E+02  0.54452210696E+01  0.17376120860E+03  0.17120000000E+03 0.  0.
        998    1    1    2    0    0  0.67742087478E+00 -0.52719178134E+01  0.13070112769E+04  0.13070603391E+04  0.10000000000E+02 0.  1.
</event>
<event>
 5    1  0.7732857E-009  0.3855969E+03  0.7957747E-01  0.3427145E+00
         13   -1    0    0    0    0  0.00000000000E+00  0.00000000000E+00  0.14999999963E+04  0.15000000000E+04  0.10566000000E+00 0. -1.
        994   -1    0    0    0    0 -0.00000000000E+00 -0.00000000000E+00  0.11368683772E-12  0.17120000000E+03  0.17120000000E+03 0.  0.
         13    1    1    2    0    0  0.10179804908E+02 -0.76325438297E+01  0.62357670426E+02  0.63642551633E+02  0.10566000000E+00 0. -1.
        994    1    1    2    0    0 -0.15727477173E+01  0.68897275223E+01  0.14980199617E+01  0.17135234444E+03  0.17120000000E+03 0.  0.
        998    1    1    2    0    0 -0.86070571911E+01  0.74281630742E+00  0.14361443059E+04  0.14362051039E+04  0.10000000000E+02 0. -1.
</event>
<event>
 5    1  0.7732857E-009  0.3049395E+03  0.7957747E-01  0.3861374E+00
         13   -1    0    0    0    0  0.00000000000E+00  0.00000000000E+00  0.14999999963E+04  0.15000000000E+04  0.10566000000E+00 0. -1.
        994   -1    0    0    0    0 -0.00000000000E+00 -0.00000000000E+00  0.11368683772E-12  0.17120000000E+03  0.17120000000E+03 0.  0.
         13    1    1    2    0    0 -0.13156147255E+03  0.12194180911E+03  0.10202980346E+04  0.10359470625E+04  0.10566000000E+00 0. -1.
        994    1    1    2    0    0  0.85489770043E+02  0.24927437592E+02  0.83841025208E+02  0.21040112983E+03  0.17120000000E+03 0.  0.
        998    1    1    2    0    0  0.46071702507E+02 -0.14686924670E+03  0.39586093649E+03  0.42485180762E+03  0.10000000000E+02 0. -1.
</event>
<event>
 5    1  0.7732857E-009  0.3888523E+03  0.7957747E-01  0.3413497E+00
         13   -1    0    0    0    0  0.00000000000E+00  0.00000000000E+00  0.14999999963E+04  0.15000000000E+04  0.10566000000E+00 0.  1.
        994   -1    0    0    0    0 -0.00000000000E+00 -0.00000000000E+00  0.11368683772E-12  0.17120000000E+03  0.17120000000E+03 0.  0.
         13    1    1    2    0    0  0.17323254833E+02  0.79716999680E+02  0.19910821016E+03  0.21517199101E+03  0.10566000000E+00 0.  1.
        994    1    1    2    0    0  0.28631533799E+02  0.13775254487E+02  0.25067530915E+02  0.17591857057E+03  0.17120000000E+03 0.  0.
        998    1    1    2    0    0 -0.45954788632E+02 -0.93492254167E+02  0.12758242552E+04  0.12801094384E+04  0.10000000000E+02 0.  1.
</event>
<event>
 5    1  0.8529459E-009  0.3862294E+03  0.7957747E-01  0.3424475E+00
         13   -1    0    0    0    0  0.00000000000E+00  0.00000000000E+00  0.14999999963E+04  0.15000000000E+04  0.10566000000E+00 0. -1.
        994   -1    0    0    0    0 -0.00000000000E+00 -0.00000000000E+00  0.11368683772E-12  0.17120000000E+03  0.17120000000E+03 0.  0.
         13    1    1    2    0    0  0.76231002694E+01 -0.84672940561E+01  0.63726323184E+02  0.64736868607E+02  0.10566000000E+00 0. -1.
        994    1    1    2    0    0 -0.79315756847E+01  0.53766571715E+01  0.13217929752E+01  0.17147304590E+03  0.17120000000E+03 0.  0.
        998    1    1    2    0    0  0.30847541523E+00  0.30906368846E+01  0.14349518801E+04  0.14349900855E+04  0.10000000000E+02 0. -1.
</event>
<event>
 5    1  0.7732857E-009  0.3859083E+03  0.7957747E-01  0.3425829E+00
         13   -1    0    0    0    0  0.00000000000E+00  0.00000000000E+00  0.14999999963E+04  0.15000000000E+04  0.10566000000E+00 0.  1.
        994   -1    0    0    0    0 -0.00000000000E+00 -0.00000000000E+00  0.11368683772E-12  0.17120000000E+03  0.17120000000E+03 0.  0.
         13    1    1    2    0    0 -0.60298196837E+01  0.88414115720E+01  0.46676765765E+02  0.47888003824E+02  0.10566000000E+00 0.  1.
        994    1    1    2    0    0  0.68261278428E+01 -0.13619722053E+02  0.19412345788E+01  0.17188746680E+03  0.17120000000E+03 0.  0.
        998    1    1    2    0    0 -0.79630815914E+00  0.47783104808E+01  0.14513819959E+04  0.14514245294E+04  0.10000000000E+02 0.  1.
</event>
<event>
 5    1  0.7732857E-009  0.3715852E+03  0.7957747E-01  0.3488637E+00
         13   -1    0    0    0    0  0.00000000000E+00  0.00000000000E+00  0.14999999963E+04  0.15000000000E+04  0.10566000000E+00 0.  1.
        994   -1    0    0    0    0 -0.00000000000E+00 -0.00000000000E+00  0.11368683772E-12  0.17120000000E+03  0.17120000000E+03 0.  0.
         13    1    1    2    0    0 -0.10104188232E+03  0.57623594719E+02  0.52318640669E+03  0.53596078958E+03  0.10566000000E+00 0.  1.
        994    1    1    2    0    0  0.85974183895E+02 -0.79074162481E+02  0.56932416580E+02  0.21493027596E+03  0.17120000000E+03 0.  0.
        998    1    1    2    0    0  0.15067698430E+02  0.21450567763E+02  0.91988117301E+03  0.92030893446E+03  0.10000000000E+02 0.  1.
</event>
<event>
 5    1  0.1095977E-008  0.3854393E+03  0.7957747E-01  0.3427811E+00
         13   -1    0    0    0    0  0.00000000000E+00  0.00000000000E+00  0.14999999963E+04  0.15000000000E+04  0.10566000000E+00 0. -1.
        994   -1    0    0    0    0 -0.00000000000E+00 -0.00000000000E+00  0.11368683772E-12  0.17120000000E+03  0.17120000000E+03 0.  0.
         13    1    1    2    0    0 -0.13219233741E+02  0.13479716630E+01  0.59076903989E+02  0.60552926579E+02  0.10566000000E+00 0. -1.
        994    1    1    2    0    0  0.17870333315E+02 -0.57904577258E+01  0.25718812346E+01  0.17224672068E+03  0.17120000000E+03 0.  0.
        998    1    1    2    0    0 -0.46510995740E+01  0.44424860628E+01  0.14383512111E+04  0.14384003527E+04  0.10000000000E+02 0. -1.
</event>
<event>
 5    1  0.7732857E-009  0.3841727E+03  0.7957747E-01  0.3433188E+00
         13   -1    0    0    0    0  0.00000000000E+00  0.00000000000E+00  0.14999999963E+04  0.15000000000E+04  0.10566000000E+00 0. -1.
        994   -1    0    0    0    0 -0.00000000000E+00 -0.00000000000E+00  0.11368683772E-12  0.17120000000E+03  0.17120000000E+03 0.  0.
         13    1    1    2    0    0  0.90612502802E+01 -0.67433644760E+01  0.30381698520E+02  0.32413546398E+02  0.10566000000E+00 0. -1.
        994    1    1    2    0    0 -0.13674225089E+02 -0.81840643391E+00  0.26604552401E+01  0.17176778581E+03  0.17120000000E+03 0.  0.
        998    1    1    2    0    0  0.46129748090E+01  0.75617709100E+01  0.14669578425E+04  0.14670186678E+04  0.10000000000E+02 0. -1.
</event>
<event>
 5    1  0.7732857E-009  0.3826795E+03  0.7957747E-01  0.3439574E+00
         13   -1    0    0    0    0  0.00000000000E+00  0.00000000000E+00  0.14999999963E+04  0.15000000000E+04  0.10566000000E+00 0.  1.
        994   -1    0    0    0    0 -0.00000000000E+00 -0.00000000000E+00  0.11368683772E-12  0.17120000000E+03  0.17120000000E+03 0.  0.
         13    1    1    2    0    0  0.19537722247E+02  0.71643417957E+01  0.94673968025E+02  0.96934110455E+02  0.10566000000E+00 0.  1.
        994    1    1    2    0    0  0.24470448859E+02 -0.76224256173E+01  0.49663617288E+01  0.17317912400E+03  0.17120000000E+03 0.  0.
        998    1    1    2    0    0 -0.44008171106E+02  0.45808382163E+00  0.14003596665E+04  0.14010867655E+04  0.10000000000E+02 0.  1.
</event>
<event>
 5    1  0.7732857E-009  0.3773093E+03  0.7957747E-01  0.3462959E+00
         13   -1    0    0    0    0  0.00000000000E+00  0.00000000000E+00  0.14999999963E+04  0.15000000000E+04  0.10566000000E+00 0. -1.
        994   -1    0    0    0    0 -0.00000000000E+00 -0.00000000000E+00  0.11368683772E-12  0.17120000000E+03  0.17120000000E+03 0.  0.
         13    1    1    2    0    0  0.22757077451E+02 -0.55458387664E+01  0.59585188038E+02  0.64023797913E+02  0.10566000000E+00 0. -1.
        994    1    1    2    0    0  0.36406012635E+02 -0.39629929132E+02  0.15328448450E+02  0.18011199397E+03  0.17120000000E+03 0.  0.
        998    1    1    2    0    0 -0.59163090086E+02  0.45175767899E+02  0.14250863598E+04  0.14270642081E+04  0.10000000000E+02 0. -1.
</event>
<event>
 5    1  0.7732857E-009  0.3741152E+03  0.7957747E-01  0.3477189E+00
         13   -1    0    0    0    0  0.00000000000E+00  0.00000000000E+00  0.14999999963E+04  0.15000000000E+04  0.10566000000E+00 0.  1.
        994   -1    0    0    0    0 -0.00000000000E+00 -0.00000000000E+00  0.11368683772E-12  0.17120000000E+03  0.17120000000E+03 0.  0.
         13    1    1    2    0    0  0.36733728044E+02  0.34747909481E+02  0.16809220662E+03  0.17553286040E+03  0.10566000000E+00 0.  1.
        994    1    1    2    0    0 -0.18960755745E+02 -0.37367672669E+02  0.13143821420E+02  0.17674290158E+03  0.17120000000E+03 0.  0.
        998    1    1    2    0    0 -0.17772972299E+02  0.26197631875E+01  0.13187639682E+04  0.13189242380E+04  0.10000000000E+02 0.  1.
</event>
<event>
 5    1  0.8233123E-009  0.3859789E+03  0.7957747E-01  0.3425531E+00
         13   -1    0    0    0    0  0.00000000000E+00  0.00000000000E+00  0.14999999963E+04  0.15000000000E+04  0.10566000000E+00 0.  1.
        994   -1    0    0    0    0 -0.00000000000E+00 -0.00000000000E+00  0.11368683772E-12  0.17120000000E+03  0.17120000000E+03 0.  0.
         13    1    1    2    0    0 -0.10610176822E+02  0.31622452187E+01  0.62739476165E+02  0.63708937211E+02  0.10566000000E+00 0.  1.
        994    1    1    2    0    0 -0.94486255325E+01  0.99650156512E+01  0.17633596168E+01  0.17175892262E+03  0.17120000000E+03 0.  0.
        998    1    1    2    0    0  0.20058802354E+02 -0.13127260870E+02  0.14354971605E+04  0.14357321402E+04  0.10000000000E+02 0.  1.
</event>
<event>
 5    1  0.7732857E-009  0.3777386E+03  0.7957747E-01  0.3461064E+00
         13   -1    0    0    0    0  0.00000000000E+00  0.00000000000E+00  0.14999999963E+04  0.15000000000E+04  0.10566000000E+00 0.  1.
        994   -1    0    0    0    0 -0.00000000000E+00 -0.00000000000E+00  0.11368683772E-12  0.17120000000E+03  0.17120000000E+03 0.  0.
         13    1    1    2    0    0  0.63453536191E+01  0.41262652007E+02  0.15293718383E+03  0.15853284620E+03  0.10566000000E+00 0.  1.
        994    1    1    2    0    0 -0.13266449267E+02 -0.34416199974E+02  0.98749525545E+01  0.17540646563E+03  0.17120000000E+03 0.  0.
        998    1    1    2    0    0  0.69210956479E+01 -0.68464520332E+01  0.13371878599E+04  0.13372606882E+04  0.10000000000E+02 0.  1.
</event>
<event>
 5    1  0.7732857E-009  0.3813677E+03  0.7957747E-01  0.3445225E+00
         13   -1    0    0    0    0  0.00000000000E+00  0.00000000000E+00  0.14999999963E+04  0.15000000000E+04  0.10566000000E+00 0.  1.
        994   -1    0    0    0    0 -0.00000000000E+00 -0.00000000000E+00  0.11368683772E-12  0.17120000000E+03  0.17120000000E+03 0.  0.
         13    1    1    2    0    0  0.12877208217E+02 -0.24781478369E+02  0.10817189482E+03  0.11171890688E+03  0.10566000000E+00 0.  1.
        994    1    1    2    0    0 -0.13721363081E+02  0.18894749963E+02  0.52611054822E+01  0.17286528458E+03  0.17120000000E+03 0.  0.
        998    1    1    2    0    0  0.84415486448E+00  0.58867284063E+01  0.13865669960E+04  0.13866158085E+04  0.10000000000E+02 0.  1.
</event>
<event>
 5    1  0.7732857E-009  0.3838403E+03  0.7957747E-01  0.3434606E+00
         13   -1    0    0    0    0  0.00000000000E+00  0.00000000000E+00  0.14999999963E+04  0.15000000000E+04  0.10566000000E+00 0.  1.
        994   -1    0    0    0    0 -0.00000000000E+00 -0.00000000000E+00  0.11368683772E-12  0.17120000000E+03  0.17120000000E+03 0.  0.
         13    1    1    2    0    0 -0.41575092332E+01  0.17466528666E+02  0.72696389616E+02  0.74880843571E+02  0.10566000000E+00 0.  1.
        994    1    1    2    0    0 -0.55938582604E+01 -0.12948336942E+02  0.28640318572E+01  0.17180393872E+03  0.17120000000E+03 0.  0.
        998    1    1    2    0    0  0.97513674936E+01 -0.45181917244E+01  0.14244395748E+04  0.14245152177E+04  0.10000000000E+02 0.  1.
</event>
<event>
 5    1  0.7732857E-009  0.3785656E+03  0.7957747E-01  0.3457428E+00
         13   -1    0    0    0    0  0.00000000000E+00  0.00000000000E+00  0.14999999963E+04  0.15000000000E+04  0.10566000000E+00 0. -1.
        994   -1    0    0    0    0 -0.00000000000E+00 -0.00000000000E+00  0.11368683772E-12  0.17120000000E+03  0.17120000000E+03 0.  0.
         13    1    1    2    0    0 -0.73166470529E+01  0.81136888471E+01  0.10056248657E+02  0.14849396348E+02  0.10566000000E+00 0. -1.
        994    1    1    2    0    0 -0.73518973533E+01 -0.20095923970E+02  0.63984827709E+01  0.17265073743E+03  0.17120000000E+03 0.  0.
        998    1    1    2    0    0  0.14668544406E+02  0.11982235123E+02  0.14835452649E+04  0.14836998662E+04  0.10000000000E+02 0. -1.
</event>
<event>
 5    1  0.7732857E-009  0.3817865E+03  0.7957747E-01  0.3443417E+00
         13   -1    0    0    0    0  0.00000000000E+00  0.00000000000E+00  0.14999999963E+04  0.15000000000E+04  0.10566000000E+00 0.  1.
        994   -1    0    0    0    0 -0.00000000000E+00 -0.00000000000E+00  0.11368683772E-12  0.17120000000E+03  0.17120000000E+03 0.  0.
         13    1    1    2    0    0 -0.13777024611E+02  0.11098071766E+02  0.12506404790E+01  0.17735525639E+02  0.10566000000E+00 0.  1.
        994    1    1    2    0    0  0.89239331014E+01 -0.12484355283E+02  0.18171518851E+02  0.17284426460E+03  0.17120000000E+03 0.  0.
        998    1    1    2    0    0  0.48530915094E+01  0.13862835169E+01  0.14805778369E+04  0.14806202098E+04  0.10000000000E+02 0.  1.
</event>
<event>
 5    1  0.7732857E-009  0.2720908E+03  0.7957747E-01  0.4117896E+00
         13   -1    0    0    0    0  0.00000000000E+00  0.00000000000E+00  0.14999999963E+04  0.15000000000E+04  0.10566000000E+00 0.  1.
        994   -1    0    0    0    0 -0.00000000000E+00 -0.00000000000E+00  0.11368683772E-12  0.17120000000E+03  0.17120000000E+03 0.  0.
         13    1    1    2    0    0 -0.13674094263E+03 -0.10947506377E+02  0.68313298911E+03  0.69677013804E+03  0.10566000000E+00 0.  1.
        994    1    1    2    0    0  0.63952444463E+00  0.30854858187E+02  0.31181146118E+02  0.17673181700E+03  0.17120000000E+03 0.  0.
        998    1    1    2    0    0  0.13610141819E+03 -0.19907351810E+02  0.78568586105E+03  0.79769804497E+03  0.10000000000E+02 0.  1.
</event>
<event>
 5    1  0.7732857E-009  0.3835594E+03  0.7957747E-01  0.3435805E+00
         13   -1    0    0    0    0  0.00000000000E+00  0.00000000000E+00  0.14999999963E+04  0.15000000000E+04  0.10566000000E+00 0.  1.
        994   -1    0    0    0    0 -0.00000000000E+00 -0.00000000000E+00  0.11368683772E-12  0.17120000000E+03  0.17120000000E+03 0.  0.
         13    1    1    2    0    0 -0.12074909860E+02 -0.69685317335E+01  0.40196390580E+02  0.42545562193E+02  0.10566000000E+00 0.  1.
        994    1    1    2    0    0  0.67428061122E+01  0.13454471273E+02  0.30957685664E+01  0.17188807991E+03  0.17120000000E+03 0.  0.
        998    1    1    2    0    0  0.53321037479E+01 -0.64859395395E+01  0.14567078371E+04  0.14567663579E+04  0.10000000000E+02 0.  1.
</event>
<event>
 5    1  0.7732857E-009  0.3755337E+03  0.7957747E-01  0.3470839E+00
         13   -1    0    0    0    0  0.00000000000E+00  0.00000000000E+00  0.14999999963E+04  0.15000000000E+04  0.10566000000E+00 0.  1.
        994   -1    0    0    0    0 -0.00000000000E+00 -0.00000000000E+00  0.11368683772E-12  0.17120000000E+03  0.17120000000E+03 0.  0.
         13    1    1    2    0    0 -0.88155460158E+02  0.50110161266E+02  0.51137657562E+03  0.52133331629E+03  0.10566000000E+00 0.  1.
        994    1    1    2    0    0  0.81743181497E+02 -0.64224358119E+02  0.44003925468E+02  0.20506706550E+03  0.17120000000E+03 0.  0.
        998    1    1    2    0    0  0.64122786603E+01  0.14114196853E+02  0.94461949519E+03  0.94479961821E+03  0.10000000000E+02 0.  1.
</event>
<event>
 5    1  0.7732857E-009  0.3855125E+03  0.7957747E-01  0.3427502E+00
         13   -1    0    0    0    0  0.00000000000E+00  0.00000000000E+00  0.14999999963E+04  0.15000000000E+04  0.10566000000E+00 0. -1.
        994   -1    0    0    0    0 -0.00000000000E+00 -0.00000000000E+00  0.11368683772E-12  0.17120000000E+03  0.17120000000E+03 0.  0.
         13    1    1    2    0    0  0.51688673202E+00 -0.14639191013E+02  0.75978494444E+02  0.77377747883E+02  0.10566000000E+00 0. -1.
        994    1    1    2    0    0  0.49183855927E+01  0.14046457644E+02  0.21034652703E+01  0.17185854083E+03  0.17120000000E+03 0.  0.
        998    1    1    2    0    0 -0.54352723247E+01  0.59273336947E+00  0.14219180366E+04  0.14219637113E+04  0.10000000000E+02 0. -1.
</event>
<event>
 5    1  0.7732857E-009  0.3821022E+03  0.7957747E-01  0.3442056E+00
         13   -1    0    0    0    0  0.00000000000E+00  0.00000000000E+00  0.14999999963E+04  0.15000000000E+04  0.10566000000E+00 0.  1.
        994   -1    0    0    0    0 -0.00000000000E+00 -0.00000000000E+00  0.11368683772E-12  0.17120000000E+03  0.17120000000E+03 0.  0.
         13    1    1    2    0    0  0.18940671148E+02  0.13120591617E+02  0.80444492086E+02  0.83679306994E+02  0.10566000000E+00 0.  1.
        994    1    1    2    0    0 -0.28549104157E+02 -0.41137338422E+01  0.58426318921E+01  0.17371111220E+03  0.17120000000E+03 0.  0.
        998    1    1    2    0    0  0.96084330080E+01 -0.90068577751E+01  0.14137128723E+04  0.14138095808E+04  0.10000000000E+02 0.  1.
</event>
<event>
 5    1  0.7732857E-009  0.3846875E+03  0.7957747E-01  0.3430999E+00
         13   -1    0    0    0    0  0.00000000000E+00  0.00000000000E+00  0.14999999963E+04  0.15000000000E+04  0.10566000000E+00 0. -1.
        994   -1    0    0    0    0 -0.00000000000E+00 -0.00000000000E+00  0.11368683772E-12  0.17120000000E+03  0.17120000000E+03 0.  0.
         13    1    1    2    0    0 -0.15724061355E+03 -0.16163714054E+03  0.10610151090E+04  0.10847139017E+04  0.10566000000E+00 0. -1.
        994    1    1    2    0    0  0.17079977146E+03  0.16917364681E+03  0.22348926753E+03  0.37020153620E+03  0.17120000000E+03 0.  0.
        998    1    1    2    0    0 -0.13559157913E+02 -0.75365062745E+01  0.21549561975E+03  0.21628456214E+03  0.10000000000E+02 0.  1.
</event>
<event>
 5    1  0.7732857E-009  0.3834595E+03  0.7957747E-01  0.3436232E+00
         13   -1    0    0    0    0  0.00000000000E+00  0.00000000000E+00  0.14999999963E+04  0.15000000000E+04  0.10566000000E+00 0.  1.
        994   -1    0    0    0    0 -0.00000000000E+00 -0.00000000000E+00  0.11368683772E-12  0.17120000000E+03  0.17120000000E+03 0.  0.
         13    1    1    2    0    0  0.10839903253E+02  0.19891217807E+02  0.11193630994E+03  0.11420557209E+03  0.10566000000E+00 0.  1.
        994    1    1    2    0    0 -0.10624012559E+02 -0.20823054076E+01  0.27843957557E+01  0.17156456073E+03  0.17120000000E+03 0.  0.
        998    1    1    2    0    0 -0.21589069365E+00 -0.17808912399E+02  0.13852792906E+04  0.13854298672E+04  0.10000000000E+02 0.  1.
</event>
<event>
 5    1  0.7732857E-009  0.3808834E+03  0.7957747E-01  0.3447321E+00
         13   -1    0    0    0    0  0.00000000000E+00  0.00000000000E+00  0.14999999963E+04  0.15000000000E+04  0.10566000000E+00 0.  1.
        994   -1    0    0    0    0 -0.00000000000E+00 -0.00000000000E+00  0.11368683772E-12  0.17120000000E+03  0.17120000000E+03 0.  0.
         13    1    1    2    0    0  0.11005382504E+02 -0.12363295662E+02  0.35755417747E+02  0.39400895751E+02  0.10566000000E+00 0.  1.
        994    1    1    2    0    0 -0.28192544743E+01  0.12313278650E+02  0.42199155898E+01  0.17171724641E+03  0.17120000000E+03 0.  0.
        998    1    1    2    0    0 -0.81861280293E+01  0.50017011900E-01  0.14600246629E+04  0.14600818578E+04  0.10000000000E+02 0.  1.
</event>
<event>
 5    1  0.7732857E-009  0.3845101E+03  0.7957747E-01  0.3431753E+00
         13   -1    0    0    0    0  0.00000000000E+00  0.00000000000E+00  0.14999999963E+04  0.15000000000E+04  0.10566000000E+00 0.  1.
        994   -1    0    0    0    0 -0.00000000000E+00 -0.00000000000E+00  0.11368683772E-12  0.17120000000E+03  0.17120000000E+03 0.  0.
         13    1    1    2    0    0  0.18535892179E+01 -0.14760842703E+02  0.60514012870E+02  0.62315930451E+02  0.10566000000E+00 0.  1.
        994    1    1    2    0    0  0.56127780043E+01  0.56752379733E+01  0.20834379462E+01  0.17139863569E+03  0.17120000000E+03 0.  0.
        998    1    1    2    0    0 -0.74663672221E+01  0.90856047299E+01  0.14374025455E+04  0.14374854339E+04  0.10000000000E+02 0.  1.
</event>
<event>
 5    1  0.7732857E-009  0.3769064E+03  0.7957747E-01  0.3464740E+00
         13   -1    0    0    0    0  0.00000000000E+00  0.00000000000E+00  0.14999999963E+04  0.15000000000E+04  0.10566000000E+00 0.  1.
        994   -1    0    0    0    0 -0.00000000000E+00 -0.00000000000E+00  0.11368683772E-12  0.17120000000E+03  0.17120000000E+03 0.  0.
         13    1    1    2    0    0 -0.64886224057E+02  0.31989063400E+02  0.34548961618E+03  0.35298244758E+03  0.10566000000E+00 0.  1.
        994    1    1    2    0    0  0.65501688813E+02 -0.35047815936E+02  0.24575908355E+02  0.18823452370E+03  0.17120000000E+03 0.  0.
        998    1    1    2    0    0 -0.61546475593E+00  0.30587525363E+01  0.11299344717E+04  0.11299830287E+04  0.10000000000E+02 0.  0.
</event>
<event>
 5    1  0.7732857E-009  0.3763421E+03  0.7957747E-01  0.3467242E+00
         13   -1    0    0    0    0  0.00000000000E+00  0.00000000000E+00  0.14999999963E+04  0.15000000000E+04  0.10566000000E+00 0. -1.
        994   -1    0    0    0    0 -0.00000000000E+00 -0.00000000000E+00  0.11368683772E-12  0.17120000000E+03  0.17120000000E+03 0.  0.
         13    1    1    2    0    0  0.68822798317E+01 -0.84499014793E+01  0.71611085209E+01  0.13040676745E+02  0.10566000000E+00 0. -1.
        994    1    1    2    0    0 -0.45120630050E+01  0.79259365856E+01  0.62726499822E+01  0.17155746944E+03  0.17120000000E+03 0.  0.
        998    1    1    2    0    0 -0.23702168267E+01  0.52396489372E+00  0.14865662378E+04  0.14866018538E+04  0.10000000000E+02 0. -1.
</event>
<event>
 5    1  0.7732857E-009  0.3699583E+03  0.7957747E-01  0.3496083E+00
         13   -1    0    0    0    0  0.00000000000E+00  0.00000000000E+00  0.14999999963E+04  0.15000000000E+04  0.10566000000E+00 0. -1.
        994   -1    0    0    0    0 -0.00000000000E+00 -0.00000000000E+00  0.11368683772E-12  0.17120000000E+03  0.17120000000E+03 0.  0.
         13    1    1    2    0    0  0.53747778769E+01  0.24927303674E+02  0.31509575615E+02  0.40535456395E+02  0.10566000000E+00 0. -1.
        994    1    1    2    0    0 -0.10776054560E+02 -0.11785733206E+02  0.10173278382E+02  0.17224390396E+03  0.17120000000E+03 0.  0.
        998    1    1    2    0    0  0.54012766833E+01 -0.13141570468E+02  0.14583171423E+04  0.14584206396E+04  0.10000000000E+02 0. -1.
</event>
<event>
 5    1  0.7732857E-009  0.3837606E+03  0.7957747E-01  0.3434946E+00
         13   -1    0    0    0    0  0.00000000000E+00  0.00000000000E+00  0.14999999963E+04  0.15000000000E+04  0.10566000000E+00 0.  1.
        994   -1    0    0    0    0 -0.00000000000E+00 -0.00000000000E+00  0.11368683772E-12  0.17120000000E+03  0.17120000000E+03 0.  0.
         13    1    1    2    0    0 -0.12251749129E+00  0.10953207027E+02  0.26034400923E+02  0.28245157995E+02  0.10566000000E+00 0.  1.
        994    1    1    2    0    0  0.36057695211E+01 -0.71590033813E+01  0.24589360645E+01  0.17140519032E+03  0.17120000000E+03 0.  0.
        998    1    1    2    0    0 -0.34832520298E+01 -0.37942036454E+01  0.14715066593E+04  0.14715496517E+04  0.10000000000E+02 0.  1.
</event>
<event>
 5    1  0.7732857E-009  0.3855914E+03  0.7957747E-01  0.3427168E+00
         13   -1    0    0    0    0  0.00000000000E+00  0.00000000000E+00  0.14999999963E+04  0.15000000000E+04  0.10566000000E+00 0. -1.
        994   -1    0    0    0    0 -0.00000000000E+00 -0.00000000000E+00  0.11368683772E-12  0.17120000000E+03  0.17120000000E+03 0.  0.
         13    1    1    2    0    0 -0.66468145309E+01 -0.12756907335E+02  0.74289298309E+02  0.75669213260E+02  0.10566000000E+00 0. -1.
        994    1    1    2    0    0  0.91344820565E+01  0.13082432601E+02  0.21729092284E+01  0.17195566388E+03  0.17120000000E+03 0.  0.
        998    1    1    2    0    0 -0.24876675256E+01 -0.32552526569E+00  0.14235377887E+04  0.14235751229E+04  0.10000000000E+02 0. -1.
</event>
<event>
 5    1  0.7732857E-009  0.3785953E+03  0.7957747E-01  0.3457298E+00
         13   -1    0    0    0    0  0.00000000000E+00  0.00000000000E+00  0.14999999963E+04  0.15000000000E+04  0.10566000000E+00 0. -1.
        994   -1    0    0    0    0 -0.00000000000E+00 -0.00000000000E+00  0.11368683772E-12  0.17120000000E+03  0.17120000000E+03 0.  0.
         13    1    1    2    0    0  0.24424437451E+02 -0.92286966868E+01  0.66864995265E+02  0.71782036354E+02  0.10566000000E+00 0. -1.
        994    1    1    2    0    0 -0.19571751915E+02  0.12963497077E+02  0.66969980628E+01  0.17293176548E+03  0.17120000000E+03 0.  0.
        998    1    1    2    0    0 -0.48526855359E+01 -0.37348003899E+01  0.14264380030E+04  0.14264861982E+04  0.10000000000E+02 0. -1.
</event>
<event>
 5    1  0.7732857E-009  0.3810890E+03  0.7957747E-01  0.3446431E+00
         13   -1    0    0    0    0  0.00000000000E+00  0.00000000000E+00  0.14999999963E+04  0.15000000000E+04  0.10566000000E+00 0.  1.
        994   -1    0    0    0    0 -0.00000000000E+00 -0.00000000000E+00  0.11368683772E-12  0.17120000000E+03  0.17120000000E+03 0.  0.
         13    1    1    2    0    0 -0.24694402284E+02  0.37052652048E+01  0.93446774846E+02  0.96725660440E+02  0.10566000000E+00 0.  1.
        994    1    1    2    0    0  0.53826297809E+00  0.71534646970E+01  0.37558973680E+01  0.17139138995E+03  0.17120000000E+03 0.  0.
        998    1    1    2    0    0  0.24156139306E+02 -0.10858729902E+02  0.14027973241E+04  0.14030829496E+04  0.10000000000E+02 0.  1.
</event>
<event>
 5    1  0.7732857E-009  0.3841035E+03  0.7957747E-01  0.3433483E+00
         13   -1    0    0    0    0  0.00000000000E+00  0.00000000000E+00  0.14999999963E+04  0.15000000000E+04  0.10566000000E+00 0. -1.
        994   -1    0    0    0    0 -0.00000000000E+00 -0.00000000000E+00  0.11368683772E-12  0.17120000000E+03  0.17120000000E+03 0.  0.
         13    1    1    2    0    0  0.40289388289E+02  0.18681991304E+03  0.11399848743E+04  0.11558937838E+04  0.10566000000E+00 0. -1.
        994    1    1    2    0    0 -0.44060594918E+02 -0.19022069459E+03  0.14002099113E+03  0.29502638294E+03  0.17120000000E+03 0.  0.
        998    1    1    2    0    0  0.37712066286E+01  0.34007815480E+01  0.21999413086E+03  0.22027983323E+03  0.10000000000E+02 0. -1.
</event>
<event>
 5    1  0.7732857E-009  0.3864627E+03  0.7957747E-01  0.3423492E+00
         13   -1    0    0    0    0  0.00000000000E+00  0.00000000000E+00  0.14999999963E+04  0.15000000000E+04  0.10566000000E+00 0.  1.
        994   -1    0    0    0    0 -0.00000000000E+00 -0.00000000000E+00  0.11368683772E-12  0.17120000000E+03  0.17120000000E+03 0.  0.
         13    1    1    2    0    0 -0.85782186383E+01  0.59907896584E+01  0.61406206005E+02  0.62291321191E+02  0.10566000000E+00 0.  1.
        994    1    1    2    0    0  0.58821986219E+01 -0.48780950497E+01  0.10968268780E+01  0.17137397440E+03  0.17120000000E+03 0.  0.
        998    1    1    2    0    0  0.26960200163E+01 -0.11126946088E+01  0.14374969634E+04  0.14375347044E+04  0.10000000000E+02 0.  1.
</event>
<event>
 5    1  0.7732857E-009  0.3813787E+03  0.7957747E-01  0.3445177E+00
         13   -1    0    0    0    0  0.00000000000E+00  0.00000000000E+00  0.14999999963E+04  0.15000000000E+04  0.10566000000E+00 0. -1.
        994   -1    0    0    0    0 -0.00000000000E+00 -0.00000000000E+00  0.11368683772E-12  0.17120000000E+03  0.17120000000E+03 0.  0.
         13    1    1    2    0    0 -0.17087505300E+02 -0.33875657988E+01  0.41918027616E+02  0.45393729111E+02  0.10566000000E+00 0. -1.
        994    1    1    2    0    0  0.18253938422E+02 -0.14678868251E+01  0.45555873904E+01  0.17223691340E+03  0.17120000000E+03 0.  0.
        998    1    1    2    0    0 -0.11664331216E+01  0.48554526238E+01  0.14535263813E+04  0.14535693575E+04  0.10000000000E+02 0. -1.
</event>
<event>
 5    1  0.7732857E-009  0.3827063E+03  0.7957747E-01  0.3439459E+00
         13   -1    0    0    0    0  0.00000000000E+00  0.00000000000E+00  0.14999999963E+04  0.15000000000E+04  0.10566000000E+00 0.  1.
        994   -1    0    0    0    0 -0.00000000000E+00 -0.00000000000E+00  0.11368683772E-12  0.17120000000E+03  0.17120000000E+03 0.  0.
         13    1    1    2    0    0  0.78765805939E+01  0.21578453152E+02  0.90740013090E+02  0.93602517605E+02  0.10566000000E+00 0.  1.
        994    1    1    2    0    0  0.11347825270E+02 -0.26846722258E+02  0.55930376946E+01  0.17375339336E+03  0.17120000000E+03 0.  0.
        998    1    1    2    0    0 -0.19224405864E+02  0.52682691055E+01  0.14036669455E+04  0.14038440890E+04  0.10000000000E+02 0.  1.
</event>
<event>
 5    1  0.7732857E-009  0.3827223E+03  0.7957747E-01  0.3439390E+00
         13   -1    0    0    0    0  0.00000000000E+00  0.00000000000E+00  0.14999999963E+04  0.15000000000E+04  0.10566000000E+00 0.  1.
        994   -1    0    0    0    0 -0.00000000000E+00 -0.00000000000E+00  0.11368683772E-12  0.17120000000E+03  0.17120000000E+03 0.  0.
         13    1    1    2    0    0 -0.18144827415E+02  0.91809091631E+01  0.74915439788E+02  0.77626401036E+02  0.10566000000E+00 0.  1.
        994    1    1    2    0    0  0.10076986779E+02 -0.33158939273E+01  0.31381740558E+01  0.17155707199E+03  0.17120000000E+03 0.  0.
        998    1    1    2    0    0  0.80678406369E+01 -0.58650152358E+01  0.14219463824E+04  0.14220165270E+04  0.10000000000E+02 0.  1.
</event>
<event>
 5    1  0.7732857E-009  0.3606862E+03  0.7957747E-01  0.3539822E+00
         13   -1    0    0    0    0  0.00000000000E+00  0.00000000000E+00  0.14999999963E+04  0.15000000000E+04  0.10566000000E+00 0. -1.
        994   -1    0    0    0    0 -0.00000000000E+00 -0.00000000000E+00  0.11368683772E-12  0.17120000000E+03  0.17120000000E+03 0.  0.
         13    1    1    2    0    0 -0.57772925171E+02 -0.24837257952E+03  0.10276043324E+04  0.10587716110E+04  0.10566000000E+00 0. -1.
        994    1    1    2    0    0  0.34901713630E+02  0.23782969384E+03  0.24537431595E+03  0.38379563287E+03  0.17120000000E+03 0.  0.
        998    1    1    2    0    0  0.22871211541E+02  0.10542885681E+02  0.22702134791E+03  0.22863275610E+03  0.10000000000E+02 0.  0.
</event>
<event>
 5    1  0.7732857E-009  0.2639651E+03  0.7957747E-01  0.4192414E+00
         13   -1    0    0    0    0  0.00000000000E+00  0.00000000000E+00  0.14999999963E+04  0.15000000000E+04  0.10566000000E+00 0. -1.
        994   -1    0    0    0    0 -0.00000000000E+00 -0.00000000000E+00  0.11368683772E-12  0.17120000000E+03  0.17120000000E+03 0.  0.
         13    1    1    2    0    0 -0.13556865078E+03 -0.10850386332E+03  0.41553585681E+03  0.45035764331E+03  0.10566000000E+00 0. -1.
        994    1    1    2    0    0  0.11095219655E+03  0.11490874274E+03  0.13358699647E+03  0.26957250361E+03  0.17120000000E+03 0.  0.
        998    1    1    2    0    0  0.24616454230E+02 -0.64048794133E+01  0.95087714299E+03  0.95126985307E+03  0.10000000000E+02 0. -1.
</event>
<event>
 5    1  0.7732857E-009  0.3783182E+03  0.7957747E-01  0.3458514E+00
         13   -1    0    0    0    0  0.00000000000E+00  0.00000000000E+00  0.14999999963E+04  0.15000000000E+04  0.10566000000E+00 0.  1.
        994   -1    0    0    0    0 -0.00000000000E+00 -0.00000000000E+00  0.11368683772E-12  0.17120000000E+03  0.17120000000E+03 0.  0.
         13    1    1    2    0    0 -0.35011402942E+02 -0.62237664917E+02  0.37819756658E+03  0.38488015771E+03  0.10566000000E+00 0.  1.
        994    1    1    2    0    0  0.36120140392E+02  0.62528719291E+02  0.22718638497E+02  0.18718996184E+03  0.17120000000E+03 0.  0.
        998    1    1    2    0    0 -0.11087374498E+01 -0.29105437466E+00  0.10990837912E+04  0.10991298804E+04  0.10000000000E+02 0.  1.
</event>
<event>
 5    1  0.7732857E-009  0.3754551E+03  0.7957747E-01  0.3471190E+00
         13   -1    0    0    0    0  0.00000000000E+00  0.00000000000E+00  0.14999999963E+04  0.15000000000E+04  0.10566000000E+00 0. -1.
        994   -1    0    0    0    0 -0.00000000000E+00 -0.00000000000E+00  0.11368683772E-12  0.17120000000E+03  0.17120000000E+03 0.  0.
         13    1    1    2    0    0  0.15151606098E+02 -0.12668744561E+02  0.26982598062E+02  0.33438600722E+02  0.10566000000E+00 0. -1.
        994    1    1    2    0    0 -0.18628398356E+02  0.11951529140E+02  0.81095377783E+01  0.17281510604E+03  0.17120000000E+03 0.  0.
        998    1    1    2    0    0  0.34767922584E+01  0.71721542013E+00  0.14649078604E+04  0.14649462932E+04  0.10000000000E+02 0. -1.
</event>
<event>
 5    1  0.7732857E-009  0.3704337E+03  0.7957747E-01  0.3493900E+00
         13   -1    0    0    0    0  0.00000000000E+00  0.00000000000E+00  0.14999999963E+04  0.15000000000E+04  0.10566000000E+00 0. -1.
        994   -1    0    0    0    0 -0.00000000000E+00 -0.00000000000E+00  0.11368683772E-12  0.17120000000E+03  0.17120000000E+03 0.  0.
         13    1    1    2    0    0 -0.90119347801E+02  0.20991432199E+02  0.29359016069E+03  0.30782678683E+03  0.10566000000E+00 0. -1.
        994    1    1    2    0    0  0.88167677596E+02 -0.54928400998E+02  0.49970011270E+02  0.20639067478E+03  0.17120000000E+03 0.  0.
        998    1    1    2    0    0  0.19516702046E+01  0.33936968799E+02  0.11564398243E+04  0.11569825384E+04  0.10000000000E+02 0. -1.
</event>
<event>
 5    1  0.7732857E-009  0.3819077E+03  0.7957747E-01  0.3442894E+00
         13   -1    0    0    0    0  0.00000000000E+00  0.00000000000E+00  0.14999999963E+04  0.15000000000E+04  0.10566000000E+00 0. -1.
        994   -1    0    0    0    0 -0.00000000000E+00 -0.00000000000E+00  0.11368683772E-12  0.17120000000E+03  0.17120000000E+03 0.  0.
         13    1    1    2    0    0 -0.67186110920E+01  0.26664091290E+02  0.11283746063E+03  0.11613964519E+03  0.10566000000E+00 0. -1.
        994    1    1    2    0    0 -0.67651576477E+01 -0.26796097746E+02  0.57146887095E+01  0.17351050654E+03  0.17120000000E+03 0.  0.
        998    1    1    2    0    0  0.13483768740E+02  0.13200645624E+00  0.13814478469E+04  0.13815498483E+04  0.10000000000E+02 0. -1.
</event>
<event>
 5    1  0.7732857E-009  0.3695174E+03  0.7957747E-01  0.3498112E+00
         13   -1    0    0    0    0  0.00000000000E+00  0.00000000000E+00  0.14999999963E+04  0.15000000000E+04  0.10566000000E+00 0. -1.
        994   -1    0    0    0    0 -0.00000000000E+00 -0.00000000000E+00  0.11368683772E-12  0.17120000000E+03  0.17120000000E+03 0.  0.
         13    1    1    2    0    0 -0.13876472217E+02  0.69883915073E+01  0.84051855218E+01  0.17665005087E+02  0.10566000000E+00 0. -1.
        994    1    1    2    0    0  0.96563403428E+01 -0.54000519730E+01  0.99455861670E+01  0.17184516331E+03  0.17120000000E+03 0.  0.
        998    1    1    2    0    0  0.42201318742E+01 -0.15883395343E+01  0.14816492246E+04  0.14816898316E+04  0.10000000000E+02 0. -1.
</event>
<event>
 5    1  0.7732857E-009  0.3829501E+03  0.7957747E-01  0.3438413E+00
         13   -1    0    0    0    0  0.00000000000E+00  0.00000000000E+00  0.14999999963E+04  0.15000000000E+04  0.10566000000E+00 0.  1.
        994   -1    0    0    0    0 -0.00000000000E+00 -0.00000000000E+00  0.11368683772E-12  0.17120000000E+03  0.17120000000E+03 0.  0.
         13    1    1    2    0    0 -0.18349518358E+02 -0.22080771637E+02  0.16498580182E+03  0.16746519420E+03  0.10566000000E+00 0.  1.
        994    1    1    2    0    0  0.99316661317E+01  0.37896295041E+01  0.30254851317E+01  0.17155638386E+03  0.17120000000E+03 0.  0.
        998    1    1    2    0    0  0.84178522267E+01  0.18291142133E+02  0.13319887093E+04  0.13321784219E+04  0.10000000000E+02 0.  1.
</event>
<event>
 5    1  0.8073230E-009  0.3856693E+03  0.7957747E-01  0.3426839E+00
         13   -1    0    0    0    0  0.00000000000E+00  0.00000000000E+00  0.14999999963E+04  0.15000000000E+04  0.10566000000E+00 0.  1.
        994   -1    0    0    0    0 -0.00000000000E+00 -0.00000000000E+00  0.11368683772E-12  0.17120000000E+03  0.17120000000E+03 0.  0.
         13    1    1    2    0    0  0.11643527075E+02 -0.26624818423E+01  0.52846300529E+02  0.54179361163E+02  0.10566000000E+00 0.  1.
        994    1    1    2    0    0 -0.15282028140E+02  0.15527336985E+01  0.20728908116E+01  0.17190022758E+03  0.17120000000E+03 0.  0.
        998    1    1    2    0    0  0.36385010649E+01  0.11097481438E+01  0.14450808049E+04  0.14451204113E+04  0.10000000000E+02 0.  1.
</event>
<event>
 5    1  0.7732857E-009  0.3757784E+03  0.7957747E-01  0.3469749E+00
         13   -1    0    0    0    0  0.00000000000E+00  0.00000000000E+00  0.14999999963E+04  0.15000000000E+04  0.10566000000E+00 0. -1.
        994   -1    0    0    0    0 -0.00000000000E+00 -0.00000000000E+00  0.11368683772E-12  0.17120000000E+03  0.17120000000E+03 0.  0.
         13    1    1    2    0    0  0.25215129940E+02 -0.58484685423E+01  0.17736049755E+02  0.31378113186E+02  0.10566000000E+00 0. -1.
        994    1    1    2    0    0 -0.23924601730E+02  0.60579943349E+01  0.16203800491E+02  0.17372705320E+03  0.17120000000E+03 0.  0.
        998    1    1    2    0    0 -0.12905282094E+01 -0.20952579263E+00  0.14660601460E+04  0.14660948336E+04  0.10000000000E+02 0. -1.
</event>
<event>
 5    1  0.7732857E-009  0.3708508E+03  0.7957747E-01  0.3491990E+00
         13   -1    0    0    0    0  0.00000000000E+00  0.00000000000E+00  0.14999999963E+04  0.15000000000E+04  0.10566000000E+00 0.  1.
        994   -1    0    0    0    0 -0.00000000000E+00 -0.00000000000E+00  0.11368683772E-12  0.17120000000E+03  0.17120000000E+03 0.  0.
         13    1    1    2    0    0 -0.10891083074E+02  0.65322709100E+01  0.17715019131E+01  0.12823245955E+02  0.10566000000E+00 0.  1.
        994    1    1    2    0    0  0.19472373096E+02  0.53219393606E+01  0.12819499603E+02  0.17286201411E+03  0.17120000000E+03 0.  0.
        998    1    1    2    0    0 -0.85812900224E+01 -0.11854210271E+02  0.14854089948E+04  0.14855147399E+04  0.10000000000E+02 0.  1.
</event>
<event>
 5    1  0.7732857E-009  0.3826366E+03  0.7957747E-01  0.3439758E+00
         13   -1    0    0    0    0  0.00000000000E+00  0.00000000000E+00  0.14999999963E+04  0.15000000000E+04  0.10566000000E+00 0. -1.
        994   -1    0    0    0    0 -0.00000000000E+00 -0.00000000000E+00  0.11368683772E-12  0.17120000000E+03  0.17120000000E+03 0.  0.
         13    1    1    2    0    0  0.13659663073E+01  0.26793748956E+02  0.12253408129E+03  0.12543676928E+03  0.10566000000E+00 0. -1.
        994    1    1    2    0    0  0.33254072637E+00 -0.21941294396E+02  0.44055502906E+01  0.17265682685E+03  0.17120000000E+03 0.  0.
        998    1    1    2    0    0 -0.16985070337E+01 -0.48524545595E+01  0.13730603647E+04  0.13731064039E+04  0.10000000000E+02 0. -1.
</event>
<event>
 5    1  0.7732857E-009  0.3828515E+03  0.7957747E-01  0.3438836E+00
         13   -1    0    0    0    0  0.00000000000E+00  0.00000000000E+00  0.14999999963E+04  0.15000000000E+04  0.10566000000E+00 0. -1.
        994   -1    0    0    0    0 -0.00000000000E+00 -0.00000000000E+00  0.11368683772E-12  0.17120000000E+03  0.17120000000E+03 0.  0.
         13    1    1    2    0    0 -0.68480592770E+01  0.12039730111E+02  0.34834500215E+02  0.37487392364E+02  0.10566000000E+00 0. -1.
        994    1    1    2    0    0  0.53178615179E+01 -0.59054834004E+01  0.29097955114E+01  0.17140904671E+03  0.17120000000E+03 0.  0.
        998    1    1    2    0    0  0.15301977590E+01 -0.61342467111E+01  0.14622557006E+04  0.14623035609E+04  0.10000000000E+02 0. -1.
</event>
<event>
 5    1  0.7732857E-009  0.3817613E+03  0.7957747E-01  0.3443525E+00
         13   -1    0    0    0    0  0.00000000000E+00  0.00000000000E+00  0.14999999963E+04  0.15000000000E+04  0.10566000000E+00 0.  1.
        994   -1    0    0    0    0 -0.00000000000E+00 -0.00000000000E+00  0.11368683772E-12  0.17120000000E+03  0.17120000000E+03 0.  0.
         13    1    1    2    0    0  0.10468543583E+02  0.16445467395E+02  0.58003607719E+02  0.61192103045E+02  0.10566000000E+00 0.  1.
        994    1    1    2    0    0 -0.89651444247E+01 -0.65671214057E+01  0.36572497419E+01  0.17159929013E+03  0.17120000000E+03 0.  0.
        998    1    1    2    0    0 -0.15033991580E+01 -0.98783459892E+01  0.14383391388E+04  0.14384086068E+04  0.10000000000E+02 0.  1.
</event>
<event>
 5    1  0.7732857E-009  0.3801900E+03  0.7957747E-01  0.3450331E+00
         13   -1    0    0    0    0  0.00000000000E+00  0.00000000000E+00  0.14999999963E+04  0.15000000000E+04  0.10566000000E+00 0. -1.
        994   -1    0    0    0    0 -0.00000000000E+00 -0.00000000000E+00  0.11368683772E-12  0.17120000000E+03  0.17120000000E+03 0.  0.
         13    1    1    2    0    0 -0.54155852410E+02 -0.38446611927E+02  0.33741301297E+03  0.34388741007E+03  0.10566000000E+00 0. -1.
        994    1    1    2    0    0  0.77730462699E+02  0.44337440129E+02  0.31270970707E+02  0.19569145878E+03  0.17120000000E+03 0.  0.
        998    1    1    2    0    0 -0.23574610289E+02 -0.58908282018E+01  0.11313160126E+04  0.11316211312E+04  0.10000000000E+02 0. -1.
</event>
<event>
 5    1  0.7732857E-009  0.3799742E+03  0.7957747E-01  0.3451271E+00
         13   -1    0    0    0    0  0.00000000000E+00  0.00000000000E+00  0.14999999963E+04  0.15000000000E+04  0.10566000000E+00 0. -1.
        994   -1    0    0    0    0 -0.00000000000E+00 -0.00000000000E+00  0.11368683772E-12  0.17120000000E+03  0.17120000000E+03 0.  0.
         13    1    1    2    0    0  0.33729949158E+01 -0.14017680310E+02 -0.10987646337E+01  0.14459975924E+02  0.10566000000E+00 0. -1.
        994    1    1    2    0    0 -0.33524819590E+01  0.11831820145E+02  0.16861353069E+02  0.17246731960E+03  0.17120000000E+03 0.  0.
        998    1    1    2    0    0 -0.20512956755E-01  0.21858601645E+01  0.14842374078E+04  0.14842727045E+04  0.10000000000E+02 0. -1.
</event>
<event>
 5    1  0.7732857E-009  0.3734798E+03  0.7957747E-01  0.3480050E+00
         13   -1    0    0    0    0  0.00000000000E+00  0.00000000000E+00  0.14999999963E+04  0.15000000000E+04  0.10566000000E+00 0.  1.
        994   -1    0    0    0    0 -0.00000000000E+00 -0.00000000000E+00  0.11368683772E-12  0.17120000000E+03  0.17120000000E+03 0.  0.
         13    1    1    2    0    0 -0.16458140390E+03  0.83096329976E+02  0.81493657609E+03  0.83553196993E+03  0.10566000000E+00 0.  1.
        994    1    1    2    0    0  0.16824344746E+03 -0.81604834343E+02  0.13828918663E+03  0.28878806370E+03  0.17120000000E+03 0.  0.
        998    1    1    2    0    0 -0.36620435511E+01 -0.14914956327E+01  0.54677423356E+03  0.54687996636E+03  0.10000000000E+02 0.  1.
</event>
<event>
 5    1  0.7732857E-009  0.3840460E+03  0.7957747E-01  0.3433729E+00
         13   -1    0    0    0    0  0.00000000000E+00  0.00000000000E+00  0.14999999963E+04  0.15000000000E+04  0.10566000000E+00 0. -1.
        994   -1    0    0    0    0 -0.00000000000E+00 -0.00000000000E+00  0.11368683772E-12  0.17120000000E+03  0.17120000000E+03 0.  0.
         13    1    1    2    0    0  0.60261072943E+01 -0.82926382274E+01  0.26369996052E+02  0.28292572766E+02  0.10566000000E+00 0. -1.
        994    1    1    2    0    0 -0.86653865285E+01 -0.23682396628E+02  0.42052493180E+01  0.17309843718E+03  0.17120000000E+03 0.  0.
        998    1    1    2    0    0  0.26392792342E+01  0.31975034856E+02  0.14694247509E+04  0.14698089901E+04  0.10000000000E+02 0. -1.
</event>
<event>
 5    1  0.7732857E-009  0.3711102E+03  0.7957747E-01  0.3490804E+00
         13   -1    0    0    0    0  0.00000000000E+00  0.00000000000E+00  0.14999999963E+04  0.15000000000E+04  0.10566000000E+00 0.  1.
        994   -1    0    0    0    0 -0.00000000000E+00 -0.00000000000E+00  0.11368683772E-12  0.17120000000E+03  0.17120000000E+03 0.  0.
         13    1    1    2    0    0  0.30693533678E+02  0.24721187749E+02  0.82748299414E+02  0.91654363526E+02  0.10566000000E+00 0.  1.
        994    1    1    2    0    0 -0.26712781395E+02 -0.25231859014E+02  0.13354970098E+02  0.17560755857E+03  0.17120000000E+03 0.  0.
        998    1    1    2    0    0 -0.39807522828E+01  0.51067126542E+00  0.14038967268E+04  0.14039380779E+04  0.10000000000E+02 0.  1.
</event>
<event>
 5    1  0.7732857E-009  0.3801212E+03  0.7957747E-01  0.3450631E+00
         13   -1    0    0    0    0  0.00000000000E+00  0.00000000000E+00  0.14999999963E+04  0.15000000000E+04  0.10566000000E+00 0. -1.
        994   -1    0    0    0    0 -0.00000000000E+00 -0.00000000000E+00  0.11368683772E-12  0.17120000000E+03  0.17120000000E+03 0.  0.
         13    1    1    2    0    0 -0.16572433416E+02 -0.30911235757E+02  0.21099771986E+03  0.21389296153E+03  0.10566000000E+00 0. -1.
        994    1    1    2    0    0 -0.98903470866E+01 -0.19148396317E+02  0.56255856671E+01  0.17264288940E+03  0.17120000000E+03 0.  0.
        998    1    1    2    0    0  0.26462780502E+02  0.50059632074E+02  0.12833766908E+04  0.12846641491E+04  0.10000000000E+02 0. -1.
</event>
<event>
 5    1  0.7732857E-009  0.3698105E+03  0.7957747E-01  0.3496762E+00
         13   -1    0    0    0    0  0.00000000000E+00  0.00000000000E+00  0.14999999963E+04  0.15000000000E+04  0.10566000000E+00 0.  1.
        994   -1    0    0    0    0 -0.00000000000E+00 -0.00000000000E+00  0.11368683772E-12  0.17120000000E+03  0.17120000000E+03 0.  0.
         13    1    1    2    0    0 -0.12902685935E+02 -0.70121718627E+02  0.20810542129E+03  0.21998048155E+03  0.10566000000E+00 0.  1.
        994    1    1    2    0    0 -0.92181831305E+01  0.66239682936E+02  0.26632482288E+02  0.18571860329E+03  0.17120000000E+03 0.  0.
        998    1    1    2    0    0  0.22120869065E+02  0.38820356908E+01  0.12652620927E+04  0.12655009152E+04  0.10000000000E+02 0.  1.
</event>
<event>
 5    1  0.7732857E-009  0.3753018E+03  0.7957747E-01  0.3471874E+00
         13   -1    0    0    0    0  0.00000000000E+00  0.00000000000E+00  0.14999999963E+04  0.15000000000E+04  0.10566000000E+00 0.  1.
        994   -1    0    0    0    0 -0.00000000000E+00 -0.00000000000E+00  0.11368683772E-12  0.17120000000E+03  0.17120000000E+03 0.  0.
         13    1    1    2    0    0  0.17234449148E+02  0.53261566774E+01  0.21660642858E+02  0.28188451455E+02  0.10566000000E+00 0.  1.
        994    1    1    2    0    0 -0.20674070886E+02 -0.73534204386E+01  0.81605346150E+01  0.17279329942E+03  0.17120000000E+03 0.  0.
        998    1    1    2    0    0  0.34396217386E+01  0.20272637611E+01  0.14701788188E+04  0.14702182491E+04  0.10000000000E+02 0.  1.
</event>
<event>
 5    1  0.7732857E-009  0.4239457E+03  0.7957747E-01  0.3279618E+00
         13   -1    0    0    0    0  0.00000000000E+00  0.00000000000E+00  0.14999999963E+04  0.15000000000E+04  0.10566000000E+00 0. -1.
        994   -1    0    0    0    0 -0.00000000000E+00 -0.00000000000E+00  0.11368683772E-12  0.17120000000E+03  0.17120000000E+03 0.  0.
         13    1    1    2    0    0 -0.44218192318E+02 -0.92850322507E+02  0.10074165101E+03  0.14396292000E+03  0.10566000000E+00 0. -1.
        994    1    1    2    0    0  0.38198664993E+02  0.10349535131E+03  0.98237763867E+02  0.22612059614E+03  0.17120000000E+03 0.  0.
        998    1    1    2    0    0  0.60195273252E+01 -0.10645028803E+02  0.13010205814E+04  0.13011164839E+04  0.10000000000E+02 0. -1.
</event>
<event>
 5    1  0.7732857E-009  0.3845956E+03  0.7957747E-01  0.3431389E+00
         13   -1    0    0    0    0  0.00000000000E+00  0.00000000000E+00  0.14999999963E+04  0.15000000000E+04  0.10566000000E+00 0.  1.
        994   -1    0    0    0    0 -0.00000000000E+00 -0.00000000000E+00  0.11368683772E-12  0.17120000000E+03  0.17120000000E+03 0.  0.
         13    1    1    2    0    0 -0.13089815897E+02 -0.59456847369E+02  0.88909316709E+02  0.10775591743E+03  0.10566000000E+00 0.  1.
        994    1    1    2    0    0  0.21413945191E+02  0.49489367612E+02  0.29671219096E+02  0.18192739155E+03  0.17120000000E+03 0.  0.
        998    1    1    2    0    0 -0.83241292937E+01  0.99674797565E+01  0.13814194605E+04  0.13815166910E+04  0.10000000000E+02 0.  1.
</event>
<event>
 5    1  0.7732857E-009  0.3782071E+03  0.7957747E-01  0.3459002E+00
         13   -1    0    0    0    0  0.00000000000E+00  0.00000000000E+00  0.14999999963E+04  0.15000000000E+04  0.10566000000E+00 0.  1.
        994   -1    0    0    0    0 -0.00000000000E+00 -0.00000000000E+00  0.11368683772E-12  0.17120000000E+03  0.17120000000E+03 0.  0.
         13    1    1    2    0    0  0.29741574136E+02 -0.18276460109E+02  0.10461781126E+03  0.11028820347E+03  0.10566000000E+00 0.  1.
        994    1    1    2    0    0 -0.43468683099E+02  0.21291244852E+02  0.12960316916E+02  0.17838232349E+03  0.17120000000E+03 0.  0.
        998    1    1    2    0    0  0.13727108963E+02 -0.30147847428E+01  0.13824218681E+04  0.13825294730E+04  0.10000000000E+02 0.  1.
</event>
<event>
 5    1  0.7732857E-009  0.3817050E+03  0.7957747E-01  0.3443768E+00
         13   -1    0    0    0    0  0.00000000000E+00  0.00000000000E+00  0.14999999963E+04  0.15000000000E+04  0.10566000000E+00 0. -1.
        994   -1    0    0    0    0 -0.00000000000E+00 -0.00000000000E+00  0.11368683772E-12  0.17120000000E+03  0.17120000000E+03 0.  0.
         13    1    1    2    0    0  0.48437205443E+01 -0.18497834156E+02  0.51934889211E+02  0.55343250524E+02  0.10566000000E+00 0. -1.
        994    1    1    2    0    0 -0.12621300602E+02  0.22417353446E+02  0.54780957485E+01  0.17320878874E+03  0.17120000000E+03 0.  0.
        998    1    1    2    0    0  0.77775800578E+01 -0.39195192895E+01  0.14425870113E+04  0.14426479607E+04  0.10000000000E+02 0. -1.
</event>
<event>
 5    1  0.7732857E-009  0.3687721E+03  0.7957747E-01  0.3501553E+00
         13   -1    0    0    0    0  0.00000000000E+00  0.00000000000E+00  0.14999999963E+04  0.15000000000E+04  0.10566000000E+00 0. -1.
        994   -1    0    0    0    0 -0.00000000000E+00 -0.00000000000E+00  0.11368683772E-12  0.17120000000E+03  0.17120000000E+03 0.  0.
         13    1    1    2    0    0 -0.78215074061E+01 -0.64177384113E+01  0.50497957886E+00  0.10130622529E+02  0.10566000000E+00 0. -1.
        994    1    1    2    0    0  0.12710285304E+02 -0.47391935661E+00  0.10474254689E+02  0.17199106361E+03  0.17120000000E+03 0.  0.
        998    1    1    2    0    0 -0.48887778979E+01  0.68916577679E+01  0.14890207620E+04  0.14890783139E+04  0.10000000000E+02 0. -1.
</event>
<event>
 5    1  0.7732857E-009  0.3733056E+03  0.7957747E-01  0.3480836E+00
         13   -1    0    0    0    0  0.00000000000E+00  0.00000000000E+00  0.14999999963E+04  0.15000000000E+04  0.10566000000E+00 0.  1.
        994   -1    0    0    0    0 -0.00000000000E+00 -0.00000000000E+00  0.11368683772E-12  0.17120000000E+03  0.17120000000E+03 0.  0.
         13    1    1    2    0    0 -0.15593142911E+02  0.36616141109E+02  0.11180126917E+03  0.11867359794E+03  0.10566000000E+00 0.  1.
        994    1    1    2    0    0  0.72165149689E+01 -0.61260822113E+00  0.77307827086E+01  0.17152742748E+03  0.17120000000E+03 0.  0.
        998    1    1    2    0    0  0.83766279417E+01 -0.36003532888E+02  0.13804679444E+04  0.13809989746E+04  0.10000000000E+02 0.  1.
</event>
<event>
 5    1  0.7732857E-009  0.3839441E+03  0.7957747E-01  0.3434163E+00
         13   -1    0    0    0    0  0.00000000000E+00  0.00000000000E+00  0.14999999963E+04  0.15000000000E+04  0.10566000000E+00 0.  1.
        994   -1    0    0    0    0 -0.00000000000E+00 -0.00000000000E+00  0.11368683772E-12  0.17120000000E+03  0.17120000000E+03 0.  0.
         13    1    1    2    0    0  0.20181188121E+02  0.29188912126E+01  0.95028892658E+02  0.97192087557E+02  0.10566000000E+00 0.  1.
        994    1    1    2    0    0 -0.13947685451E+02 -0.40989749306E+01  0.28530103797E+01  0.17183980678E+03  0.17120000000E+03 0.  0.
        998    1    1    2    0    0 -0.62335026699E+01  0.11800837180E+01  0.14021180932E+04  0.14021681057E+04  0.10000000000E+02 0.  1.
</event>
<event>
 5    1  0.7732857E-009  0.3788767E+03  0.7957747E-01  0.3456064E+00
         13   -1    0    0    0    0  0.00000000000E+00  0.00000000000E+00  0.14999999963E+04  0.15000000000E+04  0.10566000000E+00 0.  1.
        994   -1    0    0    0    0 -0.00000000000E+00 -0.00000000000E+00  0.11368683772E-12  0.17120000000E+03  0.17120000000E+03 0.  0.
         13    1    1    2    0    0  0.15042345961E+02  0.57987681125E+02  0.31235452815E+03  0.31804748978E+03  0.10566000000E+00 0.  1.
        994    1    1    2    0    0 -0.22312787095E+02 -0.52686701599E+02  0.15765470920E+02  0.18119530641E+03  0.17120000000E+03 0.  0.
        998    1    1    2    0    0  0.72704411337E+01 -0.53009795261E+01  0.11718799972E+04  0.11719572038E+04  0.10000000000E+02 0.  1.
</event>
<event>
 5    1  0.7732857E-009  0.3797132E+03  0.7957747E-01  0.3452408E+00
         13   -1    0    0    0    0  0.00000000000E+00  0.00000000000E+00  0.14999999963E+04  0.15000000000E+04  0.10566000000E+00 0. -1.
        994   -1    0    0    0    0 -0.00000000000E+00 -0.00000000000E+00  0.11368683772E-12  0.17120000000E+03  0.17120000000E+03 0.  0.
         13    1    1    2    0    0  0.24550811424E+02 -0.69891222953E-01  0.73725093867E+02  0.77705520113E+02  0.10566000000E+00 0. -1.
        994    1    1    2    0    0 -0.21354322000E+00  0.11947171242E+02  0.47558981777E+01  0.17168237845E+03  0.17120000000E+03 0.  0.
        998    1    1    2    0    0 -0.24337268204E+02 -0.11877280019E+02  0.14215190042E+04  0.14218121014E+04  0.10000000000E+02 0. -1.
</event>
<event>
 5    1  0.7732857E-009  0.3796963E+03  0.7957747E-01  0.3452482E+00
         13   -1    0    0    0    0  0.00000000000E+00  0.00000000000E+00  0.14999999963E+04  0.15000000000E+04  0.10566000000E+00 0. -1.
        994   -1    0    0    0    0 -0.00000000000E+00 -0.00000000000E+00  0.11368683772E-12  0.17120000000E+03  0.17120000000E+03 0.  0.
         13    1    1    2    0    0  0.57059730675E+01 -0.87076519456E+01  0.10560424838E+02  0.14829533636E+02  0.10566000000E+00 0. -1.
        994    1    1    2    0    0  0.13178169400E+01  0.18638064781E+02  0.54556266647E+01  0.17230298303E+03  0.17120000000E+03 0.  0.
        998    1    1    2    0    0 -0.70237900075E+01 -0.99304128351E+01  0.14839839448E+04  0.14840674833E+04  0.10000000000E+02 0. -1.
</event>
<event>
 5    1  0.7732857E-009  0.3804643E+03  0.7957747E-01  0.3449139E+00
         13   -1    0    0    0    0  0.00000000000E+00  0.00000000000E+00  0.14999999963E+04  0.15000000000E+04  0.10566000000E+00 0. -1.
        994   -1    0    0    0    0 -0.00000000000E+00 -0.00000000000E+00  0.11368683772E-12  0.17120000000E+03  0.17120000000E+03 0.  0.
         13    1    1    2    0    0 -0.89454152520E+01 -0.12852616040E+02  0.29517159894E+02  0.33413830749E+02  0.10566000000E+00 0. -1.
        994    1    1    2    0    0  0.10566517986E+02  0.10853238842E+02  0.46651391007E+01  0.17193210177E+03  0.17120000000E+03 0.  0.
        998    1    1    2    0    0 -0.16211027338E+01  0.19993771980E+01  0.14658176973E+04  0.14658540675E+04  0.10000000000E+02 0. -1.
</event>
<event>
 5    1  0.7732857E-009  0.3828173E+03  0.7957747E-01  0.3438983E+00
         13   -1    0    0    0    0  0.00000000000E+00  0.00000000000E+00  0.14999999963E+04  0.15000000000E+04  0.10566000000E+00 0.  1.
        994   -1    0    0    0    0 -0.00000000000E+00 -0.00000000000E+00  0.11368683772E-12  0.17120000000E+03  0.17120000000E+03 0.  0.
         13    1    1    2    0    0 -0.94262308367E+01  0.12243822443E+02  0.45905407064E+02  0.48436376594E+02  0.10566000000E+00 0.  1.
        994    1    1    2    0    0 -0.10692570673E+02 -0.25629458589E+01  0.31182557275E+01  0.17158106911E+03  0.17120000000E+03 0.  0.
        998    1    1    2    0    0  0.20118801510E+02 -0.96808765843E+01  0.14509763335E+04  0.14511825543E+04  0.10000000000E+02 0.  1.
</event>
<event>
 5    1  0.7732857E-009  0.3700373E+03  0.7957747E-01  0.3495719E+00
         13   -1    0    0    0    0  0.00000000000E+00  0.00000000000E+00  0.14999999963E+04  0.15000000000E+04  0.10566000000E+00 0. -1.
        994   -1    0    0    0    0 -0.00000000000E+00 -0.00000000000E+00  0.11368683772E-12  0.17120000000E+03  0.17120000000E+03 0.  0.
         13    1    1    2    0    0 -0.82915454887E+01 -0.57533119382E+02  0.13657458886E+03  0.14842991288E+03  0.10566000000E+00 0. -1.
        994    1    1    2    0    0  0.12663365832E+02  0.58445205653E+02  0.23569309803E+02  0.18286922995E+03  0.17120000000E+03 0.  0.
        998    1    1    2    0    0 -0.43718203432E+01 -0.91208627176E+00  0.13398560976E+04  0.13399008572E+04  0.10000000000E+02 0.  0.
</event>
<event>
 5    1  0.7732857E-009  0.3775950E+03  0.7957747E-01  0.3461698E+00
         13   -1    0    0    0    0  0.00000000000E+00  0.00000000000E+00  0.14999999963E+04  0.15000000000E+04  0.10566000000E+00 0.  1.
        994   -1    0    0    0    0 -0.00000000000E+00 -0.00000000000E+00  0.11368683772E-12  0.17120000000E+03  0.17120000000E+03 0.  0.
         13    1    1    2    0    0  0.43509900735E+02  0.11606418543E+02  0.18208389836E+03  0.18756966071E+03  0.10566000000E+00 0.  1.
        994    1    1    2    0    0 -0.28522467345E+02 -0.13263962518E+02  0.86935405112E+01  0.17428276304E+03  0.17120000000E+03 0.  0.
        998    1    1    2    0    0 -0.14987433390E+02  0.16575439745E+01  0.13092225574E+04  0.13093475763E+04  0.10000000000E+02 0.  1.
</event>
<event>
 5    1  0.7732857E-009  0.3823691E+03  0.7957747E-01  0.3440907E+00
         13   -1    0    0    0    0  0.00000000000E+00  0.00000000000E+00  0.14999999963E+04  0.15000000000E+04  0.10566000000E+00 0.  1.
        994   -1    0    0    0    0 -0.00000000000E+00 -0.00000000000E+00  0.11368683772E-12  0.17120000000E+03  0.17120000000E+03 0.  0.
         13    1    1    2    0    0 -0.15134589071E+02 -0.30312502941E+02  0.12384055323E+03  0.12839157842E+03  0.10566000000E+00 0.  1.
        994    1    1    2    0    0  0.36600979677E+02  0.84420636383E+02  0.31552323571E+02  0.19690470965E+03  0.17120000000E+03 0.  0.
        998    1    1    2    0    0 -0.21466390606E+02 -0.54108133442E+02  0.13446071195E+04  0.13459037119E+04  0.10000000000E+02 0.  1.
</event>
<event>
 5    1  0.7732857E-009  0.3800581E+03  0.7957747E-01  0.3450905E+00
         13   -1    0    0    0    0  0.00000000000E+00  0.00000000000E+00  0.14999999963E+04  0.15000000000E+04  0.10566000000E+00 0. -1.
        994   -1    0    0    0    0 -0.00000000000E+00 -0.00000000000E+00  0.11368683772E-12  0.17120000000E+03  0.17120000000E+03 0.  0.
         13    1    1    2    0    0 -0.28525338750E+02 -0.40460836698E+02  0.27990470359E+03  0.28424888480E+03  0.10566000000E+00 0. -1.
        994    1    1    2    0    0 -0.75448860700E-01  0.44311208511E+02  0.10694383202E+02  0.17716460912E+03  0.17120000000E+03 0.  0.
        998    1    1    2    0    0  0.28600787610E+02 -0.38503718123E+01  0.12094009095E+04  0.12097865061E+04  0.10000000000E+02 0. -1.
</event>
<event>
 5    1  0.7732857E-009  0.3722714E+03  0.7957747E-01  0.3485517E+00
         13   -1    0    0    0    0  0.00000000000E+00  0.00000000000E+00  0.14999999963E+04  0.15000000000E+04  0.10566000000E+00 0.  1.
        994   -1    0    0    0    0 -0.00000000000E+00 -0.00000000000E+00  0.11368683772E-12  0.17120000000E+03  0.17120000000E+03 0.  0.
         13    1    1    2    0    0 -0.27251217461E+02  0.34504226176E+01  0.25557732539E+02  0.37519903064E+02  0.10566000000E+00 0.  1.
        994    1    1    2    0    0  0.26834289637E+02 -0.99393323500E+01  0.15036029379E+02  0.17422511761E+03  0.17120000000E+03 0.  0.
        998    1    1    2    0    0  0.41692782436E+00  0.64889097324E+01  0.14594062344E+04  0.14594549793E+04  0.10000000000E+02 0.  1.
</event>
<event>
 5    1  0.7732857E-009  0.3763597E+03  0.7957747E-01  0.3467164E+00
         13   -1    0    0    0    0  0.00000000000E+00  0.00000000000E+00  0.14999999963E+04  0.15000000000E+04  0.10566000000E+00 0. -1.
        994   -1    0    0    0    0 -0.00000000000E+00 -0.00000000000E+00  0.11368683772E-12  0.17120000000E+03  0.17120000000E+03 0.  0.
         13    1    1    2    0    0 -0.22182955921E+02 -0.32595009283E+02  0.14687927963E+03  0.15207909821E+03  0.10566000000E+00 0. -1.
        994    1    1    2    0    0 -0.52263864784E+01  0.94460139017E+00  0.60776029814E+01  0.17139015329E+03  0.17120000000E+03 0.  0.
        998    1    1    2    0    0  0.27409342399E+02  0.31650407893E+02  0.13470431137E+04  0.13477307485E+04  0.10000000000E+02 0. -1.
</event>
<event>
 5    1  0.7732857E-009  0.3847015E+03  0.7957747E-01  0.3430939E+00
         13   -1    0    0    0    0  0.00000000000E+00  0.00000000000E+00  0.14999999963E+04  0.15000000000E+04  0.10566000000E+00 0. -1.
        994   -1    0    0    0    0 -0.00000000000E+00 -0.00000000000E+00  0.11368683772E-12  0.17120000000E+03  0.17120000000E+03 0.  0.
         13    1    1    2    0    0 -0.10245693252E+02 -0.50946540110E+01  0.41742027785E+02  0.43282072240E+02  0.10566000000E+00 0. -1.
        994    1    1    2    0    0 -0.94642829536E+01 -0.22681524606E+02  0.37692787690E+01  0.17299616086E+03  0.17120000000E+03 0.  0.
        998    1    1    2    0    0  0.19709976206E+02  0.27776178617E+02  0.14544886897E+04  0.14549217669E+04  0.10000000000E+02 0. -1.
</event>
<event>
 5    1  0.7732857E-009  0.3833715E+03  0.7957747E-01  0.3436608E+00
         13   -1    0    0    0    0  0.00000000000E+00  0.00000000000E+00  0.14999999963E+04  0.15000000000E+04  0.10566000000E+00 0.  1.
        994   -1    0    0    0    0 -0.00000000000E+00 -0.00000000000E+00  0.11368683772E-12  0.17120000000E+03  0.17120000000E+03 0.  0.
         13    1    1    2    0    0 -0.36316279555E+02 -0.12070168808E+03  0.31668383406E+03  0.34084663939E+03  0.10566000000E+00 0.  1.
        994    1    1    2    0    0  0.35241356350E+02  0.12846049608E+03  0.86603671815E+02  0.23356730983E+03  0.17120000000E+03 0.  0.
        998    1    1    2    0    0  0.10749232057E+01 -0.77588080030E+01  0.10967124904E+04  0.10967860508E+04  0.10000000000E+02 0.  1.
</event>
<event>
 5    1  0.7732857E-009  0.4142440E+03  0.7957747E-01  0.3314386E+00
         13   -1    0    0    0    0  0.00000000000E+00  0.00000000000E+00  0.14999999963E+04  0.15000000000E+04  0.10566000000E+00 0.  1.
        994   -1    0    0    0    0 -0.00000000000E+00 -0.00000000000E+00  0.11368683772E-12  0.17120000000E+03  0.17120000000E+03 0.  0.
         13    1    1    2    0    0  0.18017578947E+02  0.41911340094E+02  0.13936865549E+02  0.47701582416E+02  0.10566000000E+00 0.  1.
        994    1    1    2    0    0 -0.18014613234E+02 -0.46947692065E+02  0.47170112111E+02  0.18456183667E+03  0.17120000000E+03 0.  0.
        998    1    1    2    0    0 -0.29657129111E-02  0.50363519703E+01  0.14388930186E+04  0.14389365809E+04  0.10000000000E+02 0.  1.
</event>
<event>
 5    1  0.7732857E-009  0.3838860E+03  0.7957747E-01  0.3434411E+00
         13   -1    0    0    0    0  0.00000000000E+00  0.00000000000E+00  0.14999999963E+04  0.15000000000E+04  0.10566000000E+00 0.  1.
        994   -1    0    0    0    0 -0.00000000000E+00 -0.00000000000E+00  0.11368683772E-12  0.17120000000E+03  0.17120000000E+03 0.  0.
         13    1    1    2    0    0 -0.91156101392E+01 -0.11435777704E+02  0.48778441106E+02  0.50923656985E+02  0.10566000000E+00 0.  1.
        994    1    1    2    0    0  0.57649166975E+01  0.60113112484E+01  0.24132191759E+01  0.17141946726E+03  0.17120000000E+03 0.  0.
        998    1    1    2    0    0  0.33506934417E+01  0.54244664554E+01  0.14488083360E+04  0.14488568758E+04  0.10000000000E+02 0.  1.
</event>
<event>
 5    1  0.7732857E-009  0.3836249E+03  0.7957747E-01  0.3435525E+00
         13   -1    0    0    0    0  0.00000000000E+00  0.00000000000E+00  0.14999999963E+04  0.15000000000E+04  0.10566000000E+00 0. -1.
        994   -1    0    0    0    0 -0.00000000000E+00 -0.00000000000E+00  0.11368683772E-12  0.17120000000E+03  0.17120000000E+03 0.  0.
         13    1    1    2    0    0  0.76585300620E+01  0.19743685937E+02  0.92876646478E+02  0.95260426422E+02  0.10566000000E+00 0. -1.
        994    1    1    2    0    0 -0.70290219741E+01 -0.17659312265E+02  0.35086638343E+01  0.17228757698E+03  0.17120000000E+03 0.  0.
        998    1    1    2    0    0 -0.62950808792E+00 -0.20843736720E+01  0.14036146860E+04  0.14036519966E+04  0.10000000000E+02 0. -1.
</event>
<event>
 5    1  0.7732857E-009  0.3775223E+03  0.7957747E-01  0.3462018E+00
         13   -1    0    0    0    0  0.00000000000E+00  0.00000000000E+00  0.14999999963E+04  0.15000000000E+04  0.10566000000E+00 0. -1.
        994   -1    0    0    0    0 -0.00000000000E+00 -0.00000000000E+00  0.11368683772E-12  0.17120000000E+03  0.17120000000E+03 0.  0.
         13    1    1    2    0    0  0.17048412508E+02 -0.69022951183E+01  0.29382980218E+02  0.34664978545E+02  0.10566000000E+00 0. -1.
        994    1    1    2    0    0 -0.47688492415E+01  0.15020391111E+02  0.62266441046E+01  0.17203652278E+03  0.17120000000E+03 0.  0.
        998    1    1    2    0    0 -0.12279563267E+02 -0.81180959924E+01  0.14643903720E+04  0.14644984987E+04  0.10000000000E+02 0. -1.
</event>
<event>
 5    1  0.7732857E-009  0.3739719E+03  0.7957747E-01  0.3477834E+00
         13   -1    0    0    0    0  0.00000000000E+00  0.00000000000E+00  0.14999999963E+04  0.15000000000E+04  0.10566000000E+00 0.  1.
        994   -1    0    0    0    0 -0.00000000000E+00 -0.00000000000E+00  0.11368683772E-12  0.17120000000E+03  0.17120000000E+03 0.  0.
         13    1    1    2    0    0  0.32556129124E+02  0.32024013826E+02  0.15323514019E+03  0.15989514801E+03  0.10566000000E+00 0.  1.
        994    1    1    2    0    0  0.38780632400E+01 -0.22016518727E+02  0.89141963883E+01  0.17288339819E+03  0.17120000000E+03 0.  0.
        998    1    1    2    0    0 -0.36434192364E+02 -0.10007495099E+02  0.13378506597E+04  0.13384214538E+04  0.10000000000E+02 0.  1.
</event>
<event>
 5    1  0.7732857E-009  0.3799430E+03  0.7957747E-01  0.3451407E+00
         13   -1    0    0    0    0  0.00000000000E+00  0.00000000000E+00  0.14999999963E+04  0.15000000000E+04  0.10566000000E+00 0. -1.
        994   -1    0    0    0    0 -0.00000000000E+00 -0.00000000000E+00  0.11368683772E-12  0.17120000000E+03  0.17120000000E+03 0.  0.
         13    1    1    2    0    0  0.20389163855E+02 -0.68282450035E+01  0.56896956851E+02  0.60824483520E+02  0.10566000000E+00 0. -1.
        994    1    1    2    0    0  0.11494193661E+01  0.59077748390E+01  0.42830606752E+01  0.17135929382E+03  0.17120000000E+03 0.  0.
        998    1    1    2    0    0 -0.21538583221E+02  0.92047016449E+00  0.14388199788E+04  0.14390162227E+04  0.10000000000E+02 0. -1.
</event>
<event>
 5    1  0.7732857E-009  0.3840517E+03  0.7957747E-01  0.3433704E+00
         13   -1    0    0    0    0  0.00000000000E+00  0.00000000000E+00  0.14999999963E+04  0.15000000000E+04  0.10566000000E+00 0. -1.
        994   -1    0    0    0    0 -0.00000000000E+00 -0.00000000000E+00  0.11368683772E-12  0.17120000000E+03  0.17120000000E+03 0.  0.
         13    1    1    2    0    0 -0.16609334872E+02 -0.74201596157E+01  0.74418280623E+02  0.76609532230E+02  0.10566000000E+00 0. -1.
        994    1    1    2    0    0  0.19841353347E+02  0.53393624387E+01  0.34956494331E+01  0.17246404744E+03  0.17120000000E+03 0.  0.
        998    1    1    2    0    0 -0.32320184751E+01  0.20807971770E+01  0.14220860662E+04  0.14221264203E+04  0.10000000000E+02 0. -1.
</event>
<event>
 5    1  0.7732857E-009  0.3738342E+03  0.7957747E-01  0.3478453E+00
         13   -1    0    0    0    0  0.00000000000E+00  0.00000000000E+00  0.14999999963E+04  0.15000000000E+04  0.10566000000E+00 0. -1.
        994   -1    0    0    0    0 -0.00000000000E+00 -0.00000000000E+00  0.11368683772E-12  0.17120000000E+03  0.17120000000E+03 0.  0.
         13    1    1    2    0    0  0.91294216882E+02 -0.78830369805E+02  0.39813984038E+03  0.41600986154E+03  0.10566000000E+00 0. -1.
        994    1    1    2    0    0 -0.90673304350E+02  0.78680026697E+02  0.65977982666E+02  0.21925950132E+03  0.17120000000E+03 0.  0.
        998    1    1    2    0    0 -0.62091253195E+00  0.15034310837E+00  0.10358821732E+04  0.10359306371E+04  0.10000000000E+02 0.  0.
</event>
<event>
 5    1  0.7732857E-009  0.3835908E+03  0.7957747E-01  0.3435671E+00
         13   -1    0    0    0    0  0.00000000000E+00  0.00000000000E+00  0.14999999963E+04  0.15000000000E+04  0.10566000000E+00 0.  1.
        994   -1    0    0    0    0 -0.00000000000E+00 -0.00000000000E+00  0.11368683772E-12  0.17120000000E+03  0.17120000000E+03 0.  0.
         13    1    1    2    0    0 -0.62441942001E+02  0.22347988859E+03  0.12132213929E+04  0.12352118912E+04  0.10566000000E+00 0.  1.
        994    1    1    2    0    0  0.53022939084E+02 -0.22527566042E+03  0.20589060914E+03  0.35392222052E+03  0.17120000000E+03 0.  0.
        998    1    1    2    0    0  0.94190029165E+01  0.17957718277E+01  0.80887994247E+02  0.82065888320E+02  0.10000000000E+02 0.  1.
</event>
<event>
 5    1  0.7732857E-009  0.3758736E+03  0.7957747E-01  0.3469325E+00
         13   -1    0    0    0    0  0.00000000000E+00  0.00000000000E+00  0.14999999963E+04  0.15000000000E+04  0.10566000000E+00 0.  1.
        994   -1    0    0    0    0 -0.00000000000E+00 -0.00000000000E+00  0.11368683772E-12  0.17120000000E+03  0.17120000000E+03 0.  0.
         13    1    1    2    0    0  0.23473540713E+02  0.21882250957E+02  0.83786193670E+02  0.89721666471E+02  0.10566000000E+00 0.  1.
        994    1    1    2    0    0  0.30056917885E+01 -0.17470465859E+02  0.72965988738E+01  0.17226993851E+03  0.17120000000E+03 0.  0.
        998    1    1    2    0    0 -0.26479232502E+02 -0.44117850976E+01  0.14089172037E+04  0.14092083950E+04  0.10000000000E+02 0.  1.
</event>
<event>
 5    1  0.7732857E-009  0.3815770E+03  0.7957747E-01  0.3444320E+00
         13   -1    0    0    0    0  0.00000000000E+00  0.00000000000E+00  0.14999999963E+04  0.15000000000E+04  0.10566000000E+00 0.  1.
        994   -1    0    0    0    0 -0.00000000000E+00 -0.00000000000E+00  0.11368683772E-12  0.17120000000E+03  0.17120000000E+03 0.  0.
         13    1    1    2    0    0 -0.41491162582E+01  0.93313753742E+01  0.14148667827E+02  0.17449518544E+02  0.10566000000E+00 0.  1.
        994    1    1    2    0    0  0.14001690886E+01 -0.93577956317E+01  0.36369729148E+01  0.17149984369E+03  0.17120000000E+03 0.  0.
        998    1    1    2    0    0  0.27489471695E+01  0.26420257471E-01  0.14822143555E+04  0.14822506378E+04  0.10000000000E+02 0.  1.
</event>
<event>
 5    1  0.7732857E-009  0.3745010E+03  0.7957747E-01  0.3475457E+00
         13   -1    0    0    0    0  0.00000000000E+00  0.00000000000E+00  0.14999999963E+04  0.15000000000E+04  0.10566000000E+00 0. -1.
        994   -1    0    0    0    0 -0.00000000000E+00 -0.00000000000E+00  0.11368683772E-12  0.17120000000E+03  0.17120000000E+03 0.  0.
         13    1    1    2    0    0 -0.37674953905E+02 -0.16685779958E+03  0.83670288595E+03  0.85400975284E+03  0.10566000000E+00 0. -1.
        994    1    1    2    0    0  0.30123733396E+02  0.16594597895E+03  0.11094551194E+03  0.26469577606E+03  0.17120000000E+03 0.  0.
        998    1    1    2    0    0  0.75512205096E+01  0.91182062878E+00  0.55235159839E+03  0.55249447110E+03  0.10000000000E+02 0. -1.
</event>
<event>
 5    1  0.7732857E-009  0.3795233E+03  0.7957747E-01  0.3453237E+00
         13   -1    0    0    0    0  0.00000000000E+00  0.00000000000E+00  0.14999999963E+04  0.15000000000E+04  0.10566000000E+00 0. -1.
        994   -1    0    0    0    0 -0.00000000000E+00 -0.00000000000E+00  0.11368683772E-12  0.17120000000E+03  0.17120000000E+03 0.  0.
         13    1    1    2    0    0  0.43136917968E+01  0.66620164569E+02  0.32505154809E+03  0.33183636682E+03  0.10566000000E+00 0. -1.
        994    1    1    2    0    0  0.29239045220E+02 -0.92546224571E+02  0.36587617659E+02  0.20016947623E+03  0.17120000000E+03 0.  0.
        998    1    1    2    0    0 -0.33552737017E+02  0.25926060002E+02  0.11383608305E+04  0.11391941569E+04  0.10000000000E+02 0. -1.
</event>
<event>
 5    1  0.7732857E-009  0.3771465E+03  0.7957747E-01  0.3463678E+00
         13   -1    0    0    0    0  0.00000000000E+00  0.00000000000E+00  0.14999999963E+04  0.15000000000E+04  0.10566000000E+00 0.  1.
        994   -1    0    0    0    0 -0.00000000000E+00 -0.00000000000E+00  0.11368683772E-12  0.17120000000E+03  0.17120000000E+03 0.  0.
         13    1    1    2    0    0  0.67504028627E+01  0.10448869608E+02  0.12182389047E+02  0.17411736899E+02  0.10566000000E+00 0.  1.
        994    1    1    2    0    0  0.12746026062E+02  0.17005250251E+02  0.71062196667E+01  0.17266029675E+03  0.17120000000E+03 0.  0.
        998    1    1    2    0    0 -0.19496428924E+02 -0.27454119860E+02  0.14807113876E+04  0.14811279663E+04  0.10000000000E+02 0.  1.
</event>
<event>
 5    1  0.7732857E-009  0.3800720E+03  0.7957747E-01  0.3450845E+00
         13   -1    0    0    0    0  0.00000000000E+00  0.00000000000E+00  0.14999999963E+04  0.15000000000E+04  0.10566000000E+00 0. -1.
        994   -1    0    0    0    0 -0.00000000000E+00 -0.00000000000E+00  0.11368683772E-12  0.17120000000E+03  0.17120000000E+03 0.  0.
         13    1    1    2    0    0  0.57826248832E+02 -0.41437566819E+01  0.33507264151E+03  0.34005107268E+03  0.10566000000E+00 0. -1.
        994    1    1    2    0    0 -0.53022091483E+02  0.32946531912E+02  0.17232199839E+02  0.18303880698E+03  0.17120000000E+03 0.  0.
        998    1    1    2    0    0 -0.48041573489E+01 -0.28802775230E+02  0.11476951549E+04  0.11481101203E+04  0.10000000000E+02 0. -1.
</event>
<event>
 5    1  0.7732857E-009  0.3813581E+03  0.7957747E-01  0.3445266E+00
         13   -1    0    0    0    0  0.00000000000E+00  0.00000000000E+00  0.14999999963E+04  0.15000000000E+04  0.10566000000E+00 0. -1.
        994   -1    0    0    0    0 -0.00000000000E+00 -0.00000000000E+00  0.11368683772E-12  0.17120000000E+03  0.17120000000E+03 0.  0.
         13    1    1    2    0    0  0.22625589583E+02  0.63570347432E+02  0.32371601473E+03  0.33067382076E+03  0.10566000000E+00 0. -1.
        994    1    1    2    0    0  0.85942313140E+01 -0.12965830736E+03  0.61847752125E+02  0.22365089296E+03  0.17120000000E+03 0.  0.
        998    1    1    2    0    0 -0.31219820897E+02  0.66087959923E+02  0.11144362294E+04  0.11168752863E+04  0.10000000000E+02 0. -1.
</event>
<event>
 5    1  0.7732857E-009  0.3840636E+03  0.7957747E-01  0.3433653E+00
         13   -1    0    0    0    0  0.00000000000E+00  0.00000000000E+00  0.14999999963E+04  0.15000000000E+04  0.10566000000E+00 0. -1.
        994   -1    0    0    0    0 -0.00000000000E+00 -0.00000000000E+00  0.11368683772E-12  0.17120000000E+03  0.17120000000E+03 0.  0.
         13    1    1    2    0    0  0.12048390034E+02 -0.13463051303E+02  0.75885244312E+02  0.78006403078E+02  0.10566000000E+00 0. -1.
        994    1    1    2    0    0 -0.58341740907E+01  0.15025685614E+02  0.29532535568E+01  0.17198247155E+03  0.17120000000E+03 0.  0.
        998    1    1    2    0    0 -0.62142159436E+01 -0.15626343101E+01  0.14211614984E+04  0.14212111254E+04  0.10000000000E+02 0. -1.
</event>
<event>
 5    1  0.7732857E-009  0.3824625E+03  0.7957747E-01  0.3440506E+00
         13   -1    0    0    0    0  0.00000000000E+00  0.00000000000E+00  0.14999999963E+04  0.15000000000E+04  0.10566000000E+00 0.  1.
        994   -1    0    0    0    0 -0.00000000000E+00 -0.00000000000E+00  0.11368683772E-12  0.17120000000E+03  0.17120000000E+03 0.  0.
         13    1    1    2    0    0 -0.17067932408E+02 -0.12368711102E+02  0.66738585733E+02  0.69988208440E+02  0.10566000000E+00 0.  1.
        994    1    1    2    0    0  0.29978267482E+02  0.26110881820E+02  0.81537347971E+01  0.17594430386E+03  0.17120000000E+03 0.  0.
        998    1    1    2    0    0 -0.12910335074E+02 -0.13742170718E+02  0.14251076757E+04  0.14252674877E+04  0.10000000000E+02 0.  1.
</event>
<event>
 5    1  0.7732857E-009  0.3737059E+03  0.7957747E-01  0.3479031E+00
         13   -1    0    0    0    0  0.00000000000E+00  0.00000000000E+00  0.14999999963E+04  0.15000000000E+04  0.10566000000E+00 0.  1.
        994   -1    0    0    0    0 -0.00000000000E+00 -0.00000000000E+00  0.11368683772E-12  0.17120000000E+03  0.17120000000E+03 0.  0.
         13    1    1    2    0    0 -0.67922869556E+02  0.10814910155E+02  0.18700956669E+03  0.19925628645E+03  0.10566000000E+00 0.  1.
        994    1    1    2    0    0  0.30004469584E+02 -0.16499193456E+02  0.17076224646E+02  0.17542385536E+03  0.17120000000E+03 0.  0.
        998    1    1    2    0    0  0.37918399972E+02  0.56842833009E+01  0.12959142049E+04  0.12965198582E+04  0.10000000000E+02 0.  1.
</event>
<event>
 5    1  0.7732857E-009  0.3798199E+03  0.7957747E-01  0.3451943E+00
         13   -1    0    0    0    0  0.00000000000E+00  0.00000000000E+00  0.14999999963E+04  0.15000000000E+04  0.10566000000E+00 0.  1.
        994   -1    0    0    0    0 -0.00000000000E+00 -0.00000000000E+00  0.11368683772E-12  0.17120000000E+03  0.17120000000E+03 0.  0.
         13    1    1    2    0    0  0.61773567200E+01 -0.85120694931E+01  0.12093290733E+02  0.16027286354E+02  0.10566000000E+00 0.  1.
        994    1    1    2    0    0  0.58864233542E+01 -0.25456514488E+02  0.65109335577E+01  0.17330469228E+03  0.17120000000E+03 0.  0.
        998    1    1    2    0    0 -0.12063780074E+02  0.33968583981E+02  0.14813957720E+04  0.14818680214E+04  0.10000000000E+02 0.  1.
</event>
<event>
 5    1  0.7732857E-009  0.3789766E+03  0.7957747E-01  0.3455627E+00
         13   -1    0    0    0    0  0.00000000000E+00  0.00000000000E+00  0.14999999963E+04  0.15000000000E+04  0.10566000000E+00 0. -1.
        994   -1    0    0    0    0 -0.00000000000E+00 -0.00000000000E+00  0.11368683772E-12  0.17120000000E+03  0.17120000000E+03 0.  0.
         13    1    1    2    0    0  0.17008136956E+02  0.39165218947E+02  0.20566074800E+03  0.21004653182E+03  0.10566000000E+00 0. -1.
        994    1    1    2    0    0 -0.40831609898E+02 -0.26431604621E+01  0.10286937503E+02  0.17632205689E+03  0.17120000000E+03 0.  0.
        998    1    1    2    0    0  0.23823472942E+02 -0.36522058485E+02  0.12840523108E+04  0.12848314113E+04  0.10000000000E+02 0. -1.
</event>
<event>
 5    1  0.7732857E-009  0.3842102E+03  0.7957747E-01  0.3433029E+00
         13   -1    0    0    0    0  0.00000000000E+00  0.00000000000E+00  0.14999999963E+04  0.15000000000E+04  0.10566000000E+00 0. -1.
        994   -1    0    0    0    0 -0.00000000000E+00 -0.00000000000E+00  0.11368683772E-12  0.17120000000E+03  0.17120000000E+03 0.  0.
         13    1    1    2    0    0 -0.15174021167E+02 -0.86723341731E+01  0.75807510105E+02  0.77796208460E+02  0.10566000000E+00 0. -1.
        994    1    1    2    0    0  0.12003707602E+02 -0.92322488723E+00  0.25007861334E+01  0.17164100696E+03  0.17120000000E+03 0.  0.
        998    1    1    2    0    0  0.31703135650E+01  0.95955590603E+01  0.14216917000E+04  0.14217627846E+04  0.10000000000E+02 0. -1.
</event>
<event>
 5    1  0.7732857E-009  0.3835574E+03  0.7957747E-01  0.3435813E+00
         13   -1    0    0    0    0  0.00000000000E+00  0.00000000000E+00  0.14999999963E+04  0.15000000000E+04  0.10566000000E+00 0. -1.
        994   -1    0    0    0    0 -0.00000000000E+00 -0.00000000000E+00  0.11368683772E-12  0.17120000000E+03  0.17120000000E+03 0.  0.
         13    1    1    2    0    0 -0.17256579996E+02  0.36115875877E+00  0.60074647287E+02  0.62505154984E+02  0.10566000000E+00 0. -1.
        994    1    1    2    0    0  0.20064941057E+02  0.82905319439E+00  0.36816752572E+01  0.17241311992E+03  0.17120000000E+03 0.  0.
        998    1    1    2    0    0 -0.28083610611E+01 -0.11902119532E+01  0.14362436737E+04  0.14362817251E+04  0.10000000000E+02 0. -1.
</event>
<event>
 5    1  0.7732857E-009  0.3857947E+03  0.7957747E-01  0.3426309E+00
         13   -1    0    0    0    0  0.00000000000E+00  0.00000000000E+00  0.14999999963E+04  0.15000000000E+04  0.10566000000E+00 0. -1.
        994   -1    0    0    0    0 -0.00000000000E+00 -0.00000000000E+00  0.11368683772E-12  0.17120000000E+03  0.17120000000E+03 0.  0.
         13    1    1    2    0    0  0.10251904426E+02  0.86381394699E+01  0.79436718386E+02  0.80560054555E+02  0.10566000000E+00 0. -1.
        994    1    1    2    0    0  0.53584257942E+01 -0.48965854642E+01  0.14089517108E+01  0.17135960557E+03  0.17120000000E+03 0.  0.
        998    1    1    2    0    0 -0.15610330221E+02 -0.37415540057E+01  0.14191543262E+04  0.14192803399E+04  0.10000000000E+02 0. -1.
</event>
<event>
 5    1  0.7732857E-009  0.3847964E+03  0.7957747E-01  0.3430536E+00
         13   -1    0    0    0    0  0.00000000000E+00  0.00000000000E+00  0.14999999963E+04  0.15000000000E+04  0.10566000000E+00 0. -1.
        994   -1    0    0    0    0 -0.00000000000E+00 -0.00000000000E+00  0.11368683772E-12  0.17120000000E+03  0.17120000000E+03 0.  0.
         13    1    1    2    0    0  0.24399215046E+02  0.12316393333E+01  0.14066236060E+03  0.14276816691E+03  0.10566000000E+00 0. -1.
        994    1    1    2    0    0 -0.44842639240E+02  0.45455016313E+02  0.15265104802E+02  0.18335616768E+03  0.17120000000E+03 0.  0.
        998    1    1    2    0    0  0.20443424194E+02 -0.46686655646E+02  0.13440725309E+04  0.13450756654E+04  0.10000000000E+02 0. -1.
</event>
<event>
 5    1  0.7732857E-009  0.3853162E+03  0.7957747E-01  0.3428332E+00
         13   -1    0    0    0    0  0.00000000000E+00  0.00000000000E+00  0.14999999963E+04  0.15000000000E+04  0.10566000000E+00 0.  1.
        994   -1    0    0    0    0 -0.00000000000E+00 -0.00000000000E+00  0.11368683772E-12  0.17120000000E+03  0.17120000000E+03 0.  0.
         13    1    1    2    0    0 -0.32056254016E+01  0.11004483661E+02  0.44894481794E+02  0.46334656084E+02  0.10566000000E+00 0.  1.
        994    1    1    2    0    0 -0.66639863138E+01 -0.90454340364E+01  0.18880615046E+01  0.17157865067E+03  0.17120000000E+03 0.  0.
        998    1    1    2    0    0  0.98696117155E+01 -0.19590496243E+01  0.14532174530E+04  0.14532866932E+04  0.10000000000E+02 0.  1.
</event>
<event>
 5    1  0.7732857E-009  0.3838940E+03  0.7957747E-01  0.3434376E+00
         13   -1    0    0    0    0  0.00000000000E+00  0.00000000000E+00  0.14999999963E+04  0.15000000000E+04  0.10566000000E+00 0. -1.
        994   -1    0    0    0    0 -0.00000000000E+00 -0.00000000000E+00  0.11368683772E-12  0.17120000000E+03  0.17120000000E+03 0.  0.
         13    1    1    2    0    0  0.96734800896E+01  0.17740605684E+02  0.86507441953E+02  0.88836107436E+02  0.10566000000E+00 0. -1.
        994    1    1    2    0    0 -0.12145045647E+02 -0.21377720618E+02  0.41779486610E+01  0.17300694878E+03  0.17120000000E+03 0.  0.
        998    1    1    2    0    0  0.24715655576E+01  0.36371149342E+01  0.14093146057E+04  0.14093569438E+04  0.10000000000E+02 0. -1.
</event>
<event>
 5    1  0.7732857E-009  0.4175094E+03  0.7957747E-01  0.3302507E+00
         13   -1    0    0    0    0  0.00000000000E+00  0.00000000000E+00  0.14999999963E+04  0.15000000000E+04  0.10566000000E+00 0. -1.
        994   -1    0    0    0    0 -0.00000000000E+00 -0.00000000000E+00  0.11368683772E-12  0.17120000000E+03  0.17120000000E+03 0.  0.
         13    1    1    2    0    0  0.21251288093E+02  0.42962082685E+02  0.15723104069E+02  0.50443879310E+02  0.10566000000E+00 0. -1.
        994    1    1    2    0    0 -0.13314229350E+02 -0.29694333136E+02  0.43171884378E+02  0.17953348914E+03  0.17120000000E+03 0.  0.
        998    1    1    2    0    0 -0.79370587433E+01 -0.13267749549E+02  0.14411050078E+04  0.14412226315E+04  0.10000000000E+02 0. -1.
</event>
<event>
 5    1  0.7732857E-009  0.3689389E+03  0.7957747E-01  0.3500782E+00
         13   -1    0    0    0    0  0.00000000000E+00  0.00000000000E+00  0.14999999963E+04  0.15000000000E+04  0.10566000000E+00 0.  1.
        994   -1    0    0    0    0 -0.00000000000E+00 -0.00000000000E+00  0.11368683772E-12  0.17120000000E+03  0.17120000000E+03 0.  0.
         13    1    1    2    0    0  0.19586120104E+02 -0.12623692067E+02  0.23357296664E+02  0.32993153435E+02  0.10566000000E+00 0.  1.
        994    1    1    2    0    0 -0.15529921512E+02  0.11505524870E+02  0.11122175075E+02  0.17264616516E+03  0.17120000000E+03 0.  0.
        998    1    1    2    0    0 -0.40561985913E+01  0.11181671969E+01  0.14655205245E+04  0.14655606814E+04  0.10000000000E+02 0.  0.
</event>
<event>
 5    1  0.7732857E-009  0.3854988E+03  0.7957747E-01  0.3427559E+00
         13   -1    0    0    0    0  0.00000000000E+00  0.00000000000E+00  0.14999999963E+04  0.15000000000E+04  0.10566000000E+00 0. -1.
        994   -1    0    0    0    0 -0.00000000000E+00 -0.00000000000E+00  0.11368683772E-12  0.17120000000E+03  0.17120000000E+03 0.  0.
         13    1    1    2    0    0 -0.90260188498E+01  0.85039607311E+01  0.56164914877E+02  0.57517781525E+02  0.10566000000E+00 0. -1.
        994    1    1    2    0    0  0.34481179882E+01 -0.72621569651E+01  0.15949196785E+01  0.17139606825E+03  0.17120000000E+03 0.  0.
        998    1    1    2    0    0  0.55779008615E+01 -0.12418037660E+01  0.14422401617E+04  0.14422861502E+04  0.10000000000E+02 0. -1.
</event>
<event>
 5    1  0.7732857E-009  0.3828814E+03  0.7957747E-01  0.3438707E+00
         13   -1    0    0    0    0  0.00000000000E+00  0.00000000000E+00  0.14999999963E+04  0.15000000000E+04  0.10566000000E+00 0. -1.
        994   -1    0    0    0    0 -0.00000000000E+00 -0.00000000000E+00  0.11368683772E-12  0.17120000000E+03  0.17120000000E+03 0.  0.
         13    1    1    2    0    0  0.97015548814E+01 -0.21885670907E+02  0.99741257208E+02  0.10257403332E+03  0.10566000000E+00 0. -1.
        994    1    1    2    0    0  0.14587368286E+02  0.34194483323E+02  0.72756691579E+01  0.17534089473E+03  0.17120000000E+03 0.  0.
        998    1    1    2    0    0 -0.24288923167E+02 -0.12308812416E+02  0.13929830699E+04  0.13932850719E+04  0.10000000000E+02 0. -1.
</event>
<event>
 5    1  0.7732857E-009  0.3017199E+03  0.7957747E-01  0.3883816E+00
         13   -1    0    0    0    0  0.00000000000E+00  0.00000000000E+00  0.14999999963E+04  0.15000000000E+04  0.10566000000E+00 0.  1.
        994   -1    0    0    0    0 -0.00000000000E+00 -0.00000000000E+00  0.11368683772E-12  0.17120000000E+03  0.17120000000E+03 0.  0.
         13    1    1    2    0    0  0.81452832537E+02  0.14054357867E+03  0.51851309647E+02  0.17051577906E+03  0.10566000000E+00 0.  1.
        994    1    1    2    0    0 -0.88894464959E+02 -0.20481154005E+03  0.77737081634E+03  0.82671931085E+03  0.17120000000E+03 0.  0.
        998    1    1    2    0    0  0.74416324222E+01  0.64267961377E+02  0.67077787029E+03  0.67396491009E+03  0.10000000000E+02 0.  1.
</event>
<event>
 5    1  0.7732857E-009  0.3906972E+03  0.7957747E-01  0.3405863E+00
         13   -1    0    0    0    0  0.00000000000E+00  0.00000000000E+00  0.14999999963E+04  0.15000000000E+04  0.10566000000E+00 0.  1.
        994   -1    0    0    0    0 -0.00000000000E+00 -0.00000000000E+00  0.11368683772E-12  0.17120000000E+03  0.17120000000E+03 0.  0.
         13    1    1    2    0    0 -0.16232520723E+02  0.56721369829E+02  0.77877039774E+02  0.97701857773E+02  0.10566000000E+00 0.  1.
        994    1    1    2    0    0 -0.43995910344E+02 -0.16599465531E+02  0.30720074261E+02  0.18017864842E+03  0.17120000000E+03 0.  0.
        998    1    1    2    0    0  0.60228431068E+02 -0.40121904297E+02  0.13914028822E+04  0.13933194938E+04  0.10000000000E+02 0.  1.
</event>
<event>
 5    1  0.7732857E-009  0.2875856E+03  0.7957747E-01  0.3988837E+00
         13   -1    0    0    0    0  0.00000000000E+00  0.00000000000E+00  0.14999999963E+04  0.15000000000E+04  0.10566000000E+00 0. -1.
        994   -1    0    0    0    0 -0.00000000000E+00 -0.00000000000E+00  0.11368683772E-12  0.17120000000E+03  0.17120000000E+03 0.  0.
         13    1    1    2    0    0 -0.15136559477E+03  0.96089605649E+02  0.56859193766E+03  0.59618919676E+03  0.10566000000E+00 0. -1.
        994    1    1    2    0    0  0.12604008508E+03 -0.12324744588E+03  0.14029420768E+03  0.28296279026E+03  0.17120000000E+03 0.  0.
        998    1    1    2    0    0  0.25325509690E+02  0.27157840227E+02  0.79111385094E+03  0.79204801298E+03  0.10000000000E+02 0. -1.
</event>
<event>
 5    1  0.7732857E-009  0.3780699E+03  0.7957747E-01  0.3459606E+00
         13   -1    0    0    0    0  0.00000000000E+00  0.00000000000E+00  0.14999999963E+04  0.15000000000E+04  0.10566000000E+00 0. -1.
        994   -1    0    0    0    0 -0.00000000000E+00 -0.00000000000E+00  0.11368683772E-12  0.17120000000E+03  0.17120000000E+03 0.  0.
         13    1    1    2    0    0  0.19581711744E+02  0.46577980739E+02  0.27721824106E+03  0.28178523039E+03  0.10566000000E+00 0. -1.
        994    1    1    2    0    0 -0.20213348376E+01 -0.15857030626E+02  0.59707796832E+01  0.17204831131E+03  0.17120000000E+03 0.  0.
        998    1    1    2    0    0 -0.17560376907E+02 -0.30720950113E+02  0.12168109755E+04  0.12173664583E+04  0.10000000000E+02 0. -1.
</event>
<event>
 5    1  0.7732857E-009  0.3745263E+03  0.7957747E-01  0.3475344E+00
         13   -1    0    0    0    0  0.00000000000E+00  0.00000000000E+00  0.14999999963E+04  0.15000000000E+04  0.10566000000E+00 0.  1.
        994   -1    0    0    0    0 -0.00000000000E+00 -0.00000000000E+00  0.11368683772E-12  0.17120000000E+03  0.17120000000E+03 0.  0.
         13    1    1    2    0    0  0.44840544305E+01 -0.31288115239E+02  0.31964980250E+02  0.44953576340E+02  0.10566000000E+00 0.  1.
        994    1    1    2    0    0 -0.11019974637E+02  0.22632291793E+02  0.15606620302E+02  0.17374310654E+03  0.17120000000E+03 0.  0.
        998    1    1    2    0    0  0.65359202061E+01  0.86558234461E+01  0.14524283957E+04  0.14525033171E+04  0.10000000000E+02 0.  1.
</event>
<event>
 5    1  0.7732857E-009  0.3887148E+03  0.7957747E-01  0.3414069E+00
         13   -1    0    0    0    0  0.00000000000E+00  0.00000000000E+00  0.14999999963E+04  0.15000000000E+04  0.10566000000E+00 0. -1.
        994   -1    0    0    0    0 -0.00000000000E+00 -0.00000000000E+00  0.11368683772E-12  0.17120000000E+03  0.17120000000E+03 0.  0.
         13    1    1    2    0    0  0.89344791942E+02  0.74779786668E+02  0.25067998679E+03  0.27643258723E+03  0.10566000000E+00 0. -1.
        994    1    1    2    0    0 -0.95471763522E+02 -0.75365130499E+02  0.78982813820E+02  0.22437131146E+03  0.17120000000E+03 0.  0.
        998    1    1    2    0    0  0.61269715807E+01  0.58534383060E+00  0.11703371957E+04  0.11703961013E+04  0.10000000000E+02 0. -1.
</event>
<event>
 5    1  0.7732857E-009  0.3859188E+03  0.7957747E-01  0.3425785E+00
         13   -1    0    0    0    0  0.00000000000E+00  0.00000000000E+00  0.14999999963E+04  0.15000000000E+04  0.10566000000E+00 0.  1.
        994   -1    0    0    0    0 -0.00000000000E+00 -0.00000000000E+00  0.11368683772E-12  0.17120000000E+03  0.17120000000E+03 0.  0.
         13    1    1    2    0    0  0.12467267740E+03 -0.12252544290E+02  0.30645384714E+03  0.33107004232E+03  0.10566000000E+00 0.  1.
        994    1    1    2    0    0 -0.12443031063E+03  0.88167243997E+01  0.79838296964E+02  0.22637188539E+03  0.17120000000E+03 0.  0.
        998    1    1    2    0    0 -0.24236677049E+00  0.34358198904E+01  0.11137078522E+04  0.11137580723E+04  0.10000000000E+02 0.  1.
</event>
<event>
 5    1  0.7732857E-009  0.3756463E+03  0.7957747E-01  0.3470337E+00
         13   -1    0    0    0    0  0.00000000000E+00  0.00000000000E+00  0.14999999963E+04  0.15000000000E+04  0.10566000000E+00 0.  1.
        994   -1    0    0    0    0 -0.00000000000E+00 -0.00000000000E+00  0.11368683772E-12  0.17120000000E+03  0.17120000000E+03 0.  0.
         13    1    1    2    0    0  0.56656973061E+01  0.32173092506E+02  0.81787806613E+02  0.88070792446E+02  0.10566000000E+00 0.  1.
        994    1    1    2    0    0  0.10864944169E+02 -0.22576356295E+02  0.84793081848E+01  0.17323128338E+03  0.17120000000E+03 0.  0.
        998    1    1    2    0    0 -0.16530641475E+02 -0.95967362109E+01  0.14097328815E+04  0.14098979242E+04  0.10000000000E+02 0.  1.
</event>
<event>
 5    1  0.7732857E-009  0.3795375E+03  0.7957747E-01  0.3453175E+00
         13   -1    0    0    0    0  0.00000000000E+00  0.00000000000E+00  0.14999999963E+04  0.15000000000E+04  0.10566000000E+00 0.  1.
        994   -1    0    0    0    0 -0.00000000000E+00 -0.00000000000E+00  0.11368683772E-12  0.17120000000E+03  0.17120000000E+03 0.  0.
         13    1    1    2    0    0  0.11446474317E+03  0.55969630293E+02  0.60667681199E+03  0.61991252796E+03  0.10566000000E+00 0.  1.
        994    1    1    2    0    0 -0.17796404591E+03  0.98308028784E+02  0.18580626398E+03  0.32429782283E+03  0.17120000000E+03 0.  0.
        998    1    1    2    0    0  0.63499302737E+02 -0.15427765908E+03  0.70751692030E+03  0.72698964921E+03  0.10000000000E+02 0. -1.
</event>
<event>
 5    1  0.7732857E-009  0.3844040E+03  0.7957747E-01  0.3432204E+00
         13   -1    0    0    0    0  0.00000000000E+00  0.00000000000E+00  0.14999999963E+04  0.15000000000E+04  0.10566000000E+00 0.  1.
        994   -1    0    0    0    0 -0.00000000000E+00 -0.00000000000E+00  0.11368683772E-12  0.17120000000E+03  0.17120000000E+03 0.  0.
         13    1    1    2    0    0 -0.12197794607E+02 -0.72486768993E+01  0.53936876624E+02  0.55772101754E+02  0.10566000000E+00 0.  1.
        994    1    1    2    0    0 -0.46952644580E+01  0.13031595403E+02  0.25587906532E+01  0.17177850679E+03  0.17120000000E+03 0.  0.
        998    1    1    2    0    0  0.16893059065E+02 -0.57829185038E+01  0.14435043290E+04  0.14436493915E+04  0.10000000000E+02 0.  1.
</event>
<event>
 5    1  0.7732857E-009  0.3836716E+03  0.7957747E-01  0.3435326E+00
         13   -1    0    0    0    0  0.00000000000E+00  0.00000000000E+00  0.14999999963E+04  0.15000000000E+04  0.10566000000E+00 0. -1.
        994   -1    0    0    0    0 -0.00000000000E+00 -0.00000000000E+00  0.11368683772E-12  0.17120000000E+03  0.17120000000E+03 0.  0.
         13    1    1    2    0    0 -0.16255231719E+02 -0.12385390776E+01  0.58842651808E+02  0.61059277535E+02  0.10566000000E+00 0. -1.
        994    1    1    2    0    0  0.56138215280E+01  0.59931231078E+01  0.25138494832E+01  0.17141526174E+03  0.17120000000E+03 0.  0.
        998    1    1    2    0    0  0.10641410191E+02 -0.47545840302E+01  0.14386434950E+04  0.14387254607E+04  0.10000000000E+02 0. -1.
</event>
<event>
 5    1  0.7732857E-009  0.3688045E+03  0.7957747E-01  0.3501403E+00
         13   -1    0    0    0    0  0.00000000000E+00  0.00000000000E+00  0.14999999963E+04  0.15000000000E+04  0.10566000000E+00 0. -1.
        994   -1    0    0    0    0 -0.00000000000E+00 -0.00000000000E+00  0.11368683772E-12  0.17120000000E+03  0.17120000000E+03 0.  0.
         13    1    1    2    0    0  0.15534640052E+03  0.14643111090E+03  0.79502074596E+03  0.82318440951E+03  0.10566000000E+00 0. -1.
        994    1    1    2    0    0 -0.18632708743E+03 -0.12105724085E+03  0.20770711804E+03  0.34903341667E+03  0.17120000000E+03 0.  0.
        998    1    1    2    0    0  0.30980686911E+02 -0.25373870053E+02  0.49727213228E+03  0.49898217381E+03  0.10000000000E+02 0. -1.
</event>
<event>
 5    1  0.7732857E-009  0.3844972E+03  0.7957747E-01  0.3431807E+00
         13   -1    0    0    0    0  0.00000000000E+00  0.00000000000E+00  0.14999999963E+04  0.15000000000E+04  0.10566000000E+00 0. -1.
        994   -1    0    0    0    0 -0.00000000000E+00 -0.00000000000E+00  0.11368683772E-12  0.17120000000E+03  0.17120000000E+03 0.  0.
         13    1    1    2    0    0 -0.12909133050E+01 -0.12713479645E+02  0.43050987246E+02  0.44907657351E+02  0.10566000000E+00 0. -1.
        994    1    1    2    0    0 -0.87578668950E+01  0.98843694179E+01  0.24546420210E+01  0.17172613738E+03  0.17120000000E+03 0.  0.
        998    1    1    2    0    0  0.10048780200E+02  0.28291102271E+01  0.14544943670E+04  0.14545662053E+04  0.10000000000E+02 0. -1.
</event>
<event>
 5    1  0.7732857E-009  0.3087158E+03  0.7957747E-01  0.3835696E+00
         13   -1    0    0    0    0  0.00000000000E+00  0.00000000000E+00  0.14999999963E+04  0.15000000000E+04  0.10566000000E+00 0.  1.
        994   -1    0    0    0    0 -0.00000000000E+00 -0.00000000000E+00  0.11368683772E-12  0.17120000000E+03  0.17120000000E+03 0.  0.
         13    1    1    2    0    0 -0.19161915225E+03 -0.14102926213E+03  0.45613720911E+03  0.51445924716E+03  0.10566000000E+00 0.  1.
        994    1    1    2    0    0  0.21065240574E+03  0.16970133549E+03  0.40207002906E+03  0.51394817596E+03  0.17120000000E+03 0.  0.
        998    1    1    2    0    0 -0.19033253485E+02 -0.28672073356E+02  0.64179275811E+03  0.64279257688E+03  0.10000000000E+02 0. -1.
</event>
<event>
 5    1  0.7732857E-009  0.3752760E+03  0.7957747E-01  0.3471989E+00
         13   -1    0    0    0    0  0.00000000000E+00  0.00000000000E+00  0.14999999963E+04  0.15000000000E+04  0.10566000000E+00 0.  1.
        994   -1    0    0    0    0 -0.00000000000E+00 -0.00000000000E+00  0.11368683772E-12  0.17120000000E+03  0.17120000000E+03 0.  0.
         13    1    1    2    0    0 -0.46151343654E+02 -0.20987238163E+02  0.15460184259E+03  0.16270264774E+03  0.10566000000E+00 0.  1.
        994    1    1    2    0    0  0.66150655885E+02  0.33519943909E+02  0.25448842251E+02  0.18829917548E+03  0.17120000000E+03 0.  0.
        998    1    1    2    0    0 -0.19999312230E+02 -0.12532705747E+02  0.13199493114E+04  0.13201981768E+04  0.10000000000E+02 0.  1.
</event>
<event>
 5    1  0.7732857E-009  0.3808767E+03  0.7957747E-01  0.3447350E+00
         13   -1    0    0    0    0  0.00000000000E+00  0.00000000000E+00  0.14999999963E+04  0.15000000000E+04  0.10566000000E+00 0.  1.
        994   -1    0    0    0    0 -0.00000000000E+00 -0.00000000000E+00  0.11368683772E-12  0.17120000000E+03  0.17120000000E+03 0.  0.
         13    1    1    2    0    0 -0.11407167282E+02  0.74800339819E+01  0.24317711264E+02  0.27882550438E+02  0.10566000000E+00 0.  1.
        994    1    1    2    0    0 -0.13939357832E+02 -0.23097829427E+02  0.61210468191E+01  0.17342065227E+03  0.17120000000E+03 0.  0.
        998    1    1    2    0    0  0.25346525115E+02  0.15617795445E+02  0.14695612382E+04  0.14698967973E+04  0.10000000000E+02 0.  1.
</event>
<event>
 5    1  0.7732857E-009  0.3723799E+03  0.7957747E-01  0.3485025E+00
         13   -1    0    0    0    0  0.00000000000E+00  0.00000000000E+00  0.14999999963E+04  0.15000000000E+04  0.10566000000E+00 0.  1.
        994   -1    0    0    0    0 -0.00000000000E+00 -0.00000000000E+00  0.11368683772E-12  0.17120000000E+03  0.17120000000E+03 0.  0.
         13    1    1    2    0    0 -0.11051025225E+02  0.50221448116E+01  0.53712628981E+01  0.13274363495E+02  0.10566000000E+00 0.  1.
        994    1    1    2    0    0  0.15023208377E+02 -0.82792926482E+01  0.90401731474E+01  0.17229453911E+03  0.17120000000E+03 0.  0.
        998    1    1    2    0    0 -0.39721831516E+01  0.32571478366E+01  0.14855885602E+04  0.14856310974E+04  0.10000000000E+02 0.  1.
</event>
<event>
 5    1  0.7732857E-009  0.3843576E+03  0.7957747E-01  0.3432401E+00
         13   -1    0    0    0    0  0.00000000000E+00  0.00000000000E+00  0.14999999963E+04  0.15000000000E+04  0.10566000000E+00 0.  1.
        994   -1    0    0    0    0 -0.00000000000E+00 -0.00000000000E+00  0.11368683772E-12  0.17120000000E+03  0.17120000000E+03 0.  0.
         13    1    1    2    0    0  0.20262442827E+02  0.38481538014E+01  0.10127456623E+03  0.10335339281E+03  0.10566000000E+00 0.  1.
        994    1    1    2    0    0 -0.21045941332E+02 -0.12894520722E+02  0.39595981627E+01  0.17301537137E+03  0.17120000000E+03 0.  0.
        998    1    1    2    0    0  0.78349850567E+00  0.90463669206E+01  0.13947658319E+04  0.13948312358E+04  0.10000000000E+02 0.  1.
</event>
<event>
 5    1  0.8105914E-009  0.3850440E+03  0.7957747E-01  0.3429485E+00
         13   -1    0    0    0    0  0.00000000000E+00  0.00000000000E+00  0.14999999963E+04  0.15000000000E+04  0.10566000000E+00 0.  1.
        994   -1    0    0    0    0 -0.00000000000E+00 -0.00000000000E+00  0.11368683772E-12  0.17120000000E+03  0.17120000000E+03 0.  0.
         13    1    1    2    0    0 -0.34431993608E+01 -0.17465323002E+02  0.98027162358E+02  0.99630461473E+02  0.10566000000E+00 0.  1.
        994    1    1    2    0    0 -0.64139259592E+00  0.12522647947E+02  0.21254356515E+01  0.17167173784E+03  0.17120000000E+03 0.  0.
        998    1    1    2    0    0  0.40845919567E+01  0.49426750556E+01  0.13998473983E+04  0.13998978007E+04  0.10000000000E+02 0.  1.
</event>
<event>
 5    1  0.7732857E-009  0.3842032E+03  0.7957747E-01  0.3433059E+00
         13   -1    0    0    0    0  0.00000000000E+00  0.00000000000E+00  0.14999999963E+04  0.15000000000E+04  0.10566000000E+00 0. -1.
        994   -1    0    0    0    0 -0.00000000000E+00 -0.00000000000E+00  0.11368683772E-12  0.17120000000E+03  0.17120000000E+03 0.  0.
         13    1    1    2    0    0  0.39332866576E+01  0.22014145379E+02  0.12504101995E+03  0.12702504152E+03  0.10566000000E+00 0. -1.
        994    1    1    2    0    0 -0.21310396509E+01 -0.11592002045E+02  0.24844164812E+01  0.17162321570E+03  0.17120000000E+03 0.  0.
        998    1    1    2    0    0 -0.18022470067E+01 -0.10422143334E+02  0.13724745599E+04  0.13725517428E+04  0.10000000000E+02 0. -1.
</event>
<event>
 5    1  0.7732857E-009  0.3811411E+03  0.7957747E-01  0.3446205E+00
         13   -1    0    0    0    0  0.00000000000E+00  0.00000000000E+00  0.14999999963E+04  0.15000000000E+04  0.10566000000E+00 0.  1.
        994   -1    0    0    0    0 -0.00000000000E+00 -0.00000000000E+00  0.11368683772E-12  0.17120000000E+03  0.17120000000E+03 0.  0.
         13    1    1    2    0    0  0.91089282752E+01 -0.87529032502E+01  0.20755121947E+02  0.24297574790E+02  0.10566000000E+00 0.  1.
        994    1    1    2    0    0 -0.10785725439E+02  0.71116885077E+01  0.41142726934E+01  0.17173606268E+03  0.17120000000E+03 0.  0.
        998    1    1    2    0    0  0.16767971635E+01  0.16412147424E+01  0.14751306016E+04  0.14751663625E+04  0.10000000000E+02 0.  1.
</event>
<event>
 5    1  0.7732857E-009  0.3847666E+03  0.7957747E-01  0.3430663E+00
         13   -1    0    0    0    0  0.00000000000E+00  0.00000000000E+00  0.14999999963E+04  0.15000000000E+04  0.10566000000E+00 0. -1.
        994   -1    0    0    0    0 -0.00000000000E+00 -0.00000000000E+00  0.11368683772E-12  0.17120000000E+03  0.17120000000E+03 0.  0.
         13    1    1    2    0    0 -0.95700478669E+01  0.97506777243E+01  0.51606892392E+02  0.53384867132E+02  0.10566000000E+00 0. -1.
        994    1    1    2    0    0  0.72116988071E+01 -0.13987380234E+02  0.25615361691E+01  0.17194085283E+03  0.17120000000E+03 0.  0.
        998    1    1    2    0    0  0.23583490599E+01  0.42367025101E+01  0.14458315677E+04  0.14458742800E+04  0.10000000000E+02 0. -1.
</event>
<event>
 5    1  0.7732857E-009  0.3777401E+03  0.7957747E-01  0.3461058E+00
         13   -1    0    0    0    0  0.00000000000E+00  0.00000000000E+00  0.14999999963E+04  0.15000000000E+04  0.10566000000E+00 0. -1.
        994   -1    0    0    0    0 -0.00000000000E+00 -0.00000000000E+00  0.11368683772E-12  0.17120000000E+03  0.17120000000E+03 0.  0.
         13    1    1    2    0    0  0.69942368076E+01  0.78729783137E+01  0.81205212563E+01  0.13298765565E+02  0.10566000000E+00 0. -1.
        994    1    1    2    0    0  0.49455301511E+00 -0.10131982346E+02  0.56249522714E+01  0.17159248741E+03  0.17120000000E+03 0.  0.
        998    1    1    2    0    0 -0.74887898227E+01  0.22590040325E+01  0.14862545228E+04  0.14863087470E+04  0.10000000000E+02 0. -1.
</event>
<event>
 5    1  0.7732857E-009  0.3789225E+03  0.7957747E-01  0.3455864E+00
         13   -1    0    0    0    0  0.00000000000E+00  0.00000000000E+00  0.14999999963E+04  0.15000000000E+04  0.10566000000E+00 0. -1.
        994   -1    0    0    0    0 -0.00000000000E+00 -0.00000000000E+00  0.11368683772E-12  0.17120000000E+03  0.17120000000E+03 0.  0.
         13    1    1    2    0    0 -0.25281905047E+02 -0.30102028416E+01  0.72105093469E+02  0.76468239891E+02  0.10566000000E+00 0. -1.
        994    1    1    2    0    0  0.13111834575E+01 -0.53031254971E+01  0.47781805095E+01  0.17135376667E+03  0.17120000000E+03 0.  0.
        998    1    1    2    0    0  0.23970721589E+02  0.83133283387E+01  0.14231167223E+04  0.14233779934E+04  0.10000000000E+02 0. -1.
</event>
<event>
 5    1  0.7732857E-009  0.3202460E+03  0.7957747E-01  0.3761305E+00
         13   -1    0    0    0    0  0.00000000000E+00  0.00000000000E+00  0.14999999963E+04  0.15000000000E+04  0.10566000000E+00 0. -1.
        994   -1    0    0    0    0 -0.00000000000E+00 -0.00000000000E+00  0.11368683772E-12  0.17120000000E+03  0.17120000000E+03 0.  0.
         13    1    1    2    0    0  0.10286956063E+03 -0.13205733897E+03  0.88049389206E+03  0.89626491196E+03  0.10566000000E+00 0. -1.
        994    1    1    2    0    0 -0.88904892046E+02  0.90731440761E+02  0.71126681677E+02  0.22473254998E+03  0.17120000000E+03 0.  0.
        998    1    1    2    0    0 -0.13964668584E+02  0.41325898213E+02  0.54837942254E+03  0.55020253807E+03  0.10000000000E+02 0. -1.
</event>
<event>
 5    1  0.7732857E-009  0.3823858E+03  0.7957747E-01  0.3440836E+00
         13   -1    0    0    0    0  0.00000000000E+00  0.00000000000E+00  0.14999999963E+04  0.15000000000E+04  0.10566000000E+00 0.  1.
        994   -1    0    0    0    0 -0.00000000000E+00 -0.00000000000E+00  0.11368683772E-12  0.17120000000E+03  0.17120000000E+03 0.  0.
         13    1    1    2    0    0  0.10056356468E+02  0.13134920065E+02  0.46596258012E+02  0.49445716248E+02  0.10566000000E+00 0.  1.
        994    1    1    2    0    0 -0.77651756980E+01 -0.17926535886E+01  0.31443220365E+01  0.17141423022E+03  0.17120000000E+03 0.  0.
        998    1    1    2    0    0 -0.22911807697E+01 -0.11342266476E+02  0.14502594162E+04  0.14503400535E+04  0.10000000000E+02 0.  1.
</event>
<event>
 5    1  0.7732857E-009  0.3814380E+03  0.7957747E-01  0.3444921E+00
         13   -1    0    0    0    0  0.00000000000E+00  0.00000000000E+00  0.14999999963E+04  0.15000000000E+04  0.10566000000E+00 0. -1.
        994   -1    0    0    0    0 -0.00000000000E+00 -0.00000000000E+00  0.11368683772E-12  0.17120000000E+03  0.17120000000E+03 0.  0.
         13    1    1    2    0    0 -0.46094413336E+01 -0.29498910061E+02  0.13362675476E+03  0.13692170535E+03  0.10566000000E+00 0. -1.
        994    1    1    2    0    0 -0.25054494855E+01  0.13728293005E+02  0.40572315084E+01  0.17181572813E+03  0.17120000000E+03 0.  0.
        998    1    1    2    0    0  0.71148908191E+01  0.15770617056E+02  0.13623160100E+04  0.13624625665E+04  0.10000000000E+02 0. -1.
</event>
<event>
 5    1  0.7732857E-009  0.3851805E+03  0.7957747E-01  0.3428907E+00
         13   -1    0    0    0    0  0.00000000000E+00  0.00000000000E+00  0.14999999963E+04  0.15000000000E+04  0.10566000000E+00 0. -1.
        994   -1    0    0    0    0 -0.00000000000E+00 -0.00000000000E+00  0.11368683772E-12  0.17120000000E+03  0.17120000000E+03 0.  0.
         13    1    1    2    0    0  0.13417373637E+02  0.69859979345E+01  0.68551059733E+02  0.70200349266E+02  0.10566000000E+00 0. -1.
        994    1    1    2    0    0 -0.30212521645E+02  0.82561982288E+01  0.47713650971E+01  0.17410676954E+03  0.17120000000E+03 0.  0.
        998    1    1    2    0    0  0.16795148008E+02 -0.15242196163E+02  0.14266775714E+04  0.14268928812E+04  0.10000000000E+02 0. -1.
</event>
<event>
 5    1  0.7732857E-009  0.3775872E+03  0.7957747E-01  0.3461732E+00
         13   -1    0    0    0    0  0.00000000000E+00  0.00000000000E+00  0.14999999963E+04  0.15000000000E+04  0.10566000000E+00 0. -1.
        994   -1    0    0    0    0 -0.00000000000E+00 -0.00000000000E+00  0.11368683772E-12  0.17120000000E+03  0.17120000000E+03 0.  0.
         13    1    1    2    0    0 -0.61561634716E+02  0.53239873768E+02  0.43256975385E+03  0.44016010966E+03  0.10566000000E+00 0. -1.
        994    1    1    2    0    0  0.64111497944E+02 -0.51509840728E+02  0.28498057284E+02  0.19205501069E+03  0.17120000000E+03 0.  0.
        998    1    1    2    0    0 -0.25498632285E+01 -0.17300330406E+01  0.10389321851E+04  0.10389848797E+04  0.10000000000E+02 0.  0.
</event>
<event>
 5    1  0.7732857E-009  0.3834360E+03  0.7957747E-01  0.3436332E+00
         13   -1    0    0    0    0  0.00000000000E+00  0.00000000000E+00  0.14999999963E+04  0.15000000000E+04  0.10566000000E+00 0.  1.
        994   -1    0    0    0    0 -0.00000000000E+00 -0.00000000000E+00  0.11368683772E-12  0.17120000000E+03  0.17120000000E+03 0.  0.
         13    1    1    2    0    0 -0.21315294157E+02 -0.51730793662E+01  0.92655695225E+02  0.95216550750E+02  0.10566000000E+00 0.  1.
        994    1    1    2    0    0  0.29347376335E+02 -0.13953250155E+02  0.59068451904E+01  0.17435679656E+03  0.17120000000E+03 0.  0.
        998    1    1    2    0    0 -0.80320821777E+01  0.19126329521E+02  0.14014374559E+04  0.14016266527E+04  0.10000000000E+02 0.  1.
</event>
<event>
 5    1  0.7732857E-009  0.3750366E+03  0.7957747E-01  0.3473059E+00
         13   -1    0    0    0    0  0.00000000000E+00  0.00000000000E+00  0.14999999963E+04  0.15000000000E+04  0.10566000000E+00 0. -1.
        994   -1    0    0    0    0 -0.00000000000E+00 -0.00000000000E+00  0.11368683772E-12  0.17120000000E+03  0.17120000000E+03 0.  0.
         13    1    1    2    0    0 -0.75952980834E+01  0.10353326994E+02  0.94175551801E+01  0.15924240718E+02  0.10566000000E+00 0. -1.
        994    1    1    2    0    0  0.29458336671E+01 -0.71268323966E+01  0.68621003379E+01  0.17151092705E+03  0.17120000000E+03 0.  0.
        998    1    1    2    0    0  0.46494644163E+01 -0.32264945978E+01  0.14837203408E+04  0.14837648322E+04  0.10000000000E+02 0. -1.
</event>
<event>
 5    1  0.1260658E-008  0.3856191E+03  0.7957747E-01  0.3427051E+00
         13   -1    0    0    0    0  0.00000000000E+00  0.00000000000E+00  0.14999999963E+04  0.15000000000E+04  0.10566000000E+00 0.  1.
        994   -1    0    0    0    0 -0.00000000000E+00 -0.00000000000E+00  0.11368683772E-12  0.17120000000E+03  0.17120000000E+03 0.  0.
         13    1    1    2    0    0 -0.93097764620E+01 -0.39059089615E+01  0.37578843334E+02  0.38911549608E+02  0.10566000000E+00 0.  1.
        994    1    1    2    0    0  0.11638359220E+02  0.39561488258E+01  0.18191685271E+01  0.17165037691E+03  0.17120000000E+03 0.  0.
        998    1    1    2    0    0 -0.23285827582E+01 -0.50239864263E-01  0.14606019844E+04  0.14606380735E+04  0.10000000000E+02 0.  1.
</event>
<event>
 5    1  0.7732857E-009  0.3858343E+03  0.7957747E-01  0.3426142E+00
         13   -1    0    0    0    0  0.00000000000E+00  0.00000000000E+00  0.14999999963E+04  0.15000000000E+04  0.10566000000E+00 0.  1.
        994   -1    0    0    0    0 -0.00000000000E+00 -0.00000000000E+00  0.11368683772E-12  0.17120000000E+03  0.17120000000E+03 0.  0.
         13    1    1    2    0    0  0.69828319814E+01  0.97344245284E+01  0.59606549818E+02  0.60798609430E+02  0.10566000000E+00 0.  1.
        994    1    1    2    0    0 -0.14696078638E+01 -0.86088482932E+01  0.14666921489E+01  0.17142888672E+03  0.17120000000E+03 0.  0.
        998    1    1    2    0    0 -0.55132241176E+01 -0.11255762352E+01  0.14389267543E+04  0.14389725038E+04  0.10000000000E+02 0.  1.
</event>
<event>
 5    1  0.7732857E-009  0.3949212E+03  0.7957747E-01  0.3388655E+00
         13   -1    0    0    0    0  0.00000000000E+00  0.00000000000E+00  0.14999999963E+04  0.15000000000E+04  0.10566000000E+00 0.  1.
        994   -1    0    0    0    0 -0.00000000000E+00 -0.00000000000E+00  0.11368683772E-12  0.17120000000E+03  0.17120000000E+03 0.  0.
         13    1    1    2    0    0 -0.78043987631E+02 -0.11029431652E+03  0.26537538105E+03  0.29779154504E+03  0.10566000000E+00 0.  1.
        994    1    1    2    0    0  0.81603161938E+02  0.12678701932E+03  0.11842558922E+03  0.25703712667E+03  0.17120000000E+03 0.  0.
        998    1    1    2    0    0 -0.35591743072E+01 -0.16492702794E+02  0.11161990260E+04  0.11163713283E+04  0.10000000000E+02 0.  1.
</event>
<event>
 5    1  0.7732857E-009  0.3756052E+03  0.7957747E-01  0.3470520E+00
         13   -1    0    0    0    0  0.00000000000E+00  0.00000000000E+00  0.14999999963E+04  0.15000000000E+04  0.10566000000E+00 0.  1.
        994   -1    0    0    0    0 -0.00000000000E+00 -0.00000000000E+00  0.11368683772E-12  0.17120000000E+03  0.17120000000E+03 0.  0.
         13    1    1    2    0    0 -0.51211542277E+02 -0.24775608267E+01  0.18944750864E+03  0.19626291057E+03  0.10566000000E+00 0.  1.
        994    1    1    2    0    0  0.42026363769E+02  0.17571447233E+02  0.13439803676E+02  0.17766552657E+03  0.17120000000E+03 0.  0.
        998    1    1    2    0    0  0.91851785084E+01 -0.15093886406E+02  0.12971126840E+04  0.12972715629E+04  0.10000000000E+02 0.  1.
</event>
<event>
 5    1  0.7732857E-009  0.3745111E+03  0.7957747E-01  0.3475412E+00
         13   -1    0    0    0    0  0.00000000000E+00  0.00000000000E+00  0.14999999963E+04  0.15000000000E+04  0.10566000000E+00 0.  1.
        994   -1    0    0    0    0 -0.00000000000E+00 -0.00000000000E+00  0.11368683772E-12  0.17120000000E+03  0.17120000000E+03 0.  0.
         13    1    1    2    0    0 -0.54494596081E+02 -0.12783099822E+03  0.61136043040E+03  0.62695455348E+03  0.10566000000E+00 0.  1.
        994    1    1    2    0    0  0.49437886495E+02  0.14934670777E+03  0.96499907477E+02  0.25173441538E+03  0.17120000000E+03 0.  0.
        998    1    1    2    0    0  0.50567095857E+01 -0.21515709547E+02  0.79213965841E+03  0.79251103115E+03  0.10000000000E+02 0. -1.
</event>
<event>
 5    1  0.7732857E-009  0.3830036E+03  0.7957747E-01  0.3438184E+00
         13   -1    0    0    0    0  0.00000000000E+00  0.00000000000E+00  0.14999999963E+04  0.15000000000E+04  0.10566000000E+00 0. -1.
        994   -1    0    0    0    0 -0.00000000000E+00 -0.00000000000E+00  0.11368683772E-12  0.17120000000E+03  0.17120000000E+03 0.  0.
         13    1    1    2    0    0 -0.93369168273E+01  0.87233903984E+01  0.29099110234E+02  0.31781204136E+02  0.10566000000E+00 0. -1.
        994    1    1    2    0    0  0.50198100821E+01 -0.22904460973E+02  0.44466079134E+01  0.17285550367E+03  0.17120000000E+03 0.  0.
        998    1    1    2    0    0  0.43171067452E+01  0.14181070574E+02  0.14664542781E+04  0.14665632922E+04  0.10000000000E+02 0. -1.
</event>
<event>
 5    1  0.7732857E-009  0.3823813E+03  0.7957747E-01  0.3440855E+00
         13   -1    0    0    0    0  0.00000000000E+00  0.00000000000E+00  0.14999999963E+04  0.15000000000E+04  0.10566000000E+00 0. -1.
        994   -1    0    0    0    0 -0.00000000000E+00 -0.00000000000E+00  0.11368683772E-12  0.17120000000E+03  0.17120000000E+03 0.  0.
         13    1    1    2    0    0 -0.29561317111E+02  0.23026760753E+02  0.20204587463E+03  0.20549124020E+03  0.10566000000E+00 0. -1.
        994    1    1    2    0    0  0.25825702327E+02 -0.34251083268E+02  0.90633309575E+01  0.17672489234E+03  0.17120000000E+03 0.  0.
        998    1    1    2    0    0  0.37356147849E+01  0.11224322515E+02  0.12888907907E+04  0.12889838675E+04  0.10000000000E+02 0. -1.
</event>
<event>
 5    1  0.7732857E-009  0.3810001E+03  0.7957747E-01  0.3446815E+00
         13   -1    0    0    0    0  0.00000000000E+00  0.00000000000E+00  0.14999999963E+04  0.15000000000E+04  0.10566000000E+00 0.  1.
        994   -1    0    0    0    0 -0.00000000000E+00 -0.00000000000E+00  0.11368683772E-12  0.17120000000E+03  0.17120000000E+03 0.  0.
         13    1    1    2    0    0 -0.16753170692E+02  0.53392323551E+01  0.41921049072E+02  0.45459450610E+02  0.10566000000E+00 0.  1.
        994    1    1    2    0    0  0.60553395864E+01 -0.51132099272E+01  0.38384719202E+01  0.17142632797E+03  0.17120000000E+03 0.  0.
        998    1    1    2    0    0  0.10697831105E+02 -0.22602242786E+00  0.14542404753E+04  0.14543142214E+04  0.10000000000E+02 0.  1.
</event>
<event>
 5    1  0.7732857E-009  0.3841333E+03  0.7957747E-01  0.3433356E+00
         13   -1    0    0    0    0  0.00000000000E+00  0.00000000000E+00  0.14999999963E+04  0.15000000000E+04  0.10566000000E+00 0. -1.
        994   -1    0    0    0    0 -0.00000000000E+00 -0.00000000000E+00  0.11368683772E-12  0.17120000000E+03  0.17120000000E+03 0.  0.
         13    1    1    2    0    0  0.11803020573E+01 -0.10329418177E+02  0.25255099051E+02  0.27311557717E+02  0.10566000000E+00 0. -1.
        994    1    1    2    0    0 -0.24236204100E+02  0.85761790099E+01  0.42438072276E+01  0.17317157485E+03  0.17120000000E+03 0.  0.
        998    1    1    2    0    0  0.23055902042E+02  0.17532391668E+01  0.14705010900E+04  0.14707168674E+04  0.10000000000E+02 0. -1.
</event>
<event>
 5    1  0.7732857E-009  0.3744653E+03  0.7957747E-01  0.3475618E+00
         13   -1    0    0    0    0  0.00000000000E+00  0.00000000000E+00  0.14999999963E+04  0.15000000000E+04  0.10566000000E+00 0.  1.
        994   -1    0    0    0    0 -0.00000000000E+00 -0.00000000000E+00  0.11368683772E-12  0.17120000000E+03  0.17120000000E+03 0.  0.
         13    1    1    2    0    0  0.23842024344E+02 -0.41022887498E+02  0.14546598327E+03  0.15300876732E+03  0.10566000000E+00 0.  1.
        994    1    1    2    0    0 -0.26823042453E+02  0.38551428725E+02  0.14502046833E+02  0.17811635979E+03  0.17120000000E+03 0.  0.
        998    1    1    2    0    0  0.29810181083E+01  0.24714587732E+01  0.13400319662E+04  0.13400748729E+04  0.10000000000E+02 0.  1.
</event>
<event>
 5    1  0.7732857E-009  0.3754474E+03  0.7957747E-01  0.3471224E+00
         13   -1    0    0    0    0  0.00000000000E+00  0.00000000000E+00  0.14999999963E+04  0.15000000000E+04  0.10566000000E+00 0. -1.
        994   -1    0    0    0    0 -0.00000000000E+00 -0.00000000000E+00  0.11368683772E-12  0.17120000000E+03  0.17120000000E+03 0.  0.
         13    1    1    2    0    0 -0.64333287949E-02 -0.20437003186E+02  0.29031194546E+02  0.35503416193E+02  0.10566000000E+00 0. -1.
        994    1    1    2    0    0 -0.19411021562E+01  0.22770386117E+02  0.82237816146E+01  0.17291422424E+03  0.17120000000E+03 0.  0.
        998    1    1    2    0    0  0.19475354850E+01 -0.23333829317E+01  0.14627450201E+04  0.14627823596E+04  0.10000000000E+02 0. -1.
</event>
<event>
 5    1  0.7732857E-009  0.3738928E+03  0.7957747E-01  0.3478189E+00
         13   -1    0    0    0    0  0.00000000000E+00  0.00000000000E+00  0.14999999963E+04  0.15000000000E+04  0.10566000000E+00 0. -1.
        994   -1    0    0    0    0 -0.00000000000E+00 -0.00000000000E+00  0.11368683772E-12  0.17120000000E+03  0.17120000000E+03 0.  0.
         13    1    1    2    0    0  0.55695241078E+01  0.15065424995E+02  0.14532233892E+02  0.21660646689E+02  0.10566000000E+00 0. -1.
        994    1    1    2    0    0 -0.56090163170E+01 -0.12863702668E+02  0.79206046183E+01  0.17195671516E+03  0.17120000000E+03 0.  0.
        998    1    1    2    0    0  0.39492209198E-01 -0.22017223272E+01  0.14775471578E+04  0.14775826382E+04  0.10000000000E+02 0. -1.
</event>
<event>
 5    1  0.7732857E-009  0.3846729E+03  0.7957747E-01  0.3431061E+00
         13   -1    0    0    0    0  0.00000000000E+00  0.00000000000E+00  0.14999999963E+04  0.15000000000E+04  0.10566000000E+00 0.  1.
        994   -1    0    0    0    0 -0.00000000000E+00 -0.00000000000E+00  0.11368683772E-12  0.17120000000E+03  0.17120000000E+03 0.  0.
         13    1    1    2    0    0  0.28347208321E+01 -0.19499685574E+02  0.10672763760E+03  0.10853143863E+03  0.10566000000E+00 0.  1.
        994    1    1    2    0    0 -0.83258282757E+01  0.13158435741E+02  0.25912483495E+01  0.17192620049E+03  0.17120000000E+03 0.  0.
        998    1    1    2    0    0  0.54911074436E+01  0.63412498331E+01  0.13906811103E+04  0.13907423609E+04  0.10000000000E+02 0.  1.
</event>
<event>
 5    1  0.7732857E-009  0.3776581E+03  0.7957747E-01  0.3461420E+00
         13   -1    0    0    0    0  0.00000000000E+00  0.00000000000E+00  0.14999999963E+04  0.15000000000E+04  0.10566000000E+00 0.  1.
        994   -1    0    0    0    0 -0.00000000000E+00 -0.00000000000E+00  0.11368683772E-12  0.17120000000E+03  0.17120000000E+03 0.  0.
         13    1    1    2    0    0  0.67657016268E+02  0.24582195669E+02  0.41145704857E+03  0.41770644019E+03  0.10566000000E+00 0.  1.
        994    1    1    2    0    0 -0.69180401947E+02  0.13273061658E+02  0.22224023687E+02  0.18645495276E+03  0.17120000000E+03 0.  0.
        998    1    1    2    0    0  0.15233856794E+01 -0.37855257327E+02  0.10663189240E+04  0.10670386071E+04  0.10000000000E+02 0.  1.
</event>
<event>
 5    1  0.7732857E-009  0.3822407E+03  0.7957747E-01  0.3441460E+00
         13   -1    0    0    0    0  0.00000000000E+00  0.00000000000E+00  0.14999999963E+04  0.15000000000E+04  0.10566000000E+00 0. -1.
        994   -1    0    0    0    0 -0.00000000000E+00 -0.00000000000E+00  0.11368683772E-12  0.17120000000E+03  0.17120000000E+03 0.  0.
         13    1    1    2    0    0  0.20831469582E+02  0.18039511614E+02  0.13413330279E+03  0.13693475887E+03  0.10566000000E+00 0. -1.
        994    1    1    2    0    0 -0.90932935149E+01 -0.46808510518E-02  0.32807570174E+01  0.17147271321E+03  0.17120000000E+03 0.  0.
        998    1    1    2    0    0 -0.11738176067E+02 -0.18034830763E+02  0.13625859365E+04  0.13627925279E+04  0.10000000000E+02 0. -1.
</event>
<event>
 5    1  0.7732857E-009  0.3829978E+03  0.7957747E-01  0.3438208E+00
         13   -1    0    0    0    0  0.00000000000E+00  0.00000000000E+00  0.14999999963E+04  0.15000000000E+04  0.10566000000E+00 0.  1.
        994   -1    0    0    0    0 -0.00000000000E+00 -0.00000000000E+00  0.11368683772E-12  0.17120000000E+03  0.17120000000E+03 0.  0.
         13    1    1    2    0    0 -0.54978601296E+01  0.85271577078E+01  0.18577455590E+02  0.21167709012E+02  0.10566000000E+00 0.  1.
        994    1    1    2    0    0  0.86973157599E+01 -0.33237952191E+01  0.29144528980E+01  0.17147776810E+03  0.17120000000E+03 0.  0.
        998    1    1    2    0    0 -0.31994556304E+01 -0.52033624887E+01  0.14785080878E+04  0.14785545229E+04  0.10000000000E+02 0.  1.
</event>
<event>
 5    1  0.7732857E-009  0.3824678E+03  0.7957747E-01  0.3440483E+00
         13   -1    0    0    0    0  0.00000000000E+00  0.00000000000E+00  0.14999999963E+04  0.15000000000E+04  0.10566000000E+00 0. -1.
        994   -1    0    0    0    0 -0.00000000000E+00 -0.00000000000E+00  0.11368683772E-12  0.17120000000E+03  0.17120000000E+03 0.  0.
         13    1    1    2    0    0 -0.40490343604E+01  0.20259825427E+02  0.71085629085E+02  0.74027245201E+02  0.10566000000E+00 0. -1.
        994    1    1    2    0    0 -0.36375213127E+02 -0.27008233050E+02  0.97288159252E+01  0.17736034123E+03  0.17120000000E+03 0.  0.
        998    1    1    2    0    0  0.40424247488E+02  0.67484076232E+01  0.14191855513E+04  0.14198124136E+04  0.10000000000E+02 0. -1.
</event>
<event>
 5    1  0.7732857E-009  0.3846053E+03  0.7957747E-01  0.3431348E+00
         13   -1    0    0    0    0  0.00000000000E+00  0.00000000000E+00  0.14999999963E+04  0.15000000000E+04  0.10566000000E+00 0.  1.
        994   -1    0    0    0    0 -0.00000000000E+00 -0.00000000000E+00  0.11368683772E-12  0.17120000000E+03  0.17120000000E+03 0.  0.
         13    1    1    2    0    0 -0.21710960112E+03  0.50443746386E+02  0.12163662603E+04  0.12366196023E+04  0.10566000000E+00 0.  1.
        994    1    1    2    0    0  0.21916662636E+03 -0.44545215934E+02  0.18893883349E+03  0.33915425572E+03  0.17120000000E+03 0.  0.
        998    1    1    2    0    0 -0.20570252450E+01 -0.58985304517E+01  0.94694902523E+02  0.95426142006E+02  0.10000000000E+02 0. -1.
</event>
<event>
 5    1  0.7732857E-009  0.3825784E+03  0.7957747E-01  0.3440008E+00
         13   -1    0    0    0    0  0.00000000000E+00  0.00000000000E+00  0.14999999963E+04  0.15000000000E+04  0.10566000000E+00 0. -1.
        994   -1    0    0    0    0 -0.00000000000E+00 -0.00000000000E+00  0.11368683772E-12  0.17120000000E+03  0.17120000000E+03 0.  0.
         13    1    1    2    0    0 -0.98085643936E+01  0.38319297494E+01  0.17011492791E+02  0.20007340455E+02  0.10566000000E+00 0. -1.
        994    1    1    2    0    0  0.31868456886E+02 -0.15277730249E+02  0.69883041157E+01  0.17494937548E+03  0.17120000000E+03 0.  0.
        998    1    1    2    0    0 -0.22059892493E+02  0.11445800500E+02  0.14760001994E+04  0.14762432841E+04  0.10000000000E+02 0. -1.
</event>
<event>
 5    1  0.7732857E-009  0.3842115E+03  0.7957747E-01  0.3433023E+00
         13   -1    0    0    0    0  0.00000000000E+00  0.00000000000E+00  0.14999999963E+04  0.15000000000E+04  0.10566000000E+00 0.  1.
        994   -1    0    0    0    0 -0.00000000000E+00 -0.00000000000E+00  0.11368683772E-12  0.17120000000E+03  0.17120000000E+03 0.  0.
         13    1    1    2    0    0 -0.17385957058E+01  0.25792852688E+02  0.14160153040E+03  0.14394199714E+03  0.10566000000E+00 0.  1.
        994    1    1    2    0    0 -0.19795252558E+02 -0.36316880593E+02  0.76831561943E+01  0.17629304787E+03  0.17120000000E+03 0.  0.
        998    1    1    2    0    0  0.21533848264E+02  0.10524027906E+02  0.13507153097E+04  0.13509649550E+04  0.10000000000E+02 0.  1.
</event>
<event>
 5    1  0.7732857E-009  0.3419701E+03  0.7957747E-01  0.3635541E+00
         13   -1    0    0    0    0  0.00000000000E+00  0.00000000000E+00  0.14999999963E+04  0.15000000000E+04  0.10566000000E+00 0.  1.
        994   -1    0    0    0    0 -0.00000000000E+00 -0.00000000000E+00  0.11368683772E-12  0.17120000000E+03  0.17120000000E+03 0.  0.
         13    1    1    2    0    0  0.12517426899E+03  0.18034282708E+03  0.10338215886E+04  0.10568723769E+04  0.10566000000E+00 0.  1.
        994    1    1    2    0    0 -0.80562748794E+02 -0.13937833753E+03  0.12212490028E+03  0.26484072333E+03  0.17120000000E+03 0.  0.
        998    1    1    2    0    0 -0.44611520194E+02 -0.40964489547E+02  0.34405350739E+03  0.34948689973E+03  0.10000000000E+02 0.  1.
</event>
<event>
 5    1  0.7732857E-009  0.3769829E+03  0.7957747E-01  0.3464402E+00
         13   -1    0    0    0    0  0.00000000000E+00  0.00000000000E+00  0.14999999963E+04  0.15000000000E+04  0.10566000000E+00 0. -1.
        994   -1    0    0    0    0 -0.00000000000E+00 -0.00000000000E+00  0.11368683772E-12  0.17120000000E+03  0.17120000000E+03 0.  0.
         13    1    1    2    0    0  0.12917692365E+02 -0.69704246271E+01  0.16547239763E+02  0.22119581898E+02  0.10566000000E+00 0. -1.
        994    1    1    2    0    0 -0.10305195706E+02  0.37628002763E+01  0.60704908901E+01  0.17165851737E+03  0.17120000000E+03 0.  0.
        998    1    1    2    0    0 -0.26124966592E+01  0.32076243508E+01  0.14773822656E+04  0.14774219007E+04  0.10000000000E+02 0. -1.
</event>
<event>
 5    1  0.7732857E-009  0.3851464E+03  0.7957747E-01  0.3429052E+00
         13   -1    0    0    0    0  0.00000000000E+00  0.00000000000E+00  0.14999999963E+04  0.15000000000E+04  0.10566000000E+00 0.  1.
        994   -1    0    0    0    0 -0.00000000000E+00 -0.00000000000E+00  0.11368683772E-12  0.17120000000E+03  0.17120000000E+03 0.  0.
         13    1    1    2    0    0  0.58089554337E+01 -0.10471487960E+02  0.44758570775E+02  0.46332891613E+02  0.10566000000E+00 0.  1.
        994    1    1    2    0    0 -0.91425786458E+01  0.10052836607E+02  0.21646763937E+01  0.17175206576E+03  0.17120000000E+03 0.  0.
        998    1    1    2    0    0  0.33336232121E+01  0.41865135372E+00  0.14530767491E+04  0.14531150426E+04  0.10000000000E+02 0.  1.
</event>
<event>
 5    1  0.7732857E-009  0.3764849E+03  0.7957747E-01  0.3466608E+00
         13   -1    0    0    0    0  0.00000000000E+00  0.00000000000E+00  0.14999999963E+04  0.15000000000E+04  0.10566000000E+00 0. -1.
        994   -1    0    0    0    0 -0.00000000000E+00 -0.00000000000E+00  0.11368683772E-12  0.17120000000E+03  0.17120000000E+03 0.  0.
         13    1    1    2    0    0  0.58713585897E+01  0.41717425909E+02  0.55138754010E+02  0.69390992455E+02  0.10566000000E+00 0. -1.
        994    1    1    2    0    0 -0.44234518569E+01 -0.36373948419E+02  0.19228094537E+02  0.17613003909E+03  0.17120000000E+03 0.  0.
        998    1    1    2    0    0 -0.14479067328E+01 -0.53434774898E+01  0.14256331477E+04  0.14256789685E+04  0.10000000000E+02 0. -1.
</event>
<event>
 5    1  0.7732857E-009  0.3791055E+03  0.7957747E-01  0.3455063E+00
         13   -1    0    0    0    0  0.00000000000E+00  0.00000000000E+00  0.14999999963E+04  0.15000000000E+04  0.10566000000E+00 0.  1.
        994   -1    0    0    0    0 -0.00000000000E+00 -0.00000000000E+00  0.11368683772E-12  0.17120000000E+03  0.17120000000E+03 0.  0.
         13    1    1    2    0    0  0.11981424431E+02  0.14890711035E+02  0.37909077374E+02  0.42454647778E+02  0.10566000000E+00 0.  1.
        994    1    1    2    0    0 -0.22979990106E+02  0.77823857583E+00  0.63599828198E+01  0.17285420152E+03  0.17120000000E+03 0.  0.
        998    1    1    2    0    0  0.10998565675E+02 -0.15668949611E+02  0.14557309361E+04  0.14558911507E+04  0.10000000000E+02 0.  1.
</event>
<event>
 5    1  0.7732857E-009  0.3733643E+03  0.7957747E-01  0.3480571E+00
         13   -1    0    0    0    0  0.00000000000E+00  0.00000000000E+00  0.14999999963E+04  0.15000000000E+04  0.10566000000E+00 0. -1.
        994   -1    0    0    0    0 -0.00000000000E+00 -0.00000000000E+00  0.11368683772E-12  0.17120000000E+03  0.17120000000E+03 0.  0.
         13    1    1    2    0    0  0.57657727272E+02 -0.16098321625E+02  0.28794499556E+03  0.29410185499E+03  0.10566000000E+00 0. -1.
        994    1    1    2    0    0 -0.70557157012E+01 -0.37701161991E+00  0.76917867295E+01  0.17151830469E+03  0.17120000000E+03 0.  0.
        998    1    1    2    0    0 -0.50602011571E+02  0.16475333245E+02  0.12043632140E+04  0.12055798403E+04  0.10000000000E+02 0. -1.
</event>
<event>
 5    1  0.7732857E-009  0.3810704E+03  0.7957747E-01  0.3446511E+00
         13   -1    0    0    0    0  0.00000000000E+00  0.00000000000E+00  0.14999999963E+04  0.15000000000E+04  0.10566000000E+00 0. -1.
        994   -1    0    0    0    0 -0.00000000000E+00 -0.00000000000E+00  0.11368683772E-12  0.17120000000E+03  0.17120000000E+03 0.  0.
         13    1    1    2    0    0 -0.13337248296E+02 -0.21607071268E+02  0.92245577065E+02  0.95676566477E+02  0.10566000000E+00 0. -1.
        994    1    1    2    0    0  0.37373454275E+01  0.68586654420E+01  0.37970236295E+01  0.17142014593E+03  0.17120000000E+03 0.  0.
        998    1    1    2    0    0  0.95999028686E+01  0.14748405826E+02  0.14039573956E+04  0.14041032876E+04  0.10000000000E+02 0. -1.
</event>
<event>
 5    1  0.7732857E-009  0.3694649E+03  0.7957747E-01  0.3498354E+00
         13   -1    0    0    0    0  0.00000000000E+00  0.00000000000E+00  0.14999999963E+04  0.15000000000E+04  0.10566000000E+00 0. -1.
        994   -1    0    0    0    0 -0.00000000000E+00 -0.00000000000E+00  0.11368683772E-12  0.17120000000E+03  0.17120000000E+03 0.  0.
         13    1    1    2    0    0  0.19549124616E+00  0.47854598628E+02  0.93239565218E+02  0.10480328484E+03  0.10566000000E+00 0. -1.
        994    1    1    2    0    0 -0.13326562152E+02 -0.60808564207E+02  0.24303750316E+02  0.18378082332E+03  0.17120000000E+03 0.  0.
        998    1    1    2    0    0  0.13131070905E+02  0.12953965579E+02  0.13824566807E+04  0.13826158918E+04  0.10000000000E+02 0. -1.
</event>
<event>
 5    1  0.7732857E-009  0.3845926E+03  0.7957747E-01  0.3431402E+00
         13   -1    0    0    0    0  0.00000000000E+00  0.00000000000E+00  0.14999999963E+04  0.15000000000E+04  0.10566000000E+00 0. -1.
        994   -1    0    0    0    0 -0.00000000000E+00 -0.00000000000E+00  0.11368683772E-12  0.17120000000E+03  0.17120000000E+03 0.  0.
         13    1    1    2    0    0  0.13696461595E+02 -0.12546368517E+02  0.10082305240E+03  0.10251977118E+03  0.10566000000E+00 0. -1.
        994    1    1    2    0    0 -0.11617505635E+02 -0.85035404687E+01  0.25153864258E+01  0.17182271039E+03  0.17120000000E+03 0.  0.
        998    1    1    2    0    0 -0.20789559600E+01  0.21049908985E+02  0.13966615575E+04  0.13968575184E+04  0.10000000000E+02 0. -1.
</event>
<event>
 5    1  0.7732857E-009  0.3690665E+03  0.7957747E-01  0.3500192E+00
         13   -1    0    0    0    0  0.00000000000E+00  0.00000000000E+00  0.14999999963E+04  0.15000000000E+04  0.10566000000E+00 0. -1.
        994   -1    0    0    0    0 -0.00000000000E+00 -0.00000000000E+00  0.11368683772E-12  0.17120000000E+03  0.17120000000E+03 0.  0.
         13    1    1    2    0    0  0.15558662545E+02 -0.22974646084E+02  0.36289410015E+02  0.45681930631E+02  0.10566000000E+00 0. -1.
        994    1    1    2    0    0 -0.19497498387E+02 -0.77621751828E-01  0.11077592573E+02  0.17266242071E+03  0.17120000000E+03 0.  0.
        998    1    1    2    0    0  0.39388358424E+01  0.23052267836E+02  0.14526329937E+04  0.14528556487E+04  0.10000000000E+02 0. -1.
</event>
<event>
 5    1  0.7732857E-009  0.3824862E+03  0.7957747E-01  0.3440404E+00
         13   -1    0    0    0    0  0.00000000000E+00  0.00000000000E+00  0.14999999963E+04  0.15000000000E+04  0.10566000000E+00 0.  1.
        994   -1    0    0    0    0 -0.00000000000E+00 -0.00000000000E+00  0.11368683772E-12  0.17120000000E+03  0.17120000000E+03 0.  0.
         13    1    1    2    0    0 -0.94973765362E+01  0.10334902882E+02  0.32738420994E+02  0.35620580454E+02  0.10566000000E+00 0.  1.
        994    1    1    2    0    0  0.43023347796E+01 -0.13733870239E+02  0.35704463468E+01  0.17184096532E+03  0.17120000000E+03 0.  0.
        998    1    1    2    0    0  0.51950417565E+01  0.33989673576E+01  0.14636911289E+04  0.14637384542E+04  0.10000000000E+02 0.  1.
</event>
<event>
 5    1  0.7732857E-009  0.3810727E+03  0.7957747E-01  0.3446501E+00
         13   -1    0    0    0    0  0.00000000000E+00  0.00000000000E+00  0.14999999963E+04  0.15000000000E+04  0.10566000000E+00 0.  1.
        994   -1    0    0    0    0 -0.00000000000E+00 -0.00000000000E+00  0.11368683772E-12  0.17120000000E+03  0.17120000000E+03 0.  0.
         13    1    1    2    0    0 -0.28866041568E+02 -0.53000188277E+01  0.14075151605E+03  0.14377878491E+03  0.10566000000E+00 0.  1.
        994    1    1    2    0    0 -0.78531334589E+01 -0.10747068758E+01  0.38019522420E+01  0.17142555685E+03  0.17120000000E+03 0.  0.
        998    1    1    2    0    0  0.36719175027E+02  0.63747257035E+01  0.13554465280E+04  0.13559956582E+04  0.10000000000E+02 0.  1.
</event>
<event>
 5    1  0.7732857E-009  0.3764817E+03  0.7957747E-01  0.3466623E+00
         13   -1    0    0    0    0  0.00000000000E+00  0.00000000000E+00  0.14999999963E+04  0.15000000000E+04  0.10566000000E+00 0. -1.
        994   -1    0    0    0    0 -0.00000000000E+00 -0.00000000000E+00  0.11368683772E-12  0.17120000000E+03  0.17120000000E+03 0.  0.
         13    1    1    2    0    0 -0.19835063067E+02  0.20451643477E+02  0.65671200668E+02  0.71585034812E+02  0.10566000000E+00 0. -1.
        994    1    1    2    0    0  0.15730065971E+02 -0.13864348705E+02  0.74082646403E+01  0.17263828523E+03  0.17120000000E+03 0.  0.
        998    1    1    2    0    0  0.41049970966E+01 -0.65872947725E+01  0.14269205310E+04  0.14269766800E+04  0.10000000000E+02 0. -1.
</event>
<event>
 5    1  0.7732857E-009  0.3839659E+03  0.7957747E-01  0.3434070E+00
         13   -1    0    0    0    0  0.00000000000E+00  0.00000000000E+00  0.14999999963E+04  0.15000000000E+04  0.10566000000E+00 0. -1.
        994   -1    0    0    0    0 -0.00000000000E+00 -0.00000000000E+00  0.11368683772E-12  0.17120000000E+03  0.17120000000E+03 0.  0.
         13    1    1    2    0    0 -0.20549767334E+02 -0.14033749127E+02  0.12141592517E+03  0.12393981242E+03  0.10566000000E+00 0. -1.
        994    1    1    2    0    0  0.44568903990E+02  0.36959605270E+01  0.87721258059E+01  0.17716217858E+03  0.17120000000E+03 0.  0.
        998    1    1    2    0    0 -0.24019136655E+02  0.10337788600E+02  0.13698119453E+04  0.13700980090E+04  0.10000000000E+02 0. -1.
</event>
<event>
 5    1  0.7732857E-009  0.3745704E+03  0.7957747E-01  0.3475146E+00
         13   -1    0    0    0    0  0.00000000000E+00  0.00000000000E+00  0.14999999963E+04  0.15000000000E+04  0.10566000000E+00 0.  1.
        994   -1    0    0    0    0 -0.00000000000E+00 -0.00000000000E+00  0.11368683772E-12  0.17120000000E+03  0.17120000000E+03 0.  0.
         13    1    1    2    0    0  0.20423423877E+02 -0.84983924152E+01  0.33733729539E+02  0.40339987471E+02  0.10566000000E+00 0.  1.
        994    1    1    2    0    0  0.31481646290E+02  0.76888453216E+02  0.30774018005E+02  0.19276775787E+03  0.17120000000E+03 0.  0.
        998    1    1    2    0    0 -0.51905070166E+02 -0.68390060801E+02  0.14354922487E+04  0.14380922547E+04  0.10000000000E+02 0.  1.
</event>
<event>
 5    1  0.7732857E-009  0.3839528E+03  0.7957747E-01  0.3434126E+00
         13   -1    0    0    0    0  0.00000000000E+00  0.00000000000E+00  0.14999999963E+04  0.15000000000E+04  0.10566000000E+00 0. -1.
        994   -1    0    0    0    0 -0.00000000000E+00 -0.00000000000E+00  0.11368683772E-12  0.17120000000E+03  0.17120000000E+03 0.  0.
         13    1    1    2    0    0  0.25817939002E+00  0.14289615538E+02  0.46247277933E+02  0.48405388636E+02  0.10566000000E+00 0. -1.
        994    1    1    2    0    0  0.38406992338E+01 -0.12934419401E+02  0.27519006511E+01  0.17175291303E+03  0.17120000000E+03 0.  0.
        998    1    1    2    0    0 -0.40988786238E+01 -0.13551961364E+01  0.14510008177E+04  0.14510416983E+04  0.10000000000E+02 0. -1.
</event>
<event>
 5    1  0.7732857E-009  0.3787080E+03  0.7957747E-01  0.3456804E+00
         13   -1    0    0    0    0  0.00000000000E+00  0.00000000000E+00  0.14999999963E+04  0.15000000000E+04  0.10566000000E+00 0. -1.
        994   -1    0    0    0    0 -0.00000000000E+00 -0.00000000000E+00  0.11368683772E-12  0.17120000000E+03  0.17120000000E+03 0.  0.
         13    1    1    2    0    0  0.50508548301E+01 -0.94427865814E+01  0.97837928979E+01  0.14505554813E+02  0.10566000000E+00 0. -1.
        994    1    1    2    0    0 -0.73827088468E+01  0.75853186761E+01  0.51630173808E+01  0.17160459842E+03  0.17120000000E+03 0.  0.
        998    1    1    2    0    0  0.23318540167E+01  0.18574679053E+01  0.14850531860E+04  0.14850898468E+04  0.10000000000E+02 0. -1.
</event>
<event>
 5    1  0.7732857E-009  0.3746520E+03  0.7957747E-01  0.3474781E+00
         13   -1    0    0    0    0  0.00000000000E+00  0.00000000000E+00  0.14999999963E+04  0.15000000000E+04  0.10566000000E+00 0. -1.
        994   -1    0    0    0    0 -0.00000000000E+00 -0.00000000000E+00  0.11368683772E-12  0.17120000000E+03  0.17120000000E+03 0.  0.
         13    1    1    2    0    0 -0.18424661582E+02 -0.21224670927E+02  0.53486030334E+02  0.60421200049E+02  0.10566000000E+00 0. -1.
        994    1    1    2    0    0  0.60450893375E+01  0.30178208085E+02  0.10088059739E+02  0.17423683967E+03  0.17120000000E+03 0.  0.
        998    1    1    2    0    0  0.12379572244E+02 -0.89535371586E+01  0.14364259062E+04  0.14365419603E+04  0.10000000000E+02 0. -1.
</event>
<event>
 5    1  0.7732857E-009  0.3724206E+03  0.7957747E-01  0.3484839E+00
         13   -1    0    0    0    0  0.00000000000E+00  0.00000000000E+00  0.14999999963E+04  0.15000000000E+04  0.10566000000E+00 0. -1.
        994   -1    0    0    0    0 -0.00000000000E+00 -0.00000000000E+00  0.11368683772E-12  0.17120000000E+03  0.17120000000E+03 0.  0.
         13    1    1    2    0    0  0.62974943574E+01  0.19341417665E+02  0.12376029729E+02  0.23810211011E+02  0.10566000000E+00 0. -1.
        994    1    1    2    0    0 -0.30389416389E+02  0.26320648648E+02  0.17945065029E+02  0.17677035536E+03  0.17120000000E+03 0.  0.
        998    1    1    2    0    0  0.24091922032E+02 -0.45662066313E+02  0.14696789015E+04  0.14706194336E+04  0.10000000000E+02 0. -1.
</event>
<event>
 5    1  0.7732857E-009  0.3798870E+03  0.7957747E-01  0.3451650E+00
         13   -1    0    0    0    0  0.00000000000E+00  0.00000000000E+00  0.14999999963E+04  0.15000000000E+04  0.10566000000E+00 0. -1.
        994   -1    0    0    0    0 -0.00000000000E+00 -0.00000000000E+00  0.11368683772E-12  0.17120000000E+03  0.17120000000E+03 0.  0.
         13    1    1    2    0    0 -0.12522483375E+02 -0.94218306938E+01  0.26661585244E+02  0.30926279687E+02  0.10566000000E+00 0. -1.
        994    1    1    2    0    0  0.17552741848E+02  0.14420952011E+02  0.59178791987E+01  0.17280197886E+03  0.17120000000E+03 0.  0.
        998    1    1    2    0    0 -0.50302584736E+01 -0.49991213174E+01  0.14674205318E+04  0.14674717415E+04  0.10000000000E+02 0. -1.
</event>
<event>
 5    1  0.7732857E-009  0.3855315E+03  0.7957747E-01  0.3427421E+00
         13   -1    0    0    0    0  0.00000000000E+00  0.00000000000E+00  0.14999999963E+04  0.15000000000E+04  0.10566000000E+00 0.  1.
        994   -1    0    0    0    0 -0.00000000000E+00 -0.00000000000E+00  0.11368683772E-12  0.17120000000E+03  0.17120000000E+03 0.  0.
         13    1    1    2    0    0  0.47188915860E+00 -0.13681724641E+02  0.66016386883E+02  0.67420966840E+02  0.10566000000E+00 0.  1.
        994    1    1    2    0    0 -0.33826825909E+01  0.15269441217E+02  0.21699095964E+01  0.17192657411E+03  0.17120000000E+03 0.  0.
        998    1    1    2    0    0  0.29107934323E+01 -0.15877165752E+01  0.14318136998E+04  0.14318524591E+04  0.10000000000E+02 0.  1.
</event>
<event>
 5    1  0.7732857E-009  0.3835825E+03  0.7957747E-01  0.3435706E+00
         13   -1    0    0    0    0  0.00000000000E+00  0.00000000000E+00  0.14999999963E+04  0.15000000000E+04  0.10566000000E+00 0.  1.
        994   -1    0    0    0    0 -0.00000000000E+00 -0.00000000000E+00  0.11368683772E-12  0.17120000000E+03  0.17120000000E+03 0.  0.
         13    1    1    2    0    0  0.18782438200E+02  0.20032580695E+02  0.16061616591E+03  0.16294676490E+03  0.10566000000E+00 0.  1.
        994    1    1    2    0    0 -0.65199424372E+01 -0.16697838286E+02  0.33978868135E+01  0.17216943134E+03  0.17120000000E+03 0.  0.
        998    1    1    2    0    0 -0.12262495763E+02 -0.33347424098E+01  0.13359859436E+04  0.13360838038E+04  0.10000000000E+02 0.  1.
</event>
<event>
 5    1  0.7732857E-009  0.3785156E+03  0.7957747E-01  0.3457647E+00
         13   -1    0    0    0    0  0.00000000000E+00  0.00000000000E+00  0.14999999963E+04  0.15000000000E+04  0.10566000000E+00 0. -1.
        994   -1    0    0    0    0 -0.00000000000E+00 -0.00000000000E+00  0.11368683772E-12  0.17120000000E+03  0.17120000000E+03 0.  0.
         13    1    1    2    0    0  0.18859817355E+02 -0.44440507399E+01  0.38070901031E+02  0.42718227574E+02  0.10566000000E+00 0. -1.
        994    1    1    2    0    0 -0.24895482680E+01 -0.11972736196E+02  0.53868561155E+01  0.17172071069E+03  0.17120000000E+03 0.  0.
        998    1    1    2    0    0 -0.16370269087E+02  0.16416786936E+02  0.14565422391E+04  0.14567610617E+04  0.10000000000E+02 0. -1.
</event>
<event>
 5    1  0.7732857E-009  0.3849795E+03  0.7957747E-01  0.3429759E+00
         13   -1    0    0    0    0  0.00000000000E+00  0.00000000000E+00  0.14999999963E+04  0.15000000000E+04  0.10566000000E+00 0. -1.
        994   -1    0    0    0    0 -0.00000000000E+00 -0.00000000000E+00  0.11368683772E-12  0.17120000000E+03  0.17120000000E+03 0.  0.
         13    1    1    2    0    0  0.15076806467E+02  0.11019119173E+02  0.11058734058E+03  0.11215303001E+03  0.10566000000E+00 0. -1.
        994    1    1    2    0    0 -0.24396138970E+01 -0.88628211139E+01  0.19182884335E+01  0.17145734497E+03  0.17120000000E+03 0.  0.
        998    1    1    2    0    0 -0.12637192570E+02 -0.21562980595E+01  0.13874943673E+04  0.13875896250E+04  0.10000000000E+02 0. -1.
</event>
<event>
 5    1  0.1268000E-008  0.3863200E+03  0.7957747E-01  0.3424093E+00
         13   -1    0    0    0    0  0.00000000000E+00  0.00000000000E+00  0.14999999963E+04  0.15000000000E+04  0.10566000000E+00 0.  1.
        994   -1    0    0    0    0 -0.00000000000E+00 -0.00000000000E+00  0.11368683772E-12  0.17120000000E+03  0.17120000000E+03 0.  0.
         13    1    1    2    0    0 -0.11769236381E+01  0.99575672062E+01  0.49535650374E+02  0.50540381043E+02  0.10566000000E+00 0.  1.
        994    1    1    2    0    0 -0.20791417276E+01 -0.15198577506E+02  0.17471491996E+01  0.17189477048E+03  0.17120000000E+03 0.  0.
        998    1    1    2    0    0  0.32560653657E+01  0.52410103001E+01  0.14487171967E+04  0.14487648485E+04  0.10000000000E+02 0.  1.
</event>
<event>
 5    1  0.7732857E-009  0.3747042E+03  0.7957747E-01  0.3474547E+00
         13   -1    0    0    0    0  0.00000000000E+00  0.00000000000E+00  0.14999999963E+04  0.15000000000E+04  0.10566000000E+00 0. -1.
        994   -1    0    0    0    0 -0.00000000000E+00 -0.00000000000E+00  0.11368683772E-12  0.17120000000E+03  0.17120000000E+03 0.  0.
         13    1    1    2    0    0 -0.99359805306E+02  0.13094497772E+02  0.28550564897E+03  0.30258440730E+03  0.10566000000E+00 0. -1.
        994    1    1    2    0    0  0.10581825637E+03 -0.89542837741E+01  0.54704855967E+02  0.20875761985E+03  0.17120000000E+03 0.  0.
        998    1    1    2    0    0 -0.64584510645E+01 -0.41402139983E+01  0.11597894913E+04  0.11598579728E+04  0.10000000000E+02 0. -1.
</event>
<event>
 5    1  0.7732857E-009  0.3815891E+03  0.7957747E-01  0.3444268E+00
         13   -1    0    0    0    0  0.00000000000E+00  0.00000000000E+00  0.14999999963E+04  0.15000000000E+04  0.10566000000E+00 0. -1.
        994   -1    0    0    0    0 -0.00000000000E+00 -0.00000000000E+00  0.11368683772E-12  0.17120000000E+03  0.17120000000E+03 0.  0.
         13    1    1    2    0    0  0.14989097748E+02 -0.20454892441E+02  0.88979558086E+02  0.92522692337E+02  0.10566000000E+00 0. -1.
        994    1    1    2    0    0 -0.15392387147E+02  0.24372696015E+02  0.61013081069E+01  0.17371706840E+03  0.17120000000E+03 0.  0.
        998    1    1    2    0    0  0.40328939948E+00 -0.39178035739E+01  0.14049191301E+04  0.14049602393E+04  0.10000000000E+02 0. -1.
</event>
<event>
 5    1  0.7732857E-009  0.3843225E+03  0.7957747E-01  0.3432551E+00
         13   -1    0    0    0    0  0.00000000000E+00  0.00000000000E+00  0.14999999963E+04  0.15000000000E+04  0.10566000000E+00 0. -1.
        994   -1    0    0    0    0 -0.00000000000E+00 -0.00000000000E+00  0.11368683772E-12  0.17120000000E+03  0.17120000000E+03 0.  0.
         13    1    1    2    0    0  0.12377391545E+02  0.28419433109E+01  0.35564381784E+02  0.37763909741E+02  0.10566000000E+00 0. -1.
        994    1    1    2    0    0 -0.38430459511E+02 -0.70814914741E+01  0.70161555835E+01  0.17574331902E+03  0.17120000000E+03 0.  0.
        998    1    1    2    0    0  0.26053067967E+02  0.42395481632E+01  0.14574194589E+04  0.14576927712E+04  0.10000000000E+02 0. -1.
</event>
<event>
 5    1  0.7732857E-009  0.3748510E+03  0.7957747E-01  0.3473889E+00
         13   -1    0    0    0    0  0.00000000000E+00  0.00000000000E+00  0.14999999963E+04  0.15000000000E+04  0.10566000000E+00 0.  1.
        994   -1    0    0    0    0 -0.00000000000E+00 -0.00000000000E+00  0.11368683772E-12  0.17120000000E+03  0.17120000000E+03 0.  0.
         13    1    1    2    0    0  0.11665795608E+03  0.77260025895E+01  0.44852751181E+03  0.46351451957E+03  0.10566000000E+00 0.  1.
        994    1    1    2    0    0 -0.83244386688E+02 -0.81593510276E+01  0.38847841905E+02  0.19446027292E+03  0.17120000000E+03 0.  0.
        998    1    1    2    0    0 -0.33413569394E+02  0.43334843812E+00  0.10126246426E+04  0.10132252075E+04  0.10000000000E+02 0.  1.
</event>
<event>
 5    1  0.7732857E-009  0.3734216E+03  0.7957747E-01  0.3480312E+00
         13   -1    0    0    0    0  0.00000000000E+00  0.00000000000E+00  0.14999999963E+04  0.15000000000E+04  0.10566000000E+00 0. -1.
        994   -1    0    0    0    0 -0.00000000000E+00 -0.00000000000E+00  0.11368683772E-12  0.17120000000E+03  0.17120000000E+03 0.  0.
         13    1    1    2    0    0 -0.26231622442E+02  0.49683317694E+01  0.43265632201E+02  0.50840027835E+02  0.10566000000E+00 0. -1.
        994    1    1    2    0    0  0.28094754214E+02 -0.41104112846E+01  0.10251561755E+02  0.17384114937E+03  0.17120000000E+03 0.  0.
        998    1    1    2    0    0 -0.18631317726E+01 -0.85792048480E+00  0.14464828023E+04  0.14465188228E+04  0.10000000000E+02 0. -1.
</event>
<event>
 5    1  0.7732857E-009  0.3815077E+03  0.7957747E-01  0.3444620E+00
         13   -1    0    0    0    0  0.00000000000E+00  0.00000000000E+00  0.14999999963E+04  0.15000000000E+04  0.10566000000E+00 0.  1.
        994   -1    0    0    0    0 -0.00000000000E+00 -0.00000000000E+00  0.11368683772E-12  0.17120000000E+03  0.17120000000E+03 0.  0.
         13    1    1    2    0    0  0.35483139321E+01 -0.21359339800E+02  0.68671989511E+02  0.72004619545E+02  0.10566000000E+00 0.  1.
        994    1    1    2    0    0 -0.34550800034E+01  0.12299233998E+02  0.39170908296E+01  0.17172068115E+03  0.17120000000E+03 0.  0.
        998    1    1    2    0    0 -0.93233928714E-01  0.90601058018E+01  0.14274109159E+04  0.14274746993E+04  0.10000000000E+02 0.  1.
</event>
<event>
 5    1  0.7732857E-009  0.3748412E+03  0.7957747E-01  0.3473933E+00
         13   -1    0    0    0    0  0.00000000000E+00  0.00000000000E+00  0.14999999963E+04  0.15000000000E+04  0.10566000000E+00 0. -1.
        994   -1    0    0    0    0 -0.00000000000E+00 -0.00000000000E+00  0.11368683772E-12  0.17120000000E+03  0.17120000000E+03 0.  0.
         13    1    1    2    0    0  0.65301799698E+01 -0.16325855141E+02  0.20132552549E+02  0.26730275582E+02  0.10566000000E+00 0. -1.
        994    1    1    2    0    0 -0.72190654384E+01  0.69335462806E+01  0.71010927485E+01  0.17163931510E+03  0.17120000000E+03 0.  0.
        998    1    1    2    0    0  0.68888546863E+00  0.93923088603E+01  0.14727663510E+04  0.14728304093E+04  0.10000000000E+02 0. -1.
</event>
<event>
 5    1  0.7732857E-009  0.3840176E+03  0.7957747E-01  0.3433849E+00
         13   -1    0    0    0    0  0.00000000000E+00  0.00000000000E+00  0.14999999963E+04  0.15000000000E+04  0.10566000000E+00 0.  1.
        994   -1    0    0    0    0 -0.00000000000E+00 -0.00000000000E+00  0.11368683772E-12  0.17120000000E+03  0.17120000000E+03 0.  0.
         13    1    1    2    0    0  0.17198913074E+02 -0.15577226339E+02  0.12146848820E+03  0.12366510171E+03  0.10566000000E+00 0.  1.
        994    1    1    2    0    0 -0.16043574301E+02  0.11700491787E+02  0.34205841431E+01  0.17238166428E+03  0.17120000000E+03 0.  0.
        998    1    1    2    0    0 -0.11553387731E+01  0.38767345515E+01  0.13751109239E+04  0.13751532340E+04  0.10000000000E+02 0.  1.
</event>
<event>
 5    1  0.7732857E-009  0.3849762E+03  0.7957747E-01  0.3429773E+00
         13   -1    0    0    0    0  0.00000000000E+00  0.00000000000E+00  0.14999999963E+04  0.15000000000E+04  0.10566000000E+00 0. -1.
        994   -1    0    0    0    0 -0.00000000000E+00 -0.00000000000E+00  0.11368683772E-12  0.17120000000E+03  0.17120000000E+03 0.  0.
         13    1    1    2    0    0  0.13028367101E+02  0.55009382313E+01  0.59659016151E+02  0.61312380829E+02  0.10566000000E+00 0. -1.
        994    1    1    2    0    0 -0.10723714555E+02 -0.73754312780E+01  0.21992967880E+01  0.17170810099E+03  0.17120000000E+03 0.  0.
        998    1    1    2    0    0 -0.23046525461E+01  0.18744930467E+01  0.14381416833E+04  0.14381795182E+04  0.10000000000E+02 0. -1.
</event>
<event>
 5    1  0.7732857E-009  0.3830401E+03  0.7957747E-01  0.3438027E+00
         13   -1    0    0    0    0  0.00000000000E+00  0.00000000000E+00  0.14999999963E+04  0.15000000000E+04  0.10566000000E+00 0.  1.
        994   -1    0    0    0    0 -0.00000000000E+00 -0.00000000000E+00  0.11368683772E-12  0.17120000000E+03  0.17120000000E+03 0.  0.
         13    1    1    2    0    0 -0.10702918745E+01  0.16070937378E+02  0.49331012571E+02  0.51893935274E+02  0.10566000000E+00 0.  1.
        994    1    1    2    0    0 -0.30688490442E+01 -0.93178904814E+01  0.29249112980E+01  0.17150579006E+03  0.17120000000E+03 0.  0.
        998    1    1    2    0    0  0.41391409187E+01 -0.67530468969E+01  0.14477440724E+04  0.14478002747E+04  0.10000000000E+02 0.  1.
</event>
<event>
 5    1  0.7732857E-009  0.3695860E+03  0.7957747E-01  0.3497796E+00
         13   -1    0    0    0    0  0.00000000000E+00  0.00000000000E+00  0.14999999963E+04  0.15000000000E+04  0.10566000000E+00 0.  1.
        994   -1    0    0    0    0 -0.00000000000E+00 -0.00000000000E+00  0.11368683772E-12  0.17120000000E+03  0.17120000000E+03 0.  0.
         13    1    1    2    0    0 -0.17319737682E+02  0.26695874301E+01  0.11817644713E+02  0.21136884846E+02  0.10566000000E+00 0.  1.
        994    1    1    2    0    0  0.17871281028E+02 -0.97333765663E+01  0.10920835839E+02  0.17275076255E+03  0.17120000000E+03 0.  0.
        998    1    1    2    0    0 -0.55154334576E+00  0.70637891363E+01  0.14772615157E+04  0.14773123526E+04  0.10000000000E+02 0.  1.
</event>
<event>
 5    1  0.7732857E-009  0.4345994E+03  0.7957747E-01  0.3243190E+00
         13   -1    0    0    0    0  0.00000000000E+00  0.00000000000E+00  0.14999999963E+04  0.15000000000E+04  0.10566000000E+00 0. -1.
        994   -1    0    0    0    0 -0.00000000000E+00 -0.00000000000E+00  0.11368683772E-12  0.17120000000E+03  0.17120000000E+03 0.  0.
         13    1    1    2    0    0  0.49662403571E+02 -0.77442523121E+02  0.62393358220E+02  0.11116042924E+03  0.10566000000E+00 0. -1.
        994    1    1    2    0    0 -0.85056953614E+02  0.72778701477E+02  0.11064079407E+03  0.23255590738E+03  0.17120000000E+03 0.  0.
        998    1    1    2    0    0  0.35394550043E+02  0.46638216433E+01  0.13269658440E+04  0.13274836634E+04  0.10000000000E+02 0. -1.
</event>
<event>
 5    1  0.7732857E-009  0.3721780E+03  0.7957747E-01  0.3485941E+00
         13   -1    0    0    0    0  0.00000000000E+00  0.00000000000E+00  0.14999999963E+04  0.15000000000E+04  0.10566000000E+00 0.  1.
        994   -1    0    0    0    0 -0.00000000000E+00 -0.00000000000E+00  0.11368683772E-12  0.17120000000E+03  0.17120000000E+03 0.  0.
         13    1    1    2    0    0 -0.68433066907E+01 -0.50465096489E+02  0.19898957386E+03  0.20540306346E+03  0.10566000000E+00 0.  1.
        994    1    1    2    0    0 -0.12918307657E+02 -0.10465398215E+02  0.90842093004E+01  0.17224508728E+03  0.17120000000E+03 0.  0.
        998    1    1    2    0    0  0.19761614348E+02  0.60930494704E+02  0.12919262131E+04  0.12935518493E+04  0.10000000000E+02 0.  1.
</event>
<event>
 5    1  0.7732857E-009  0.3859357E+03  0.7957747E-01  0.3425713E+00
         13   -1    0    0    0    0  0.00000000000E+00  0.00000000000E+00  0.14999999963E+04  0.15000000000E+04  0.10566000000E+00 0.  1.
        994   -1    0    0    0    0 -0.00000000000E+00 -0.00000000000E+00  0.11368683772E-12  0.17120000000E+03  0.17120000000E+03 0.  0.
         13    1    1    2    0    0 -0.69990452391E+01 -0.10924340760E+02  0.72900661868E+02  0.74046239068E+02  0.10566000000E+00 0.  1.
        994    1    1    2    0    0  0.15060274732E+02  0.88933246022E+00  0.19128681782E+01  0.17187408720E+03  0.17120000000E+03 0.  0.
        998    1    1    2    0    0 -0.80612294925E+01  0.10035008300E+02  0.14251864662E+04  0.14252796737E+04  0.10000000000E+02 0.  1.
</event>
<event>
 5    1  0.7732857E-009  0.3854356E+03  0.7957747E-01  0.3427827E+00
         13   -1    0    0    0    0  0.00000000000E+00  0.00000000000E+00  0.14999999963E+04  0.15000000000E+04  0.10566000000E+00 0.  1.
        994   -1    0    0    0    0 -0.00000000000E+00 -0.00000000000E+00  0.11368683772E-12  0.17120000000E+03  0.17120000000E+03 0.  0.
         13    1    1    2    0    0  0.13706601660E+02  0.15909543069E+01  0.63283095963E+02  0.64770081545E+02  0.10566000000E+00 0.  1.
        994    1    1    2    0    0 -0.16793092383E+02 -0.30708830026E+02  0.54474640129E+01  0.17482607087E+03  0.17120000000E+03 0.  0.
        998    1    1    2    0    0  0.30864907230E+01  0.29117875719E+02  0.14312694363E+04  0.14316038476E+04  0.10000000000E+02 0.  1.
</event>
<event>
 5    1  0.7732857E-009  0.3794244E+03  0.7957747E-01  0.3453668E+00
         13   -1    0    0    0    0  0.00000000000E+00  0.00000000000E+00  0.14999999963E+04  0.15000000000E+04  0.10566000000E+00 0. -1.
        994   -1    0    0    0    0 -0.00000000000E+00 -0.00000000000E+00  0.11368683772E-12  0.17120000000E+03  0.17120000000E+03 0.  0.
         13    1    1    2    0    0 -0.10444174675E+02  0.24853006273E+02  0.11358491006E+03  0.11674029151E+03  0.10566000000E+00 0. -1.
        994    1    1    2    0    0  0.37673658842E+01  0.49414446460E+02  0.12694067560E+02  0.17868004901E+03  0.17120000000E+03 0.  0.
        998    1    1    2    0    0  0.66768087909E+01 -0.74267452733E+02  0.13737210187E+04  0.13757796595E+04  0.10000000000E+02 0. -1.
</event>
<event>
 5    1  0.7732857E-009  0.3786969E+03  0.7957747E-01  0.3456852E+00
         13   -1    0    0    0    0  0.00000000000E+00  0.00000000000E+00  0.14999999963E+04  0.15000000000E+04  0.10566000000E+00 0.  1.
        994   -1    0    0    0    0 -0.00000000000E+00 -0.00000000000E+00  0.11368683772E-12  0.17120000000E+03  0.17120000000E+03 0.  0.
         13    1    1    2    0    0  0.41996157223E+02 -0.25401736550E+02  0.22481849504E+03  0.23011365087E+03  0.10566000000E+00 0.  1.
        994    1    1    2    0    0 -0.29859339346E+02  0.33377466103E+02  0.11555731282E+02  0.17733756036E+03  0.17120000000E+03 0.  0.
        998    1    1    2    0    0 -0.12136817877E+02 -0.79757295537E+01  0.12636257700E+04  0.12637487888E+04  0.10000000000E+02 0. -1.
</event>
<event>
 5    1  0.7732857E-009  0.3803220E+03  0.7957747E-01  0.3449758E+00
         13   -1    0    0    0    0  0.00000000000E+00  0.00000000000E+00  0.14999999963E+04  0.15000000000E+04  0.10566000000E+00 0. -1.
        994   -1    0    0    0    0 -0.00000000000E+00 -0.00000000000E+00  0.11368683772E-12  0.17120000000E+03  0.17120000000E+03 0.  0.
         13    1    1    2    0    0 -0.31367015799E+01 -0.11279831747E+02  0.15516449891E+02  0.19438232489E+02  0.10566000000E+00 0. -1.
        994    1    1    2    0    0 -0.29276636279E+00  0.10153028037E+02  0.43152906738E+01  0.17155533050E+03  0.17120000000E+03 0.  0.
        998    1    1    2    0    0  0.34294679427E+01  0.11268037092E+01  0.14801682557E+04  0.14802064370E+04  0.10000000000E+02 0. -1.
</event>
<event>
 5    1  0.7732857E-009  0.3693802E+03  0.7957747E-01  0.3498744E+00
         13   -1    0    0    0    0  0.00000000000E+00  0.00000000000E+00  0.14999999963E+04  0.15000000000E+04  0.10566000000E+00 0. -1.
        994   -1    0    0    0    0 -0.00000000000E+00 -0.00000000000E+00  0.11368683772E-12  0.17120000000E+03  0.17120000000E+03 0.  0.
         13    1    1    2    0    0 -0.32709310856E+02  0.78628596769E+02  0.36043641488E+03  0.37036033209E+03  0.10566000000E+00 0. -1.
        994    1    1    2    0    0  0.24743191183E+02 -0.33466634797E+02  0.16678642259E+02  0.17697417400E+03  0.17120000000E+03 0.  0.
        998    1    1    2    0    0  0.79661196729E+01 -0.45161961972E+02  0.11228849391E+04  0.11238654939E+04  0.10000000000E+02 0. -1.
</event>
<event>
 5    1  0.7732857E-009  0.3812910E+03  0.7957747E-01  0.3445556E+00
         13   -1    0    0    0    0  0.00000000000E+00  0.00000000000E+00  0.14999999963E+04  0.15000000000E+04  0.10566000000E+00 0. -1.
        994   -1    0    0    0    0 -0.00000000000E+00 -0.00000000000E+00  0.11368683772E-12  0.17120000000E+03  0.17120000000E+03 0.  0.
         13    1    1    2    0    0  0.11926620566E+02  0.30360307620E+01  0.20433752595E+02  0.23853955019E+02  0.10566000000E+00 0. -1.
        994    1    1    2    0    0 -0.56534093688E+01 -0.58751725346E+01  0.37042079981E+01  0.17143406851E+03  0.17120000000E+03 0.  0.
        998    1    1    2    0    0 -0.62732111971E+01  0.28391417726E+01  0.14758620357E+04  0.14759119765E+04  0.10000000000E+02 0. -1.
</event>
<event>
 5    1  0.1200041E-008  0.3860349E+03  0.7957747E-01  0.3425295E+00
         13   -1    0    0    0    0  0.00000000000E+00  0.00000000000E+00  0.14999999963E+04  0.15000000000E+04  0.10566000000E+00 0. -1.
        994   -1    0    0    0    0 -0.00000000000E+00 -0.00000000000E+00  0.11368683772E-12  0.17120000000E+03  0.17120000000E+03 0.  0.
         13    1    1    2    0    0 -0.49861418968E+01 -0.91643330366E+01  0.48069892663E+02  0.49189148759E+02  0.10566000000E+00 0. -1.
        994    1    1    2    0    0  0.40949801630E+01  0.10243577401E+02  0.15161630744E+01  0.17156176290E+03  0.17120000000E+03 0.  0.
        998    1    1    2    0    0  0.89116173379E+00 -0.10792443640E+01  0.14504139405E+04  0.14504490883E+04  0.10000000000E+02 0. -1.
</event>
<event>
 5    1  0.7732857E-009  0.3792812E+03  0.7957747E-01  0.3454294E+00
         13   -1    0    0    0    0  0.00000000000E+00  0.00000000000E+00  0.14999999963E+04  0.15000000000E+04  0.10566000000E+00 0. -1.
        994   -1    0    0    0    0 -0.00000000000E+00 -0.00000000000E+00  0.11368683772E-12  0.17120000000E+03  0.17120000000E+03 0.  0.
         13    1    1    2    0    0  0.19699375661E+02  0.12552039920E+01  0.40536200404E+02  0.45086978671E+02  0.10566000000E+00 0. -1.
        994    1    1    2    0    0 -0.20544145389E+02 -0.41218821269E+01  0.59690127382E+01  0.17258076641E+03  0.17120000000E+03 0.  0.
        998    1    1    2    0    0  0.84476972736E+00  0.28666781349E+01  0.14534947831E+04  0.14535322549E+04  0.10000000000E+02 0. -1.
</event>
<event>
 5    1  0.7732857E-009  0.3713243E+03  0.7957747E-01  0.3489827E+00
         13   -1    0    0    0    0  0.00000000000E+00  0.00000000000E+00  0.14999999963E+04  0.15000000000E+04  0.10566000000E+00 0.  1.
        994   -1    0    0    0    0 -0.00000000000E+00 -0.00000000000E+00  0.11368683772E-12  0.17120000000E+03  0.17120000000E+03 0.  0.
         13    1    1    2    0    0 -0.19581598645E+02  0.41124650782E+01  0.11338238506E+02  0.22998221474E+02  0.10566000000E+00 0.  1.
        994    1    1    2    0    0  0.43743240070E+02  0.15927993617E+02  0.19291527507E+02  0.17846225110E+03  0.17120000000E+03 0.  0.
        998    1    1    2    0    0 -0.24161641425E+02 -0.20040458695E+02  0.14693702303E+04  0.14697395274E+04  0.10000000000E+02 0.  1.
</event>
<event>
 5    1  0.7732857E-009  0.3739435E+03  0.7957747E-01  0.3477961E+00
         13   -1    0    0    0    0  0.00000000000E+00  0.00000000000E+00  0.14999999963E+04  0.15000000000E+04  0.10566000000E+00 0.  1.
        994   -1    0    0    0    0 -0.00000000000E+00 -0.00000000000E+00  0.11368683772E-12  0.17120000000E+03  0.17120000000E+03 0.  0.
         13    1    1    2    0    0 -0.14589683070E+02 -0.40246851184E+01  0.12722280254E+02  0.19771811279E+02  0.10566000000E+00 0.  1.
        994    1    1    2    0    0  0.98555115422E+01 -0.28298634042E+01  0.75810256635E+01  0.17167425895E+03  0.17120000000E+03 0.  0.
        998    1    1    2    0    0  0.47341715276E+01  0.68545485226E+01  0.14796966904E+04  0.14797539298E+04  0.10000000000E+02 0.  1.
</event>
<event>
 5    1  0.7732857E-009  0.3781644E+03  0.7957747E-01  0.3459190E+00
         13   -1    0    0    0    0  0.00000000000E+00  0.00000000000E+00  0.14999999963E+04  0.15000000000E+04  0.10566000000E+00 0.  1.
        994   -1    0    0    0    0 -0.00000000000E+00 -0.00000000000E+00  0.11368683772E-12  0.17120000000E+03  0.17120000000E+03 0.  0.
         13    1    1    2    0    0 -0.46709931430E+02  0.20891573840E+01  0.62500690861E+02  0.78054659021E+02  0.10566000000E+00 0.  1.
        994    1    1    2    0    0  0.51143351823E+02  0.85582234092E+01  0.25064702089E+02  0.18062825060E+03  0.17120000000E+03 0.  0.
        998    1    1    2    0    0 -0.44334203930E+01 -0.10647380793E+02  0.14124346033E+04  0.14125170904E+04  0.10000000000E+02 0.  1.
</event>
<event>
 5    1  0.7732857E-009  0.3710887E+03  0.7957747E-01  0.3490902E+00
         13   -1    0    0    0    0  0.00000000000E+00  0.00000000000E+00  0.14999999963E+04  0.15000000000E+04  0.10566000000E+00 0.  1.
        994   -1    0    0    0    0 -0.00000000000E+00 -0.00000000000E+00  0.11368683772E-12  0.17120000000E+03  0.17120000000E+03 0.  0.
         13    1    1    2    0    0  0.53239874376E+02  0.40552658795E+02  0.24771676520E+03  0.25659814747E+03  0.10566000000E+00 0.  1.
        994    1    1    2    0    0 -0.34015439272E+02 -0.26894033057E+02  0.15206270742E+02  0.17725972411E+03  0.17120000000E+03 0.  0.
        998    1    1    2    0    0 -0.19224435104E+02 -0.13658625738E+02  0.12370769603E+04  0.12373421284E+04  0.10000000000E+02 0.  1.
</event>
<event>
 5    1  0.7732857E-009  0.3840559E+03  0.7957747E-01  0.3433686E+00
         13   -1    0    0    0    0  0.00000000000E+00  0.00000000000E+00  0.14999999963E+04  0.15000000000E+04  0.10566000000E+00 0.  1.
        994   -1    0    0    0    0 -0.00000000000E+00 -0.00000000000E+00  0.11368683772E-12  0.17120000000E+03  0.17120000000E+03 0.  0.
         13    1    1    2    0    0  0.15280673033E+02 -0.59382386357E+01  0.71072285233E+02  0.72938621722E+02  0.10566000000E+00 0.  1.
        994    1    1    2    0    0  0.51296600302E+01 -0.84047990090E+01  0.24194764440E+01  0.17149999395E+03  0.17120000000E+03 0.  0.
        998    1    1    2    0    0 -0.20410333063E+02  0.14343037645E+02  0.14265082346E+04  0.14267613843E+04  0.10000000000E+02 0.  1.
</event>
<event>
 5    1  0.7732857E-009  0.3817908E+03  0.7957747E-01  0.3443398E+00
         13   -1    0    0    0    0  0.00000000000E+00  0.00000000000E+00  0.14999999963E+04  0.15000000000E+04  0.10566000000E+00 0.  1.
        994   -1    0    0    0    0 -0.00000000000E+00 -0.00000000000E+00  0.11368683772E-12  0.17120000000E+03  0.17120000000E+03 0.  0.
         13    1    1    2    0    0  0.12779532286E+02 -0.78339225759E+01  0.32791953245E+02  0.36055653510E+02  0.10566000000E+00 0.  1.
        994    1    1    2    0    0 -0.15782364425E+02  0.66745873877E+01  0.42083075441E+01  0.17210689410E+03  0.17120000000E+03 0.  0.
        998    1    1    2    0    0  0.30028321389E+01  0.11593351883E+01  0.14629997355E+04  0.14630374524E+04  0.10000000000E+02 0.  1.
</event>
<event>
 5    1  0.7732857E-009  0.3802043E+03  0.7957747E-01  0.3450269E+00
         13   -1    0    0    0    0  0.00000000000E+00  0.00000000000E+00  0.14999999963E+04  0.15000000000E+04  0.10566000000E+00 0.  1.
        994   -1    0    0    0    0 -0.00000000000E+00 -0.00000000000E+00  0.11368683772E-12  0.17120000000E+03  0.17120000000E+03 0.  0.
         13    1    1    2    0    0 -0.16549836008E+01  0.11862201090E+02  0.16030799978E+02  0.20011209293E+02  0.10566000000E+00 0.  1.
        994    1    1    2    0    0  0.44014551711E+01 -0.93139473478E+01  0.43846361115E+01  0.17156569429E+03  0.17120000000E+03 0.  0.
        998    1    1    2    0    0 -0.27464715703E+01 -0.25482537424E+01  0.14795845602E+04  0.14796230964E+04  0.10000000000E+02 0.  1.
</event>
<event>
 5    1  0.7732857E-009  0.3818476E+03  0.7957747E-01  0.3443153E+00
         13   -1    0    0    0    0  0.00000000000E+00  0.00000000000E+00  0.14999999963E+04  0.15000000000E+04  0.10566000000E+00 0.  1.
        994   -1    0    0    0    0 -0.00000000000E+00 -0.00000000000E+00  0.11368683772E-12  0.17120000000E+03  0.17120000000E+03 0.  0.
         13    1    1    2    0    0 -0.75459568423E+01  0.18837170359E+02  0.70242898150E+02  0.73115363340E+02  0.10566000000E+00 0.  1.
        994    1    1    2    0    0 -0.58148736604E+01  0.68171690361E+01  0.34702190411E+01  0.17146944034E+03  0.17120000000E+03 0.  0.
        998    1    1    2    0    0  0.13360830503E+02 -0.25654339395E+02  0.14262868791E+04  0.14266151963E+04  0.10000000000E+02 0.  1.
</event>
<event>
 5    1  0.7732857E-009  0.3813562E+03  0.7957747E-01  0.3445274E+00
         13   -1    0    0    0    0  0.00000000000E+00  0.00000000000E+00  0.14999999963E+04  0.15000000000E+04  0.10566000000E+00 0.  1.
        994   -1    0    0    0    0 -0.00000000000E+00 -0.00000000000E+00  0.11368683772E-12  0.17120000000E+03  0.17120000000E+03 0.  0.
         13    1    1    2    0    0  0.15988964992E+02  0.12290061270E+02  0.58770884493E+02  0.62134697518E+02  0.10566000000E+00 0.  1.
        994    1    1    2    0    0 -0.10041589496E+02 -0.16047229531E+01  0.37943230437E+01  0.17154371321E+03  0.17120000000E+03 0.  0.
        998    1    1    2    0    0 -0.59473754967E+01 -0.10685338317E+02  0.14374347887E+04  0.14375215893E+04  0.10000000000E+02 0.  1.
</event>
<event>
 5    1  0.7732857E-009  0.3800411E+03  0.7957747E-01  0.3450979E+00
         13   -1    0    0    0    0  0.00000000000E+00  0.00000000000E+00  0.14999999963E+04  0.15000000000E+04  0.10566000000E+00 0. -1.
        994   -1    0    0    0    0 -0.00000000000E+00 -0.00000000000E+00  0.11368683772E-12  0.17120000000E+03  0.17120000000E+03 0.  0.
         13    1    1    2    0    0 -0.48386327365E+01 -0.15059704631E+02  0.28108173411E+02  0.32253490461E+02  0.10566000000E+00 0. -1.
        994    1    1    2    0    0 -0.74457755652E+01  0.21940567629E+02  0.59087759776E+01  0.17286174162E+03  0.17120000000E+03 0.  0.
        998    1    1    2    0    0  0.12284408302E+02 -0.68808629972E+01  0.14659830469E+04  0.14660847679E+04  0.10000000000E+02 0. -1.
</event>
<event>
 5    1  0.7732857E-009  0.3830224E+03  0.7957747E-01  0.3438103E+00
         13   -1    0    0    0    0  0.00000000000E+00  0.00000000000E+00  0.14999999963E+04  0.15000000000E+04  0.10566000000E+00 0.  1.
        994   -1    0    0    0    0 -0.00000000000E+00 -0.00000000000E+00  0.11368683772E-12  0.17120000000E+03  0.17120000000E+03 0.  0.
         13    1    1    2    0    0  0.86209611465E+01  0.16418483323E+02  0.70859317894E+02  0.73245762077E+02  0.10566000000E+00 0.  1.
        994    1    1    2    0    0 -0.12219548727E+02  0.10763319448E+02  0.34933182343E+01  0.17200816751E+03  0.17120000000E+03 0.  0.
        998    1    1    2    0    0  0.35985875800E+01 -0.27181802771E+02  0.14256473601E+04  0.14259460704E+04  0.10000000000E+02 0.  1.
</event>
<event>
 5    1  0.7732857E-009  0.3837353E+03  0.7957747E-01  0.3435054E+00
         13   -1    0    0    0    0  0.00000000000E+00  0.00000000000E+00  0.14999999963E+04  0.15000000000E+04  0.10566000000E+00 0.  1.
        994   -1    0    0    0    0 -0.00000000000E+00 -0.00000000000E+00  0.11368683772E-12  0.17120000000E+03  0.17120000000E+03 0.  0.
         13    1    1    2    0    0  0.20877935831E+02  0.90013329221E+01  0.12487873313E+03  0.12693156168E+03  0.10566000000E+00 0.  1.
        994    1    1    2    0    0 -0.87091407921E+01  0.14060761697E+02  0.31631994480E+01  0.17202616075E+03  0.17120000000E+03 0.  0.
        998    1    1    2    0    0 -0.12168795039E+02 -0.23062094620E+02  0.13719580637E+04  0.13722422776E+04  0.10000000000E+02 0.  1.
</event>
<event>
 5    1  0.7732857E-009  0.3810925E+03  0.7957747E-01  0.3446415E+00
         13   -1    0    0    0    0  0.00000000000E+00  0.00000000000E+00  0.14999999963E+04  0.15000000000E+04  0.10566000000E+00 0.  1.
        994   -1    0    0    0    0 -0.00000000000E+00 -0.00000000000E+00  0.11368683772E-12  0.17120000000E+03  0.17120000000E+03 0.  0.
         13    1    1    2    0    0  0.23698357166E+02  0.50588550216E+01  0.74202805106E+02  0.78059410683E+02  0.10566000000E+00 0.  1.
        994    1    1    2    0    0 -0.31174528263E+02 -0.12502417193E+02  0.73495750878E+01  0.17461849244E+03  0.17120000000E+03 0.  0.
        998    1    1    2    0    0  0.74761710971E+01  0.74435621712E+01  0.14184476161E+04  0.14185220969E+04  0.10000000000E+02 0.  1.
</event>
<event>
 5    1  0.7732857E-009  0.3844771E+03  0.7957747E-01  0.3431893E+00
         13   -1    0    0    0    0  0.00000000000E+00  0.00000000000E+00  0.14999999963E+04  0.15000000000E+04  0.10566000000E+00 0. -1.
        994   -1    0    0    0    0 -0.00000000000E+00 -0.00000000000E+00  0.11368683772E-12  0.17120000000E+03  0.17120000000E+03 0.  0.
         13    1    1    2    0    0  0.83375587827E+01 -0.16734701265E+02  0.86878788202E+02  0.88867880116E+02  0.10566000000E+00 0. -1.
        994    1    1    2    0    0 -0.90845202057E+01  0.18752071864E+02  0.33215319949E+01  0.17249533698E+03  0.17120000000E+03 0.  0.
        998    1    1    2    0    0  0.74696142304E+00 -0.20173705995E+01  0.14097996761E+04  0.14098367829E+04  0.10000000000E+02 0. -1.
</event>
<event>
 5    1  0.7732857E-009  0.3816267E+03  0.7957747E-01  0.3444106E+00
         13   -1    0    0    0    0  0.00000000000E+00  0.00000000000E+00  0.14999999963E+04  0.15000000000E+04  0.10566000000E+00 0. -1.
        994   -1    0    0    0    0 -0.00000000000E+00 -0.00000000000E+00  0.11368683772E-12  0.17120000000E+03  0.17120000000E+03 0.  0.
         13    1    1    2    0    0  0.10448985468E+02 -0.65090774704E+01  0.20479490759E+02  0.23894980490E+02  0.10566000000E+00 0. -1.
        994    1    1    2    0    0 -0.27695189920E+02  0.47018825200E+01  0.59425853212E+01  0.17359114483E+03  0.17120000000E+03 0.  0.
        998    1    1    2    0    0  0.17246204452E+02  0.18071949504E+01  0.14735779202E+04  0.14737138747E+04  0.10000000000E+02 0. -1.
</event>
<event>
 5    1  0.7732857E-009  0.3817937E+03  0.7957747E-01  0.3443385E+00
         13   -1    0    0    0    0  0.00000000000E+00  0.00000000000E+00  0.14999999963E+04  0.15000000000E+04  0.10566000000E+00 0.  1.
        994   -1    0    0    0    0 -0.00000000000E+00 -0.00000000000E+00  0.11368683772E-12  0.17120000000E+03  0.17120000000E+03 0.  0.
         13    1    1    2    0    0 -0.12011833740E+02  0.60921431569E+01  0.26395954341E+02  0.29633695815E+02  0.10566000000E+00 0.  1.
        994    1    1    2    0    0  0.13263928939E+02 -0.60376050115E+01  0.39365443000E+01  0.17186425127E+03  0.17120000000E+03 0.  0.
        998    1    1    2    0    0 -0.12520951987E+01 -0.54538145374E-01  0.14696674976E+04  0.14697020529E+04  0.10000000000E+02 0.  1.
</event>
<event>
 5    1  0.7732857E-009  0.3836259E+03  0.7957747E-01  0.3435521E+00
         13   -1    0    0    0    0  0.00000000000E+00  0.00000000000E+00  0.14999999963E+04  0.15000000000E+04  0.10566000000E+00 0. -1.
        994   -1    0    0    0    0 -0.00000000000E+00 -0.00000000000E+00  0.11368683772E-12  0.17120000000E+03  0.17120000000E+03 0.  0.
         13    1    1    2    0    0  0.92248975358E+00 -0.22002100635E+02  0.99015082388E+02  0.10143441785E+03  0.10566000000E+00 0. -1.
        994    1    1    2    0    0  0.56404538538E+01  0.21836416628E+02  0.39959112536E+01  0.17272536327E+03  0.17120000000E+03 0.  0.
        998    1    1    2    0    0 -0.65629436074E+01  0.16568400695E+00  0.13969890026E+04  0.13970402189E+04  0.10000000000E+02 0. -1.
</event>
<event>
 5    1  0.7732857E-009  0.3789876E+03  0.7957747E-01  0.3455579E+00
         13   -1    0    0    0    0  0.00000000000E+00  0.00000000000E+00  0.14999999963E+04  0.15000000000E+04  0.10566000000E+00 0. -1.
        994   -1    0    0    0    0 -0.00000000000E+00 -0.00000000000E+00  0.11368683772E-12  0.17120000000E+03  0.17120000000E+03 0.  0.
         13    1    1    2    0    0  0.29474991569E+02 -0.38140808824E+02  0.27149537853E+03  0.27574127031E+03  0.10566000000E+00 0. -1.
        994    1    1    2    0    0 -0.10802684983E+02  0.13249854715E+02  0.56259665685E+01  0.17214339416E+03  0.17120000000E+03 0.  0.
        998    1    1    2    0    0 -0.18672306586E+02  0.24890954108E+02  0.12228786512E+04  0.12233153355E+04  0.10000000000E+02 0. -1.
</event>
<event>
 5    1  0.7732857E-009  0.3797560E+03  0.7957747E-01  0.3452222E+00
         13   -1    0    0    0    0  0.00000000000E+00  0.00000000000E+00  0.14999999963E+04  0.15000000000E+04  0.10566000000E+00 0. -1.
        994   -1    0    0    0    0 -0.00000000000E+00 -0.00000000000E+00  0.11368683772E-12  0.17120000000E+03  0.17120000000E+03 0.  0.
         13    1    1    2    0    0 -0.15121890905E+02  0.98368533890E+01  0.35780010884E+02  0.40070632788E+02  0.10566000000E+00 0. -1.
        994    1    1    2    0    0  0.14801466600E+02 -0.11782131750E+02  0.54546780652E+01  0.17232845254E+03  0.17120000000E+03 0.  0.
        998    1    1    2    0    0  0.32042430527E+00  0.19452783607E+01  0.14587653073E+04  0.14588009147E+04  0.10000000000E+02 0.  0.
</event>
<event>
 5    1  0.7732857E-009  0.3846637E+03  0.7957747E-01  0.3431100E+00
         13   -1    0    0    0    0  0.00000000000E+00  0.00000000000E+00  0.14999999963E+04  0.15000000000E+04  0.10566000000E+00 0. -1.
        994   -1    0    0    0    0 -0.00000000000E+00 -0.00000000000E+00  0.11368683772E-12  0.17120000000E+03  0.17120000000E+03 0.  0.
         13    1    1    2    0    0 -0.19047382808E+02 -0.37508579213E+01  0.10412594931E+03  0.10592023513E+03  0.10566000000E+00 0. -1.
        994    1    1    2    0    0  0.11566090509E+02  0.89532316680E+01  0.25018477033E+01  0.17184188677E+03  0.17120000000E+03 0.  0.
        998    1    1    2    0    0  0.74812922987E+01 -0.52023737467E+01  0.13933721993E+04  0.13934378781E+04  0.10000000000E+02 0. -1.
</event>
<event>
 5    1  0.7732857E-009  0.3809184E+03  0.7957747E-01  0.3447169E+00
         13   -1    0    0    0    0  0.00000000000E+00  0.00000000000E+00  0.14999999963E+04  0.15000000000E+04  0.10566000000E+00 0.  1.
        994   -1    0    0    0    0 -0.00000000000E+00 -0.00000000000E+00  0.11368683772E-12  0.17120000000E+03  0.17120000000E+03 0.  0.
         13    1    1    2    0    0 -0.41914028547E+02 -0.21837080236E+02  0.24085078435E+03  0.24544399635E+03  0.10566000000E+00 0.  1.
        994    1    1    2    0    0  0.47966575662E+02  0.26079918438E+02  0.13669759860E+02  0.18021447462E+03  0.17120000000E+03 0.  0.
        998    1    1    2    0    0 -0.60525471151E+01 -0.42428382024E+01  0.12454794521E+04  0.12455415290E+04  0.10000000000E+02 0.  1.
</event>
<event>
 5    1  0.7732857E-009  0.2719265E+03  0.7957747E-01  0.4119352E+00
         13   -1    0    0    0    0  0.00000000000E+00  0.00000000000E+00  0.14999999963E+04  0.15000000000E+04  0.10566000000E+00 0.  1.
        994   -1    0    0    0    0 -0.00000000000E+00 -0.00000000000E+00  0.11368683772E-12  0.17120000000E+03  0.17120000000E+03 0.  0.
         13    1    1    2    0    0  0.13838595186E+03  0.16649349816E+03  0.42107418430E+03  0.47347041771E+03  0.10566000000E+00 0.  1.
        994    1    1    2    0    0 -0.87444886300E+02 -0.14716620462E+03  0.19178632593E+03  0.30886232327E+03  0.17120000000E+03 0.  0.
        998    1    1    2    0    0 -0.50941065561E+02 -0.19327293536E+02  0.88713948605E+03  0.88886725902E+03  0.10000000000E+02 0.  1.
</event>
<event>
 5    1  0.7732857E-009  0.3810095E+03  0.7957747E-01  0.3446775E+00
         13   -1    0    0    0    0  0.00000000000E+00  0.00000000000E+00  0.14999999963E+04  0.15000000000E+04  0.10566000000E+00 0. -1.
        994   -1    0    0    0    0 -0.00000000000E+00 -0.00000000000E+00  0.11368683772E-12  0.17120000000E+03  0.17120000000E+03 0.  0.
         13    1    1    2    0    0  0.37729103338E+01 -0.39730104725E+02  0.19360119504E+03  0.19767182389E+03  0.10566000000E+00 0. -1.
        994    1    1    2    0    0  0.34019794805E+02  0.44734850889E+02  0.14220586905E+02  0.18074904817E+03  0.17120000000E+03 0.  0.
        998    1    1    2    0    0 -0.37792705139E+02 -0.50047461638E+01  0.12921782143E+04  0.12927791279E+04  0.10000000000E+02 0. -1.
</event>
<event>
 5    1  0.7732857E-009  0.3825541E+03  0.7957747E-01  0.3440112E+00
         13   -1    0    0    0    0  0.00000000000E+00  0.00000000000E+00  0.14999999963E+04  0.15000000000E+04  0.10566000000E+00 0. -1.
        994   -1    0    0    0    0 -0.00000000000E+00 -0.00000000000E+00  0.11368683772E-12  0.17120000000E+03  0.17120000000E+03 0.  0.
         13    1    1    2    0    0 -0.65958759084E+01 -0.20042183139E+02  0.75303231120E+02  0.78203468370E+02  0.10566000000E+00 0. -1.
        994    1    1    2    0    0  0.96229811408E+01  0.16020417405E+02  0.40079780372E+01  0.17226363350E+03  0.17120000000E+03 0.  0.
        998    1    1    2    0    0 -0.30271052324E+01  0.40217657337E+01  0.14206887871E+04  0.14207328981E+04  0.10000000000E+02 0. -1.
</event>
<event>
 5    1  0.7732857E-009  0.3816250E+03  0.7957747E-01  0.3444113E+00
         13   -1    0    0    0    0  0.00000000000E+00  0.00000000000E+00  0.14999999963E+04  0.15000000000E+04  0.10566000000E+00 0. -1.
        994   -1    0    0    0    0 -0.00000000000E+00 -0.00000000000E+00  0.11368683772E-12  0.17120000000E+03  0.17120000000E+03 0.  0.
         13    1    1    2    0    0 -0.26753055229E+02  0.17325532012E+02  0.18159444374E+03  0.18437042383E+03  0.10566000000E+00 0. -1.
        994    1    1    2    0    0 -0.65314053874E+01 -0.39756231405E+01  0.35095348299E+01  0.17140659751E+03  0.17120000000E+03 0.  0.
        998    1    1    2    0    0  0.33284460616E+02 -0.13349908871E+02  0.13148960177E+04  0.13154229787E+04  0.10000000000E+02 0. -1.
</event>
<event>
 5    1  0.7732857E-009  0.3837229E+03  0.7957747E-01  0.3435106E+00
         13   -1    0    0    0    0  0.00000000000E+00  0.00000000000E+00  0.14999999963E+04  0.15000000000E+04  0.10566000000E+00 0.  1.
        994   -1    0    0    0    0 -0.00000000000E+00 -0.00000000000E+00  0.11368683772E-12  0.17120000000E+03  0.17120000000E+03 0.  0.
         13    1    1    2    0    0  0.16568328861E+02  0.14678865234E+02  0.11069666806E+03  0.11288818402E+03  0.10566000000E+00 0.  1.
        994    1    1    2    0    0 -0.74414619672E+01 -0.63226523540E+01  0.25804444909E+01  0.17149766757E+03  0.17120000000E+03 0.  0.
        998    1    1    2    0    0 -0.91268668935E+01 -0.83562128802E+01  0.13867228837E+04  0.13868141484E+04  0.10000000000E+02 0.  1.
</event>
<event>
 5    1  0.7732857E-009  0.3810317E+03  0.7957747E-01  0.3446679E+00
         13   -1    0    0    0    0  0.00000000000E+00  0.00000000000E+00  0.14999999963E+04  0.15000000000E+04  0.10566000000E+00 0. -1.
        994   -1    0    0    0    0 -0.00000000000E+00 -0.00000000000E+00  0.11368683772E-12  0.17120000000E+03  0.17120000000E+03 0.  0.
         13    1    1    2    0    0 -0.26272586582E+02  0.15120853786E+02  0.11201146558E+03  0.11604080579E+03  0.10566000000E+00 0. -1.
        994    1    1    2    0    0  0.30915710971E+02 -0.24232386413E+02  0.87709472019E+01  0.17586744796E+03  0.17120000000E+03 0.  0.
        998    1    1    2    0    0 -0.46431243889E+01  0.91115326268E+01  0.13792175835E+04  0.13792917462E+04  0.10000000000E+02 0. -1.
</event>
<event>
 5    1  0.7732857E-009  0.3836724E+03  0.7957747E-01  0.3435322E+00
         13   -1    0    0    0    0  0.00000000000E+00  0.00000000000E+00  0.14999999963E+04  0.15000000000E+04  0.10566000000E+00 0.  1.
        994   -1    0    0    0    0 -0.00000000000E+00 -0.00000000000E+00  0.11368683772E-12  0.17120000000E+03  0.17120000000E+03 0.  0.
         13    1    1    2    0    0 -0.22934218317E+02 -0.64607034186E+01  0.12793099648E+03  0.13013097281E+03  0.10566000000E+00 0.  1.
        994    1    1    2    0    0  0.71959214250E+01  0.11140727492E+02  0.28718985926E+01  0.17173696427E+03  0.17120000000E+03 0.  0.
        998    1    1    2    0    0  0.15738296892E+02 -0.46800240733E+01  0.13691971012E+04  0.13693320629E+04  0.10000000000E+02 0.  1.
</event>
<event>
 5    1  0.7732857E-009  0.3772118E+03  0.7957747E-01  0.3463389E+00
         13   -1    0    0    0    0  0.00000000000E+00  0.00000000000E+00  0.14999999963E+04  0.15000000000E+04  0.10566000000E+00 0.  1.
        994   -1    0    0    0    0 -0.00000000000E+00 -0.00000000000E+00  0.11368683772E-12  0.17120000000E+03  0.17120000000E+03 0.  0.
         13    1    1    2    0    0 -0.70187300898E+02  0.95583015324E+01  0.37428400974E+03  0.38092801085E+03  0.10566000000E+00 0.  1.
        994    1    1    2    0    0  0.59077660153E+02 -0.16086023593E+02  0.18302594641E+02  0.18273848816E+03  0.17120000000E+03 0.  0.
        998    1    1    2    0    0  0.11109640745E+02  0.65277220605E+01  0.11074133919E+04  0.11075335010E+04  0.10000000000E+02 0.  1.
</event>
<event>
 5    1  0.7732857E-009  0.3760940E+03  0.7957747E-01  0.3468344E+00
         13   -1    0    0    0    0  0.00000000000E+00  0.00000000000E+00  0.14999999963E+04  0.15000000000E+04  0.10566000000E+00 0. -1.
        994   -1    0    0    0    0 -0.00000000000E+00 -0.00000000000E+00  0.11368683772E-12  0.17120000000E+03  0.17120000000E+03 0.  0.
         13    1    1    2    0    0  0.16199320778E+02  0.17611131572E+00  0.18894288736E+02  0.24888839261E+02  0.10566000000E+00 0. -1.
        994    1    1    2    0    0 -0.98285495280E+01  0.15670140328E+00  0.64453013153E+01  0.17160305024E+03  0.17120000000E+03 0.  0.
        998    1    1    2    0    0 -0.63707712502E+01 -0.33281271900E+00  0.14746604062E+04  0.14747081105E+04  0.10000000000E+02 0. -1.
</event>
<event>
 5    1  0.7732857E-009  0.3795332E+03  0.7957747E-01  0.3453194E+00
         13   -1    0    0    0    0  0.00000000000E+00  0.00000000000E+00  0.14999999963E+04  0.15000000000E+04  0.10566000000E+00 0.  1.
        994   -1    0    0    0    0 -0.00000000000E+00 -0.00000000000E+00  0.11368683772E-12  0.17120000000E+03  0.17120000000E+03 0.  0.
         13    1    1    2    0    0  0.35886568850E+02  0.15939328610E+02  0.17642812760E+03  0.18074513380E+03  0.10566000000E+00 0.  1.
        994    1    1    2    0    0 -0.16026057370E+02 -0.17405169600E+02  0.62454028205E+01  0.17293993032E+03  0.17120000000E+03 0.  0.
        998    1    1    2    0    0 -0.19860511481E+02  0.14658409896E+01  0.13173264659E+04  0.13175149359E+04  0.10000000000E+02 0.  1.
</event>
<event>
 5    1  0.7732857E-009  0.3720880E+03  0.7957747E-01  0.3486350E+00
         13   -1    0    0    0    0  0.00000000000E+00  0.00000000000E+00  0.14999999963E+04  0.15000000000E+04  0.10566000000E+00 0. -1.
        994   -1    0    0    0    0 -0.00000000000E+00 -0.00000000000E+00  0.11368683772E-12  0.17120000000E+03  0.17120000000E+03 0.  0.
         13    1    1    2    0    0  0.66590228929E+02  0.66147897865E+01  0.24495534634E+03  0.25393138226E+03  0.10566000000E+00 0. -1.
        994    1    1    2    0    0 -0.55995503030E+02  0.31715593147E+01  0.19058648533E+02  0.18115801730E+03  0.17120000000E+03 0.  0.
        998    1    1    2    0    0 -0.10594725899E+02 -0.97863491012E+01  0.12359860014E+04  0.12361106004E+04  0.10000000000E+02 0. -1.
</event>
<event>
 5    1  0.7732857E-009  0.3698881E+03  0.7957747E-01  0.3496405E+00
         13   -1    0    0    0    0  0.00000000000E+00  0.00000000000E+00  0.14999999963E+04  0.15000000000E+04  0.10566000000E+00 0. -1.
        994   -1    0    0    0    0 -0.00000000000E+00 -0.00000000000E+00  0.11368683772E-12  0.17120000000E+03  0.17120000000E+03 0.  0.
         13    1    1    2    0    0  0.82512054670E+01  0.71846143025E+02  0.26691409603E+03  0.27653769451E+03  0.10566000000E+00 0. -1.
        994    1    1    2    0    0 -0.51753740765E+02 -0.44778428355E+02  0.25707044339E+02  0.18615544434E+03  0.17120000000E+03 0.  0.
        998    1    1    2    0    0  0.43502535298E+02 -0.27067714670E+02  0.12073788559E+04  0.12085068612E+04  0.10000000000E+02 0. -1.
</event>
<event>
 5    1  0.7732857E-009  0.3784556E+03  0.7957747E-01  0.3457911E+00
         13   -1    0    0    0    0  0.00000000000E+00  0.00000000000E+00  0.14999999963E+04  0.15000000000E+04  0.10566000000E+00 0.  1.
        994   -1    0    0    0    0 -0.00000000000E+00 -0.00000000000E+00  0.11368683772E-12  0.17120000000E+03  0.17120000000E+03 0.  0.
         13    1    1    2    0    0 -0.10391212454E+02 -0.59668881982E+01  0.12546534290E+02  0.17349574570E+02  0.10566000000E+00 0.  1.
        994    1    1    2    0    0  0.95022145382E+00  0.83885700908E+01  0.51543139407E+01  0.17148550371E+03  0.17120000000E+03 0.  0.
        998    1    1    2    0    0  0.94409910007E+01 -0.24216818926E+01  0.14822991480E+04  0.14823649217E+04  0.10000000000E+02 0.  1.
</event>
<event>
 5    1  0.7732857E-009  0.3815889E+03  0.7957747E-01  0.3444269E+00
         13   -1    0    0    0    0  0.00000000000E+00  0.00000000000E+00  0.14999999963E+04  0.15000000000E+04  0.10566000000E+00 0. -1.
        994   -1    0    0    0    0 -0.00000000000E+00 -0.00000000000E+00  0.11368683772E-12  0.17120000000E+03  0.17120000000E+03 0.  0.
         13    1    1    2    0    0 -0.70221487532E+01 -0.13540155804E+02  0.33272083553E+02  0.36601763623E+02  0.10566000000E+00 0. -1.
        994    1    1    2    0    0  0.24436119613E+01  0.14158458689E+02  0.40200244712E+01  0.17184886904E+03  0.17120000000E+03 0.  0.
        998    1    1    2    0    0  0.45785367919E+01 -0.61830288458E+00  0.14627078883E+04  0.14627493673E+04  0.10000000000E+02 0. -1.
</event>
<event>
 5    1  0.7732857E-009  0.3768919E+03  0.7957747E-01  0.3464805E+00
         13   -1    0    0    0    0  0.00000000000E+00  0.00000000000E+00  0.14999999963E+04  0.15000000000E+04  0.10566000000E+00 0. -1.
        994   -1    0    0    0    0 -0.00000000000E+00 -0.00000000000E+00  0.11368683772E-12  0.17120000000E+03  0.17120000000E+03 0.  0.
         13    1    1    2    0    0  0.25585357689E+02  0.20672533251E+01  0.54919342640E+02  0.60622020954E+02  0.10566000000E+00 0. -1.
        994    1    1    2    0    0 -0.19526061320E+02 -0.31141357703E+01  0.70320515714E+01  0.17248146179E+03  0.17120000000E+03 0.  0.
        998    1    1    2    0    0 -0.60592963690E+01  0.10468824453E+01  0.14380486021E+04  0.14380965173E+04  0.10000000000E+02 0. -1.
</event>
<event>
 5    1  0.7732857E-009  0.3825635E+03  0.7957747E-01  0.3440072E+00
         13   -1    0    0    0    0  0.00000000000E+00  0.00000000000E+00  0.14999999963E+04  0.15000000000E+04  0.10566000000E+00 0.  1.
        994   -1    0    0    0    0 -0.00000000000E+00 -0.00000000000E+00  0.11368683772E-12  0.17120000000E+03  0.17120000000E+03 0.  0.
         13    1    1    2    0    0  0.29860655545E+02  0.26467876794E+02  0.23712619138E+03  0.24046007788E+03  0.10566000000E+00 0.  1.
        994    1    1    2    0    0 -0.21965707678E+02 -0.36443179171E+02  0.88698497142E+01  0.17663157095E+03  0.17120000000E+03 0.  0.
        998    1    1    2    0    0 -0.78949478670E+01  0.99753023769E+01  0.12540039552E+04  0.12541083512E+04  0.10000000000E+02 0.  1.
</event>
<event>
 5    1  0.7732857E-009  0.3770790E+03  0.7957747E-01  0.3463977E+00
         13   -1    0    0    0    0  0.00000000000E+00  0.00000000000E+00  0.14999999963E+04  0.15000000000E+04  0.10566000000E+00 0. -1.
        994   -1    0    0    0    0 -0.00000000000E+00 -0.00000000000E+00  0.11368683772E-12  0.17120000000E+03  0.17120000000E+03 0.  0.
         13    1    1    2    0    0 -0.27811443030E+01  0.11039695406E+02  0.87779328024E+01  0.14376122795E+02  0.10566000000E+00 0. -1.
        994    1    1    2    0    0  0.83577265349E+01 -0.17928245965E+02  0.69368328033E+01  0.17247850082E+03  0.17120000000E+03 0.  0.
        998    1    1    2    0    0 -0.55765822319E+01  0.68885505593E+01  0.14842852307E+04  0.14843453764E+04  0.10000000000E+02 0. -1.
</event>
<event>
 5    1  0.7732857E-009  0.3828918E+03  0.7957747E-01  0.3438663E+00
         13   -1    0    0    0    0  0.00000000000E+00  0.00000000000E+00  0.14999999963E+04  0.15000000000E+04  0.10566000000E+00 0. -1.
        994   -1    0    0    0    0 -0.00000000000E+00 -0.00000000000E+00  0.11368683772E-12  0.17120000000E+03  0.17120000000E+03 0.  0.
         13    1    1    2    0    0  0.29130188066E+02 -0.82075031737E+01  0.16650231262E+03  0.16923050031E+03  0.10566000000E+00 0. -1.
        994    1    1    2    0    0 -0.28084684571E+02 -0.19696477884E+02  0.65866362407E+01  0.17472699999E+03  0.17120000000E+03 0.  0.
        998    1    1    2    0    0 -0.10455034954E+01  0.27903981058E+02  0.13269110474E+04  0.13272424997E+04  0.10000000000E+02 0. -1.
</event>
<event>
 5    1  0.7732857E-009  0.3792102E+03  0.7957747E-01  0.3454605E+00
         13   -1    0    0    0    0  0.00000000000E+00  0.00000000000E+00  0.14999999963E+04  0.15000000000E+04  0.10566000000E+00 0.  1.
        994   -1    0    0    0    0 -0.00000000000E+00 -0.00000000000E+00  0.11368683772E-12  0.17120000000E+03  0.17120000000E+03 0.  0.
         13    1    1    2    0    0 -0.18475861800E+02  0.13890433484E+02  0.56903325786E+02  0.61419062686E+02  0.10566000000E+00 0.  1.
        994    1    1    2    0    0  0.14553551748E+02 -0.80837852082E+01  0.54618215852E+01  0.17209423275E+03  0.17120000000E+03 0.  0.
        998    1    1    2    0    0  0.39223100520E+01 -0.58066482753E+01  0.14376348489E+04  0.14376867046E+04  0.10000000000E+02 0.  1.
</event>
<event>
 5    1  0.7732857E-009  0.3856077E+03  0.7957747E-01  0.3427099E+00
         13   -1    0    0    0    0  0.00000000000E+00  0.00000000000E+00  0.14999999963E+04  0.15000000000E+04  0.10566000000E+00 0.  1.
        994   -1    0    0    0    0 -0.00000000000E+00 -0.00000000000E+00  0.11368683772E-12  0.17120000000E+03  0.17120000000E+03 0.  0.
         13    1    1    2    0    0  0.37892250034E+01  0.11092285747E+02  0.52034221329E+02  0.53338245027E+02  0.10566000000E+00 0.  1.
        994    1    1    2    0    0 -0.14799886570E+01 -0.77239983258E+01  0.15317403147E+01  0.17138738794E+03  0.17120000000E+03 0.  0.
        998    1    1    2    0    0 -0.23092363464E+01 -0.33682874209E+01  0.14464340346E+04  0.14464743670E+04  0.10000000000E+02 0.  1.
</event>
<event>
 5    1  0.7732857E-009  0.3814735E+03  0.7957747E-01  0.3444767E+00
         13   -1    0    0    0    0  0.00000000000E+00  0.00000000000E+00  0.14999999963E+04  0.15000000000E+04  0.10566000000E+00 0.  1.
        994   -1    0    0    0    0 -0.00000000000E+00 -0.00000000000E+00  0.11368683772E-12  0.17120000000E+03  0.17120000000E+03 0.  0.
         13    1    1    2    0    0  0.54359473621E+02 -0.31256833476E+02  0.32379100044E+03  0.32980686036E+03  0.10566000000E+00 0.  1.
        994    1    1    2    0    0 -0.90250898012E+02  0.35570516542E+02  0.35357416475E+02  0.19992516885E+03  0.17120000000E+03 0.  0.
        998    1    1    2    0    0  0.35891424391E+02 -0.43136830661E+01  0.11408515794E+04  0.11414679708E+04  0.10000000000E+02 0.  1.
</event>
<event>
 5    1  0.7732857E-009  0.3828185E+03  0.7957747E-01  0.3438977E+00
         13   -1    0    0    0    0  0.00000000000E+00  0.00000000000E+00  0.14999999963E+04  0.15000000000E+04  0.10566000000E+00 0.  1.
        994   -1    0    0    0    0 -0.00000000000E+00 -0.00000000000E+00  0.11368683772E-12  0.17120000000E+03  0.17120000000E+03 0.  0.
         13    1    1    2    0    0  0.14356116455E+02 -0.12241425268E+02  0.63211470986E+02  0.65967050870E+02  0.10566000000E+00 0.  1.
        994    1    1    2    0    0 -0.14023442960E+02  0.95194024017E+01  0.36691726180E+01  0.17207608434E+03  0.17120000000E+03 0.  0.
        998    1    1    2    0    0 -0.33267349467E+00  0.27220228663E+01  0.14331193527E+04  0.14331568648E+04  0.10000000000E+02 0.  1.
</event>
<event>
 5    1  0.7732857E-009  0.3835220E+03  0.7957747E-01  0.3435965E+00
         13   -1    0    0    0    0  0.00000000000E+00  0.00000000000E+00  0.14999999963E+04  0.15000000000E+04  0.10566000000E+00 0. -1.
        994   -1    0    0    0    0 -0.00000000000E+00 -0.00000000000E+00  0.11368683772E-12  0.17120000000E+03  0.17120000000E+03 0.  0.
         13    1    1    2    0    0 -0.10571558500E+02  0.26941787348E+01  0.23080367378E+02  0.25529022122E+02  0.10566000000E+00 0. -1.
        994    1    1    2    0    0  0.29065215047E+02  0.18818222135E+02  0.63375931004E+01  0.17478134139E+03  0.17120000000E+03 0.  0.
        998    1    1    2    0    0 -0.18493656547E+02 -0.21512400870E+02  0.14705820358E+04  0.14708896365E+04  0.10000000000E+02 0. -1.
</event>
<event>
 5    1  0.7732857E-009  0.3797207E+03  0.7957747E-01  0.3452376E+00
         13   -1    0    0    0    0  0.00000000000E+00  0.00000000000E+00  0.14999999963E+04  0.15000000000E+04  0.10566000000E+00 0. -1.
        994   -1    0    0    0    0 -0.00000000000E+00 -0.00000000000E+00  0.11368683772E-12  0.17120000000E+03  0.17120000000E+03 0.  0.
         13    1    1    2    0    0  0.85110782359E+01 -0.10540261303E+02  0.19851393025E+02  0.24033820548E+02  0.10566000000E+00 0. -1.
        994    1    1    2    0    0  0.56263161668E+01  0.12507229032E+02  0.49037956610E+01  0.17181843156E+03  0.17120000000E+03 0.  0.
        998    1    1    2    0    0 -0.14137394403E+02 -0.19669677298E+01  0.14752448076E+04  0.14753477479E+04  0.10000000000E+02 0. -1.
</event>
<event>
 5    1  0.7732857E-009  0.4219186E+03  0.7957747E-01  0.3286753E+00
         13   -1    0    0    0    0  0.00000000000E+00  0.00000000000E+00  0.14999999963E+04  0.15000000000E+04  0.10566000000E+00 0. -1.
        994   -1    0    0    0    0 -0.00000000000E+00 -0.00000000000E+00  0.11368683772E-12  0.17120000000E+03  0.17120000000E+03 0.  0.
         13    1    1    2    0    0  0.25387142013E+02  0.29253030714E+02 -0.59518415349E+00  0.38737736044E+02  0.10566000000E+00 0. -1.
        994    1    1    2    0    0 -0.99195537333E+02 -0.20922849627E+02  0.87456484412E+02  0.21733751846E+03  0.17120000000E+03 0.  0.
        998    1    1    2    0    0  0.73808395319E+02 -0.83301810874E+01  0.14131386960E+04  0.14151247455E+04  0.10000000000E+02 0. -1.
</event>
<event>
 5    1  0.7732857E-009  0.3749592E+03  0.7957747E-01  0.3473405E+00
         13   -1    0    0    0    0  0.00000000000E+00  0.00000000000E+00  0.14999999963E+04  0.15000000000E+04  0.10566000000E+00 0. -1.
        994   -1    0    0    0    0 -0.00000000000E+00 -0.00000000000E+00  0.11368683772E-12  0.17120000000E+03  0.17120000000E+03 0.  0.
         13    1    1    2    0    0 -0.43763712730E+02 -0.18166298826E+02  0.16556094089E+03  0.17220834265E+03  0.10566000000E+00 0. -1.
        994    1    1    2    0    0  0.24111158222E+02  0.13811466981E+02  0.93290400462E+01  0.17369103477E+03  0.17120000000E+03 0.  0.
        998    1    1    2    0    0  0.19652554509E+02  0.43548318442E+01  0.13251100153E+04  0.13253006226E+04  0.10000000000E+02 0. -1.
</event>
<event>
 5    1  0.7732857E-009  0.3795942E+03  0.7957747E-01  0.3452927E+00
         13   -1    0    0    0    0  0.00000000000E+00  0.00000000000E+00  0.14999999963E+04  0.15000000000E+04  0.10566000000E+00 0.  1.
        994   -1    0    0    0    0 -0.00000000000E+00 -0.00000000000E+00  0.11368683772E-12  0.17120000000E+03  0.17120000000E+03 0.  0.
         13    1    1    2    0    0 -0.16657158871E+02 -0.46524498595E+02  0.25749436102E+03  0.26219333903E+03  0.10566000000E+00 0.  1.
        994    1    1    2    0    0  0.11905440203E+02  0.36474389799E+02  0.92817118302E+01  0.17569209086E+03  0.17120000000E+03 0.  0.
        998    1    1    2    0    0  0.47517186682E+01  0.10050108796E+02  0.12332239234E+04  0.12333145701E+04  0.10000000000E+02 0.  1.
</event>
<event>
 5    1  0.7732857E-009  0.3766247E+03  0.7957747E-01  0.3465988E+00
         13   -1    0    0    0    0  0.00000000000E+00  0.00000000000E+00  0.14999999963E+04  0.15000000000E+04  0.10566000000E+00 0.  1.
        994   -1    0    0    0    0 -0.00000000000E+00 -0.00000000000E+00  0.11368683772E-12  0.17120000000E+03  0.17120000000E+03 0.  0.
         13    1    1    2    0    0 -0.49277122654E+02  0.32910388121E+02  0.11120241135E+03  0.12600522179E+03  0.10566000000E+00 0.  1.
        994    1    1    2    0    0  0.40490801013E+02 -0.32459677266E+02  0.24188302764E+02  0.18052049636E+03  0.17120000000E+03 0.  0.
        998    1    1    2    0    0  0.87863216403E+01 -0.45071085488E+00  0.13646092822E+04  0.13646742819E+04  0.10000000000E+02 0.  1.
</event>
<event>
 5    1  0.7732857E-009  0.3839686E+03  0.7957747E-01  0.3434058E+00
         13   -1    0    0    0    0  0.00000000000E+00  0.00000000000E+00  0.14999999963E+04  0.15000000000E+04  0.10566000000E+00 0. -1.
        994   -1    0    0    0    0 -0.00000000000E+00 -0.00000000000E+00  0.11368683772E-12  0.17120000000E+03  0.17120000000E+03 0.  0.
         13    1    1    2    0    0  0.87715196862E+01 -0.98110305981E+01  0.38942284323E+02  0.41106064654E+02  0.10566000000E+00 0. -1.
        994    1    1    2    0    0 -0.88293618003E+01  0.11243107532E+02  0.28176978893E+01  0.17181892945E+03  0.17120000000E+03 0.  0.
        998    1    1    2    0    0  0.57842114115E-01 -0.14320769338E+01  0.14582400141E+04  0.14582750059E+04  0.10000000000E+02 0. -1.
</event>
<event>
 5    1  0.7732857E-009  0.3722660E+03  0.7957747E-01  0.3485541E+00
         13   -1    0    0    0    0  0.00000000000E+00  0.00000000000E+00  0.14999999963E+04  0.15000000000E+04  0.10566000000E+00 0. -1.
        994   -1    0    0    0    0 -0.00000000000E+00 -0.00000000000E+00  0.11368683772E-12  0.17120000000E+03  0.17120000000E+03 0.  0.
         13    1    1    2    0    0  0.76807415981E+02 -0.15714609704E+03  0.68738503156E+03  0.70929011535E+03  0.10566000000E+00 0. -1.
        994    1    1    2    0    0 -0.12206101858E+03  0.15844078715E+03  0.16089610224E+03  0.30854395312E+03  0.17120000000E+03 0.  0.
        998    1    1    2    0    0  0.45253602594E+02 -0.12946901152E+01  0.65171886248E+03  0.65336593153E+03  0.10000000000E+02 0. -1.
</event>
<event>
 5    1  0.7732857E-009  0.3820980E+03  0.7957747E-01  0.3442074E+00
         13   -1    0    0    0    0  0.00000000000E+00  0.00000000000E+00  0.14999999963E+04  0.15000000000E+04  0.10566000000E+00 0. -1.
        994   -1    0    0    0    0 -0.00000000000E+00 -0.00000000000E+00  0.11368683772E-12  0.17120000000E+03  0.17120000000E+03 0.  0.
         13    1    1    2    0    0  0.37948436423E+01 -0.31229149332E+02  0.15201804572E+03  0.15523903503E+03  0.10566000000E+00 0. -1.
        994    1    1    2    0    0 -0.45160116873E+01  0.25132986146E+02  0.52456297813E+01  0.17317337551E+03  0.17120000000E+03 0.  0.
        998    1    1    2    0    0  0.72116804502E+00  0.60961631866E+01  0.13427363208E+04  0.13427875895E+04  0.10000000000E+02 0. -1.
</event>
<event>
 5    1  0.7732857E-009  0.4044219E+03  0.7957747E-01  0.3351259E+00
         13   -1    0    0    0    0  0.00000000000E+00  0.00000000000E+00  0.14999999963E+04  0.15000000000E+04  0.10566000000E+00 0. -1.
        994   -1    0    0    0    0 -0.00000000000E+00 -0.00000000000E+00  0.11368683772E-12  0.17120000000E+03  0.17120000000E+03 0.  0.
         13    1    1    2    0    0  0.19772894331E+02 -0.23857744351E+01 -0.67878208350E+01  0.21041505308E+02  0.10566000000E+00 0. -1.
        994    1    1    2    0    0 -0.15758262238E+02  0.22982773477E+01  0.31462686511E+02  0.17479400891E+03  0.17120000000E+03 0.  0.
        998    1    1    2    0    0 -0.40146320932E+01  0.87497087400E-01  0.14753251306E+04  0.14753644858E+04  0.10000000000E+02 0. -1.
</event>
<event>
 5    1  0.7732857E-009  0.3770363E+03  0.7957747E-01  0.3464166E+00
         13   -1    0    0    0    0  0.00000000000E+00  0.00000000000E+00  0.14999999963E+04  0.15000000000E+04  0.10566000000E+00 0. -1.
        994   -1    0    0    0    0 -0.00000000000E+00 -0.00000000000E+00  0.11368683772E-12  0.17120000000E+03  0.17120000000E+03 0.  0.
         13    1    1    2    0    0  0.17447733550E+02 -0.11202631509E+02  0.82650695007E+01  0.22321399970E+02  0.10566000000E+00 0. -1.
        994    1    1    2    0    0 -0.11843936594E+02  0.17813426470E+01  0.15223181924E+02  0.17229230187E+03  0.17120000000E+03 0.  0.
        998    1    1    2    0    0 -0.56037969559E+01  0.94212888615E+01  0.14765117449E+04  0.14765862982E+04  0.10000000000E+02 0. -1.
</event>
<event>
 5    1  0.7732857E-009  0.3845638E+03  0.7957747E-01  0.3431524E+00
         13   -1    0    0    0    0  0.00000000000E+00  0.00000000000E+00  0.14999999963E+04  0.15000000000E+04  0.10566000000E+00 0. -1.
        994   -1    0    0    0    0 -0.00000000000E+00 -0.00000000000E+00  0.11368683772E-12  0.17120000000E+03  0.17120000000E+03 0.  0.
         13    1    1    2    0    0 -0.82088157289E+01 -0.13514593991E+02  0.70301151601E+02  0.72057560234E+02  0.10566000000E+00 0. -1.
        994    1    1    2    0    0  0.82096255717E+01 -0.44815670316E+00  0.20695109732E+01  0.17140980623E+03  0.17120000000E+03 0.  0.
        998    1    1    2    0    0 -0.80984282344E-03  0.13962750694E+02  0.14276293337E+04  0.14277326335E+04  0.10000000000E+02 0. -1.
</event>
<event>
 5    1  0.7732857E-009  0.2772471E+03  0.7957747E-01  0.4073159E+00
         13   -1    0    0    0    0  0.00000000000E+00  0.00000000000E+00  0.14999999963E+04  0.15000000000E+04  0.10566000000E+00 0. -1.
        994   -1    0    0    0    0 -0.00000000000E+00 -0.00000000000E+00  0.11368683772E-12  0.17120000000E+03  0.17120000000E+03 0.  0.
         13    1    1    2    0    0  0.14208149469E+03  0.10934204278E+03  0.83055503974E+03  0.84968495259E+03  0.10566000000E+00 0. -1.
        994    1    1    2    0    0  0.33284203929E+02 -0.53000915977E+02  0.71566944626E+02  0.19582697181E+03  0.17120000000E+03 0.  0.
        998    1    1    2    0    0 -0.17536569862E+03 -0.56341126799E+02  0.59787801191E+03  0.62568807560E+03  0.10000000000E+02 0. -1.
</event>
<event>
 5    1  0.7732857E-009  0.3837796E+03  0.7957747E-01  0.3434864E+00
         13   -1    0    0    0    0  0.00000000000E+00  0.00000000000E+00  0.14999999963E+04  0.15000000000E+04  0.10566000000E+00 0. -1.
        994   -1    0    0    0    0 -0.00000000000E+00 -0.00000000000E+00  0.11368683772E-12  0.17120000000E+03  0.17120000000E+03 0.  0.
         13    1    1    2    0    0 -0.81816942396E+01 -0.14927077720E+02  0.62382356722E+02  0.64663183993E+02  0.10566000000E+00 0. -1.
        994    1    1    2    0    0  0.15535539323E+01  0.18118529703E+02  0.33298522740E+01  0.17219530355E+03  0.17120000000E+03 0.  0.
        998    1    1    2    0    0  0.66281403073E+01 -0.31914519834E+01  0.14342877873E+04  0.14343415125E+04  0.10000000000E+02 0. -1.
</event>
<event>
 5    1  0.7732857E-009  0.3835026E+03  0.7957747E-01  0.3436048E+00
         13   -1    0    0    0    0  0.00000000000E+00  0.00000000000E+00  0.14999999963E+04  0.15000000000E+04  0.10566000000E+00 0. -1.
        994   -1    0    0    0    0 -0.00000000000E+00 -0.00000000000E+00  0.11368683772E-12  0.17120000000E+03  0.17120000000E+03 0.  0.
         13    1    1    2    0    0 -0.22235273752E+02  0.11984689261E+02  0.13419039342E+03  0.13654710918E+03  0.10566000000E+00 0. -1.
        994    1    1    2    0    0  0.12158067441E+02 -0.86997084908E+01  0.31143553824E+01  0.17187973336E+03  0.17120000000E+03 0.  0.
        998    1    1    2    0    0  0.10077206310E+02 -0.32849807702E+01  0.13626952475E+04  0.13627731575E+04  0.10000000000E+02 0. -1.
</event>
<event>
 5    1  0.7732857E-009  0.3696319E+03  0.7957747E-01  0.3497584E+00
         13   -1    0    0    0    0  0.00000000000E+00  0.00000000000E+00  0.14999999963E+04  0.15000000000E+04  0.10566000000E+00 0.  1.
        994   -1    0    0    0    0 -0.00000000000E+00 -0.00000000000E+00  0.11368683772E-12  0.17120000000E+03  0.17120000000E+03 0.  0.
         13    1    1    2    0    0 -0.85992114296E+02 -0.12159580488E+03  0.64278680716E+03  0.65981442399E+03  0.10566000000E+00 0.  1.
        994    1    1    2    0    0  0.89790743276E+02  0.11463723809E+03  0.86900579246E+02  0.24096726875E+03  0.17120000000E+03 0.  0.
        998    1    1    2    0    0 -0.37986289798E+01  0.69585667927E+01  0.77031260987E+03  0.77041830726E+03  0.10000000000E+02 0.  1.
</event>
<event>
 5    1  0.7732857E-009  0.3852695E+03  0.7957747E-01  0.3428530E+00
         13   -1    0    0    0    0  0.00000000000E+00  0.00000000000E+00  0.14999999963E+04  0.15000000000E+04  0.10566000000E+00 0. -1.
        994   -1    0    0    0    0 -0.00000000000E+00 -0.00000000000E+00  0.11368683772E-12  0.17120000000E+03  0.17120000000E+03 0.  0.
         13    1    1    2    0    0 -0.15150384430E+02  0.68917695287E+01  0.90174780828E+02  0.91698052853E+02  0.10566000000E+00 0. -1.
        994    1    1    2    0    0  0.14194825262E+02 -0.37827526497E+01  0.22058119848E+01  0.17184326547E+03  0.17120000000E+03 0.  0.
        998    1    1    2    0    0  0.95555916798E+00 -0.31090168791E+01  0.14076194035E+04  0.14076586817E+04  0.10000000000E+02 0. -1.
</event>
<event>
 5    1  0.7732857E-009  0.3755882E+03  0.7957747E-01  0.3470596E+00
         13   -1    0    0    0    0  0.00000000000E+00  0.00000000000E+00  0.14999999963E+04  0.15000000000E+04  0.10566000000E+00 0. -1.
        994   -1    0    0    0    0 -0.00000000000E+00 -0.00000000000E+00  0.11368683772E-12  0.17120000000E+03  0.17120000000E+03 0.  0.
         13    1    1    2    0    0 -0.45824191048E+02 -0.18261344725E+01  0.19981377304E+03  0.20500913715E+03  0.10566000000E+00 0. -1.
        994    1    1    2    0    0 -0.61879961068E+01  0.25712333835E+02  0.87533598269E+01  0.17345165527E+03  0.17120000000E+03 0.  0.
        998    1    1    2    0    0  0.52012187155E+02 -0.23886199363E+02  0.12914328634E+04  0.12927392076E+04  0.10000000000E+02 0. -1.
</event>
<event>
 5    1  0.7732857E-009  0.3804097E+03  0.7957747E-01  0.3449376E+00
         13   -1    0    0    0    0  0.00000000000E+00  0.00000000000E+00  0.14999999963E+04  0.15000000000E+04  0.10566000000E+00 0.  1.
        994   -1    0    0    0    0 -0.00000000000E+00 -0.00000000000E+00  0.11368683772E-12  0.17120000000E+03  0.17120000000E+03 0.  0.
         13    1    1    2    0    0  0.13688612326E+02  0.97830869827E+01  0.35479551211E+02  0.39266991437E+02  0.10566000000E+00 0.  1.
        994    1    1    2    0    0  0.60429354154E+00 -0.63910119168E+01  0.40640587358E+01  0.17136851163E+03  0.17120000000E+03 0.  0.
        998    1    1    2    0    0 -0.14292905868E+02 -0.33920750659E+01  0.14604563863E+04  0.14605644969E+04  0.10000000000E+02 0.  1.
</event>
<event>
 5    1  0.7732857E-009  0.3833504E+03  0.7957747E-01  0.3436699E+00
         13   -1    0    0    0    0  0.00000000000E+00  0.00000000000E+00  0.14999999963E+04  0.15000000000E+04  0.10566000000E+00 0.  1.
        994   -1    0    0    0    0 -0.00000000000E+00 -0.00000000000E+00  0.11368683772E-12  0.17120000000E+03  0.17120000000E+03 0.  0.
         13    1    1    2    0    0 -0.20826621984E+02  0.42922437668E+00  0.95026248488E+02  0.97282739901E+02  0.10566000000E+00 0.  1.
        994    1    1    2    0    0  0.79083877056E+00 -0.72984349993E+01  0.26295810899E+01  0.17137749933E+03  0.17120000000E+03 0.  0.
        998    1    1    2    0    0  0.20035783213E+02  0.68692106226E+01  0.14023441667E+04  0.14025397608E+04  0.10000000000E+02 0.  1.
</event>
<event>
 5    1  0.7732857E-009  0.3848441E+03  0.7957747E-01  0.3430333E+00
         13   -1    0    0    0    0  0.00000000000E+00  0.00000000000E+00  0.14999999963E+04  0.15000000000E+04  0.10566000000E+00 0. -1.
        994   -1    0    0    0    0 -0.00000000000E+00 -0.00000000000E+00  0.11368683772E-12  0.17120000000E+03  0.17120000000E+03 0.  0.
         13    1    1    2    0    0 -0.14543118307E+02 -0.12360726510E+02  0.94640473539E+02  0.96545948883E+02  0.10566000000E+00 0. -1.
        994    1    1    2    0    0  0.14154466573E+02  0.27620331602E+02  0.48833078153E+01  0.17405895075E+03  0.17120000000E+03 0.  0.
        998    1    1    2    0    0  0.38865173410E+00 -0.15259605091E+02  0.14004762149E+04  0.14005951004E+04  0.10000000000E+02 0. -1.
</event>
<event>
 5    1  0.7732857E-009  0.3709098E+03  0.7957747E-01  0.3491720E+00
         13   -1    0    0    0    0  0.00000000000E+00  0.00000000000E+00  0.14999999963E+04  0.15000000000E+04  0.10566000000E+00 0.  1.
        994   -1    0    0    0    0 -0.00000000000E+00 -0.00000000000E+00  0.11368683772E-12  0.17120000000E+03  0.17120000000E+03 0.  0.
         13    1    1    2    0    0  0.11055275740E+02 -0.42438005887E+02  0.73336240328E+02  0.85448339802E+02  0.10566000000E+00 0.  1.
        994    1    1    2    0    0 -0.30347929911E+02  0.50686140626E+02  0.23763378338E+02  0.18265875246E+03  0.17120000000E+03 0.  0.
        998    1    1    2    0    0  0.19292654171E+02 -0.82481347391E+01  0.14029003776E+04  0.14030929077E+04  0.10000000000E+02 0.  1.
</event>
<event>
 5    1  0.7732857E-009  0.3792748E+03  0.7957747E-01  0.3454322E+00
         13   -1    0    0    0    0  0.00000000000E+00  0.00000000000E+00  0.14999999963E+04  0.15000000000E+04  0.10566000000E+00 0. -1.
        994   -1    0    0    0    0 -0.00000000000E+00 -0.00000000000E+00  0.11368683772E-12  0.17120000000E+03  0.17120000000E+03 0.  0.
         13    1    1    2    0    0 -0.38575882282E+01  0.10124583186E+02  0.11143011753E+02  0.15542395137E+02  0.10566000000E+00 0. -1.
        994    1    1    2    0    0  0.19008645329E+02  0.28898375101E+01  0.57394413325E+01  0.17237186819E+03  0.17120000000E+03 0.  0.
        998    1    1    2    0    0 -0.15151057101E+02 -0.13014420696E+02  0.14831175432E+04  0.14832857367E+04  0.10000000000E+02 0. -1.
</event>
<event>
 5    1  0.7732857E-009  0.3816962E+03  0.7957747E-01  0.3443806E+00
         13   -1    0    0    0    0  0.00000000000E+00  0.00000000000E+00  0.14999999963E+04  0.15000000000E+04  0.10566000000E+00 0.  1.
        994   -1    0    0    0    0 -0.00000000000E+00 -0.00000000000E+00  0.11368683772E-12  0.17120000000E+03  0.17120000000E+03 0.  0.
         13    1    1    2    0    0  0.10200550434E+02  0.13844539388E+02  0.44631100565E+02  0.47829580823E+02  0.10566000000E+00 0.  1.
        994    1    1    2    0    0 -0.43686249314E+01 -0.59034576596E+01  0.34586932517E+01  0.17139235180E+03  0.17120000000E+03 0.  0.
        998    1    1    2    0    0 -0.58319255030E+01 -0.79410817280E+01  0.14519102025E+04  0.14519780674E+04  0.10000000000E+02 0.  1.
</event>
<event>
 5    1  0.7732857E-009  0.3732576E+03  0.7957747E-01  0.3481052E+00
         13   -1    0    0    0    0  0.00000000000E+00  0.00000000000E+00  0.14999999963E+04  0.15000000000E+04  0.10566000000E+00 0. -1.
        994   -1    0    0    0    0 -0.00000000000E+00 -0.00000000000E+00  0.11368683772E-12  0.17120000000E+03  0.17120000000E+03 0.  0.
         13    1    1    2    0    0  0.62012140729E+02  0.58529734463E+02  0.40673397181E+03  0.41557643148E+03  0.10566000000E+00 0. -1.
        994    1    1    2    0    0 -0.53910228450E+02 -0.41678352713E+02  0.23623751825E+02  0.18577114810E+03  0.17120000000E+03 0.  0.
        998    1    1    2    0    0 -0.81019122796E+01 -0.16851381750E+02  0.10696422726E+04  0.10698524204E+04  0.10000000000E+02 0. -1.
</event>
<event>
 5    1  0.7732857E-009  0.4133781E+03  0.7957747E-01  0.3317567E+00
         13   -1    0    0    0    0  0.00000000000E+00  0.00000000000E+00  0.14999999963E+04  0.15000000000E+04  0.10566000000E+00 0. -1.
        994   -1    0    0    0    0 -0.00000000000E+00 -0.00000000000E+00  0.11368683772E-12  0.17120000000E+03  0.17120000000E+03 0.  0.
         13    1    1    2    0    0 -0.64377192862E+02 -0.11716971167E+03  0.32939251306E+03  0.35548924473E+03  0.10566000000E+00 0. -1.
        994    1    1    2    0    0 -0.12530008877E+02  0.23748520206E+02  0.39024741040E+02  0.17763266520E+03  0.17120000000E+03 0.  0.
        998    1    1    2    0    0  0.76907201739E+02  0.93421191465E+02  0.11315827422E+04  0.11380780901E+04  0.10000000000E+02 0.  1.
</event>
<event>
 5    1  0.7732857E-009  0.3842185E+03  0.7957747E-01  0.3432993E+00
         13   -1    0    0    0    0  0.00000000000E+00  0.00000000000E+00  0.14999999963E+04  0.15000000000E+04  0.10566000000E+00 0. -1.
        994   -1    0    0    0    0 -0.00000000000E+00 -0.00000000000E+00  0.11368683772E-12  0.17120000000E+03  0.17120000000E+03 0.  0.
         13    1    1    2    0    0  0.10318492724E+02  0.81745400266E+01  0.41383532322E+02  0.43426976734E+02  0.10566000000E+00 0. -1.
        994    1    1    2    0    0 -0.20687633353E+02  0.24365838595E+01  0.34505639327E+01  0.17249713478E+03  0.17120000000E+03 0.  0.
        998    1    1    2    0    0  0.10369140630E+02 -0.10611123886E+02  0.14551659000E+04  0.14552758885E+04  0.10000000000E+02 0. -1.
</event>
<event>
 5    1  0.7732857E-009  0.3808451E+03  0.7957747E-01  0.3447487E+00
         13   -1    0    0    0    0  0.00000000000E+00  0.00000000000E+00  0.14999999963E+04  0.15000000000E+04  0.10566000000E+00 0. -1.
        994   -1    0    0    0    0 -0.00000000000E+00 -0.00000000000E+00  0.11368683772E-12  0.17120000000E+03  0.17120000000E+03 0.  0.
         13    1    1    2    0    0 -0.11781438316E+02 -0.55135838998E+01  0.22858762633E+02  0.26300876209E+02  0.10566000000E+00 0. -1.
        994    1    1    2    0    0 -0.83431335684E+01 -0.18048921942E+02  0.50262699216E+01  0.17242411331E+03  0.17120000000E+03 0.  0.
        998    1    1    2    0    0  0.20124571884E+02  0.23562505841E+02  0.14721149637E+04  0.14724750105E+04  0.10000000000E+02 0. -1.
</event>
<event>
 5    1  0.7732857E-009  0.3845373E+03  0.7957747E-01  0.3431637E+00
         13   -1    0    0    0    0  0.00000000000E+00  0.00000000000E+00  0.14999999963E+04  0.15000000000E+04  0.10566000000E+00 0. -1.
        994   -1    0    0    0    0 -0.00000000000E+00 -0.00000000000E+00  0.11368683772E-12  0.17120000000E+03  0.17120000000E+03 0.  0.
         13    1    1    2    0    0  0.85390826930E+01 -0.53289524563E+01  0.27365976899E+02  0.29158558318E+02  0.10566000000E+00 0. -1.
        994    1    1    2    0    0  0.40421405497E+01  0.96228832079E+01  0.22188915800E+01  0.17153221931E+03  0.17120000000E+03 0.  0.
        998    1    1    2    0    0 -0.12581223243E+02 -0.42939307517E+01  0.14704151278E+04  0.14705092224E+04  0.10000000000E+02 0. -1.
</event>
<event>
 5    1  0.7732857E-009  0.3757931E+03  0.7957747E-01  0.3469683E+00
         13   -1    0    0    0    0  0.00000000000E+00  0.00000000000E+00  0.14999999963E+04  0.15000000000E+04  0.10566000000E+00 0.  1.
        994   -1    0    0    0    0 -0.00000000000E+00 -0.00000000000E+00  0.11368683772E-12  0.17120000000E+03  0.17120000000E+03 0.  0.
         13    1    1    2    0    0 -0.16444911895E+02  0.67727822878E+01  0.22525666690E+02  0.28700566737E+02  0.10566000000E+00 0.  1.
        994    1    1    2    0    0  0.11231357670E+02 -0.70257102866E+01  0.68672283757E+01  0.17184906990E+03  0.17120000000E+03 0.  0.
        998    1    1    2    0    0  0.52135542254E+01  0.25292799880E+00  0.14706071012E+04  0.14706503634E+04  0.10000000000E+02 0.  1.
</event>
<event>
 5    1  0.7732857E-009  0.3712774E+03  0.7957747E-01  0.3490041E+00
         13   -1    0    0    0    0  0.00000000000E+00  0.00000000000E+00  0.14999999963E+04  0.15000000000E+04  0.10566000000E+00 0. -1.
        994   -1    0    0    0    0 -0.00000000000E+00 -0.00000000000E+00  0.11368683772E-12  0.17120000000E+03  0.17120000000E+03 0.  0.
         13    1    1    2    0    0  0.30053828000E+02  0.16522852461E+02  0.73272655447E+02  0.80901980391E+02  0.10566000000E+00 0. -1.
        994    1    1    2    0    0 -0.46147723034E+01  0.34644333994E+02  0.12819633130E+02  0.17520076768E+03  0.17120000000E+03 0.  0.
        998    1    1    2    0    0 -0.25439055697E+02 -0.51167186455E+02  0.14139077077E+04  0.14150972519E+04  0.10000000000E+02 0. -1.
</event>
<event>
 5    1  0.7732857E-009  0.3756552E+03  0.7957747E-01  0.3470298E+00
         13   -1    0    0    0    0  0.00000000000E+00  0.00000000000E+00  0.14999999963E+04  0.15000000000E+04  0.10566000000E+00 0.  1.
        994   -1    0    0    0    0 -0.00000000000E+00 -0.00000000000E+00  0.11368683772E-12  0.17120000000E+03  0.17120000000E+03 0.  0.
         13    1    1    2    0    0  0.64701342978E+02 -0.14458783456E+02  0.29120247095E+03  0.29865399789E+03  0.10566000000E+00 0.  1.
        994    1    1    2    0    0 -0.55648055720E+02  0.30391178121E+02  0.20102695366E+02  0.18366787464E+03  0.17120000000E+03 0.  0.
        998    1    1    2    0    0 -0.90532872585E+01 -0.15932394666E+02  0.11886948300E+04  0.11888781275E+04  0.10000000000E+02 0.  1.
</event>
<event>
 5    1  0.7732857E-009  0.3850476E+03  0.7957747E-01  0.3429470E+00
         13   -1    0    0    0    0  0.00000000000E+00  0.00000000000E+00  0.14999999963E+04  0.15000000000E+04  0.10566000000E+00 0.  1.
        994   -1    0    0    0    0 -0.00000000000E+00 -0.00000000000E+00  0.11368683772E-12  0.17120000000E+03  0.17120000000E+03 0.  0.
         13    1    1    2    0    0 -0.22469321817E+02  0.11991387306E+03  0.54032322983E+03  0.55392545639E+03  0.10566000000E+00 0.  1.
        994    1    1    2    0    0 -0.49309463964E+00 -0.28586983165E+02  0.22151664525E+02  0.17497884155E+03  0.17120000000E+03 0.  0.
        998    1    1    2    0    0  0.22962416456E+02 -0.91326889900E+02  0.93752510193E+03  0.94229570206E+03  0.10000000000E+02 0.  0.
</event>
<event>
 5    1  0.7732857E-009  0.3785906E+03  0.7957747E-01  0.3457318E+00
         13   -1    0    0    0    0  0.00000000000E+00  0.00000000000E+00  0.14999999963E+04  0.15000000000E+04  0.10566000000E+00 0. -1.
        994   -1    0    0    0    0 -0.00000000000E+00 -0.00000000000E+00  0.11368683772E-12  0.17120000000E+03  0.17120000000E+03 0.  0.
         13    1    1    2    0    0  0.25323634419E+02 -0.14082459086E+02  0.84675600286E+02  0.89496204176E+02  0.10566000000E+00 0. -1.
        994    1    1    2    0    0 -0.28416530567E+00  0.38703208012E+02  0.98939827874E+01  0.17579917507E+03  0.17120000000E+03 0.  0.
        998    1    1    2    0    0 -0.25039469114E+02 -0.24620748925E+02  0.14054304132E+04  0.14059046208E+04  0.10000000000E+02 0. -1.
</event>
<event>
 5    1  0.7732857E-009  0.3831273E+03  0.7957747E-01  0.3437654E+00
         13   -1    0    0    0    0  0.00000000000E+00  0.00000000000E+00  0.14999999963E+04  0.15000000000E+04  0.10566000000E+00 0. -1.
        994   -1    0    0    0    0 -0.00000000000E+00 -0.00000000000E+00  0.11368683772E-12  0.17120000000E+03  0.17120000000E+03 0.  0.
         13    1    1    2    0    0 -0.15714187405E+02 -0.15854276506E+02  0.93807912683E+02  0.96427327119E+02  0.10566000000E+00 0. -1.
        994    1    1    2    0    0  0.13974525496E+02  0.12252614344E+02  0.37064962257E+01  0.17224573154E+03  0.17120000000E+03 0.  0.
        998    1    1    2    0    0  0.17396619084E+01  0.36016621619E+01  0.14024855874E+04  0.14025269413E+04  0.10000000000E+02 0. -1.
</event>
<event>
 5    1  0.7732857E-009  0.3809909E+03  0.7957747E-01  0.3446855E+00
         13   -1    0    0    0    0  0.00000000000E+00  0.00000000000E+00  0.14999999963E+04  0.15000000000E+04  0.10566000000E+00 0. -1.
        994   -1    0    0    0    0 -0.00000000000E+00 -0.00000000000E+00  0.11368683772E-12  0.17120000000E+03  0.17120000000E+03 0.  0.
         13    1    1    2    0    0 -0.23213226048E+02  0.12245993950E+02  0.96132776045E+02  0.99651091441E+02  0.10566000000E+00 0. -1.
        994    1    1    2    0    0  0.17494983898E+02  0.90420116360E+01  0.49270833365E+01  0.17239938685E+03  0.17120000000E+03 0.  0.
        998    1    1    2    0    0  0.57182421491E+01 -0.21288005586E+02  0.13989401369E+04  0.13991495217E+04  0.10000000000E+02 0. -1.
</event>
<event>
 5    1  0.7732857E-009  0.3762655E+03  0.7957747E-01  0.3467582E+00
         13   -1    0    0    0    0  0.00000000000E+00  0.00000000000E+00  0.14999999963E+04  0.15000000000E+04  0.10566000000E+00 0. -1.
        994   -1    0    0    0    0 -0.00000000000E+00 -0.00000000000E+00  0.11368683772E-12  0.17120000000E+03  0.17120000000E+03 0.  0.
         13    1    1    2    0    0  0.35090471257E+02  0.12448876080E+03  0.74588074538E+03  0.75701181644E+03  0.10566000000E+00 0. -1.
        994    1    1    2    0    0 -0.21024090919E+02 -0.12112293214E+03  0.59029408414E+02  0.21887596521E+03  0.17120000000E+03 0.  0.
        998    1    1    2    0    0 -0.14066380339E+02 -0.33658286562E+01  0.69508984248E+03  0.69531221835E+03  0.10000000000E+02 0. -1.
</event>
<event>
 5    1  0.7732857E-009  0.3784371E+03  0.7957747E-01  0.3457992E+00
         13   -1    0    0    0    0  0.00000000000E+00  0.00000000000E+00  0.14999999963E+04  0.15000000000E+04  0.10566000000E+00 0. -1.
        994   -1    0    0    0    0 -0.00000000000E+00 -0.00000000000E+00  0.11368683772E-12  0.17120000000E+03  0.17120000000E+03 0.  0.
         13    1    1    2    0    0 -0.52818266561E+02  0.44183911945E+02  0.37149792154E+03  0.37782628843E+03  0.10566000000E+00 0. -1.
        994    1    1    2    0    0  0.39259311564E+02 -0.57375702641E+02  0.21340865218E+02  0.18600574541E+03  0.17120000000E+03 0.  0.
        998    1    1    2    0    0  0.13558954997E+02  0.13191790696E+02  0.11071612095E+04  0.11073679662E+04  0.10000000000E+02 0. -1.
</event>
<event>
 5    1  0.7732857E-009  0.3736860E+03  0.7957747E-01  0.3479120E+00
         13   -1    0    0    0    0  0.00000000000E+00  0.00000000000E+00  0.14999999963E+04  0.15000000000E+04  0.10566000000E+00 0. -1.
        994   -1    0    0    0    0 -0.00000000000E+00 -0.00000000000E+00  0.11368683772E-12  0.17120000000E+03  0.17120000000E+03 0.  0.
         13    1    1    2    0    0  0.14556332293E+02 -0.21102965115E+02  0.19387180217E+02  0.32141808712E+02  0.10566000000E+00 0. -1.
        994    1    1    2    0    0 -0.21680600960E+02  0.24811940082E+02  0.16756153091E+02  0.17514533821E+03  0.17120000000E+03 0.  0.
        998    1    1    2    0    0  0.71242686672E+01 -0.37089749669E+01  0.14638566630E+04  0.14639128531E+04  0.10000000000E+02 0. -1.
</event>
<event>
 5    1  0.7732857E-009  0.3838507E+03  0.7957747E-01  0.3434561E+00
         13   -1    0    0    0    0  0.00000000000E+00  0.00000000000E+00  0.14999999963E+04  0.15000000000E+04  0.10566000000E+00 0. -1.
        994   -1    0    0    0    0 -0.00000000000E+00 -0.00000000000E+00  0.11368683772E-12  0.17120000000E+03  0.17120000000E+03 0.  0.
         13    1    1    2    0    0 -0.12204982314E+02  0.81071938770E+01  0.48204750180E+02  0.50382509761E+02  0.10566000000E+00 0. -1.
        994    1    1    2    0    0  0.73435650133E+01 -0.67013172784E+01  0.25281375986E+01  0.17150704674E+03  0.17120000000E+03 0.  0.
        998    1    1    2    0    0  0.48614173009E+01 -0.14058765986E+01  0.14492671085E+04  0.14493104435E+04  0.10000000000E+02 0. -1.
</event>
<event>
 5    1  0.7732857E-009  0.3807535E+03  0.7957747E-01  0.3447884E+00
         13   -1    0    0    0    0  0.00000000000E+00  0.00000000000E+00  0.14999999963E+04  0.15000000000E+04  0.10566000000E+00 0. -1.
        994   -1    0    0    0    0 -0.00000000000E+00 -0.00000000000E+00  0.11368683772E-12  0.17120000000E+03  0.17120000000E+03 0.  0.
         13    1    1    2    0    0 -0.24661954976E+02 -0.25797763262E+01  0.77334590292E+02  0.81212790180E+02  0.10566000000E+00 0. -1.
        994    1    1    2    0    0  0.25835763734E+02 -0.12380103642E+02  0.64949813424E+01  0.17370198167E+03  0.17120000000E+03 0.  0.
        998    1    1    2    0    0 -0.11738087584E+01  0.14959879968E+02  0.14161704246E+04  0.14162852281E+04  0.10000000000E+02 0. -1.
</event>
<event>
 5    1  0.7732857E-009  0.3839727E+03  0.7957747E-01  0.3434041E+00
         13   -1    0    0    0    0  0.00000000000E+00  0.00000000000E+00  0.14999999963E+04  0.15000000000E+04  0.10566000000E+00 0.  1.
        994   -1    0    0    0    0 -0.00000000000E+00 -0.00000000000E+00  0.11368683772E-12  0.17120000000E+03  0.17120000000E+03 0.  0.
         13    1    1    2    0    0  0.12967539161E+02  0.80685035582E+01  0.53168036950E+02  0.55318253215E+02  0.10566000000E+00 0.  1.
        994    1    1    2    0    0 -0.11580445304E+02 -0.63293824030E+01  0.27159408543E+01  0.17172939215E+03  0.17120000000E+03 0.  0.
        998    1    1    2    0    0 -0.13870938566E+01 -0.17391211551E+01  0.14441160185E+04  0.14441523546E+04  0.10000000000E+02 0.  1.
</event>
<event>
 5    1  0.7732857E-009  0.3815488E+03  0.7957747E-01  0.3444442E+00
         13   -1    0    0    0    0  0.00000000000E+00  0.00000000000E+00  0.14999999963E+04  0.15000000000E+04  0.10566000000E+00 0.  1.
        994   -1    0    0    0    0 -0.00000000000E+00 -0.00000000000E+00  0.11368683772E-12  0.17120000000E+03  0.17120000000E+03 0.  0.
         13    1    1    2    0    0  0.36962429150E+02  0.56361132314E+02  0.37447223966E+03  0.38048951082E+03  0.10566000000E+00 0.  1.
        994    1    1    2    0    0 -0.81391327712E+02 -0.62375505389E+02  0.39153993225E+02  0.20336599294E+03  0.17120000000E+03 0.  0.
        998    1    1    2    0    0  0.44428898562E+02  0.60143730750E+01  0.10863737634E+04  0.10873444962E+04  0.10000000000E+02 0. -1.
</event>
<event>
 5    1  0.7732857E-009  0.3814633E+03  0.7957747E-01  0.3444812E+00
         13   -1    0    0    0    0  0.00000000000E+00  0.00000000000E+00  0.14999999963E+04  0.15000000000E+04  0.10566000000E+00 0. -1.
        994   -1    0    0    0    0 -0.00000000000E+00 -0.00000000000E+00  0.11368683772E-12  0.17120000000E+03  0.17120000000E+03 0.  0.
         13    1    1    2    0    0 -0.11191042996E+02 -0.23188411104E+00  0.16821615711E+02  0.20205720297E+02  0.10566000000E+00 0. -1.
        994    1    1    2    0    0  0.12834156641E+02  0.33061303603E+00  0.39448396438E+01  0.17172602203E+03  0.17120000000E+03 0.  0.
        998    1    1    2    0    0 -0.16431136453E+01 -0.98728924996E-01  0.14792335409E+04  0.14792682577E+04  0.10000000000E+02 0. -1.
</event>
<event>
 5    1  0.7732857E-009  0.3856489E+03  0.7957747E-01  0.3426925E+00
         13   -1    0    0    0    0  0.00000000000E+00  0.00000000000E+00  0.14999999963E+04  0.15000000000E+04  0.10566000000E+00 0. -1.
        994   -1    0    0    0    0 -0.00000000000E+00 -0.00000000000E+00  0.11368683772E-12  0.17120000000E+03  0.17120000000E+03 0.  0.
         13    1    1    2    0    0 -0.80287599605E+00  0.14799024447E+02  0.84105871216E+02  0.85401782601E+02  0.10566000000E+00 0. -1.
        994    1    1    2    0    0  0.25231268167E+01 -0.10137501032E+02  0.16665263551E+01  0.17152653557E+03  0.17120000000E+03 0.  0.
        998    1    1    2    0    0 -0.17202508207E+01 -0.46615234153E+01  0.14142275987E+04  0.14142716818E+04  0.10000000000E+02 0. -1.
</event>
<event>
 5    1  0.7732857E-009  0.3763303E+03  0.7957747E-01  0.3467294E+00
         13   -1    0    0    0    0  0.00000000000E+00  0.00000000000E+00  0.14999999963E+04  0.15000000000E+04  0.10566000000E+00 0.  1.
        994   -1    0    0    0    0 -0.00000000000E+00 -0.00000000000E+00  0.11368683772E-12  0.17120000000E+03  0.17120000000E+03 0.  0.
         13    1    1    2    0    0 -0.47560650906E+01 -0.10567371948E+02  0.85006507562E+01  0.14372255646E+02  0.10566000000E+00 0.  1.
        994    1    1    2    0    0  0.41412409968E+01  0.62537142993E+01  0.61875558534E+01  0.17147590113E+03  0.17120000000E+03 0.  0.
        998    1    1    2    0    0  0.61482409381E+00  0.43136576490E+01  0.14853117897E+04  0.14853518432E+04  0.10000000000E+02 0.  1.
</event>
<event>
 5    1  0.7732857E-009  0.3844615E+03  0.7957747E-01  0.3431959E+00
         13   -1    0    0    0    0  0.00000000000E+00  0.00000000000E+00  0.14999999963E+04  0.15000000000E+04  0.10566000000E+00 0. -1.
        994   -1    0    0    0    0 -0.00000000000E+00 -0.00000000000E+00  0.11368683772E-12  0.17120000000E+03  0.17120000000E+03 0.  0.
         13    1    1    2    0    0 -0.39633546576E+02 -0.29075605202E+02  0.55943346129E+02  0.74470651751E+02  0.10566000000E+00 0. -1.
        994    1    1    2    0    0  0.17588111481E+02  0.52142315782E+02  0.30041216156E+02  0.18231861515E+03  0.17120000000E+03 0.  0.
        998    1    1    2    0    0  0.22045435094E+02 -0.23066710579E+02  0.14140154340E+04  0.14144107331E+04  0.10000000000E+02 0.  1.
</event>
<event>
 5    1  0.7732857E-009  0.3857958E+03  0.7957747E-01  0.3426304E+00
         13   -1    0    0    0    0  0.00000000000E+00  0.00000000000E+00  0.14999999963E+04  0.15000000000E+04  0.10566000000E+00 0. -1.
        994   -1    0    0    0    0 -0.00000000000E+00 -0.00000000000E+00  0.11368683772E-12  0.17120000000E+03  0.17120000000E+03 0.  0.
         13    1    1    2    0    0 -0.97571301956E+01 -0.79615444991E+01  0.66893046207E+02  0.68068190628E+02  0.10566000000E+00 0. -1.
        994    1    1    2    0    0  0.71786076381E+01 -0.24867055662E+01  0.14249141754E+01  0.17137440443E+03  0.17120000000E+03 0.  0.
        998    1    1    2    0    0  0.25785225574E+01  0.10448250065E+02  0.14316820359E+04  0.14317574049E+04  0.10000000000E+02 0. -1.
</event>
<event>
 5    1  0.7732857E-009  0.3789640E+03  0.7957747E-01  0.3455682E+00
         13   -1    0    0    0    0  0.00000000000E+00  0.00000000000E+00  0.14999999963E+04  0.15000000000E+04  0.10566000000E+00 0.  1.
        994   -1    0    0    0    0 -0.00000000000E+00 -0.00000000000E+00  0.11368683772E-12  0.17120000000E+03  0.17120000000E+03 0.  0.
         13    1    1    2    0    0 -0.33502667393E+02  0.13737616831E+02  0.13449167701E+03  0.13928091466E+03  0.10566000000E+00 0.  1.
        994    1    1    2    0    0  0.25857341839E+02 -0.94241436547E+01  0.72018759667E+01  0.17354746794E+03  0.17120000000E+03 0.  0.
        998    1    1    2    0    0  0.76453255535E+01 -0.43134731766E+01  0.13583064433E+04  0.13583716174E+04  0.10000000000E+02 0.  1.
</event>
<event>
 5    1  0.7732857E-009  0.3827227E+03  0.7957747E-01  0.3439388E+00
         13   -1    0    0    0    0  0.00000000000E+00  0.00000000000E+00  0.14999999963E+04  0.15000000000E+04  0.10566000000E+00 0. -1.
        994   -1    0    0    0    0 -0.00000000000E+00 -0.00000000000E+00  0.11368683772E-12  0.17120000000E+03  0.17120000000E+03 0.  0.
         13    1    1    2    0    0  0.22824828239E+02 -0.15191403108E+02  0.13961877416E+03  0.14228550445E+03  0.10566000000E+00 0. -1.
        994    1    1    2    0    0 -0.33980035616E+02 -0.25149038621E+02  0.87086168419E+01  0.17655706435E+03  0.17120000000E+03 0.  0.
        998    1    1    2    0    0  0.11155207377E+02  0.40340441729E+02  0.13516726053E+04  0.13523574312E+04  0.10000000000E+02 0. -1.
</event>
<event>
 5    1  0.7732857E-009  0.3858362E+03  0.7957747E-01  0.3426133E+00
         13   -1    0    0    0    0  0.00000000000E+00  0.00000000000E+00  0.14999999963E+04  0.15000000000E+04  0.10566000000E+00 0. -1.
        994   -1    0    0    0    0 -0.00000000000E+00 -0.00000000000E+00  0.11368683772E-12  0.17120000000E+03  0.17120000000E+03 0.  0.
         13    1    1    2    0    0 -0.95390471391E+01  0.63590162462E+01  0.53129586818E+02  0.54352503782E+02  0.10566000000E+00 0. -1.
        994    1    1    2    0    0  0.19232191396E+02  0.70536003489E+01  0.25930317312E+01  0.17244069786E+03  0.17120000000E+03 0.  0.
        998    1    1    2    0    0 -0.96931442567E+01 -0.13412616595E+02  0.14442773777E+04  0.14444067984E+04  0.10000000000E+02 0. -1.
</event>
<event>
 5    1  0.7732857E-009  0.3847113E+03  0.7957747E-01  0.3430898E+00
         13   -1    0    0    0    0  0.00000000000E+00  0.00000000000E+00  0.14999999963E+04  0.15000000000E+04  0.10566000000E+00 0. -1.
        994   -1    0    0    0    0 -0.00000000000E+00 -0.00000000000E+00  0.11368683772E-12  0.17120000000E+03  0.17120000000E+03 0.  0.
         13    1    1    2    0    0  0.77038260644E+01 -0.74438314583E+01  0.29969420026E+02  0.31826669062E+02  0.10566000000E+00 0. -1.
        994    1    1    2    0    0 -0.19149541317E+02  0.13264485811E+02  0.35618445627E+01  0.17281428834E+03  0.17120000000E+03 0.  0.
        998    1    1    2    0    0  0.11445715252E+02 -0.58206543526E+01  0.14664687317E+04  0.14665590426E+04  0.10000000000E+02 0. -1.
</event>
<event>
 5    1  0.1062914E-008  0.3857831E+03  0.7957747E-01  0.3426358E+00
         13   -1    0    0    0    0  0.00000000000E+00  0.00000000000E+00  0.14999999963E+04  0.15000000000E+04  0.10566000000E+00 0. -1.
        994   -1    0    0    0    0 -0.00000000000E+00 -0.00000000000E+00  0.11368683772E-12  0.17120000000E+03  0.17120000000E+03 0.  0.
         13    1    1    2    0    0 -0.73825050219E+01 -0.10333223578E+02  0.63478666868E+02  0.64736614071E+02  0.10566000000E+00 0. -1.
        994    1    1    2    0    0  0.10042035054E+02  0.86317904159E+01  0.18172404390E+01  0.17172097320E+03  0.17120000000E+03 0.  0.
        998    1    1    2    0    0 -0.26595300325E+01  0.17014331619E+01  0.14347040890E+04  0.14347424127E+04  0.10000000000E+02 0. -1.
</event>
<event>
 5    1  0.7732857E-009  0.3812274E+03  0.7957747E-01  0.3445832E+00
         13   -1    0    0    0    0  0.00000000000E+00  0.00000000000E+00  0.14999999963E+04  0.15000000000E+04  0.10566000000E+00 0.  1.
        994   -1    0    0    0    0 -0.00000000000E+00 -0.00000000000E+00  0.11368683772E-12  0.17120000000E+03  0.17120000000E+03 0.  0.
         13    1    1    2    0    0 -0.35526394439E+02  0.12061466679E+03  0.65574450135E+03  0.66769071041E+03  0.10566000000E+00 0.  1.
        994    1    1    2    0    0 -0.43010560664E+01 -0.18176830416E+03  0.12278339216E+03  0.27828657329E+03  0.17120000000E+03 0.  0.
        998    1    1    2    0    0  0.39827450506E+02  0.61153637373E+02  0.72147210276E+03  0.72522271631E+03  0.10000000000E+02 0.  1.
</event>
<event>
 5    1  0.7732857E-009  0.3811971E+03  0.7957747E-01  0.3445963E+00
         13   -1    0    0    0    0  0.00000000000E+00  0.00000000000E+00  0.14999999963E+04  0.15000000000E+04  0.10566000000E+00 0. -1.
        994   -1    0    0    0    0 -0.00000000000E+00 -0.00000000000E+00  0.11368683772E-12  0.17120000000E+03  0.17120000000E+03 0.  0.
         13    1    1    2    0    0  0.41336154185E+01  0.27962867880E+02  0.10530682590E+03  0.10903461607E+03  0.10566000000E+00 0. -1.
        994    1    1    2    0    0 -0.41774084261E+01 -0.27804405741E+02  0.61668158528E+01  0.17360301074E+03  0.17120000000E+03 0.  0.
        998    1    1    2    0    0  0.43793007525E-01 -0.15846213815E+00  0.13885263545E+04  0.13885623732E+04  0.10000000000E+02 0.  0.
</event>
<event>
 5    1  0.7732857E-009  0.3843707E+03  0.7957747E-01  0.3432345E+00
         13   -1    0    0    0    0  0.00000000000E+00  0.00000000000E+00  0.14999999963E+04  0.15000000000E+04  0.10566000000E+00 0. -1.
        994   -1    0    0    0    0 -0.00000000000E+00 -0.00000000000E+00  0.11368683772E-12  0.17120000000E+03  0.17120000000E+03 0.  0.
         13    1    1    2    0    0 -0.94619292880E+01  0.64271481090E+01  0.33227486640E+02  0.35141334225E+02  0.10566000000E+00 0. -1.
        994    1    1    2    0    0  0.10393921681E+02  0.13560524412E+01  0.23050411326E+01  0.17153607697E+03  0.17120000000E+03 0.  0.
        998    1    1    2    0    0 -0.93199239254E+00 -0.77832005502E+01  0.14644674685E+04  0.14645225888E+04  0.10000000000E+02 0. -1.
</event>
<event>
 5    1  0.7732857E-009  0.3697846E+03  0.7957747E-01  0.3496881E+00
         13   -1    0    0    0    0  0.00000000000E+00  0.00000000000E+00  0.14999999963E+04  0.15000000000E+04  0.10566000000E+00 0. -1.
        994   -1    0    0    0    0 -0.00000000000E+00 -0.00000000000E+00  0.11368683772E-12  0.17120000000E+03  0.17120000000E+03 0.  0.
         13    1    1    2    0    0  0.63139372588E+02 -0.44657395643E+02  0.40970511430E+03  0.41694022978E+03  0.10566000000E+00 0. -1.
        994    1    1    2    0    0  0.86071234033E+00  0.25281764697E+02  0.11599066348E+02  0.17344707202E+03  0.17120000000E+03 0.  0.
        998    1    1    2    0    0 -0.64000084929E+02  0.19375630946E+02  0.10786958156E+04  0.10808126982E+04  0.10000000000E+02 0. -1.
</event>
<event>
 5    1  0.7732857E-009  0.3694422E+03  0.7957747E-01  0.3498458E+00
         13   -1    0    0    0    0  0.00000000000E+00  0.00000000000E+00  0.14999999963E+04  0.15000000000E+04  0.10566000000E+00 0. -1.
        994   -1    0    0    0    0 -0.00000000000E+00 -0.00000000000E+00  0.11368683772E-12  0.17120000000E+03  0.17120000000E+03 0.  0.
         13    1    1    2    0    0 -0.20645770472E+02  0.33683484081E+02  0.71833117254E+02  0.81980685754E+02  0.10566000000E+00 0. -1.
        994    1    1    2    0    0  0.75816244282E+01 -0.12976869438E+02  0.11432674447E+02  0.17223828324E+03  0.17120000000E+03 0.  0.
        998    1    1    2    0    0  0.13064146044E+02 -0.20706614643E+02  0.14167342046E+04  0.14169810310E+04  0.10000000000E+02 0. -1.
</event>
<event>
 5    1  0.7732857E-009  0.3814451E+03  0.7957747E-01  0.3444890E+00
         13   -1    0    0    0    0  0.00000000000E+00  0.00000000000E+00  0.14999999963E+04  0.15000000000E+04  0.10566000000E+00 0. -1.
        994   -1    0    0    0    0 -0.00000000000E+00 -0.00000000000E+00  0.11368683772E-12  0.17120000000E+03  0.17120000000E+03 0.  0.
         13    1    1    2    0    0  0.36941014365E+02 -0.17274469996E+02  0.21269128818E+03  0.21656555840E+03  0.10566000000E+00 0. -1.
        994    1    1    2    0    0 -0.34063851731E+02  0.21242560780E+02  0.87858943183E+01  0.17606312596E+03  0.17120000000E+03 0.  0.
        998    1    1    2    0    0 -0.28771626340E+01 -0.39680907846E+01  0.12785228138E+04  0.12785713156E+04  0.10000000000E+02 0. -1.
</event>
<event>
 5    1  0.7732857E-009  0.3777438E+03  0.7957747E-01  0.3461042E+00
         13   -1    0    0    0    0  0.00000000000E+00  0.00000000000E+00  0.14999999963E+04  0.15000000000E+04  0.10566000000E+00 0.  1.
        994   -1    0    0    0    0 -0.00000000000E+00 -0.00000000000E+00  0.11368683772E-12  0.17120000000E+03  0.17120000000E+03 0.  0.
         13    1    1    2    0    0 -0.20741914049E+02 -0.33756839163E+02  0.16749175454E+03  0.17211406157E+03  0.10566000000E+00 0.  1.
        994    1    1    2    0    0  0.12939782793E+02 -0.54891857564E+01  0.59421122697E+01  0.17187878821E+03  0.17120000000E+03 0.  0.
        998    1    1    2    0    0  0.78021312563E+01  0.39246024919E+02  0.13265661295E+04  0.13272071502E+04  0.10000000000E+02 0.  1.
</event>
<event>
 5    1  0.7732857E-009  0.3843939E+03  0.7957747E-01  0.3432247E+00
         13   -1    0    0    0    0  0.00000000000E+00  0.00000000000E+00  0.14999999963E+04  0.15000000000E+04  0.10566000000E+00 0.  1.
        994   -1    0    0    0    0 -0.00000000000E+00 -0.00000000000E+00  0.11368683772E-12  0.17120000000E+03  0.17120000000E+03 0.  0.
         13    1    1    2    0    0 -0.99088993906E+01 -0.79936616725E+01  0.42358700249E+02  0.44230708392E+02  0.10566000000E+00 0.  1.
        994    1    1    2    0    0  0.34294088595E+02 -0.32482582623E+02  0.93183305287E+01  0.17784114814E+03  0.17120000000E+03 0.  0.
        998    1    1    2    0    0 -0.24385189204E+02  0.40476244295E+02  0.14483229655E+04  0.14491281435E+04  0.10000000000E+02 0.  1.
</event>
<event>
 5    1  0.7732857E-009  0.3817433E+03  0.7957747E-01  0.3443603E+00
         13   -1    0    0    0    0  0.00000000000E+00  0.00000000000E+00  0.14999999963E+04  0.15000000000E+04  0.10566000000E+00 0. -1.
        994   -1    0    0    0    0 -0.00000000000E+00 -0.00000000000E+00  0.11368683772E-12  0.17120000000E+03  0.17120000000E+03 0.  0.
         13    1    1    2    0    0  0.93788775274E+01 -0.32717016598E+02  0.18228883347E+03  0.18543892927E+03  0.10566000000E+00 0. -1.
        994    1    1    2    0    0 -0.12376468087E+02  0.13211691399E+02  0.43457342485E+01  0.17220932367E+03  0.17120000000E+03 0.  0.
        998    1    1    2    0    0  0.29975905596E+01  0.19505325199E+02  0.13133654286E+04  0.13135517471E+04  0.10000000000E+02 0. -1.
</event>
<event>
 5    1  0.7732857E-009  0.3830870E+03  0.7957747E-01  0.3437826E+00
         13   -1    0    0    0    0  0.00000000000E+00  0.00000000000E+00  0.14999999963E+04  0.15000000000E+04  0.10566000000E+00 0.  1.
        994   -1    0    0    0    0 -0.00000000000E+00 -0.00000000000E+00  0.11368683772E-12  0.17120000000E+03  0.17120000000E+03 0.  0.
         13    1    1    2    0    0 -0.10376702560E+02  0.79501813767E+01  0.33509101098E+02  0.35968769236E+02  0.10566000000E+00 0.  1.
        994    1    1    2    0    0  0.31669825868E+01  0.61799763575E+01  0.27425002970E+01  0.17136272405E+03  0.17120000000E+03 0.  0.
        998    1    1    2    0    0  0.72097199729E+01 -0.14130157734E+02  0.14637483949E+04  0.14638685067E+04  0.10000000000E+02 0.  1.
</event>
<event>
 5    1  0.7732857E-009  0.3833349E+03  0.7957747E-01  0.3436765E+00
         13   -1    0    0    0    0  0.00000000000E+00  0.00000000000E+00  0.14999999963E+04  0.15000000000E+04  0.10566000000E+00 0. -1.
        994   -1    0    0    0    0 -0.00000000000E+00 -0.00000000000E+00  0.11368683772E-12  0.17120000000E+03  0.17120000000E+03 0.  0.
         13    1    1    2    0    0  0.16997493244E+02  0.56549912893E+01  0.62814656177E+02  0.65319108213E+02  0.10566000000E+00 0. -1.
        994    1    1    2    0    0 -0.17409722041E+02 -0.16209798737E+01  0.34706248659E+01  0.17212556822E+03  0.17120000000E+03 0.  0.
        998    1    1    2    0    0  0.41222879701E+00 -0.40340114156E+01  0.14337147152E+04  0.14337553236E+04  0.10000000000E+02 0. -1.
</event>
<event>
 5    1  0.8073175E-009  0.3857489E+03  0.7957747E-01  0.3426502E+00
         13   -1    0    0    0    0  0.00000000000E+00  0.00000000000E+00  0.14999999963E+04  0.15000000000E+04  0.10566000000E+00 0.  1.
        994   -1    0    0    0    0 -0.00000000000E+00 -0.00000000000E+00  0.11368683772E-12  0.17120000000E+03  0.17120000000E+03 0.  0.
         13    1    1    2    0    0  0.98779737725E+01 -0.66345840368E+01  0.66646430605E+02  0.67700442743E+02  0.10566000000E+00 0.  1.
        994    1    1    2    0    0  0.21009125412E+01 -0.20615409297E+02  0.26687808405E+01  0.17247020417E+03  0.17120000000E+03 0.  0.
        998    1    1    2    0    0 -0.11978886314E+02  0.27249993333E+02  0.14306847848E+04  0.14310293531E+04  0.10000000000E+02 0.  1.
</event>
<event>
 5    1  0.7732857E-009  0.3820700E+03  0.7957747E-01  0.3442194E+00
         13   -1    0    0    0    0  0.00000000000E+00  0.00000000000E+00  0.14999999963E+04  0.15000000000E+04  0.10566000000E+00 0. -1.
        994   -1    0    0    0    0 -0.00000000000E+00 -0.00000000000E+00  0.11368683772E-12  0.17120000000E+03  0.17120000000E+03 0.  0.
         13    1    1    2    0    0  0.35805539659E+02  0.30460101227E+01  0.21220096489E+03  0.21522215386E+03  0.10566000000E+00 0. -1.
        994    1    1    2    0    0 -0.19574207574E+02  0.97918967109E+01  0.46839368962E+01  0.17265691445E+03  0.17120000000E+03 0.  0.
        998    1    1    2    0    0 -0.16231332085E+02 -0.12837906834E+02  0.12831150945E+04  0.12833209317E+04  0.10000000000E+02 0. -1.
</event>
<event>
 5    1  0.7732857E-009  0.3818198E+03  0.7957747E-01  0.3443273E+00
         13   -1    0    0    0    0  0.00000000000E+00  0.00000000000E+00  0.14999999963E+04  0.15000000000E+04  0.10566000000E+00 0.  1.
        994   -1    0    0    0    0 -0.00000000000E+00 -0.00000000000E+00  0.11368683772E-12  0.17120000000E+03  0.17120000000E+03 0.  0.
         13    1    1    2    0    0 -0.11609473342E+02 -0.49181882334E+01  0.23646471233E+02  0.26798044940E+02  0.10566000000E+00 0.  1.
        994    1    1    2    0    0  0.49799998056E+01  0.39095266242E+01  0.33505689306E+01  0.17134979168E+03  0.17120000000E+03 0.  0.
        998    1    1    2    0    0  0.66294735361E+01  0.10086616092E+01  0.14730029561E+04  0.14730521634E+04  0.10000000000E+02 0.  1.
</event>
<event>
 5    1  0.7732857E-009  0.3823973E+03  0.7957747E-01  0.3440786E+00
         13   -1    0    0    0    0  0.00000000000E+00  0.00000000000E+00  0.14999999963E+04  0.15000000000E+04  0.10566000000E+00 0.  1.
        994   -1    0    0    0    0 -0.00000000000E+00 -0.00000000000E+00  0.11368683772E-12  0.17120000000E+03  0.17120000000E+03 0.  0.
         13    1    1    2    0    0 -0.91613525996E+01 -0.67068899357E+01  0.21733886457E+02  0.24521128413E+02  0.10566000000E+00 0.  1.
        994    1    1    2    0    0  0.30348815494E+01 -0.12532316798E+02  0.34795174607E+01  0.17172016921E+03  0.17120000000E+03 0.  0.
        998    1    1    2    0    0  0.61264710501E+01  0.19239206734E+02  0.14747865924E+04  0.14749587024E+04  0.10000000000E+02 0.  1.
</event>
<event>
 5    1  0.7732857E-009  0.3855267E+03  0.7957747E-01  0.3427441E+00
         13   -1    0    0    0    0  0.00000000000E+00  0.00000000000E+00  0.14999999963E+04  0.15000000000E+04  0.10566000000E+00 0.  1.
        994   -1    0    0    0    0 -0.00000000000E+00 -0.00000000000E+00  0.11368683772E-12  0.17120000000E+03  0.17120000000E+03 0.  0.
         13    1    1    2    0    0 -0.55084466170E+00 -0.10686155849E+02  0.44984058471E+02  0.46239312681E+02  0.10566000000E+00 0.  1.
        994    1    1    2    0    0 -0.67969024521E+01 -0.42550788286E+01  0.15799988073E+01  0.17139498235E+03  0.17120000000E+03 0.  0.
        998    1    1    2    0    0  0.73477471138E+01  0.14941234678E+02  0.14534359390E+04  0.14535657050E+04  0.10000000000E+02 0.  1.
</event>
<event>
 5    1  0.7732857E-009  0.3690088E+03  0.7957747E-01  0.3500459E+00
         13   -1    0    0    0    0  0.00000000000E+00  0.00000000000E+00  0.14999999963E+04  0.15000000000E+04  0.10566000000E+00 0.  1.
        994   -1    0    0    0    0 -0.00000000000E+00 -0.00000000000E+00  0.11368683772E-12  0.17120000000E+03  0.17120000000E+03 0.  0.
         13    1    1    2    0    0  0.10738236771E+03 -0.21742907469E+02  0.41098994636E+03  0.42534277247E+03  0.10566000000E+00 0.  1.
        994    1    1    2    0    0 -0.12168171313E+03 -0.10543900891E+02  0.63484959369E+02  0.21967565460E+03  0.17120000000E+03 0.  0.
        998    1    1    2    0    0  0.14299345423E+02  0.32286808361E+02  0.10255250905E+04  0.10261815729E+04  0.10000000000E+02 0.  1.
</event>
<event>
 5    1  0.8987715E-009  0.3854943E+03  0.7957747E-01  0.3427579E+00
         13   -1    0    0    0    0  0.00000000000E+00  0.00000000000E+00  0.14999999963E+04  0.15000000000E+04  0.10566000000E+00 0. -1.
        994   -1    0    0    0    0 -0.00000000000E+00 -0.00000000000E+00  0.11368683772E-12  0.17120000000E+03  0.17120000000E+03 0.  0.
         13    1    1    2    0    0 -0.73378565182E+01 -0.88540513935E+01  0.43931033496E+02  0.45411289703E+02  0.10566000000E+00 0. -1.
        994    1    1    2    0    0  0.15187638190E+02  0.17750339174E+02  0.31788584009E+01  0.17281575170E+03  0.17120000000E+03 0.  0.
        998    1    1    2    0    0 -0.78497816715E+01 -0.88962877808E+01  0.14528901044E+04  0.14529729586E+04  0.10000000000E+02 0. -1.
</event>
<event>
 5    1  0.7732857E-009  0.3762577E+03  0.7957747E-01  0.3467617E+00
         13   -1    0    0    0    0  0.00000000000E+00  0.00000000000E+00  0.14999999963E+04  0.15000000000E+04  0.10566000000E+00 0.  1.
        994   -1    0    0    0    0 -0.00000000000E+00 -0.00000000000E+00  0.11368683772E-12  0.17120000000E+03  0.17120000000E+03 0.  0.
         13    1    1    2    0    0 -0.72188744407E+02 -0.71431959551E+02  0.43652603752E+03  0.44818381526E+03  0.10566000000E+00 0.  1.
        994    1    1    2    0    0  0.11928858361E+03  0.69242060385E+02  0.73412792300E+02  0.23178245658E+03  0.17120000000E+03 0.  0.
        998    1    1    2    0    0 -0.47099839200E+02  0.21898991657E+01  0.99006116646E+03  0.99123372816E+03  0.10000000000E+02 0.  1.
</event>
<event>
 5    1  0.7732857E-009  0.3805879E+03  0.7957747E-01  0.3448602E+00
         13   -1    0    0    0    0  0.00000000000E+00  0.00000000000E+00  0.14999999963E+04  0.15000000000E+04  0.10566000000E+00 0.  1.
        994   -1    0    0    0    0 -0.00000000000E+00 -0.00000000000E+00  0.11368683772E-12  0.17120000000E+03  0.17120000000E+03 0.  0.
         13    1    1    2    0    0  0.22574815735E+02 -0.29494524854E+02  0.19892306156E+03  0.20236092727E+03  0.10566000000E+00 0.  1.
        994    1    1    2    0    0 -0.80336021995E+01  0.34304457953E+01  0.40912912221E+01  0.17147152938E+03  0.17120000000E+03 0.  0.
        998    1    1    2    0    0 -0.14541213535E+02  0.26064079059E+02  0.12969856435E+04  0.12973675434E+04  0.10000000000E+02 0.  1.
</event>
<event>
 5    1  0.7732857E-009  0.3783247E+03  0.7957747E-01  0.3458486E+00
         13   -1    0    0    0    0  0.00000000000E+00  0.00000000000E+00  0.14999999963E+04  0.15000000000E+04  0.10566000000E+00 0. -1.
        994   -1    0    0    0    0 -0.00000000000E+00 -0.00000000000E+00  0.11368683772E-12  0.17120000000E+03  0.17120000000E+03 0.  0.
         13    1    1    2    0    0 -0.27678739484E+01 -0.40165859047E+02  0.17782994456E+03  0.18233062745E+03  0.10566000000E+00 0. -1.
        994    1    1    2    0    0  0.67062780890E+01  0.76988898789E+01  0.53317508799E+01  0.17158704683E+03  0.17120000000E+03 0.  0.
        998    1    1    2    0    0 -0.39384041405E+01  0.32466969168E+02  0.13168383008E+04  0.13172823257E+04  0.10000000000E+02 0. -1.
</event>
<event>
 5    1  0.7732857E-009  0.3854264E+03  0.7957747E-01  0.3427866E+00
         13   -1    0    0    0    0  0.00000000000E+00  0.00000000000E+00  0.14999999963E+04  0.15000000000E+04  0.10566000000E+00 0.  1.
        994   -1    0    0    0    0 -0.00000000000E+00 -0.00000000000E+00  0.11368683772E-12  0.17120000000E+03  0.17120000000E+03 0.  0.
         13    1    1    2    0    0  0.72033504251E+01 -0.78034309207E+01  0.38650137948E+02  0.40082740911E+02  0.10566000000E+00 0.  1.
        994    1    1    2    0    0 -0.11995168344E+02  0.64937441676E+01  0.20298297724E+01  0.17175451373E+03  0.17120000000E+03 0.  0.
        998    1    1    2    0    0  0.47918179184E+01  0.13096867531E+01  0.14593200286E+04  0.14593627454E+04  0.10000000000E+02 0.  1.
</event>
<event>
 5    1  0.7732857E-009  0.3741256E+03  0.7957747E-01  0.3477142E+00
         13   -1    0    0    0    0  0.00000000000E+00  0.00000000000E+00  0.14999999963E+04  0.15000000000E+04  0.10566000000E+00 0.  1.
        994   -1    0    0    0    0 -0.00000000000E+00 -0.00000000000E+00  0.11368683772E-12  0.17120000000E+03  0.17120000000E+03 0.  0.
         13    1    1    2    0    0  0.86415131694E+01 -0.16128164886E+02  0.20257915405E+02  0.27298127281E+02  0.10566000000E+00 0.  1.
        994    1    1    2    0    0 -0.67934425302E+01  0.15083668454E+02  0.80619588948E+01  0.17218624538E+03  0.17120000000E+03 0.  0.
        998    1    1    2    0    0 -0.18480706392E+01  0.10444964322E+01  0.14716801220E+04  0.14717156273E+04  0.10000000000E+02 0.  1.
</event>
<event>
 5    1  0.7732857E-009  0.3818878E+03  0.7957747E-01  0.3442980E+00
         13   -1    0    0    0    0  0.00000000000E+00  0.00000000000E+00  0.14999999963E+04  0.15000000000E+04  0.10566000000E+00 0. -1.
        994   -1    0    0    0    0 -0.00000000000E+00 -0.00000000000E+00  0.11368683772E-12  0.17120000000E+03  0.17120000000E+03 0.  0.
         13    1    1    2    0    0  0.78671364753E+01 -0.69170729587E+01  0.16764031156E+02  0.19768197674E+02  0.10566000000E+00 0. -1.
        994    1    1    2    0    0  0.13248368547E+02 -0.18396549855E+01  0.37777978676E+01  0.17176325380E+03  0.17120000000E+03 0.  0.
        998    1    1    2    0    0 -0.21115505022E+02  0.87567279442E+01  0.14794581673E+04  0.14796685485E+04  0.10000000000E+02 0. -1.
</event>
<event>
 5    1  0.7732857E-009  0.3814886E+03  0.7957747E-01  0.3444702E+00
         13   -1    0    0    0    0  0.00000000000E+00  0.00000000000E+00  0.14999999963E+04  0.15000000000E+04  0.10566000000E+00 0. -1.
        994   -1    0    0    0    0 -0.00000000000E+00 -0.00000000000E+00  0.11368683772E-12  0.17120000000E+03  0.17120000000E+03 0.  0.
         13    1    1    2    0    0 -0.21241921713E+02 -0.48972537625E+02  0.88443475117E+02  0.10330434712E+03  0.10566000000E+00 0. -1.
        994    1    1    2    0    0 -0.50041843750E+02  0.10241319091E+02  0.26714986265E+02  0.18064385191E+03  0.17120000000E+03 0.  0.
        998    1    1    2    0    0  0.71283765463E+02  0.38731218534E+02  0.13848415349E+04  0.13872518010E+04  0.10000000000E+02 0. -1.
</event>
<event>
 5    1  0.7732857E-009  0.3899973E+03  0.7957747E-01  0.3408751E+00
         13   -1    0    0    0    0  0.00000000000E+00  0.00000000000E+00  0.14999999963E+04  0.15000000000E+04  0.10566000000E+00 0.  1.
        994   -1    0    0    0    0 -0.00000000000E+00 -0.00000000000E+00  0.11368683772E-12  0.17120000000E+03  0.17120000000E+03 0.  0.
         13    1    1    2    0    0 -0.15925877397E+02  0.26795446910E+02  0.14060935908E+02  0.34195769162E+02  0.10566000000E+00 0.  1.
        994    1    1    2    0    0 -0.24940276217E+02 -0.11330776698E+02  0.24758837289E+02  0.17513664352E+03  0.17120000000E+03 0.  0.
        998    1    1    2    0    0  0.40866153614E+02 -0.15464670212E+02  0.14611802231E+04  0.14618675873E+04  0.10000000000E+02 0.  1.
</event>
<event>
 5    1  0.9005311E-009  0.3862684E+03  0.7957747E-01  0.3424310E+00
         13   -1    0    0    0    0  0.00000000000E+00  0.00000000000E+00  0.14999999963E+04  0.15000000000E+04  0.10566000000E+00 0. -1.
        994   -1    0    0    0    0 -0.00000000000E+00 -0.00000000000E+00  0.11368683772E-12  0.17120000000E+03  0.17120000000E+03 0.  0.
         13    1    1    2    0    0 -0.12995834823E+02  0.22840112958E+00  0.78463812875E+02  0.79533169085E+02  0.10566000000E+00 0. -1.
        994    1    1    2    0    0  0.19209208707E+02  0.12306400259E+02  0.27080854734E+01  0.17273452149E+03  0.17120000000E+03 0.  0.
        998    1    1    2    0    0 -0.62133738843E+01 -0.12534801389E+02  0.14188280979E+04  0.14189323094E+04  0.10000000000E+02 0. -1.
</event>
<event>
 5    1  0.7732857E-009  0.3813890E+03  0.7957747E-01  0.3445133E+00
         13   -1    0    0    0    0  0.00000000000E+00  0.00000000000E+00  0.14999999963E+04  0.15000000000E+04  0.10566000000E+00 0.  1.
        994   -1    0    0    0    0 -0.00000000000E+00 -0.00000000000E+00  0.11368683772E-12  0.17120000000E+03  0.17120000000E+03 0.  0.
         13    1    1    2    0    0 -0.25706438399E+02 -0.29909553716E+02  0.17846484875E+03  0.18277066445E+03  0.10566000000E+00 0.  1.
        994    1    1    2    0    0  0.42182673713E+02  0.36367713721E+02  0.13825613404E+02  0.18056183470E+03  0.17120000000E+03 0.  0.
        998    1    1    2    0    0 -0.16476235313E+02 -0.64581600045E+01  0.13077095341E+04  0.13078675009E+04  0.10000000000E+02 0.  1.
</event>
<event>
 5    1  0.7732857E-009  0.3146477E+03  0.7957747E-01  0.3796696E+00
         13   -1    0    0    0    0  0.00000000000E+00  0.00000000000E+00  0.14999999963E+04  0.15000000000E+04  0.10566000000E+00 0.  1.
        994   -1    0    0    0    0 -0.00000000000E+00 -0.00000000000E+00  0.11368683772E-12  0.17120000000E+03  0.17120000000E+03 0.  0.
         13    1    1    2    0    0  0.18960647047E+03  0.52780661860E+02  0.74551183253E+03  0.77105402893E+03  0.10566000000E+00 0.  1.
        994    1    1    2    0    0 -0.18191953086E+03 -0.43902131122E+02  0.14839825520E+03  0.29385982198E+03  0.17120000000E+03 0.  0.
        998    1    1    2    0    0 -0.76869396119E+01 -0.88785307377E+01  0.60608990854E+03  0.60628614910E+03  0.10000000000E+02 0.  0.
</event>
<event>
 5    1  0.7732857E-009  0.3824797E+03  0.7957747E-01  0.3440432E+00
         13   -1    0    0    0    0  0.00000000000E+00  0.00000000000E+00  0.14999999963E+04  0.15000000000E+04  0.10566000000E+00 0.  1.
        994   -1    0    0    0    0 -0.00000000000E+00 -0.00000000000E+00  0.11368683772E-12  0.17120000000E+03  0.17120000000E+03 0.  0.
         13    1    1    2    0    0 -0.20434875639E+01  0.44821608357E+02  0.22325052109E+03  0.22771464324E+03  0.10566000000E+00 0.  1.
        994    1    1    2    0    0  0.62227982914E+00 -0.77542457620E+02  0.23087756356E+02  0.18935602568E+03  0.17120000000E+03 0.  0.
        998    1    1    2    0    0  0.14212077348E+01  0.32720849263E+02  0.12536617188E+04  0.12541293311E+04  0.10000000000E+02 0.  1.
</event>
<event>
 5    1  0.7732857E-009  0.3771059E+03  0.7957747E-01  0.3463858E+00
         13   -1    0    0    0    0  0.00000000000E+00  0.00000000000E+00  0.14999999963E+04  0.15000000000E+04  0.10566000000E+00 0.  1.
        994   -1    0    0    0    0 -0.00000000000E+00 -0.00000000000E+00  0.11368683772E-12  0.17120000000E+03  0.17120000000E+03 0.  0.
         13    1    1    2    0    0  0.22492519884E+02 -0.23748357696E+02  0.80154097552E+02  0.86571291214E+02  0.10566000000E+00 0.  1.
        994    1    1    2    0    0 -0.41018021351E+02  0.40989892498E+02  0.17036389881E+02  0.18155530271E+03  0.17120000000E+03 0.  0.
        998    1    1    2    0    0  0.18525501467E+02 -0.17241534802E+02  0.14028095088E+04  0.14030734061E+04  0.10000000000E+02 0.  1.
</event>
<event>
 5    1  0.7732857E-009  0.3703584E+03  0.7957747E-01  0.3494245E+00
         13   -1    0    0    0    0  0.00000000000E+00  0.00000000000E+00  0.14999999963E+04  0.15000000000E+04  0.10566000000E+00 0. -1.
        994   -1    0    0    0    0 -0.00000000000E+00 -0.00000000000E+00  0.11368683772E-12  0.17120000000E+03  0.17120000000E+03 0.  0.
         13    1    1    2    0    0 -0.22001871495E+02  0.20428848792E+02  0.48389514770E+02  0.56947137908E+02  0.10566000000E+00 0. -1.
        994    1    1    2    0    0  0.98764826988E+01  0.62125659996E+01  0.95521319020E+01  0.17186280607E+03  0.17120000000E+03 0.  0.
        998    1    1    2    0    0  0.12125388796E+02 -0.26641414792E+02  0.14420583496E+04  0.14423900560E+04  0.10000000000E+02 0. -1.
</event>
<event>
 5    1  0.7732857E-009  0.3850330E+03  0.7957747E-01  0.3429532E+00
         13   -1    0    0    0    0  0.00000000000E+00  0.00000000000E+00  0.14999999963E+04  0.15000000000E+04  0.10566000000E+00 0. -1.
        994   -1    0    0    0    0 -0.00000000000E+00 -0.00000000000E+00  0.11368683772E-12  0.17120000000E+03  0.17120000000E+03 0.  0.
         13    1    1    2    0    0 -0.17047633790E+00 -0.10081384870E+02  0.31076202414E+02  0.32671163181E+02  0.10566000000E+00 0. -1.
        994    1    1    2    0    0  0.19742070660E+01  0.83811818482E+01  0.18575956764E+01  0.17142646343E+03  0.17120000000E+03 0.  0.
        998    1    1    2    0    0 -0.18037307280E+01  0.17002030221E+01  0.14670661982E+04  0.14671023734E+04  0.10000000000E+02 0. -1.
</event>
<event>
 5    1  0.7732857E-009  0.3786647E+03  0.7957747E-01  0.3456993E+00
         13   -1    0    0    0    0  0.00000000000E+00  0.00000000000E+00  0.14999999963E+04  0.15000000000E+04  0.10566000000E+00 0. -1.
        994   -1    0    0    0    0 -0.00000000000E+00 -0.00000000000E+00  0.11368683772E-12  0.17120000000E+03  0.17120000000E+03 0.  0.
         13    1    1    2    0    0  0.17703697475E+02  0.61448166616E+01  0.33500726627E+02  0.38386058988E+02  0.10566000000E+00 0. -1.
        994    1    1    2    0    0 -0.24186000777E+02 -0.10117399531E+01  0.67787698537E+01  0.17303577079E+03  0.17120000000E+03 0.  0.
        998    1    1    2    0    0  0.64823033021E+01 -0.51330767085E+01  0.14597204998E+04  0.14597781702E+04  0.10000000000E+02 0. -1.
</event>
<event>
 5    1  0.7732857E-009  0.3804415E+03  0.7957747E-01  0.3449238E+00
         13   -1    0    0    0    0  0.00000000000E+00  0.00000000000E+00  0.14999999963E+04  0.15000000000E+04  0.10566000000E+00 0.  1.
        994   -1    0    0    0    0 -0.00000000000E+00 -0.00000000000E+00  0.11368683772E-12  0.17120000000E+03  0.17120000000E+03 0.  0.
         13    1    1    2    0    0 -0.72204489968E+01  0.11353088423E+03  0.55571637978E+03  0.56724077998E+03  0.10566000000E+00 0.  1.
        994    1    1    2    0    0 -0.25309519915E+02 -0.26257931284E+02  0.21412480986E+02  0.17634620806E+03  0.17120000000E+03 0.  0.
        998    1    1    2    0    0  0.32529968912E+02 -0.87272952949E+02  0.92287113552E+03  0.92761301196E+03  0.10000000000E+02 0.  1.
</event>
<event>
 5    1  0.1146739E-008  0.3865063E+03  0.7957747E-01  0.3423309E+00
         13   -1    0    0    0    0  0.00000000000E+00  0.00000000000E+00  0.14999999963E+04  0.15000000000E+04  0.10566000000E+00 0. -1.
        994   -1    0    0    0    0 -0.00000000000E+00 -0.00000000000E+00  0.11368683772E-12  0.17120000000E+03  0.17120000000E+03 0.  0.
         13    1    1    2    0    0  0.21943421351E+01  0.10667852259E+02  0.65076688617E+02  0.65981851858E+02  0.10566000000E+00 0. -1.
        994    1    1    2    0    0 -0.76517316303E+01 -0.12179721504E+02  0.15615101776E+01  0.17181028178E+03  0.17120000000E+03 0.  0.
        998    1    1    2    0    0  0.54573894951E+01  0.15118692454E+01  0.14333617975E+04  0.14334078664E+04  0.10000000000E+02 0. -1.
</event>
<event>
 5    1  0.7732857E-009  0.3764046E+03  0.7957747E-01  0.3466965E+00
         13   -1    0    0    0    0  0.00000000000E+00  0.00000000000E+00  0.14999999963E+04  0.15000000000E+04  0.10566000000E+00 0.  1.
        994   -1    0    0    0    0 -0.00000000000E+00 -0.00000000000E+00  0.11368683772E-12  0.17120000000E+03  0.17120000000E+03 0.  0.
         13    1    1    2    0    0  0.98081282500E+02 -0.16587301680E+02  0.33709858576E+03  0.35146912274E+03  0.10566000000E+00 0.  1.
        994    1    1    2    0    0 -0.62611580271E+02 -0.82092094601E+01  0.28768672368E+02  0.18472865943E+03  0.17120000000E+03 0.  0.
        998    1    1    2    0    0 -0.35469702229E+02  0.24796511140E+02  0.11341327382E+04  0.11350022178E+04  0.10000000000E+02 0.  1.
</event>
<event>
 5    1  0.7732857E-009  0.3827694E+03  0.7957747E-01  0.3439188E+00
         13   -1    0    0    0    0  0.00000000000E+00  0.00000000000E+00  0.14999999963E+04  0.15000000000E+04  0.10566000000E+00 0.  1.
        994   -1    0    0    0    0 -0.00000000000E+00 -0.00000000000E+00  0.11368683772E-12  0.17120000000E+03  0.17120000000E+03 0.  0.
         13    1    1    2    0    0  0.34666008425E+01 -0.16117110532E+02  0.48231435838E+02  0.50971179507E+02  0.10566000000E+00 0.  1.
        994    1    1    2    0    0 -0.38880152120E+01  0.12585460890E+02  0.33166550634E+01  0.17173802924E+03  0.17120000000E+03 0.  0.
        998    1    1    2    0    0  0.42141436957E+00  0.35316496424E+01  0.14484519054E+04  0.14484907912E+04  0.10000000000E+02 0.  1.
</event>
<event>
 5    1  0.7732857E-009  0.3738722E+03  0.7957747E-01  0.3478282E+00
         13   -1    0    0    0    0  0.00000000000E+00  0.00000000000E+00  0.14999999963E+04  0.15000000000E+04  0.10566000000E+00 0.  1.
        994   -1    0    0    0    0 -0.00000000000E+00 -0.00000000000E+00  0.11368683772E-12  0.17120000000E+03  0.17120000000E+03 0.  0.
         13    1    1    2    0    0 -0.15327286190E+02  0.10450146021E+02  0.20879832601E+02  0.27930446242E+02  0.10566000000E+00 0.  1.
        994    1    1    2    0    0 -0.61035696089E+00 -0.14179651985E+02  0.79466450888E+01  0.17197099824E+03  0.17120000000E+03 0.  0.
        998    1    1    2    0    0  0.15937643151E+02  0.37295059635E+01  0.14711735186E+04  0.14712985555E+04  0.10000000000E+02 0.  1.
</event>
<event>
 5    1  0.7732857E-009  0.3845450E+03  0.7957747E-01  0.3431604E+00
         13   -1    0    0    0    0  0.00000000000E+00  0.00000000000E+00  0.14999999963E+04  0.15000000000E+04  0.10566000000E+00 0.  1.
        994   -1    0    0    0    0 -0.00000000000E+00 -0.00000000000E+00  0.11368683772E-12  0.17120000000E+03  0.17120000000E+03 0.  0.
         13    1    1    2    0    0 -0.43197614710E+01 -0.10903124945E+02  0.35986042363E+02  0.37848974645E+02  0.10566000000E+00 0.  1.
        994    1    1    2    0    0  0.48820977470E+01  0.11303103555E+02  0.23556339657E+01  0.17165833519E+03  0.17120000000E+03 0.  0.
        998    1    1    2    0    0 -0.56233627600E+00 -0.39997861063E+00  0.14616583200E+04  0.14616926902E+04  0.10000000000E+02 0.  1.
</event>
<event>
 5    1  0.7732857E-009  0.3849188E+03  0.7957747E-01  0.3430017E+00
         13   -1    0    0    0    0  0.00000000000E+00  0.00000000000E+00  0.14999999963E+04  0.15000000000E+04  0.10566000000E+00 0. -1.
        994   -1    0    0    0    0 -0.00000000000E+00 -0.00000000000E+00  0.11368683772E-12  0.17120000000E+03  0.17120000000E+03 0.  0.
         13    1    1    2    0    0 -0.84177819702E+01 -0.10447147847E+02  0.54401631243E+02  0.56031692795E+02  0.10566000000E+00 0. -1.
        994    1    1    2    0    0  0.24988660235E+01  0.70023717005E+01  0.18523077604E+01  0.17137137621E+03  0.17120000000E+03 0.  0.
        998    1    1    2    0    0  0.59189159467E+01  0.34447761469E+01  0.14437460573E+04  0.14437969310E+04  0.10000000000E+02 0. -1.
</event>
<event>
 5    1  0.7732857E-009  0.3823844E+03  0.7957747E-01  0.3440842E+00
         13   -1    0    0    0    0  0.00000000000E+00  0.00000000000E+00  0.14999999963E+04  0.15000000000E+04  0.10566000000E+00 0.  1.
        994   -1    0    0    0    0 -0.00000000000E+00 -0.00000000000E+00  0.11368683772E-12  0.17120000000E+03  0.17120000000E+03 0.  0.
         13    1    1    2    0    0  0.10494384935E+02  0.58628662526E+01  0.23818942822E+02  0.26680676847E+02  0.10566000000E+00 0.  1.
        994    1    1    2    0    0  0.29783735220E+01 -0.14243465342E+02  0.36369570666E+01  0.17185579557E+03  0.17120000000E+03 0.  0.
        998    1    1    2    0    0 -0.13472758457E+02  0.83805990890E+01  0.14725440964E+04  0.14726635276E+04  0.10000000000E+02 0.  1.
</event>
<event>
 5    1  0.7732857E-009  0.3702263E+03  0.7957747E-01  0.3494852E+00
         13   -1    0    0    0    0  0.00000000000E+00  0.00000000000E+00  0.14999999963E+04  0.15000000000E+04  0.10566000000E+00 0.  1.
        994   -1    0    0    0    0 -0.00000000000E+00 -0.00000000000E+00  0.11368683772E-12  0.17120000000E+03  0.17120000000E+03 0.  0.
         13    1    1    2    0    0 -0.68445216640E+02  0.14743891753E+02  0.17536150723E+03  0.18882213696E+03  0.10566000000E+00 0.  1.
        994    1    1    2    0    0  0.92508006123E+02  0.20703131835E+01  0.41647961175E+02  0.19901258770E+03  0.17120000000E+03 0.  0.
        998    1    1    2    0    0 -0.24062789484E+02 -0.16814204936E+02  0.12829905279E+04  0.12833652753E+04  0.10000000000E+02 0.  1.
</event>
<event>
 5    1  0.7732857E-009  0.3831759E+03  0.7957747E-01  0.3437445E+00
         13   -1    0    0    0    0  0.00000000000E+00  0.00000000000E+00  0.14999999963E+04  0.15000000000E+04  0.10566000000E+00 0. -1.
        994   -1    0    0    0    0 -0.00000000000E+00 -0.00000000000E+00  0.11368683772E-12  0.17120000000E+03  0.17120000000E+03 0.  0.
         13    1    1    2    0    0  0.13436739705E+02  0.15338446099E+01  0.34074878981E+02  0.36660703687E+02  0.10566000000E+00 0. -1.
        994    1    1    2    0    0 -0.17884154975E+02  0.53432209085E+00  0.35982584903E+01  0.17217002051E+03  0.17120000000E+03 0.  0.
        998    1    1    2    0    0  0.44474152703E+01 -0.20681667008E+01  0.14623268588E+04  0.14623692758E+04  0.10000000000E+02 0. -1.
</event>
<event>
 5    1  0.7732857E-009  0.3854753E+03  0.7957747E-01  0.3427659E+00
         13   -1    0    0    0    0  0.00000000000E+00  0.00000000000E+00  0.14999999963E+04  0.15000000000E+04  0.10566000000E+00 0. -1.
        994   -1    0    0    0    0 -0.00000000000E+00 -0.00000000000E+00  0.11368683772E-12  0.17120000000E+03  0.17120000000E+03 0.  0.
         13    1    1    2    0    0 -0.74118247906E+01 -0.85855224937E+01  0.45338441184E+02  0.46735765279E+02  0.10566000000E+00 0. -1.
        994    1    1    2    0    0  0.35350844971E+01  0.11932129590E+02  0.19030317369E+01  0.17166226746E+03  0.17120000000E+03 0.  0.
        998    1    1    2    0    0  0.38767402935E+01 -0.33466070960E+01  0.14527585234E+04  0.14528019673E+04  0.10000000000E+02 0. -1.
</event>
<event>
 5    1  0.7732857E-009  0.3825084E+03  0.7957747E-01  0.3440309E+00
         13   -1    0    0    0    0  0.00000000000E+00  0.00000000000E+00  0.14999999963E+04  0.15000000000E+04  0.10566000000E+00 0.  1.
        994   -1    0    0    0    0 -0.00000000000E+00 -0.00000000000E+00  0.11368683772E-12  0.17120000000E+03  0.17120000000E+03 0.  0.
         13    1    1    2    0    0  0.17567050301E+02 -0.84591961755E+00  0.53868608321E+02  0.56667053592E+02  0.10566000000E+00 0.  1.
        994    1    1    2    0    0 -0.77881922176E+01 -0.37631034029E+01  0.31203499570E+01  0.17144676570E+03  0.17120000000E+03 0.  0.
        998    1    1    2    0    0 -0.97788580839E+01  0.46090230205E+01  0.14430110380E+04  0.14430861807E+04  0.10000000000E+02 0.  1.
</event>
<event>
 5    1  0.1055501E-008  0.3860907E+03  0.7957747E-01  0.3425059E+00
         13   -1    0    0    0    0  0.00000000000E+00  0.00000000000E+00  0.14999999963E+04  0.15000000000E+04  0.10566000000E+00 0. -1.
        994   -1    0    0    0    0 -0.00000000000E+00 -0.00000000000E+00  0.11368683772E-12  0.17120000000E+03  0.17120000000E+03 0.  0.
         13    1    1    2    0    0 -0.11077649921E+02  0.60451407494E+00  0.59729967964E+02  0.60751625509E+02  0.10566000000E+00 0. -1.
        994    1    1    2    0    0  0.36856660370E+01  0.22185839334E+02  0.27488474887E+01  0.17269276697E+03  0.17120000000E+03 0.  0.
        998    1    1    2    0    0  0.73919838841E+01 -0.22790353409E+02  0.14375211808E+04  0.14377556075E+04  0.10000000000E+02 0. -1.
</event>
<event>
 5    1  0.7732857E-009  0.3759142E+03  0.7957747E-01  0.3469144E+00
         13   -1    0    0    0    0  0.00000000000E+00  0.00000000000E+00  0.14999999963E+04  0.15000000000E+04  0.10566000000E+00 0. -1.
        994   -1    0    0    0    0 -0.00000000000E+00 -0.00000000000E+00  0.11368683772E-12  0.17120000000E+03  0.17120000000E+03 0.  0.
         13    1    1    2    0    0  0.25075875118E+02 -0.93626527758E+02  0.49278934856E+03  0.50223110162E+03  0.10566000000E+00 0. -1.
        994    1    1    2    0    0 -0.23179571362E+02  0.95079121793E+02  0.39389045174E+02  0.20109268711E+03  0.17120000000E+03 0.  0.
        998    1    1    2    0    0 -0.18963037560E+01 -0.14525940350E+01  0.96782160254E+03  0.96787621127E+03  0.10000000000E+02 0.  0.
</event>
<event>
 5    1  0.7732857E-009  0.3731853E+03  0.7957747E-01  0.3481378E+00
         13   -1    0    0    0    0  0.00000000000E+00  0.00000000000E+00  0.14999999963E+04  0.15000000000E+04  0.10566000000E+00 0. -1.
        994   -1    0    0    0    0 -0.00000000000E+00 -0.00000000000E+00  0.11368683772E-12  0.17120000000E+03  0.17120000000E+03 0.  0.
         13    1    1    2    0    0 -0.52841041739E+00 -0.11587591232E+02  0.55687572152E+01  0.12867544796E+02  0.10566000000E+00 0. -1.
        994    1    1    2    0    0  0.12111374311E+02 -0.95297578664E+01  0.84262479702E+01  0.17209864418E+03  0.17120000000E+03 0.  0.
        998    1    1    2    0    0 -0.11582963893E+02  0.21117349098E+02  0.14860049911E+04  0.14862338110E+04  0.10000000000E+02 0. -1.
</event>
<event>
 5    1  0.7732857E-009  0.3814088E+03  0.7957747E-01  0.3445047E+00
         13   -1    0    0    0    0  0.00000000000E+00  0.00000000000E+00  0.14999999963E+04  0.15000000000E+04  0.10566000000E+00 0.  1.
        994   -1    0    0    0    0 -0.00000000000E+00 -0.00000000000E+00  0.11368683772E-12  0.17120000000E+03  0.17120000000E+03 0.  0.
         13    1    1    2    0    0 -0.18587330655E+02 -0.87846566865E+01  0.62261958767E+02  0.65568450702E+02  0.10566000000E+00 0.  1.
        994    1    1    2    0    0  0.36352397423E+01  0.86201469371E+01  0.37149749366E+01  0.17149566449E+03  0.17120000000E+03 0.  0.
        998    1    1    2    0    0  0.14952090913E+02  0.16450974939E+00  0.14340230626E+04  0.14341358848E+04  0.10000000000E+02 0.  1.
</event>
<event>
 5    1  0.7732857E-009  0.3835153E+03  0.7957747E-01  0.3435994E+00
         13   -1    0    0    0    0  0.00000000000E+00  0.00000000000E+00  0.14999999963E+04  0.15000000000E+04  0.10566000000E+00 0.  1.
        994   -1    0    0    0    0 -0.00000000000E+00 -0.00000000000E+00  0.11368683772E-12  0.17120000000E+03  0.17120000000E+03 0.  0.
         13    1    1    2    0    0  0.16079987836E+02 -0.44473717538E+01  0.54467502936E+02  0.56965473442E+02  0.10566000000E+00 0.  1.
        994    1    1    2    0    0 -0.16753184668E+02  0.32413175973E+02  0.67808428611E+01  0.17517620558E+03  0.17120000000E+03 0.  0.
        998    1    1    2    0    0  0.67319683153E+00 -0.27965804220E+02  0.14387516505E+04  0.14390583210E+04  0.10000000000E+02 0.  1.
</event>
<event>
 5    1  0.7732857E-009  0.3817041E+03  0.7957747E-01  0.3443772E+00
         13   -1    0    0    0    0  0.00000000000E+00  0.00000000000E+00  0.14999999963E+04  0.15000000000E+04  0.10566000000E+00 0.  1.
        994   -1    0    0    0    0 -0.00000000000E+00 -0.00000000000E+00  0.11368683772E-12  0.17120000000E+03  0.17120000000E+03 0.  0.
         13    1    1    2    0    0  0.25290466869E+02  0.22464983775E+01  0.92981610042E+02  0.96385919301E+02  0.10566000000E+00 0.  1.
        994    1    1    2    0    0 -0.24357194039E+02  0.26029851149E+01  0.52726291037E+01  0.17302395514E+03  0.17120000000E+03 0.  0.
        998    1    1    2    0    0 -0.93327283040E+00 -0.48494834923E+01  0.14017457571E+04  0.14017901256E+04  0.10000000000E+02 0.  1.
</event>
<event>
 5    1  0.7732857E-009  0.3784425E+03  0.7957747E-01  0.3457968E+00
         13   -1    0    0    0    0  0.00000000000E+00  0.00000000000E+00  0.14999999963E+04  0.15000000000E+04  0.10566000000E+00 0. -1.
        994   -1    0    0    0    0 -0.00000000000E+00 -0.00000000000E+00  0.11368683772E-12  0.17120000000E+03  0.17120000000E+03 0.  0.
         13    1    1    2    0    0  0.15842153169E+03  0.39630667159E+01  0.46329492991E+03  0.48964812963E+03  0.10566000000E+00 0. -1.
        994    1    1    2    0    0 -0.18668987766E+03  0.11364079408E+03  0.21556125901E+03  0.35148746334E+03  0.17120000000E+03 0.  0.
        998    1    1    2    0    0  0.28268345978E+02 -0.11760386080E+03  0.82114380736E+03  0.83006440703E+03  0.10000000000E+02 0. -1.
</event>
<event>
 5    1  0.7732857E-009  0.3838338E+03  0.7957747E-01  0.3434633E+00
         13   -1    0    0    0    0  0.00000000000E+00  0.00000000000E+00  0.14999999963E+04  0.15000000000E+04  0.10566000000E+00 0.  1.
        994   -1    0    0    0    0 -0.00000000000E+00 -0.00000000000E+00  0.11368683772E-12  0.17120000000E+03  0.17120000000E+03 0.  0.
         13    1    1    2    0    0 -0.16280642726E+02 -0.54367646184E+01  0.68814074943E+02  0.70922533876E+02  0.10566000000E+00 0.  1.
        994    1    1    2    0    0 -0.20020006669E-01  0.13959774507E+02  0.28538050712E+01  0.17179190874E+03  0.17120000000E+03 0.  0.
        998    1    1    2    0    0  0.16300662733E+02 -0.85230098882E+01  0.14283321163E+04  0.14284855574E+04  0.10000000000E+02 0.  1.
</event>
<event>
 5    1  0.7732857E-009  0.3791652E+03  0.7957747E-01  0.3454802E+00
         13   -1    0    0    0    0  0.00000000000E+00  0.00000000000E+00  0.14999999963E+04  0.15000000000E+04  0.10566000000E+00 0. -1.
        994   -1    0    0    0    0 -0.00000000000E+00 -0.00000000000E+00  0.11368683772E-12  0.17120000000E+03  0.17120000000E+03 0.  0.
         13    1    1    2    0    0 -0.18144959714E+02  0.30853421513E+01  0.35259565488E+02  0.39774451871E+02  0.10566000000E+00 0. -1.
        994    1    1    2    0    0  0.12678289452E+02 -0.60564268644E+01  0.52172201741E+01  0.17185481872E+03  0.17120000000E+03 0.  0.
        998    1    1    2    0    0  0.54666702616E+01  0.29710847131E+01  0.14595232106E+04  0.14595707294E+04  0.10000000000E+02 0. -1.
</event>
<event>
 5    1  0.7732857E-009  0.3719543E+03  0.7957747E-01  0.3486957E+00
         13   -1    0    0    0    0  0.00000000000E+00  0.00000000000E+00  0.14999999963E+04  0.15000000000E+04  0.10566000000E+00 0. -1.
        994   -1    0    0    0    0 -0.00000000000E+00 -0.00000000000E+00  0.11368683772E-12  0.17120000000E+03  0.17120000000E+03 0.  0.
         13    1    1    2    0    0  0.13983706679E+02 -0.55458249296E+02  0.13302259916E+03  0.14479704596E+03  0.10566000000E+00 0. -1.
        994    1    1    2    0    0 -0.16546707078E+01  0.35519970718E+02  0.16439820369E+02  0.17562492405E+03  0.17120000000E+03 0.  0.
        998    1    1    2    0    0 -0.12329035971E+02  0.19938278577E+02  0.13505375768E+04  0.13507780300E+04  0.10000000000E+02 0. -1.
</event>
<event>
 5    1  0.7732857E-009  0.3831495E+03  0.7957747E-01  0.3437559E+00
         13   -1    0    0    0    0  0.00000000000E+00  0.00000000000E+00  0.14999999963E+04  0.15000000000E+04  0.10566000000E+00 0.  1.
        994   -1    0    0    0    0 -0.00000000000E+00 -0.00000000000E+00  0.11368683772E-12  0.17120000000E+03  0.17120000000E+03 0.  0.
         13    1    1    2    0    0  0.13072103556E+02 -0.18911623115E+02  0.11976952544E+03  0.12195605671E+03  0.10566000000E+00 0.  1.
        994    1    1    2    0    0  0.43598562144E+01 -0.54985493554E+01  0.27146114813E+01  0.17136525758E+03  0.17120000000E+03 0.  0.
        998    1    1    2    0    0 -0.17431959771E+02  0.24410172470E+02  0.13775158594E+04  0.13778786857E+04  0.10000000000E+02 0.  1.
</event>
<event>
 5    1  0.7732857E-009  0.3730327E+03  0.7957747E-01  0.3482068E+00
         13   -1    0    0    0    0  0.00000000000E+00  0.00000000000E+00  0.14999999963E+04  0.15000000000E+04  0.10566000000E+00 0. -1.
        994   -1    0    0    0    0 -0.00000000000E+00 -0.00000000000E+00  0.11368683772E-12  0.17120000000E+03  0.17120000000E+03 0.  0.
         13    1    1    2    0    0 -0.61029976110E+02 -0.14011442190E+02  0.26804989136E+03  0.27526665965E+03  0.10566000000E+00 0. -1.
        994    1    1    2    0    0  0.19987877547E+02  0.40414759100E+02  0.14680921827E+02  0.17764525737E+03  0.17120000000E+03 0.  0.
        998    1    1    2    0    0  0.41042098564E+02 -0.26403316911E+02  0.12172691831E+04  0.12182880830E+04  0.10000000000E+02 0.  1.
</event>
<event>
 5    1  0.7732857E-009  0.3852653E+03  0.7957747E-01  0.3428548E+00
         13   -1    0    0    0    0  0.00000000000E+00  0.00000000000E+00  0.14999999963E+04  0.15000000000E+04  0.10566000000E+00 0. -1.
        994   -1    0    0    0    0 -0.00000000000E+00 -0.00000000000E+00  0.11368683772E-12  0.17120000000E+03  0.17120000000E+03 0.  0.
         13    1    1    2    0    0 -0.11862149574E+02 -0.11321857886E+02  0.91925362372E+02  0.93376541325E+02  0.10566000000E+00 0. -1.
        994    1    1    2    0    0  0.75147922838E+01  0.35148611703E+01  0.17246860447E+01  0.17140957060E+03  0.17120000000E+03 0.  0.
        998    1    1    2    0    0  0.43473572902E+01  0.78069967157E+01  0.14063499479E+04  0.14064138881E+04  0.10000000000E+02 0. -1.
</event>
<event>
 5    1  0.7732857E-009  0.3766566E+03  0.7957747E-01  0.3465847E+00
         13   -1    0    0    0    0  0.00000000000E+00  0.00000000000E+00  0.14999999963E+04  0.15000000000E+04  0.10566000000E+00 0.  1.
        994   -1    0    0    0    0 -0.00000000000E+00 -0.00000000000E+00  0.11368683772E-12  0.17120000000E+03  0.17120000000E+03 0.  0.
         13    1    1    2    0    0 -0.60098820862E+01  0.84708295752E+01  0.65639418708E+01  0.12286990409E+02  0.10566000000E+00 0.  1.
        994    1    1    2    0    0  0.81005356517E+01 -0.49279745239E+01  0.61344198539E+01  0.17157206858E+03  0.17120000000E+03 0.  0.
        998    1    1    2    0    0 -0.20906535655E+01 -0.35428550513E+01  0.14873016346E+04  0.14873409410E+04  0.10000000000E+02 0.  1.
</event>
<event>
 5    1  0.7732857E-009  0.3856998E+03  0.7957747E-01  0.3426710E+00
         13   -1    0    0    0    0  0.00000000000E+00  0.00000000000E+00  0.14999999963E+04  0.15000000000E+04  0.10566000000E+00 0. -1.
        994   -1    0    0    0    0 -0.00000000000E+00 -0.00000000000E+00  0.11368683772E-12  0.17120000000E+03  0.17120000000E+03 0.  0.
         13    1    1    2    0    0  0.40290524528E+00  0.10532684485E+02  0.42863293710E+02  0.44140377057E+02  0.10566000000E+00 0. -1.
        994    1    1    2    0    0 -0.30501758498E+01 -0.98416626597E+01  0.16315350120E+01  0.17151753206E+03  0.17120000000E+03 0.  0.
        998    1    1    2    0    0  0.26472706045E+01 -0.69102182507E+00  0.14555051676E+04  0.14555420909E+04  0.10000000000E+02 0. -1.
</event>
<event>
 5    1  0.7732857E-009  0.3849254E+03  0.7957747E-01  0.3429989E+00
         13   -1    0    0    0    0  0.00000000000E+00  0.00000000000E+00  0.14999999963E+04  0.15000000000E+04  0.10566000000E+00 0. -1.
        994   -1    0    0    0    0 -0.00000000000E+00 -0.00000000000E+00  0.11368683772E-12  0.17120000000E+03  0.17120000000E+03 0.  0.
         13    1    1    2    0    0 -0.49009369598E+01  0.92060590868E+01  0.31069335149E+02  0.32773243014E+02  0.10566000000E+00 0. -1.
        994    1    1    2    0    0  0.27990726206E+02 -0.40599604400E+01  0.43030321101E+01  0.17357396152E+03  0.17120000000E+03 0.  0.
        998    1    1    2    0    0 -0.23089789247E+02 -0.51460986468E+01  0.14646276290E+04  0.14648527955E+04  0.10000000000E+02 0. -1.
</event>
<event>
 5    1  0.8043340E-009  0.3862203E+03  0.7957747E-01  0.3424513E+00
         13   -1    0    0    0    0  0.00000000000E+00  0.00000000000E+00  0.14999999963E+04  0.15000000000E+04  0.10566000000E+00 0.  1.
        994   -1    0    0    0    0 -0.00000000000E+00 -0.00000000000E+00  0.11368683772E-12  0.17120000000E+03  0.17120000000E+03 0.  0.
         13    1    1    2    0    0 -0.10239388734E+02 -0.32224747785E+01  0.64379963071E+02  0.65268830496E+02  0.10566000000E+00 0.  1.
        994    1    1    2    0    0 -0.32486703159E+01 -0.14450491902E+02  0.17444155064E+01  0.17184834465E+03  0.17120000000E+03 0.  0.
        998    1    1    2    0    0  0.13488059050E+02  0.17672966680E+02  0.14338756177E+04  0.14340828248E+04  0.10000000000E+02 0.  1.
</event>
<event>
 5    1  0.7732857E-009  0.3798874E+03  0.7957747E-01  0.3451649E+00
         13   -1    0    0    0    0  0.00000000000E+00  0.00000000000E+00  0.14999999963E+04  0.15000000000E+04  0.10566000000E+00 0.  1.
        994   -1    0    0    0    0 -0.00000000000E+00 -0.00000000000E+00  0.11368683772E-12  0.17120000000E+03  0.17120000000E+03 0.  0.
         13    1    1    2    0    0 -0.12221227344E+02  0.50386026843E+02  0.28169405184E+03  0.28642566244E+03  0.10566000000E+00 0.  1.
        994    1    1    2    0    0  0.24810598104E+02 -0.39503389808E+02  0.11501749567E+02  0.17781398659E+03  0.17120000000E+03 0.  0.
        998    1    1    2    0    0 -0.12589370760E+02 -0.10882637036E+02  0.12068041949E+04  0.12069603510E+04  0.10000000000E+02 0.  1.
</event>
<event>
 5    1  0.7732857E-009  0.3782886E+03  0.7957747E-01  0.3458644E+00
         13   -1    0    0    0    0  0.00000000000E+00  0.00000000000E+00  0.14999999963E+04  0.15000000000E+04  0.10566000000E+00 0. -1.
        994   -1    0    0    0    0 -0.00000000000E+00 -0.00000000000E+00  0.11368683772E-12  0.17120000000E+03  0.17120000000E+03 0.  0.
         13    1    1    2    0    0 -0.73512167415E+01 -0.49112436010E+02  0.20121790590E+03  0.20725522569E+03  0.10566000000E+00 0. -1.
        994    1    1    2    0    0  0.10814348030E+02  0.57319116871E+02  0.16524813975E+02  0.18161756732E+03  0.17120000000E+03 0.  0.
        998    1    1    2    0    0 -0.34631312884E+01 -0.82066808608E+01  0.12822572764E+04  0.12823272070E+04  0.10000000000E+02 0. -1.
</event>
<event>
 5    1  0.7732857E-009  0.3856882E+03  0.7957747E-01  0.3426759E+00
         13   -1    0    0    0    0  0.00000000000E+00  0.00000000000E+00  0.14999999963E+04  0.15000000000E+04  0.10566000000E+00 0.  1.
        994   -1    0    0    0    0 -0.00000000000E+00 -0.00000000000E+00  0.11368683772E-12  0.17120000000E+03  0.17120000000E+03 0.  0.
         13    1    1    2    0    0  0.52600887441E+01  0.92328891123E+01  0.44295986815E+02  0.45552830724E+02  0.10566000000E+00 0.  1.
        994    1    1    2    0    0 -0.55395604141E+00 -0.69989346576E+01  0.14505919667E+01  0.17135003989E+03  0.17120000000E+03 0.  0.
        998    1    1    2    0    0 -0.47061327026E+01 -0.22339544547E+01  0.14542534175E+04  0.14542971294E+04  0.10000000000E+02 0.  1.
</event>
<event>
 5    1  0.7732857E-009  0.3749257E+03  0.7957747E-01  0.3473555E+00
         13   -1    0    0    0    0  0.00000000000E+00  0.00000000000E+00  0.14999999963E+04  0.15000000000E+04  0.10566000000E+00 0.  1.
        994   -1    0    0    0    0 -0.00000000000E+00 -0.00000000000E+00  0.11368683772E-12  0.17120000000E+03  0.17120000000E+03 0.  0.
         13    1    1    2    0    0 -0.25112189862E+02 -0.19600052280E+02  0.65736521422E+02  0.73048514987E+02  0.10566000000E+00 0.  1.
        994    1    1    2    0    0  0.35164042305E+02  0.36383243921E+02  0.15472155446E+02  0.17919006084E+03  0.17120000000E+03 0.  0.
        998    1    1    2    0    0 -0.10051852443E+02 -0.16783191641E+02  0.14187913194E+04  0.14189614242E+04  0.10000000000E+02 0.  1.
</event>
<event>
 5    1  0.7732857E-009  0.3834242E+03  0.7957747E-01  0.3436383E+00
         13   -1    0    0    0    0  0.00000000000E+00  0.00000000000E+00  0.14999999963E+04  0.15000000000E+04  0.10566000000E+00 0.  1.
        994   -1    0    0    0    0 -0.00000000000E+00 -0.00000000000E+00  0.11368683772E-12  0.17120000000E+03  0.17120000000E+03 0.  0.
         13    1    1    2    0    0  0.66547715159E+01 -0.91670271768E+01  0.26013405547E+02  0.28373029507E+02  0.10566000000E+00 0.  1.
        994    1    1    2    0    0  0.65703319530E+00  0.68626109023E+01  0.25716188909E+01  0.17135804721E+03  0.17120000000E+03 0.  0.
        998    1    1    2    0    0 -0.73118047112E+01  0.23044162745E+01  0.14714149718E+04  0.14714689233E+04  0.10000000000E+02 0.  1.
</event>
<event>
 5    1  0.7732857E-009  0.3770391E+03  0.7957747E-01  0.3464153E+00
         13   -1    0    0    0    0  0.00000000000E+00  0.00000000000E+00  0.14999999963E+04  0.15000000000E+04  0.10566000000E+00 0. -1.
        994   -1    0    0    0    0 -0.00000000000E+00 -0.00000000000E+00  0.11368683772E-12  0.17120000000E+03  0.17120000000E+03 0.  0.
         13    1    1    2    0    0 -0.65646951260E+01 -0.19774889651E+02  0.36060412102E+02  0.41647400493E+02  0.10566000000E+00 0. -1.
        994    1    1    2    0    0  0.11989909165E+02  0.12727890944E+02  0.66682403287E+01  0.17221980885E+03  0.17120000000E+03 0.  0.
        998    1    1    2    0    0 -0.54252140387E+01  0.70469987066E+01  0.14572713438E+04  0.14573327907E+04  0.10000000000E+02 0. -1.
</event>
<event>
 5    1  0.7732857E-009  0.3707256E+03  0.7957747E-01  0.3492563E+00
         13   -1    0    0    0    0  0.00000000000E+00  0.00000000000E+00  0.14999999963E+04  0.15000000000E+04  0.10566000000E+00 0.  1.
        994   -1    0    0    0    0 -0.00000000000E+00 -0.00000000000E+00  0.11368683772E-12  0.17120000000E+03  0.17120000000E+03 0.  0.
         13    1    1    2    0    0  0.50864596130E+02 -0.16502247749E+02  0.12014094984E+03  0.13150433572E+03  0.10566000000E+00 0.  1.
        994    1    1    2    0    0 -0.39043013428E+02  0.43815302197E+01  0.16752479125E+02  0.17644727332E+03  0.17120000000E+03 0.  0.
        998    1    1    2    0    0 -0.11821582703E+02  0.12120717529E+02  0.13631065673E+04  0.13632483910E+04  0.10000000000E+02 0.  1.
</event>
<event>
 5    1  0.7732857E-009  0.3841319E+03  0.7957747E-01  0.3433362E+00
         13   -1    0    0    0    0  0.00000000000E+00  0.00000000000E+00  0.14999999963E+04  0.15000000000E+04  0.10566000000E+00 0. -1.
        994   -1    0    0    0    0 -0.00000000000E+00 -0.00000000000E+00  0.11368683772E-12  0.17120000000E+03  0.17120000000E+03 0.  0.
         13    1    1    2    0    0  0.40860824437E+01  0.15941338192E+02  0.78748494688E+02  0.80449729103E+02  0.10566000000E+00 0. -1.
        994    1    1    2    0    0 -0.24094005285E+02  0.23970580890E+02  0.58805202073E+01  0.17464000217E+03  0.17120000000E+03 0.  0.
        998    1    1    2    0    0  0.20007922842E+02 -0.39911919082E+02  0.14153709814E+04  0.14161102687E+04  0.10000000000E+02 0. -1.
</event>
<event>
 5    1  0.7732857E-009  0.3730088E+03  0.7957747E-01  0.3482176E+00
         13   -1    0    0    0    0  0.00000000000E+00  0.00000000000E+00  0.14999999963E+04  0.15000000000E+04  0.10566000000E+00 0. -1.
        994   -1    0    0    0    0 -0.00000000000E+00 -0.00000000000E+00  0.11368683772E-12  0.17120000000E+03  0.17120000000E+03 0.  0.
         13    1    1    2    0    0  0.17915562023E+02 -0.68403925325E+02  0.37349158283E+03  0.38012634475E+03  0.10566000000E+00 0. -1.
        994    1    1    2    0    0  0.63562166668E+01  0.25378348338E+02  0.10050720572E+02  0.17347887202E+03  0.17120000000E+03 0.  0.
        998    1    1    2    0    0 -0.24271778690E+02  0.43025576987E+02  0.11164576929E+04  0.11175947832E+04  0.10000000000E+02 0. -1.
</event>
<event>
 5    1  0.7732857E-009  0.3816008E+03  0.7957747E-01  0.3444218E+00
         13   -1    0    0    0    0  0.00000000000E+00  0.00000000000E+00  0.14999999963E+04  0.15000000000E+04  0.10566000000E+00 0. -1.
        994   -1    0    0    0    0 -0.00000000000E+00 -0.00000000000E+00  0.11368683772E-12  0.17120000000E+03  0.17120000000E+03 0.  0.
         13    1    1    2    0    0 -0.15951918031E+02  0.11151073287E+02  0.55356710168E+02  0.58678672863E+02  0.10566000000E+00 0. -1.
        994    1    1    2    0    0  0.12949030916E+02 -0.66113913507E+01  0.40304772965E+01  0.17186352913E+03  0.17120000000E+03 0.  0.
        998    1    1    2    0    0  0.30028871148E+01 -0.45396819365E+01  0.14406128088E+04  0.14406577980E+04  0.10000000000E+02 0. -1.
</event>
<event>
 5    1  0.7732857E-009  0.3712365E+03  0.7957747E-01  0.3490227E+00
         13   -1    0    0    0    0  0.00000000000E+00  0.00000000000E+00  0.14999999963E+04  0.15000000000E+04  0.10566000000E+00 0. -1.
        994   -1    0    0    0    0 -0.00000000000E+00 -0.00000000000E+00  0.11368683772E-12  0.17120000000E+03  0.17120000000E+03 0.  0.
         13    1    1    2    0    0 -0.13228351321E+02  0.37956592207E+02  0.66125326807E+02  0.77383862529E+02  0.10566000000E+00 0. -1.
        994    1    1    2    0    0 -0.16557795489E+02 -0.12992748008E+03  0.70225169078E+02  0.22670757606E+03  0.17120000000E+03 0.  0.
        998    1    1    2    0    0  0.29786146810E+02  0.91970887872E+02  0.13636495004E+04  0.13671085614E+04  0.10000000000E+02 0. -1.
</event>
<event>
 5    1  0.7732857E-009  0.3842396E+03  0.7957747E-01  0.3432903E+00
         13   -1    0    0    0    0  0.00000000000E+00  0.00000000000E+00  0.14999999963E+04  0.15000000000E+04  0.10566000000E+00 0. -1.
        994   -1    0    0    0    0 -0.00000000000E+00 -0.00000000000E+00  0.11368683772E-12  0.17120000000E+03  0.17120000000E+03 0.  0.
         13    1    1    2    0    0  0.12349877033E+02 -0.89963484388E+01  0.58187533912E+02  0.60160236159E+02  0.10566000000E+00 0. -1.
        994    1    1    2    0    0 -0.62964413563E+01  0.62255902889E+01  0.22666373354E+01  0.17144381235E+03  0.17120000000E+03 0.  0.
        998    1    1    2    0    0 -0.60534356763E+01  0.27707581499E+01  0.14395458250E+04  0.14395959515E+04  0.10000000000E+02 0. -1.
</event>
<event>
 5    1  0.7732857E-009  0.3803550E+03  0.7957747E-01  0.3449614E+00
         13   -1    0    0    0    0  0.00000000000E+00  0.00000000000E+00  0.14999999963E+04  0.15000000000E+04  0.10566000000E+00 0. -1.
        994   -1    0    0    0    0 -0.00000000000E+00 -0.00000000000E+00  0.11368683772E-12  0.17120000000E+03  0.17120000000E+03 0.  0.
         13    1    1    2    0    0  0.34711596164E+02  0.24683298319E+02  0.19260243376E+03  0.19725584599E+03  0.10566000000E+00 0. -1.
        994    1    1    2    0    0 -0.37342769875E+02 -0.30506538334E+02  0.11757016493E+02  0.17824926025E+03  0.17120000000E+03 0.  0.
        998    1    1    2    0    0  0.26311737112E+01  0.58232400148E+01  0.12956405460E+04  0.12956948938E+04  0.10000000000E+02 0.  1.
</event>
<event>
 5    1  0.7732857E-009  0.3838267E+03  0.7957747E-01  0.3434664E+00
         13   -1    0    0    0    0  0.00000000000E+00  0.00000000000E+00  0.14999999963E+04  0.15000000000E+04  0.10566000000E+00 0.  1.
        994   -1    0    0    0    0 -0.00000000000E+00 -0.00000000000E+00  0.11368683772E-12  0.17120000000E+03  0.17120000000E+03 0.  0.
         13    1    1    2    0    0  0.17027370777E+02  0.12127872382E+02  0.10166125505E+03  0.10378843186E+03  0.10566000000E+00 0.  1.
        994    1    1    2    0    0 -0.11058667563E+02  0.14204159176E+01  0.26242569709E+01  0.17158274515E+03  0.17120000000E+03 0.  0.
        998    1    1    2    0    0 -0.59687032146E+01 -0.13548288300E+02  0.13957144843E+04  0.13958288230E+04  0.10000000000E+02 0.  1.
</event>
<event>
 5    1  0.7732857E-009  0.3782726E+03  0.7957747E-01  0.3458715E+00
         13   -1    0    0    0    0  0.00000000000E+00  0.00000000000E+00  0.14999999963E+04  0.15000000000E+04  0.10566000000E+00 0.  1.
        994   -1    0    0    0    0 -0.00000000000E+00 -0.00000000000E+00  0.11368683772E-12  0.17120000000E+03  0.17120000000E+03 0.  0.
         13    1    1    2    0    0  0.49485123540E+01 -0.11215703023E+02  0.12649258312E+02  0.17615182903E+02  0.10566000000E+00 0.  1.
        994    1    1    2    0    0 -0.12239801130E+02  0.96815117373E+01  0.58269448837E+01  0.17200853958E+03  0.17120000000E+03 0.  0.
        998    1    1    2    0    0  0.72912887760E+01  0.15341912859E+01  0.14815237931E+04  0.14815762775E+04  0.10000000000E+02 0.  1.
</event>
<event>
 5    1  0.7732857E-009  0.3851359E+03  0.7957747E-01  0.3429096E+00
         13   -1    0    0    0    0  0.00000000000E+00  0.00000000000E+00  0.14999999963E+04  0.15000000000E+04  0.10566000000E+00 0. -1.
        994   -1    0    0    0    0 -0.00000000000E+00 -0.00000000000E+00  0.11368683772E-12  0.17120000000E+03  0.17120000000E+03 0.  0.
         13    1    1    2    0    0 -0.10685951136E+02  0.43346133575E+01  0.43924308807E+02  0.45412933101E+02  0.10566000000E+00 0. -1.
        994    1    1    2    0    0 -0.11356325350E+01 -0.73486318822E+01  0.17444541190E+01  0.17137028672E+03  0.17120000000E+03 0.  0.
        998    1    1    2    0    0  0.11821583671E+02  0.30140185247E+01  0.14543312334E+04  0.14544167802E+04  0.10000000000E+02 0. -1.
</event>
<event>
 5    1  0.7732857E-009  0.3784783E+03  0.7957747E-01  0.3457811E+00
         13   -1    0    0    0    0  0.00000000000E+00  0.00000000000E+00  0.14999999963E+04  0.15000000000E+04  0.10566000000E+00 0. -1.
        994   -1    0    0    0    0 -0.00000000000E+00 -0.00000000000E+00  0.11368683772E-12  0.17120000000E+03  0.17120000000E+03 0.  0.
         13    1    1    2    0    0 -0.29538915165E+01  0.36972111663E+02  0.17455953499E+03  0.17845645110E+03  0.10566000000E+00 0. -1.
        994    1    1    2    0    0 -0.63056705424E+02  0.31968432724E+01  0.18415596744E+02  0.18339831545E+03  0.17120000000E+03 0.  0.
        998    1    1    2    0    0  0.66010596941E+02 -0.40168954935E+02  0.13070248645E+04  0.13093452335E+04  0.10000000000E+02 0. -1.
</event>
<event>
 5    1  0.7732857E-009  0.3821948E+03  0.7957747E-01  0.3441657E+00
         13   -1    0    0    0    0  0.00000000000E+00  0.00000000000E+00  0.14999999963E+04  0.15000000000E+04  0.10566000000E+00 0.  1.
        994   -1    0    0    0    0 -0.00000000000E+00 -0.00000000000E+00  0.11368683772E-12  0.17120000000E+03  0.17120000000E+03 0.  0.
         13    1    1    2    0    0  0.16521630621E+02 -0.20370694279E+02  0.11737008279E+03  0.12026502801E+03  0.10566000000E+00 0.  1.
        994    1    1    2    0    0 -0.36707609573E+01  0.92293176205E+01  0.33567861001E+01  0.17152073578E+03  0.17120000000E+03 0.  0.
        998    1    1    2    0    0 -0.12850869664E+02  0.11141376658E+02  0.13792731274E+04  0.13794142362E+04  0.10000000000E+02 0.  1.
</event>
<event>
 5    1  0.7732857E-009  0.3810408E+03  0.7957747E-01  0.3446639E+00
         13   -1    0    0    0    0  0.00000000000E+00  0.00000000000E+00  0.14999999963E+04  0.15000000000E+04  0.10566000000E+00 0. -1.
        994   -1    0    0    0    0 -0.00000000000E+00 -0.00000000000E+00  0.11368683772E-12  0.17120000000E+03  0.17120000000E+03 0.  0.
         13    1    1    2    0    0 -0.12468591620E+02  0.31600273226E+02  0.15979962681E+03  0.16337066731E+03  0.10566000000E+00 0. -1.
        994    1    1    2    0    0  0.74419731511E+01 -0.17419458630E+02  0.48050053594E+01  0.17231177725E+03  0.17120000000E+03 0.  0.
        998    1    1    2    0    0  0.50266184685E+01 -0.14180814596E+02  0.13353953641E+04  0.13355175554E+04  0.10000000000E+02 0. -1.
</event>
<event>
 5    1  0.7732857E-009  0.3810571E+03  0.7957747E-01  0.3446569E+00
         13   -1    0    0    0    0  0.00000000000E+00  0.00000000000E+00  0.14999999963E+04  0.15000000000E+04  0.10566000000E+00 0. -1.
        994   -1    0    0    0    0 -0.00000000000E+00 -0.00000000000E+00  0.11368683772E-12  0.17120000000E+03  0.17120000000E+03 0.  0.
         13    1    1    2    0    0  0.66554948701E+01 -0.38646579269E+02  0.22014775173E+03  0.22361327656E+03  0.10566000000E+00 0. -1.
        994    1    1    2    0    0 -0.95264858489E+01  0.16978040397E+02  0.48640808334E+01  0.17237200199E+03  0.17120000000E+03 0.  0.
        998    1    1    2    0    0  0.28709909788E+01  0.21668538872E+02  0.12749881637E+04  0.12752147214E+04  0.10000000000E+02 0. -1.
</event>
<event>
 5    1  0.7732857E-009  0.3829783E+03  0.7957747E-01  0.3438292E+00
         13   -1    0    0    0    0  0.00000000000E+00  0.00000000000E+00  0.14999999963E+04  0.15000000000E+04  0.10566000000E+00 0.  1.
        994   -1    0    0    0    0 -0.00000000000E+00 -0.00000000000E+00  0.11368683772E-12  0.17120000000E+03  0.17120000000E+03 0.  0.
         13    1    1    2    0    0 -0.74790731417E+01 -0.19092917492E+02  0.95203023400E+02  0.97386358706E+02  0.10566000000E+00 0.  1.
        994    1    1    2    0    0 -0.14737405844E+02 -0.11957013198E+02  0.38303935805E+01  0.17229124531E+03  0.17120000000E+03 0.  0.
        998    1    1    2    0    0  0.22216478986E+02  0.31049930689E+02  0.14009665793E+04  0.14015223960E+04  0.10000000000E+02 0.  1.
</event>
<event>
 5    1  0.7732857E-009  0.4088978E+03  0.7957747E-01  0.3334239E+00
         13   -1    0    0    0    0  0.00000000000E+00  0.00000000000E+00  0.14999999963E+04  0.15000000000E+04  0.10566000000E+00 0. -1.
        994   -1    0    0    0    0 -0.00000000000E+00 -0.00000000000E+00  0.11368683772E-12  0.17120000000E+03  0.17120000000E+03 0.  0.
         13    1    1    2    0    0  0.65543674789E+02  0.10934834749E+02  0.52491816609E+02  0.84681437699E+02  0.10566000000E+00 0. -1.
        994    1    1    2    0    0 -0.72067295483E+02 -0.80679164683E+01  0.54907164816E+02  0.19386341352E+03  0.17120000000E+03 0.  0.
        998    1    1    2    0    0  0.65236206932E+01 -0.28669182810E+01  0.13926010149E+04  0.13926551488E+04  0.10000000000E+02 0. -1.
</event>
<event>
 5    1  0.7732857E-009  0.3831908E+03  0.7957747E-01  0.3437382E+00
         13   -1    0    0    0    0  0.00000000000E+00  0.00000000000E+00  0.14999999963E+04  0.15000000000E+04  0.10566000000E+00 0. -1.
        994   -1    0    0    0    0 -0.00000000000E+00 -0.00000000000E+00  0.11368683772E-12  0.17120000000E+03  0.17120000000E+03 0.  0.
         13    1    1    2    0    0  0.41374286051E+02  0.21580355729E+02  0.51304143662E+02  0.69351781668E+02  0.10566000000E+00 0. -1.
        994    1    1    2    0    0 -0.44991779984E+02 -0.22079860579E+02  0.27358262659E+02  0.18047075953E+03  0.17120000000E+03 0.  0.
        998    1    1    2    0    0  0.36174939331E+01  0.49950484975E+00  0.14213375900E+04  0.14213774588E+04  0.10000000000E+02 0. -1.
</event>
<event>
 5    1  0.7732857E-009  0.3798544E+03  0.7957747E-01  0.3451793E+00
         13   -1    0    0    0    0  0.00000000000E+00  0.00000000000E+00  0.14999999963E+04  0.15000000000E+04  0.10566000000E+00 0. -1.
        994   -1    0    0    0    0 -0.00000000000E+00 -0.00000000000E+00  0.11368683772E-12  0.17120000000E+03  0.17120000000E+03 0.  0.
         13    1    1    2    0    0  0.69501146632E+01 -0.17068166475E+02  0.37356908589E+02  0.41655446031E+02  0.10566000000E+00 0. -1.
        994    1    1    2    0    0 -0.11784957983E+02  0.20339774561E+02  0.60570190508E+01  0.17291246093E+03  0.17120000000E+03 0.  0.
        998    1    1    2    0    0  0.48348433196E+01 -0.32716080862E+01  0.14565860686E+04  0.14566320930E+04  0.10000000000E+02 0. -1.
</event>
<event>
 5    1  0.7732857E-009  0.3860281E+03  0.7957747E-01  0.3425324E+00
         13   -1    0    0    0    0  0.00000000000E+00  0.00000000000E+00  0.14999999963E+04  0.15000000000E+04  0.10566000000E+00 0. -1.
        994   -1    0    0    0    0 -0.00000000000E+00 -0.00000000000E+00  0.11368683772E-12  0.17120000000E+03  0.17120000000E+03 0.  0.
         13    1    1    2    0    0  0.75789484436E+01  0.85140809381E+01  0.58010172086E+02  0.59119550600E+02  0.10566000000E+00 0. -1.
        994    1    1    2    0    0 -0.36997054597E+01 -0.91219442155E+01  0.14382277724E+01  0.17148879318E+03  0.17120000000E+03 0.  0.
        998    1    1    2    0    0 -0.38792429839E+01  0.60786327741E+00  0.14405515964E+04  0.14405916562E+04  0.10000000000E+02 0. -1.
</event>
<event>
 5    1  0.7732857E-009  0.3855659E+03  0.7957747E-01  0.3427276E+00
         13   -1    0    0    0    0  0.00000000000E+00  0.00000000000E+00  0.14999999963E+04  0.15000000000E+04  0.10566000000E+00 0.  1.
        994   -1    0    0    0    0 -0.00000000000E+00 -0.00000000000E+00  0.11368683772E-12  0.17120000000E+03  0.17120000000E+03 0.  0.
         13    1    1    2    0    0  0.96345811356E+01  0.56773217074E+01  0.46492973586E+02  0.47819085022E+02  0.10566000000E+00 0.  1.
        994    1    1    2    0    0 -0.37766222612E+01 -0.89962646385E+01  0.16620107752E+01  0.17148585345E+03  0.17120000000E+03 0.  0.
        998    1    1    2    0    0 -0.58579588744E+01  0.33189429311E+01  0.14518450119E+04  0.14518950615E+04  0.10000000000E+02 0.  1.
</event>
<event>
 5    1  0.7732857E-009  0.3844419E+03  0.7957747E-01  0.3432042E+00
         13   -1    0    0    0    0  0.00000000000E+00  0.00000000000E+00  0.14999999963E+04  0.15000000000E+04  0.10566000000E+00 0.  1.
        994   -1    0    0    0    0 -0.00000000000E+00 -0.00000000000E+00  0.11368683772E-12  0.17120000000E+03  0.17120000000E+03 0.  0.
         13    1    1    2    0    0 -0.59105246822E+01  0.22380702523E+02  0.12791600034E+03  0.12999363236E+03  0.10566000000E+00 0.  1.
        994    1    1    2    0    0  0.40309993030E+01 -0.25295302331E+02  0.40720390251E+01  0.17315346597E+03  0.17120000000E+03 0.  0.
        998    1    1    2    0    0  0.18795253792E+01  0.29145998073E+01  0.13680119569E+04  0.13680529017E+04  0.10000000000E+02 0.  1.
</event>
<event>
 5    1  0.7732857E-009  0.3741601E+03  0.7957747E-01  0.3476988E+00
         13   -1    0    0    0    0  0.00000000000E+00  0.00000000000E+00  0.14999999963E+04  0.15000000000E+04  0.10566000000E+00 0.  1.
        994   -1    0    0    0    0 -0.00000000000E+00 -0.00000000000E+00  0.11368683772E-12  0.17120000000E+03  0.17120000000E+03 0.  0.
         13    1    1    2    0    0 -0.64900950961E+02 -0.14758716151E+02  0.31062820304E+03  0.31767883912E+03  0.10566000000E+00 0.  1.
        994    1    1    2    0    0  0.30946957557E+02  0.39129682946E+02  0.15642624618E+02  0.17900552498E+03  0.17120000000E+03 0.  0.
        998    1    1    2    0    0  0.33953993404E+02 -0.24370966795E+02  0.11737291686E+04  0.11745156359E+04  0.10000000000E+02 0.  1.
</event>
<event>
 5    1  0.7732857E-009  0.3849570E+03  0.7957747E-01  0.3429855E+00
         13   -1    0    0    0    0  0.00000000000E+00  0.00000000000E+00  0.14999999963E+04  0.15000000000E+04  0.10566000000E+00 0.  1.
        994   -1    0    0    0    0 -0.00000000000E+00 -0.00000000000E+00  0.11368683772E-12  0.17120000000E+03  0.17120000000E+03 0.  0.
         13    1    1    2    0    0  0.14333907292E+02  0.88671360236E+01  0.88727000781E+02  0.90313779852E+02  0.10566000000E+00 0.  1.
        994    1    1    2    0    0 -0.93890350638E+01  0.22754539454E+01  0.19585234459E+01  0.17148354873E+03  0.17120000000E+03 0.  0.
        998    1    1    2    0    0 -0.49448722287E+01 -0.11142589969E+02  0.14093144721E+04  0.14094026714E+04  0.10000000000E+02 0.  1.
</event>
<event>
 5    1  0.7732857E-009  0.4165520E+03  0.7957747E-01  0.3305970E+00
         13   -1    0    0    0    0  0.00000000000E+00  0.00000000000E+00  0.14999999963E+04  0.15000000000E+04  0.10566000000E+00 0. -1.
        994   -1    0    0    0    0 -0.00000000000E+00 -0.00000000000E+00  0.11368683772E-12  0.17120000000E+03  0.17120000000E+03 0.  0.
         13    1    1    2    0    0 -0.47261308498E+02 -0.12601671830E+03  0.35328241580E+03  0.37805068582E+03  0.10566000000E+00 0. -1.
        994    1    1    2    0    0 -0.15250915438E+02 -0.25204626861E+01  0.39079889211E+02  0.17628278672E+03  0.17120000000E+03 0.  0.
        998    1    1    2    0    0  0.62512223936E+02  0.12853718099E+03  0.11076376913E+04  0.11168665275E+04  0.10000000000E+02 0. -1.
</event>
<event>
 5    1  0.7732857E-009  0.3800701E+03  0.7957747E-01  0.3450853E+00
         13   -1    0    0    0    0  0.00000000000E+00  0.00000000000E+00  0.14999999963E+04  0.15000000000E+04  0.10566000000E+00 0.  1.
        994   -1    0    0    0    0 -0.00000000000E+00 -0.00000000000E+00  0.11368683772E-12  0.17120000000E+03  0.17120000000E+03 0.  0.
         13    1    1    2    0    0  0.11286536405E+02 -0.52429035546E+01  0.17193221766E+02  0.21224796358E+02  0.10566000000E+00 0.  1.
        994    1    1    2    0    0 -0.50067082696E+01  0.85765553477E+01  0.44274273588E+01  0.17154494030E+03  0.17120000000E+03 0.  0.
        998    1    1    2    0    0 -0.62798281357E+01 -0.33336517931E+01  0.14783793472E+04  0.14784302633E+04  0.10000000000E+02 0.  1.
</event>
<event>
 5    1  0.7732857E-009  0.3786370E+03  0.7957747E-01  0.3457115E+00
         13   -1    0    0    0    0  0.00000000000E+00  0.00000000000E+00  0.14999999963E+04  0.15000000000E+04  0.10566000000E+00 0. -1.
        994   -1    0    0    0    0 -0.00000000000E+00 -0.00000000000E+00  0.11368683772E-12  0.17120000000E+03  0.17120000000E+03 0.  0.
         13    1    1    2    0    0 -0.80660330640E+02 -0.13158405843E+01  0.42373745651E+03  0.43134819298E+03  0.10566000000E+00 0. -1.
        994    1    1    2    0    0  0.93160738021E+02 -0.18412799571E+02  0.35728122619E+02  0.19900726882E+03  0.17120000000E+03 0.  0.
        998    1    1    2    0    0 -0.12500407381E+02  0.19728640155E+02  0.10405344171E+04  0.10408445382E+04  0.10000000000E+02 0. -1.
</event>
<event>
 5    1  0.7732857E-009  0.3793131E+03  0.7957747E-01  0.3454155E+00
         13   -1    0    0    0    0  0.00000000000E+00  0.00000000000E+00  0.14999999963E+04  0.15000000000E+04  0.10566000000E+00 0. -1.
        994   -1    0    0    0    0 -0.00000000000E+00 -0.00000000000E+00  0.11368683772E-12  0.17120000000E+03  0.17120000000E+03 0.  0.
         13    1    1    2    0    0  0.24159780639E+02 -0.25082894655E+02  0.15251932970E+03  0.15644489030E+03  0.10566000000E+00 0. -1.
        994    1    1    2    0    0 -0.48892727786E+01 -0.50285813734E+01  0.46451323334E+01  0.17140656018E+03  0.17120000000E+03 0.  0.
        998    1    1    2    0    0 -0.19270507860E+02  0.30111476028E+02  0.13428355342E+04  0.13433485495E+04  0.10000000000E+02 0. -1.
</event>
<event>
 5    1  0.7732857E-009  0.4580065E+03  0.7957747E-01  0.3168941E+00
         13   -1    0    0    0    0  0.00000000000E+00  0.00000000000E+00  0.14999999963E+04  0.15000000000E+04  0.10566000000E+00 0. -1.
        994   -1    0    0    0    0 -0.00000000000E+00 -0.00000000000E+00  0.11368683772E-12  0.17120000000E+03  0.17120000000E+03 0.  0.
         13    1    1    2    0    0 -0.63925153526E+02 -0.20878013258E+02  0.97734095932E+01  0.67954745162E+02  0.10566000000E+00 0. -1.
        994    1    1    2    0    0  0.70942973520E+02  0.19871887515E+02  0.97270209926E+02  0.21023494273E+03  0.17120000000E+03 0.  0.
        998    1    1    2    0    0 -0.70178199938E+01  0.10061257437E+01  0.13929563768E+04  0.13930103121E+04  0.10000000000E+02 0. -1.
</event>
<event>
 5    1  0.7732857E-009  0.4158657E+03  0.7957747E-01  0.3308464E+00
         13   -1    0    0    0    0  0.00000000000E+00  0.00000000000E+00  0.14999999963E+04  0.15000000000E+04  0.10566000000E+00 0. -1.
        994   -1    0    0    0    0 -0.00000000000E+00 -0.00000000000E+00  0.11368683772E-12  0.17120000000E+03  0.17120000000E+03 0.  0.
         13    1    1    2    0    0 -0.76220063017E+02  0.16443066684E+02  0.69346725258E+02  0.10434966179E+03  0.10566000000E+00 0. -1.
        994    1    1    2    0    0  0.58406157095E+02 -0.17300039941E+02  0.53334016546E+02  0.18937932276E+03  0.17120000000E+03 0.  0.
        998    1    1    2    0    0  0.17813905922E+02  0.85697325742E+00  0.13773192545E+04  0.13774710154E+04  0.10000000000E+02 0. -1.
</event>
<event>
 5    1  0.7732857E-009  0.3843581E+03  0.7957747E-01  0.3432399E+00
         13   -1    0    0    0    0  0.00000000000E+00  0.00000000000E+00  0.14999999963E+04  0.15000000000E+04  0.10566000000E+00 0.  1.
        994   -1    0    0    0    0 -0.00000000000E+00 -0.00000000000E+00  0.11368683772E-12  0.17120000000E+03  0.17120000000E+03 0.  0.
         13    1    1    2    0    0  0.15826753376E+02  0.78577716971E+01  0.62512926585E+02  0.64962357198E+02  0.10566000000E+00 0.  1.
        994    1    1    2    0    0 -0.45320054092E+02 -0.34064445471E+02  0.12614663611E+02  0.18078402442E+03  0.17120000000E+03 0.  0.
        998    1    1    2    0    0  0.29493300716E+02  0.26206673774E+02  0.14248724061E+04  0.14254536184E+04  0.10000000000E+02 0.  1.
</event>
<event>
 5    1  0.7732857E-009  0.3833378E+03  0.7957747E-01  0.3436753E+00
         13   -1    0    0    0    0  0.00000000000E+00  0.00000000000E+00  0.14999999963E+04  0.15000000000E+04  0.10566000000E+00 0.  1.
        994   -1    0    0    0    0 -0.00000000000E+00 -0.00000000000E+00  0.11368683772E-12  0.17120000000E+03  0.17120000000E+03 0.  0.
         13    1    1    2    0    0  0.10532969132E+02 -0.15601228097E+02  0.72216481818E+02  0.74629573007E+02  0.10566000000E+00 0.  1.
        994    1    1    2    0    0 -0.47408144093E+01  0.90155568579E+01  0.28007890279E+01  0.17152562492E+03  0.17120000000E+03 0.  0.
        998    1    1    2    0    0 -0.57921547226E+01  0.65856712392E+01  0.14249827254E+04  0.14250448021E+04  0.10000000000E+02 0.  1.
</event>
<event>
 5    1  0.7732857E-009  0.3847121E+03  0.7957747E-01  0.3430894E+00
         13   -1    0    0    0    0  0.00000000000E+00  0.00000000000E+00  0.14999999963E+04  0.15000000000E+04  0.10566000000E+00 0. -1.
        994   -1    0    0    0    0 -0.00000000000E+00 -0.00000000000E+00  0.11368683772E-12  0.17120000000E+03  0.17120000000E+03 0.  0.
         13    1    1    2    0    0  0.55671743129E+01 -0.20838601754E+02  0.13030108865E+03  0.13207431855E+03  0.10566000000E+00 0. -1.
        994    1    1    2    0    0 -0.49215403557E+01  0.13226244938E+02  0.24289695261E+01  0.17179783179E+03  0.17120000000E+03 0.  0.
        998    1    1    2    0    0 -0.64563395720E+00  0.76123568155E+01  0.13672699381E+04  0.13673278497E+04  0.10000000000E+02 0. -1.
</event>
<event>
 5    1  0.7732857E-009  0.3819744E+03  0.7957747E-01  0.3442606E+00
         13   -1    0    0    0    0  0.00000000000E+00  0.00000000000E+00  0.14999999963E+04  0.15000000000E+04  0.10566000000E+00 0. -1.
        994   -1    0    0    0    0 -0.00000000000E+00 -0.00000000000E+00  0.11368683772E-12  0.17120000000E+03  0.17120000000E+03 0.  0.
         13    1    1    2    0    0  0.82078505179E+00  0.42771114170E+02  0.25853967855E+03  0.26205499126E+03  0.10566000000E+00 0. -1.
        994    1    1    2    0    0  0.40411936232E+01 -0.36838812576E+02  0.77147464680E+01  0.17533506971E+03  0.17120000000E+03 0.  0.
        998    1    1    2    0    0 -0.48619786750E+01 -0.59323015937E+01  0.12337455713E+04  0.12338099390E+04  0.10000000000E+02 0. -1.
</event>
<event>
 5    1  0.7732857E-009  0.3850580E+03  0.7957747E-01  0.3429426E+00
         13   -1    0    0    0    0  0.00000000000E+00  0.00000000000E+00  0.14999999963E+04  0.15000000000E+04  0.10566000000E+00 0. -1.
        994   -1    0    0    0    0 -0.00000000000E+00 -0.00000000000E+00  0.11368683772E-12  0.17120000000E+03  0.17120000000E+03 0.  0.
         13    1    1    2    0    0 -0.11078523047E+02 -0.14601668016E+00  0.43376601127E+02  0.44769360986E+02  0.10566000000E+00 0. -1.
        994    1    1    2    0    0 -0.16083246590E+02 -0.19172576764E+01  0.24643983297E+01  0.17198215011E+03  0.17120000000E+03 0.  0.
        998    1    1    2    0    0  0.27161769637E+02  0.20632743565E+01  0.14541589968E+04  0.14544484889E+04  0.10000000000E+02 0. -1.
</event>
<event>
 5    1  0.7732857E-009  0.3807321E+03  0.7957747E-01  0.3447977E+00
         13   -1    0    0    0    0  0.00000000000E+00  0.00000000000E+00  0.14999999963E+04  0.15000000000E+04  0.10566000000E+00 0.  1.
        994   -1    0    0    0    0 -0.00000000000E+00 -0.00000000000E+00  0.11368683772E-12  0.17120000000E+03  0.17120000000E+03 0.  0.
         13    1    1    2    0    0 -0.12278228258E+02 -0.24198186249E+02  0.12336639313E+03  0.12631541959E+03  0.10566000000E+00 0.  1.
        994    1    1    2    0    0 -0.31277604509E+02 -0.92848233557E+01  0.73221033549E+01  0.17443494399E+03  0.17120000000E+03 0.  0.
        998    1    1    2    0    0  0.43555832767E+02  0.33483009605E+02  0.13693114998E+04  0.13704496364E+04  0.10000000000E+02 0.  1.
</event>
<event>
 5    1  0.7732857E-009  0.3794284E+03  0.7957747E-01  0.3453651E+00
         13   -1    0    0    0    0  0.00000000000E+00  0.00000000000E+00  0.14999999963E+04  0.15000000000E+04  0.10566000000E+00 0. -1.
        994   -1    0    0    0    0 -0.00000000000E+00 -0.00000000000E+00  0.11368683772E-12  0.17120000000E+03  0.17120000000E+03 0.  0.
         13    1    1    2    0    0  0.99798848543E+01  0.70924191436E+01 -0.26094666701E+01  0.12518825478E+02  0.10566000000E+00 0. -1.
        994    1    1    2    0    0  0.82730900931E+01  0.20874168422E+00  0.16261508079E+02  0.17216957989E+03  0.17120000000E+03 0.  0.
        998    1    1    2    0    0 -0.18252974947E+02 -0.73011608278E+01  0.14863479549E+04  0.14865115946E+04  0.10000000000E+02 0. -1.
</event>
<event>
 5    1  0.7732857E-009  0.3808150E+03  0.7957747E-01  0.3447617E+00
         13   -1    0    0    0    0  0.00000000000E+00  0.00000000000E+00  0.14999999963E+04  0.15000000000E+04  0.10566000000E+00 0. -1.
        994   -1    0    0    0    0 -0.00000000000E+00 -0.00000000000E+00  0.11368683772E-12  0.17120000000E+03  0.17120000000E+03 0.  0.
         13    1    1    2    0    0  0.15388850637E+02 -0.31834968571E+02  0.14202483473E+03  0.14636033203E+03  0.10566000000E+00 0. -1.
        994    1    1    2    0    0 -0.22840514927E+02  0.40378882825E+02  0.10930948387E+02  0.17771063258E+03  0.17120000000E+03 0.  0.
        998    1    1    2    0    0  0.74516642902E+01 -0.85439142539E+01  0.13470442132E+04  0.13471290354E+04  0.10000000000E+02 0. -1.
</event>
<event>
 5    1  0.7732857E-009  0.3755364E+03  0.7957747E-01  0.3470827E+00
         13   -1    0    0    0    0  0.00000000000E+00  0.00000000000E+00  0.14999999963E+04  0.15000000000E+04  0.10566000000E+00 0. -1.
        994   -1    0    0    0    0 -0.00000000000E+00 -0.00000000000E+00  0.11368683772E-12  0.17120000000E+03  0.17120000000E+03 0.  0.
         13    1    1    2    0    0  0.12161480047E+02 -0.68555687696E+01  0.12229478563E+02  0.18559949624E+02  0.10566000000E+00 0. -1.
        994    1    1    2    0    0 -0.12299815842E+02  0.92437098365E+01  0.72071984339E+01  0.17204102810E+03  0.17120000000E+03 0.  0.
        998    1    1    2    0    0  0.13833579528E+00 -0.23881410669E+01  0.14805633193E+04  0.14805990223E+04  0.10000000000E+02 0. -1.
</event>
<event>
 5    1  0.7732857E-009  0.3817508E+03  0.7957747E-01  0.3443570E+00
         13   -1    0    0    0    0  0.00000000000E+00  0.00000000000E+00  0.14999999963E+04  0.15000000000E+04  0.10566000000E+00 0. -1.
        994   -1    0    0    0    0 -0.00000000000E+00 -0.00000000000E+00  0.11368683772E-12  0.17120000000E+03  0.17120000000E+03 0.  0.
         13    1    1    2    0    0 -0.28619311827E+01 -0.11635740280E+02  0.20564955959E+02  0.23801463812E+02  0.10566000000E+00 0. -1.
        994    1    1    2    0    0  0.59302072126E+01  0.10931623704E+02  0.37661783200E+01  0.17169243389E+03  0.17120000000E+03 0.  0.
        998    1    1    2    0    0 -0.30682760299E+01  0.70411657537E+00  0.14756688620E+04  0.14757061023E+04  0.10000000000E+02 0. -1.
</event>
<event>
 5    1  0.7732857E-009  0.3840464E+03  0.7957747E-01  0.3433727E+00
         13   -1    0    0    0    0  0.00000000000E+00  0.00000000000E+00  0.14999999963E+04  0.15000000000E+04  0.10566000000E+00 0. -1.
        994   -1    0    0    0    0 -0.00000000000E+00 -0.00000000000E+00  0.11368683772E-12  0.17120000000E+03  0.17120000000E+03 0.  0.
         13    1    1    2    0    0 -0.13634023150E+02 -0.10900162383E+02  0.87146949399E+02  0.88878017984E+02  0.10566000000E+00 0. -1.
        994    1    1    2    0    0 -0.24004623357E+02  0.32564189411E+01  0.40425896921E+01  0.17295261992E+03  0.17120000000E+03 0.  0.
        998    1    1    2    0    0  0.37638646507E+02  0.76437434421E+01  0.14088104572E+04  0.14093693621E+04  0.10000000000E+02 0. -1.
</event>
<event>
 5    1  0.7732857E-009  0.3752444E+03  0.7957747E-01  0.3472130E+00
         13   -1    0    0    0    0  0.00000000000E+00  0.00000000000E+00  0.14999999963E+04  0.15000000000E+04  0.10566000000E+00 0.  1.
        994   -1    0    0    0    0 -0.00000000000E+00 -0.00000000000E+00  0.11368683772E-12  0.17120000000E+03  0.17120000000E+03 0.  0.
         13    1    1    2    0    0  0.64128235737E+01 -0.57702334932E+02  0.17562778049E+03  0.18497516646E+03  0.10566000000E+00 0.  1.
        994    1    1    2    0    0 -0.31297849321E+01 -0.55790975158E+02  0.24944610368E+02  0.18180787125E+03  0.17120000000E+03 0.  0.
        998    1    1    2    0    0 -0.32830386415E+01  0.11349331009E+03  0.12994276054E+04  0.13044169623E+04  0.10000000000E+02 0.  1.
</event>
<event>
 5    1  0.7732857E-009  0.2729587E+03  0.7957747E-01  0.4110233E+00
         13   -1    0    0    0    0  0.00000000000E+00  0.00000000000E+00  0.14999999963E+04  0.15000000000E+04  0.10566000000E+00 0. -1.
        994   -1    0    0    0    0 -0.00000000000E+00 -0.00000000000E+00  0.11368683772E-12  0.17120000000E+03  0.17120000000E+03 0.  0.
         13    1    1    2    0    0 -0.14688097221E+03  0.15360285461E+03  0.31172966756E+03  0.37728404915E+03  0.10566000000E+00 0. -1.
        994    1    1    2    0    0  0.14153901477E+03 -0.15291291326E+03  0.29164128930E+03  0.39721497123E+03  0.17120000000E+03 0.  0.
        998    1    1    2    0    0  0.53419574362E+01 -0.68994134539E+00  0.89662903942E+03  0.89670097963E+03  0.10000000000E+02 0.  0.
</event>
<event>
 5    1  0.7732857E-009  0.3848470E+03  0.7957747E-01  0.3430322E+00
         13   -1    0    0    0    0  0.00000000000E+00  0.00000000000E+00  0.14999999963E+04  0.15000000000E+04  0.10566000000E+00 0.  1.
        994   -1    0    0    0    0 -0.00000000000E+00 -0.00000000000E+00  0.11368683772E-12  0.17120000000E+03  0.17120000000E+03 0.  0.
         13    1    1    2    0    0  0.12512755037E+02  0.30767976964E+01  0.48021444020E+02  0.49720277276E+02  0.10566000000E+00 0.  1.
        994    1    1    2    0    0 -0.10320601784E+02 -0.22242950620E+01  0.20729714445E+01  0.17153774955E+03  0.17120000000E+03 0.  0.
        998    1    1    2    0    0 -0.21921532522E+01 -0.85250263443E+00  0.14499055808E+04  0.14499419732E+04  0.10000000000E+02 0.  1.
</event>
<event>
 5    1  0.7732857E-009  0.3797634E+03  0.7957747E-01  0.3452189E+00
         13   -1    0    0    0    0  0.00000000000E+00  0.00000000000E+00  0.14999999963E+04  0.15000000000E+04  0.10566000000E+00 0.  1.
        994   -1    0    0    0    0 -0.00000000000E+00 -0.00000000000E+00  0.11368683772E-12  0.17120000000E+03  0.17120000000E+03 0.  0.
         13    1    1    2    0    0  0.61611572284E+02 -0.10236890836E+02  0.36136091197E+03  0.36671855644E+03  0.10566000000E+00 0.  1.
        994    1    1    2    0    0 -0.60578525037E+02 -0.19688703816E+01  0.16642431140E+02  0.18237336609E+03  0.17120000000E+03 0.  0.
        998    1    1    2    0    0 -0.10330472471E+01  0.12205761218E+02  0.11219966532E+04  0.11221080775E+04  0.10000000000E+02 0.  1.
</event>
<event>
 5    1  0.7732857E-009  0.3859287E+03  0.7957747E-01  0.3425743E+00
         13   -1    0    0    0    0  0.00000000000E+00  0.00000000000E+00  0.14999999963E+04  0.15000000000E+04  0.10566000000E+00 0.  1.
        994   -1    0    0    0    0 -0.00000000000E+00 -0.00000000000E+00  0.11368683772E-12  0.17120000000E+03  0.17120000000E+03 0.  0.
         13    1    1    2    0    0 -0.30380698887E+01  0.12604987300E+02  0.72607152713E+02  0.73755849684E+02  0.10566000000E+00 0.  1.
        994    1    1    2    0    0  0.39061921233E+00 -0.87377920206E+01  0.14206262664E+01  0.17142916838E+03  0.17120000000E+03 0.  0.
        998    1    1    2    0    0  0.26474506764E+01 -0.38671952789E+01  0.14259722173E+04  0.14260149819E+04  0.10000000000E+02 0. -1.
</event>
<event>
 5    1  0.7732857E-009  0.3761643E+03  0.7957747E-01  0.3468032E+00
         13   -1    0    0    0    0  0.00000000000E+00  0.00000000000E+00  0.14999999963E+04  0.15000000000E+04  0.10566000000E+00 0. -1.
        994   -1    0    0    0    0 -0.00000000000E+00 -0.00000000000E+00  0.11368683772E-12  0.17120000000E+03  0.17120000000E+03 0.  0.
         13    1    1    2    0    0 -0.14833681170E+02  0.25592600152E+02  0.66531142826E+02  0.72810874253E+02  0.10566000000E+00 0. -1.
        994    1    1    2    0    0  0.31625539894E+02 -0.17972734548E+02  0.10575360906E+02  0.17534101693E+03  0.17120000000E+03 0.  0.
        998    1    1    2    0    0 -0.16791858723E+02 -0.76198656044E+01  0.14228934925E+04  0.14230481088E+04  0.10000000000E+02 0. -1.
</event>
<event>
 5    1  0.7732857E-009  0.3698678E+03  0.7957747E-01  0.3496499E+00
         13   -1    0    0    0    0  0.00000000000E+00  0.00000000000E+00  0.14999999963E+04  0.15000000000E+04  0.10566000000E+00 0.  1.
        994   -1    0    0    0    0 -0.00000000000E+00 -0.00000000000E+00  0.11368683772E-12  0.17120000000E+03  0.17120000000E+03 0.  0.
         13    1    1    2    0    0  0.75847443312E+01 -0.16924354968E+02  0.15567626393E+02  0.24214134162E+02  0.10566000000E+00 0.  1.
        994    1    1    2    0    0 -0.46932461478E+01 -0.28125574225E+02  0.12155928535E+02  0.17398356556E+03  0.17120000000E+03 0.  0.
        998    1    1    2    0    0 -0.28914981833E+01  0.45049929193E+02  0.14722764414E+04  0.14730023003E+04  0.10000000000E+02 0.  1.
</event>
<event>
 5    1  0.7732857E-009  0.3721579E+03  0.7957747E-01  0.3486032E+00
         13   -1    0    0    0    0  0.00000000000E+00  0.00000000000E+00  0.14999999963E+04  0.15000000000E+04  0.10566000000E+00 0. -1.
        994   -1    0    0    0    0 -0.00000000000E+00 -0.00000000000E+00  0.11368683772E-12  0.17120000000E+03  0.17120000000E+03 0.  0.
         13    1    1    2    0    0  0.50632212571E+02  0.85225270999E+01  0.10040791793E+03  0.11277417952E+03  0.10566000000E+00 0. -1.
        994    1    1    2    0    0 -0.44398935645E+02 -0.11242618366E+02  0.19510467018E+02  0.17829122322E+03  0.17120000000E+03 0.  0.
        998    1    1    2    0    0 -0.62332769253E+01  0.27200912664E+01  0.13800816113E+04  0.13801345973E+04  0.10000000000E+02 0. -1.
</event>
<event>
 5    1  0.8579869E-009  0.3853385E+03  0.7957747E-01  0.3428238E+00
         13   -1    0    0    0    0  0.00000000000E+00  0.00000000000E+00  0.14999999963E+04  0.15000000000E+04  0.10566000000E+00 0. -1.
        994   -1    0    0    0    0 -0.00000000000E+00 -0.00000000000E+00  0.11368683772E-12  0.17120000000E+03  0.17120000000E+03 0.  0.
         13    1    1    2    0    0  0.11208397360E+02 -0.74612542723E+01  0.62127271116E+02  0.63569705576E+02  0.10566000000E+00 0. -1.
        994    1    1    2    0    0 -0.37486547826E+01  0.10916888110E+02  0.18999697479E+01  0.17159918631E+03  0.17120000000E+03 0.  0.
        998    1    1    2    0    0 -0.74597425774E+01 -0.34556338372E+01  0.14359727554E+04  0.14360311081E+04  0.10000000000E+02 0. -1.
</event>
<event>
 5    1  0.7732857E-009  0.3811506E+03  0.7957747E-01  0.3446164E+00
         13   -1    0    0    0    0  0.00000000000E+00  0.00000000000E+00  0.14999999963E+04  0.15000000000E+04  0.10566000000E+00 0. -1.
        994   -1    0    0    0    0 -0.00000000000E+00 -0.00000000000E+00  0.11368683772E-12  0.17120000000E+03  0.17120000000E+03 0.  0.
         13    1    1    2    0    0 -0.29410934812E+02  0.31770109594E+02  0.22009326155E+03  0.22431094020E+03  0.10566000000E+00 0. -1.
        994    1    1    2    0    0  0.49791255938E+02 -0.18736084904E+02  0.13036832069E+02  0.17974873862E+03  0.17120000000E+03 0.  0.
        998    1    1    2    0    0 -0.20380321126E+02 -0.13034024691E+02  0.12668699027E+04  0.12671403212E+04  0.10000000000E+02 0. -1.
</event>
<event>
 5    1  0.7732857E-009  0.3849623E+03  0.7957747E-01  0.3429832E+00
         13   -1    0    0    0    0  0.00000000000E+00  0.00000000000E+00  0.14999999963E+04  0.15000000000E+04  0.10566000000E+00 0. -1.
        994   -1    0    0    0    0 -0.00000000000E+00 -0.00000000000E+00  0.11368683772E-12  0.17120000000E+03  0.17120000000E+03 0.  0.
         13    1    1    2    0    0  0.61891742518E+01 -0.82350923621E+01  0.30894227214E+02  0.32566655698E+02  0.10566000000E+00 0. -1.
        994    1    1    2    0    0  0.17737207319E+01  0.19721640891E+02  0.29395257355E+01  0.17236638308E+03  0.17120000000E+03 0.  0.
        998    1    1    2    0    0 -0.79628949836E+01 -0.11486548529E+02  0.14661662433E+04  0.14662669612E+04  0.10000000000E+02 0. -1.
</event>
<event>
 5    1  0.7732857E-009  0.3731129E+03  0.7957747E-01  0.3481706E+00
         13   -1    0    0    0    0  0.00000000000E+00  0.00000000000E+00  0.14999999963E+04  0.15000000000E+04  0.10566000000E+00 0.  1.
        994   -1    0    0    0    0 -0.00000000000E+00 -0.00000000000E+00  0.11368683772E-12  0.17120000000E+03  0.17120000000E+03 0.  0.
         13    1    1    2    0    0 -0.18896729090E+02 -0.42278927747E+02  0.94000705480E+02  0.10478901611E+03  0.10566000000E+00 0.  1.
        994    1    1    2    0    0  0.23995881276E+02 -0.28485398370E+02  0.17513480510E+02  0.17607777327E+03  0.17120000000E+03 0.  0.
        998    1    1    2    0    0 -0.50991521855E+01  0.70764326117E+02  0.13884858103E+04  0.13903332106E+04  0.10000000000E+02 0.  1.
</event>
<event>
 5    1  0.7732857E-009  0.3817263E+03  0.7957747E-01  0.3443676E+00
         13   -1    0    0    0    0  0.00000000000E+00  0.00000000000E+00  0.14999999963E+04  0.15000000000E+04  0.10566000000E+00 0.  1.
        994   -1    0    0    0    0 -0.00000000000E+00 -0.00000000000E+00  0.11368683772E-12  0.17120000000E+03  0.17120000000E+03 0.  0.
         13    1    1    2    0    0 -0.18675477716E+02 -0.16111286701E+02  0.93410961338E+02  0.96612452040E+02  0.10566000000E+00 0.  1.
        994    1    1    2    0    0  0.13167447584E+02  0.42263927532E+01  0.39002019731E+01  0.17180190816E+03  0.17120000000E+03 0.  0.
        998    1    1    2    0    0  0.55080301319E+01  0.11884893948E+02  0.14026888330E+04  0.14027856398E+04  0.10000000000E+02 0.  1.
</event>
<event>
 5    1  0.7732857E-009  0.3802490E+03  0.7957747E-01  0.3450075E+00
         13   -1    0    0    0    0  0.00000000000E+00  0.00000000000E+00  0.14999999963E+04  0.15000000000E+04  0.10566000000E+00 0. -1.
        994   -1    0    0    0    0 -0.00000000000E+00 -0.00000000000E+00  0.11368683772E-12  0.17120000000E+03  0.17120000000E+03 0.  0.
         13    1    1    2    0    0  0.11110006357E+01  0.11742697440E+02  0.15652075752E+02  0.19599079186E+02  0.10566000000E+00 0. -1.
        994    1    1    2    0    0  0.28412525444E+01 -0.86905316455E+01  0.42867694557E+01  0.17149756397E+03  0.17120000000E+03 0.  0.
        998    1    1    2    0    0 -0.39522531800E+01 -0.30521657941E+01  0.14800611511E+04  0.14801033568E+04  0.10000000000E+02 0. -1.
</event>
<event>
 5    1  0.7732857E-009  0.3851315E+03  0.7957747E-01  0.3429115E+00
         13   -1    0    0    0    0  0.00000000000E+00  0.00000000000E+00  0.14999999963E+04  0.15000000000E+04  0.10566000000E+00 0.  1.
        994   -1    0    0    0    0 -0.00000000000E+00 -0.00000000000E+00  0.11368683772E-12  0.17120000000E+03  0.17120000000E+03 0.  0.
         13    1    1    2    0    0  0.72485135964E+01  0.71153293850E+01  0.31706658348E+02  0.33294026630E+02  0.10566000000E+00 0.  1.
        994    1    1    2    0    0 -0.11121867294E+02 -0.92315488486E+01  0.22519439675E+01  0.17182383036E+03  0.17120000000E+03 0.  0.
        998    1    1    2    0    0  0.38733536975E+01  0.21162194636E+01  0.14660413940E+04  0.14660821430E+04  0.10000000000E+02 0.  1.
</event>
<event>
 5    1  0.7732857E-009  0.3750867E+03  0.7957747E-01  0.3472835E+00
         13   -1    0    0    0    0  0.00000000000E+00  0.00000000000E+00  0.14999999963E+04  0.15000000000E+04  0.10566000000E+00 0. -1.
        994   -1    0    0    0    0 -0.00000000000E+00 -0.00000000000E+00  0.11368683772E-12  0.17120000000E+03  0.17120000000E+03 0.  0.
         13    1    1    2    0    0 -0.83843127933E+01  0.39886939083E+02  0.10506583248E+03  0.11269474224E+03  0.10566000000E+00 0. -1.
        994    1    1    2    0    0  0.27642002000E+02 -0.56684596042E+02  0.20271865313E+02  0.18356909388E+03  0.17120000000E+03 0.  0.
        998    1    1    2    0    0 -0.19257689207E+02  0.16797656960E+02  0.13746622985E+04  0.13749361639E+04  0.10000000000E+02 0. -1.
</event>
<event>
 5    1  0.7732857E-009  0.3827419E+03  0.7957747E-01  0.3439306E+00
         13   -1    0    0    0    0  0.00000000000E+00  0.00000000000E+00  0.14999999963E+04  0.15000000000E+04  0.10566000000E+00 0. -1.
        994   -1    0    0    0    0 -0.00000000000E+00 -0.00000000000E+00  0.11368683772E-12  0.17120000000E+03  0.17120000000E+03 0.  0.
         13    1    1    2    0    0 -0.39582803644E+01  0.93243794854E+01  0.17577828105E+02  0.20288007324E+02  0.10566000000E+00 0. -1.
        994    1    1    2    0    0  0.45465327755E+01 -0.52642112504E+01  0.29157114594E+01  0.17136605339E+03  0.17120000000E+03 0.  0.
        998    1    1    2    0    0 -0.58825241105E+00 -0.40601682350E+01  0.14795064567E+04  0.14795459393E+04  0.10000000000E+02 0. -1.
</event>
<event>
 5    1  0.1015858E-008  0.3847337E+03  0.7957747E-01  0.3430802E+00
         13   -1    0    0    0    0  0.00000000000E+00  0.00000000000E+00  0.14999999963E+04  0.15000000000E+04  0.10566000000E+00 0. -1.
        994   -1    0    0    0    0 -0.00000000000E+00 -0.00000000000E+00  0.11368683772E-12  0.17120000000E+03  0.17120000000E+03 0.  0.
         13    1    1    2    0    0  0.54397092361E+01 -0.85264910024E+01  0.28092126422E+02  0.29857498494E+02  0.10566000000E+00 0. -1.
        994    1    1    2    0    0 -0.72355754710E+01  0.93914381522E+01  0.22251678859E+01  0.17162442727E+03  0.17120000000E+03 0.  0.
        998    1    1    2    0    0  0.17958662349E+01 -0.86494714984E+00  0.14696827020E+04  0.14697180742E+04  0.10000000000E+02 0. -1.
</event>
<event>
 5    1  0.7732857E-009  0.3799427E+03  0.7957747E-01  0.3451408E+00
         13   -1    0    0    0    0  0.00000000000E+00  0.00000000000E+00  0.14999999963E+04  0.15000000000E+04  0.10566000000E+00 0.  1.
        994   -1    0    0    0    0 -0.00000000000E+00 -0.00000000000E+00  0.11368683772E-12  0.17120000000E+03  0.17120000000E+03 0.  0.
         13    1    1    2    0    0 -0.97974513596E+01 -0.31454872358E+02  0.16597506248E+03  0.16921327246E+03  0.10566000000E+00 0.  1.
        994    1    1    2    0    0  0.18477454527E+02 -0.22569582873E+02  0.70120109327E+01  0.17380854609E+03  0.17120000000E+03 0.  0.
        998    1    1    2    0    0 -0.86800031675E+01  0.54024455231E+02  0.13270129229E+04  0.13281781814E+04  0.10000000000E+02 0.  1.
</event>
<event>
 5    1  0.7732857E-009  0.3797426E+03  0.7957747E-01  0.3452280E+00
         13   -1    0    0    0    0  0.00000000000E+00  0.00000000000E+00  0.14999999963E+04  0.15000000000E+04  0.10566000000E+00 0. -1.
        994   -1    0    0    0    0 -0.00000000000E+00 -0.00000000000E+00  0.11368683772E-12  0.17120000000E+03  0.17120000000E+03 0.  0.
         13    1    1    2    0    0  0.26293000283E+02 -0.79558181576E+01  0.92291296553E+02  0.96292842360E+02  0.10566000000E+00 0. -1.
        994    1    1    2    0    0 -0.91058838196E+01 -0.12573809772E+02  0.50699127702E+01  0.17197721311E+03  0.17120000000E+03 0.  0.
        998    1    1    2    0    0 -0.17187116464E+02  0.20529627930E+02  0.14026387870E+04  0.14029299445E+04  0.10000000000E+02 0. -1.
</event>
<event>
 5    1  0.7732857E-009  0.3844662E+03  0.7957747E-01  0.3431939E+00
         13   -1    0    0    0    0  0.00000000000E+00  0.00000000000E+00  0.14999999963E+04  0.15000000000E+04  0.10566000000E+00 0. -1.
        994   -1    0    0    0    0 -0.00000000000E+00 -0.00000000000E+00  0.11368683772E-12  0.17120000000E+03  0.17120000000E+03 0.  0.
         13    1    1    2    0    0  0.23052908349E+02 -0.42522260564E+01  0.63457747348E+01  0.24285757777E+02  0.10566000000E+00 0. -1.
        994    1    1    2    0    0 -0.22877846028E+02  0.29891279462E+01  0.20765829303E+02  0.17399135148E+03  0.17120000000E+03 0.  0.
        998    1    1    2    0    0 -0.17506232127E+00  0.12630981102E+01  0.14728883922E+04  0.14729228907E+04  0.10000000000E+02 0. -1.
</event>
<event>
 5    1  0.7732857E-009  0.3814803E+03  0.7957747E-01  0.3444738E+00
         13   -1    0    0    0    0  0.00000000000E+00  0.00000000000E+00  0.14999999963E+04  0.15000000000E+04  0.10566000000E+00 0.  1.
        994   -1    0    0    0    0 -0.00000000000E+00 -0.00000000000E+00  0.11368683772E-12  0.17120000000E+03  0.17120000000E+03 0.  0.
         13    1    1    2    0    0 -0.28613882943E+02  0.19674581891E+02  0.18290437234E+03  0.18617159841E+03  0.10566000000E+00 0.  1.
        994    1    1    2    0    0  0.91596335352E+01 -0.14867965449E+02  0.44029062042E+01  0.17214465099E+03  0.17120000000E+03 0.  0.
        998    1    1    2    0    0  0.19454249408E+02 -0.48066164422E+01  0.13126927177E+04  0.13128837506E+04  0.10000000000E+02 0.  1.
</event>
<event>
 5    1  0.7732857E-009  0.3739465E+03  0.7957747E-01  0.3477948E+00
         13   -1    0    0    0    0  0.00000000000E+00  0.00000000000E+00  0.14999999963E+04  0.15000000000E+04  0.10566000000E+00 0.  1.
        994   -1    0    0    0    0 -0.00000000000E+00 -0.00000000000E+00  0.11368683772E-12  0.17120000000E+03  0.17120000000E+03 0.  0.
         13    1    1    2    0    0  0.15777079656E+02 -0.44531207551E+01  0.15364442882E+02  0.22468284226E+02  0.10566000000E+00 0.  1.
        994    1    1    2    0    0 -0.11835877288E+02  0.10276281340E+02  0.80592993914E+01  0.17210485832E+03  0.17120000000E+03 0.  0.
        998    1    1    2    0    0 -0.39412023679E+01 -0.58231605847E+01  0.14765762540E+04  0.14766268575E+04  0.10000000000E+02 0.  1.
</event>
<event>
 5    1  0.7732857E-009  0.4183935E+03  0.7957747E-01  0.3299322E+00
         13   -1    0    0    0    0  0.00000000000E+00  0.00000000000E+00  0.14999999963E+04  0.15000000000E+04  0.10566000000E+00 0. -1.
        994   -1    0    0    0    0 -0.00000000000E+00 -0.00000000000E+00  0.11368683772E-12  0.17120000000E+03  0.17120000000E+03 0.  0.
         13    1    1    2    0    0 -0.88962358128E+01  0.39889174831E+02  0.69811627956E+01  0.41461272030E+02  0.10566000000E+00 0. -1.
        994    1    1    2    0    0 -0.11540635812E+02 -0.11211090234E+02  0.40371290051E+02  0.17662999711E+03  0.17120000000E+03 0.  0.
        998    1    1    2    0    0  0.20436871625E+02 -0.28678084597E+02  0.14526475434E+04  0.14531087309E+04  0.10000000000E+02 0. -1.
</event>
<event>
 5    1  0.7732857E-009  0.3792332E+03  0.7957747E-01  0.3454504E+00
         13   -1    0    0    0    0  0.00000000000E+00  0.00000000000E+00  0.14999999963E+04  0.15000000000E+04  0.10566000000E+00 0. -1.
        994   -1    0    0    0    0 -0.00000000000E+00 -0.00000000000E+00  0.11368683772E-12  0.17120000000E+03  0.17120000000E+03 0.  0.
         13    1    1    2    0    0  0.12258079152E+03 -0.51819726280E+02  0.42598195693E+03  0.44628687330E+03  0.10566000000E+00 0. -1.
        994    1    1    2    0    0 -0.10291441470E+03  0.58878562380E+02  0.68641265521E+02  0.21926952637E+03  0.17120000000E+03 0.  0.
        998    1    1    2    0    0 -0.19666376822E+02 -0.70588360999E+01  0.10053767738E+04  0.10056436003E+04  0.10000000000E+02 0. -1.
</event>
<event>
 5    1  0.7732857E-009  0.3780383E+03  0.7957747E-01  0.3459745E+00
         13   -1    0    0    0    0  0.00000000000E+00  0.00000000000E+00  0.14999999963E+04  0.15000000000E+04  0.10566000000E+00 0. -1.
        994   -1    0    0    0    0 -0.00000000000E+00 -0.00000000000E+00  0.11368683772E-12  0.17120000000E+03  0.17120000000E+03 0.  0.
         13    1    1    2    0    0 -0.41678566359E+02  0.11714172649E+01  0.17223764257E+03  0.17721256106E+03  0.10566000000E+00 0. -1.
        994    1    1    2    0    0  0.19961208187E+02 -0.65137753960E+01  0.66115159060E+01  0.17260947612E+03  0.17120000000E+03 0.  0.
        998    1    1    2    0    0  0.21717358173E+02  0.53423581311E+01  0.13211508378E+04  0.13213779628E+04  0.10000000000E+02 0. -1.
</event>
<event>
 5    1  0.7732857E-009  0.3732617E+03  0.7957747E-01  0.3481034E+00
         13   -1    0    0    0    0  0.00000000000E+00  0.00000000000E+00  0.14999999963E+04  0.15000000000E+04  0.10566000000E+00 0.  1.
        994   -1    0    0    0    0 -0.00000000000E+00 -0.00000000000E+00  0.11368683772E-12  0.17120000000E+03  0.17120000000E+03 0.  0.
         13    1    1    2    0    0  0.62154811807E+02  0.40399743535E+02  0.17596294964E+03  0.19094064711E+03  0.10566000000E+00 0.  1.
        994    1    1    2    0    0 -0.87988348542E+02 -0.27244510495E+02  0.43318432586E+02  0.19917364141E+03  0.17120000000E+03 0.  0.
        998    1    1    2    0    0  0.25833536735E+02 -0.13155233040E+02  0.12807186141E+04  0.12810857115E+04  0.10000000000E+02 0.  1.
</event>
<event>
 5    1  0.7732857E-009  0.3805766E+03  0.7957747E-01  0.3448652E+00
         13   -1    0    0    0    0  0.00000000000E+00  0.00000000000E+00  0.14999999963E+04  0.15000000000E+04  0.10566000000E+00 0. -1.
        994   -1    0    0    0    0 -0.00000000000E+00 -0.00000000000E+00  0.11368683772E-12  0.17120000000E+03  0.17120000000E+03 0.  0.
         13    1    1    2    0    0 -0.24127304914E+02  0.85527471019E+01  0.83116647989E+02  0.86969331735E+02  0.10566000000E+00 0. -1.
        994    1    1    2    0    0  0.14715467813E+02 -0.12184412124E+02  0.50611911703E+01  0.17233705506E+03  0.17120000000E+03 0.  0.
        998    1    1    2    0    0  0.94118371011E+01  0.36316650221E+01  0.14118221571E+04  0.14118936132E+04  0.10000000000E+02 0. -1.
</event>
<event>
 5    1  0.9761929E-009  0.3860371E+03  0.7957747E-01  0.3425285E+00
         13   -1    0    0    0    0  0.00000000000E+00  0.00000000000E+00  0.14999999963E+04  0.15000000000E+04  0.10566000000E+00 0. -1.
        994   -1    0    0    0    0 -0.00000000000E+00 -0.00000000000E+00  0.11368683772E-12  0.17120000000E+03  0.17120000000E+03 0.  0.
         13    1    1    2    0    0 -0.12467286884E+02  0.25749546847E+01  0.68756008207E+02  0.69924698515E+02  0.10566000000E+00 0. -1.
        994    1    1    2    0    0  0.16157377110E+02 -0.61734442259E+01  0.20972792726E+01  0.17208431314E+03  0.17120000000E+03 0.  0.
        998    1    1    2    0    0 -0.36900902256E+01  0.35984895412E+01  0.14291467088E+04  0.14291909883E+04  0.10000000000E+02 0. -1.
</event>
<event>
 5    1  0.7732857E-009  0.3775885E+03  0.7957747E-01  0.3461726E+00
         13   -1    0    0    0    0  0.00000000000E+00  0.00000000000E+00  0.14999999963E+04  0.15000000000E+04  0.10566000000E+00 0.  1.
        994   -1    0    0    0    0 -0.00000000000E+00 -0.00000000000E+00  0.11368683772E-12  0.17120000000E+03  0.17120000000E+03 0.  0.
         13    1    1    2    0    0 -0.20131647711E+01  0.33923241374E+02  0.13387214111E+03  0.13811806712E+03  0.10566000000E+00 0.  1.
        994    1    1    2    0    0 -0.91515189487E+01  0.21582523038E+02  0.72095077482E+01  0.17294788984E+03  0.17120000000E+03 0.  0.
        998    1    1    2    0    0  0.11164683720E+02 -0.55505764413E+02  0.13589183474E+04  0.13601340430E+04  0.10000000000E+02 0.  1.
</event>
<event>
 5    1  0.7732857E-009  0.3843466E+03  0.7957747E-01  0.3432448E+00
         13   -1    0    0    0    0  0.00000000000E+00  0.00000000000E+00  0.14999999963E+04  0.15000000000E+04  0.10566000000E+00 0. -1.
        994   -1    0    0    0    0 -0.00000000000E+00 -0.00000000000E+00  0.11368683772E-12  0.17120000000E+03  0.17120000000E+03 0.  0.
         13    1    1    2    0    0 -0.16681606199E+02  0.41161616721E+01  0.73438324254E+02  0.75421597740E+02  0.10566000000E+00 0. -1.
        994    1    1    2    0    0  0.18818543236E+02  0.12244778485E+02  0.36178612431E+01  0.17270379582E+03  0.17120000000E+03 0.  0.
        998    1    1    2    0    0 -0.21369370376E+01 -0.16360940158E+02  0.14229438108E+04  0.14230746064E+04  0.10000000000E+02 0. -1.
</event>
<event>
 5    1  0.7732857E-009  0.3767707E+03  0.7957747E-01  0.3465341E+00
         13   -1    0    0    0    0  0.00000000000E+00  0.00000000000E+00  0.14999999963E+04  0.15000000000E+04  0.10566000000E+00 0.  1.
        994   -1    0    0    0    0 -0.00000000000E+00 -0.00000000000E+00  0.11368683772E-12  0.17120000000E+03  0.17120000000E+03 0.  0.
         13    1    1    2    0    0  0.85221634971E+01 -0.10987691001E+02  0.14305127740E+02  0.19950049321E+02  0.10566000000E+00 0.  1.
        994    1    1    2    0    0 -0.88205740088E+01  0.23712449637E+01  0.60541643172E+01  0.17155033732E+03  0.17120000000E+03 0.  0.
        998    1    1    2    0    0  0.29841051176E+00  0.86164460375E+01  0.14796407042E+04  0.14796996134E+04  0.10000000000E+02 0.  1.
</event>
<event>
 5    1  0.7732857E-009  0.3829775E+03  0.7957747E-01  0.3438295E+00
         13   -1    0    0    0    0  0.00000000000E+00  0.00000000000E+00  0.14999999963E+04  0.15000000000E+04  0.10566000000E+00 0. -1.
        994   -1    0    0    0    0 -0.00000000000E+00 -0.00000000000E+00  0.11368683772E-12  0.17120000000E+03  0.17120000000E+03 0.  0.
         13    1    1    2    0    0  0.20060747127E+02 -0.64468189798E+01  0.80837628995E+02  0.83538784261E+02  0.10566000000E+00 0. -1.
        994    1    1    2    0    0 -0.17183146700E+02  0.82413124728E+01  0.38407776433E+01  0.17230023603E+03  0.17120000000E+03 0.  0.
        998    1    1    2    0    0 -0.28776004266E+01 -0.17944934930E+01  0.14153215896E+04  0.14153609797E+04  0.10000000000E+02 0. -1.
</event>
<event>
 5    1  0.7732857E-009  0.3718325E+03  0.7957747E-01  0.3487511E+00
         13   -1    0    0    0    0  0.00000000000E+00  0.00000000000E+00  0.14999999963E+04  0.15000000000E+04  0.10566000000E+00 0. -1.
        994   -1    0    0    0    0 -0.00000000000E+00 -0.00000000000E+00  0.11368683772E-12  0.17120000000E+03  0.17120000000E+03 0.  0.
         13    1    1    2    0    0 -0.59405350149E+02  0.59273205521E+02  0.33931742960E+03  0.34954060953E+03  0.10566000000E+00 0. -1.
        994    1    1    2    0    0  0.58799337344E+02 -0.51505685808E+02  0.29610388214E+02  0.19051617473E+03  0.17120000000E+03 0.  0.
        998    1    1    2    0    0  0.60601280490E+00 -0.77675197128E+01  0.11310721785E+04  0.11311432157E+04  0.10000000000E+02 0.  0.
</event>
<event>
 5    1  0.7732857E-009  0.3824543E+03  0.7957747E-01  0.3440541E+00
         13   -1    0    0    0    0  0.00000000000E+00  0.00000000000E+00  0.14999999963E+04  0.15000000000E+04  0.10566000000E+00 0. -1.
        994   -1    0    0    0    0 -0.00000000000E+00 -0.00000000000E+00  0.11368683772E-12  0.17120000000E+03  0.17120000000E+03 0.  0.
         13    1    1    2    0    0 -0.12264438873E+02  0.12964595687E+02  0.55248173676E+02  0.58059185843E+02  0.10566000000E+00 0. -1.
        994    1    1    2    0    0  0.25287361278E+01 -0.66963764265E+01  0.30692458210E+01  0.17137705866E+03  0.17120000000E+03 0.  0.
        998    1    1    2    0    0  0.97357027453E+01 -0.62682192602E+01  0.14416825768E+04  0.14417637555E+04  0.10000000000E+02 0. -1.
</event>
<event>
 5    1  0.7732857E-009  0.3719247E+03  0.7957747E-01  0.3487092E+00
         13   -1    0    0    0    0  0.00000000000E+00  0.00000000000E+00  0.14999999963E+04  0.15000000000E+04  0.10566000000E+00 0. -1.
        994   -1    0    0    0    0 -0.00000000000E+00 -0.00000000000E+00  0.11368683772E-12  0.17120000000E+03  0.17120000000E+03 0.  0.
         13    1    1    2    0    0 -0.24065497853E+02 -0.38526975805E+02  0.13703294354E+03  0.14436590605E+03  0.10566000000E+00 0. -1.
        994    1    1    2    0    0  0.80235963846E+01 -0.27057769350E+01  0.85128029029E+01  0.17162053240E+03  0.17120000000E+03 0.  0.
        998    1    1    2    0    0  0.16041901469E+02  0.41232752740E+02  0.13544542498E+04  0.13552135615E+04  0.10000000000E+02 0. -1.
</event>
<event>
 5    1  0.7732857E-009  0.3831006E+03  0.7957747E-01  0.3437768E+00
         13   -1    0    0    0    0  0.00000000000E+00  0.00000000000E+00  0.14999999963E+04  0.15000000000E+04  0.10566000000E+00 0. -1.
        994   -1    0    0    0    0 -0.00000000000E+00 -0.00000000000E+00  0.11368683772E-12  0.17120000000E+03  0.17120000000E+03 0.  0.
         13    1    1    2    0    0  0.73336278586E+01 -0.82796938147E+01  0.23828158958E+02  0.26270282652E+02  0.10566000000E+00 0. -1.
        994    1    1    2    0    0 -0.12344611686E+02 -0.17860974202E+02  0.41375610957E+01  0.17262086562E+03  0.17120000000E+03 0.  0.
        998    1    1    2    0    0  0.50109838269E+01  0.26140668017E+02  0.14720342762E+04  0.14723088517E+04  0.10000000000E+02 0. -1.
</event>
<event>
 5    1  0.7732857E-009  0.3698977E+03  0.7957747E-01  0.3496361E+00
         13   -1    0    0    0    0  0.00000000000E+00  0.00000000000E+00  0.14999999963E+04  0.15000000000E+04  0.10566000000E+00 0.  1.
        994   -1    0    0    0    0 -0.00000000000E+00 -0.00000000000E+00  0.11368683772E-12  0.17120000000E+03  0.17120000000E+03 0.  0.
         13    1    1    2    0    0 -0.47401538066E+02  0.59834794240E+02  0.38677453376E+03  0.39423553816E+03  0.10566000000E+00 0.  1.
        994    1    1    2    0    0  0.15642562614E+02 -0.80396480928E+01  0.10393155461E+02  0.17241456837E+03  0.17120000000E+03 0.  0.
        998    1    1    2    0    0  0.31758975452E+02 -0.51795146147E+02  0.11028323071E+04  0.11045498935E+04  0.10000000000E+02 0.  1.
</event>
<event>
 5    1  0.7732857E-009  0.3706362E+03  0.7957747E-01  0.3492972E+00
         13   -1    0    0    0    0  0.00000000000E+00  0.00000000000E+00  0.14999999963E+04  0.15000000000E+04  0.10566000000E+00 0. -1.
        994   -1    0    0    0    0 -0.00000000000E+00 -0.00000000000E+00  0.11368683772E-12  0.17120000000E+03  0.17120000000E+03 0.  0.
         13    1    1    2    0    0  0.18732336290E+02  0.26958784616E+02  0.45134815221E+02  0.55810744485E+02  0.10566000000E+00 0. -1.
        994    1    1    2    0    0 -0.16886035693E+01 -0.83675511885E+01  0.11531001853E+02  0.17180009109E+03  0.17120000000E+03 0.  0.
        998    1    1    2    0    0 -0.17043732721E+02 -0.18591233427E+02  0.14433341792E+04  0.14435891644E+04  0.10000000000E+02 0. -1.
</event>
<event>
 5    1  0.7732857E-009  0.3845224E+03  0.7957747E-01  0.3431700E+00
         13   -1    0    0    0    0  0.00000000000E+00  0.00000000000E+00  0.14999999963E+04  0.15000000000E+04  0.10566000000E+00 0. -1.
        994   -1    0    0    0    0 -0.00000000000E+00 -0.00000000000E+00  0.11368683772E-12  0.17120000000E+03  0.17120000000E+03 0.  0.
         13    1    1    2    0    0 -0.48570044243E+01 -0.99587598663E+01  0.33725121975E+02  0.35498766265E+02  0.10566000000E+00 0. -1.
        994    1    1    2    0    0 -0.84456494261E+01  0.30549154030E+01  0.21331804693E+01  0.17144868609E+03  0.17120000000E+03 0.  0.
        998    1    1    2    0    0  0.13302653850E+02  0.69038444633E+01  0.14641416938E+04  0.14642525476E+04  0.10000000000E+02 0. -1.
</event>
<event>
 5    1  0.7732857E-009  0.3860126E+03  0.7957747E-01  0.3425389E+00
         13   -1    0    0    0    0  0.00000000000E+00  0.00000000000E+00  0.14999999963E+04  0.15000000000E+04  0.10566000000E+00 0. -1.
        994   -1    0    0    0    0 -0.00000000000E+00 -0.00000000000E+00  0.11368683772E-12  0.17120000000E+03  0.17120000000E+03 0.  0.
         13    1    1    2    0    0 -0.11344903343E+01 -0.13074567668E+02  0.77224798121E+02  0.78332062381E+02  0.10566000000E+00 0. -1.
        994    1    1    2    0    0 -0.61838593831E+00  0.87193927083E+01  0.13787494801E+01  0.17142855993E+03  0.17120000000E+03 0.  0.
        998    1    1    2    0    0  0.17528762726E+01  0.43551749598E+01  0.14213964487E+04  0.14214393777E+04  0.10000000000E+02 0.  0.
</event>
<event>
 5    1  0.7732857E-009  0.3826745E+03  0.7957747E-01  0.3439595E+00
         13   -1    0    0    0    0  0.00000000000E+00  0.00000000000E+00  0.14999999963E+04  0.15000000000E+04  0.10566000000E+00 0.  1.
        994   -1    0    0    0    0 -0.00000000000E+00 -0.00000000000E+00  0.11368683772E-12  0.17120000000E+03  0.17120000000E+03 0.  0.
         13    1    1    2    0    0  0.18613352771E+02 -0.92533840388E+01  0.76452031184E+02  0.79227559938E+02  0.10566000000E+00 0.  1.
        994    1    1    2    0    0 -0.10767824342E+02  0.88651606448E+01  0.34339979111E+01  0.17180154090E+03  0.17120000000E+03 0.  0.
        998    1    1    2    0    0 -0.78455284287E+01  0.38822339397E+00  0.14201139672E+04  0.14201708992E+04  0.10000000000E+02 0.  1.
</event>
<event>
 5    1  0.7732857E-009  0.3783921E+03  0.7957747E-01  0.3458190E+00
         13   -1    0    0    0    0  0.00000000000E+00  0.00000000000E+00  0.14999999963E+04  0.15000000000E+04  0.10566000000E+00 0. -1.
        994   -1    0    0    0    0 -0.00000000000E+00 -0.00000000000E+00  0.11368683772E-12  0.17120000000E+03  0.17120000000E+03 0.  0.
         13    1    1    2    0    0 -0.11418302528E+02  0.65757418914E+01  0.15130467611E+02  0.20063903613E+02  0.10566000000E+00 0. -1.
        994    1    1    2    0    0  0.18492548692E+02 -0.12169465601E+01  0.61021184573E+01  0.17230824462E+03  0.17120000000E+03 0.  0.
        998    1    1    2    0    0 -0.70742461642E+01 -0.53587953313E+01  0.14787674102E+04  0.14788278518E+04  0.10000000000E+02 0. -1.
</event>
<event>
 5    1  0.7732857E-009  0.3836575E+03  0.7957747E-01  0.3435386E+00
         13   -1    0    0    0    0  0.00000000000E+00  0.00000000000E+00  0.14999999963E+04  0.15000000000E+04  0.10566000000E+00 0. -1.
        994   -1    0    0    0    0 -0.00000000000E+00 -0.00000000000E+00  0.11368683772E-12  0.17120000000E+03  0.17120000000E+03 0.  0.
         13    1    1    2    0    0  0.13803810304E+02  0.16236160126E+01  0.41569162816E+02  0.43831356004E+02  0.10566000000E+00 0. -1.
        994    1    1    2    0    0 -0.85160561467E+01  0.18487818669E+00  0.25378206561E+01  0.17143056299E+03  0.17120000000E+03 0.  0.
        998    1    1    2    0    0 -0.52877541570E+01 -0.18084941993E+01  0.14558930128E+04  0.14559380810E+04  0.10000000000E+02 0. -1.
</event>
<event>
 5    1  0.7732857E-009  0.3814775E+03  0.7957747E-01  0.3444750E+00
         13   -1    0    0    0    0  0.00000000000E+00  0.00000000000E+00  0.14999999963E+04  0.15000000000E+04  0.10566000000E+00 0.  1.
        994   -1    0    0    0    0 -0.00000000000E+00 -0.00000000000E+00  0.11368683772E-12  0.17120000000E+03  0.17120000000E+03 0.  0.
         13    1    1    2    0    0  0.18347992401E+00  0.23829447235E+02  0.79497697252E+02  0.82992597578E+02  0.10566000000E+00 0.  1.
        994    1    1    2    0    0 -0.15677260287E+01 -0.22643079048E+02  0.51048496327E+01  0.17277345364E+03  0.17120000000E+03 0.  0.
        998    1    1    2    0    0  0.13842461047E+01 -0.11863681865E+01  0.14153974494E+04  0.14154339488E+04  0.10000000000E+02 0.  1.
</event>
<event>
 5    1  0.7732857E-009  0.3760950E+03  0.7957747E-01  0.3468340E+00
         13   -1    0    0    0    0  0.00000000000E+00  0.00000000000E+00  0.14999999963E+04  0.15000000000E+04  0.10566000000E+00 0. -1.
        994   -1    0    0    0    0 -0.00000000000E+00 -0.00000000000E+00  0.11368683772E-12  0.17120000000E+03  0.17120000000E+03 0.  0.
         13    1    1    2    0    0  0.25277207835E+02 -0.10696285783E+02  0.58583950960E+02  0.64694963016E+02  0.10566000000E+00 0. -1.
        994    1    1    2    0    0 -0.23008322133E+02 -0.60990656534E+00  0.79136993987E+01  0.17292143161E+03  0.17120000000E+03 0.  0.
        998    1    1    2    0    0 -0.22688857019E+01  0.11306192348E+02  0.14335023459E+04  0.14335836054E+04  0.10000000000E+02 0. -1.
</event>
<event>
 5    1  0.7732857E-009  0.3684717E+03  0.7957747E-01  0.3502944E+00
         13   -1    0    0    0    0  0.00000000000E+00  0.00000000000E+00  0.14999999963E+04  0.15000000000E+04  0.10566000000E+00 0.  1.
        994   -1    0    0    0    0 -0.00000000000E+00 -0.00000000000E+00  0.11368683772E-12  0.17120000000E+03  0.17120000000E+03 0.  0.
         13    1    1    2    0    0 -0.46874041528E+02  0.10867702562E+02  0.13015037660E+03  0.13876027682E+03  0.10566000000E+00 0.  1.
        994    1    1    2    0    0 -0.15083683301E+01  0.26823781193E+02  0.12583129823E+02  0.17375144767E+03  0.17120000000E+03 0.  0.
        998    1    1    2    0    0  0.48382409858E+02 -0.37691483755E+02  0.13572664899E+04  0.13586882755E+04  0.10000000000E+02 0.  1.
</event>
<event>
 5    1  0.7732857E-009  0.3854822E+03  0.7957747E-01  0.3427630E+00
         13   -1    0    0    0    0  0.00000000000E+00  0.00000000000E+00  0.14999999963E+04  0.15000000000E+04  0.10566000000E+00 0.  1.
        994   -1    0    0    0    0 -0.00000000000E+00 -0.00000000000E+00  0.11368683772E-12  0.17120000000E+03  0.17120000000E+03 0.  0.
         13    1    1    2    0    0  0.76070785825E+01 -0.67087008184E+01  0.37562669365E+02  0.38908091769E+02  0.10566000000E+00 0.  1.
        994    1    1    2    0    0 -0.12308798486E+02 -0.72535392774E+01  0.20614447711E+01  0.17180747919E+03  0.17120000000E+03 0.  0.
        998    1    1    2    0    0  0.47017199036E+01  0.13962240096E+02  0.14603758821E+04  0.14604844290E+04  0.10000000000E+02 0.  1.
</event>
<event>
 5    1  0.7732857E-009  0.3695739E+03  0.7957747E-01  0.3497852E+00
         13   -1    0    0    0    0  0.00000000000E+00  0.00000000000E+00  0.14999999963E+04  0.15000000000E+04  0.10566000000E+00 0. -1.
        994   -1    0    0    0    0 -0.00000000000E+00 -0.00000000000E+00  0.11368683772E-12  0.17120000000E+03  0.17120000000E+03 0.  0.
         13    1    1    2    0    0 -0.93989438110E+02 -0.17168865212E+03  0.81392063369E+03  0.83712473196E+03  0.10566000000E+00 0. -1.
        994    1    1    2    0    0  0.73944442041E+02  0.17736145156E+03  0.15077838805E+03  0.29827575716E+03  0.17120000000E+03 0.  0.
        998    1    1    2    0    0  0.20044996069E+02 -0.56727994335E+01  0.53530097453E+03  0.53579951088E+03  0.10000000000E+02 0. -1.
</event>
<event>
 5    1  0.7732857E-009  0.3763053E+03  0.7957747E-01  0.3467405E+00
         13   -1    0    0    0    0  0.00000000000E+00  0.00000000000E+00  0.14999999963E+04  0.15000000000E+04  0.10566000000E+00 0. -1.
        994   -1    0    0    0    0 -0.00000000000E+00 -0.00000000000E+00  0.11368683772E-12  0.17120000000E+03  0.17120000000E+03 0.  0.
         13    1    1    2    0    0  0.45161414290E+02  0.89718223984E+01  0.16982148437E+03  0.17595281940E+03  0.10566000000E+00 0. -1.
        994    1    1    2    0    0 -0.28217431324E+02 -0.20667057455E+02  0.10161299852E+02  0.17503154775E+03  0.17120000000E+03 0.  0.
        998    1    1    2    0    0 -0.16943982966E+02  0.11695235057E+02  0.13200172121E+04  0.13202156328E+04  0.10000000000E+02 0. -1.
</event>
<event>
 5    1  0.7732857E-009  0.3740933E+03  0.7957747E-01  0.3477288E+00
         13   -1    0    0    0    0  0.00000000000E+00  0.00000000000E+00  0.14999999963E+04  0.15000000000E+04  0.10566000000E+00 0.  1.
        994   -1    0    0    0    0 -0.00000000000E+00 -0.00000000000E+00  0.11368683772E-12  0.17120000000E+03  0.17120000000E+03 0.  0.
         13    1    1    2    0    0 -0.83125167752E+02  0.31959399247E+01  0.34925601288E+03  0.35902615677E+03  0.10566000000E+00 0.  1.
        994    1    1    2    0    0  0.52286905901E+01  0.28114379666E+02  0.16025673187E+02  0.17431012521E+03  0.17120000000E+03 0.  0.
        998    1    1    2    0    0  0.77896477162E+02 -0.31310319590E+02  0.11347183102E+04  0.11378637180E+04  0.10000000000E+02 0.  1.
</event>
<event>
 5    1  0.7732857E-009  0.3809317E+03  0.7957747E-01  0.3447112E+00
         13   -1    0    0    0    0  0.00000000000E+00  0.00000000000E+00  0.14999999963E+04  0.15000000000E+04  0.10566000000E+00 0. -1.
        994   -1    0    0    0    0 -0.00000000000E+00 -0.00000000000E+00  0.11368683772E-12  0.17120000000E+03  0.17120000000E+03 0.  0.
         13    1    1    2    0    0  0.87309950859E+01  0.55419080061E+02  0.32696411500E+03  0.33174244283E+03  0.10566000000E+00 0. -1.
        994    1    1    2    0    0 -0.11675156888E+02 -0.57988879870E+02  0.15413824302E+02  0.18178571302E+03  0.17120000000E+03 0.  0.
        998    1    1    2    0    0  0.29441618026E+01  0.25697998084E+01  0.11576220570E+04  0.11576718442E+04  0.10000000000E+02 0.  0.
</event>
<event>
 5    1  0.7732857E-009  0.3808634E+03  0.7957747E-01  0.3447408E+00
         13   -1    0    0    0    0  0.00000000000E+00  0.00000000000E+00  0.14999999963E+04  0.15000000000E+04  0.10566000000E+00 0.  1.
        994   -1    0    0    0    0 -0.00000000000E+00 -0.00000000000E+00  0.11368683772E-12  0.17120000000E+03  0.17120000000E+03 0.  0.
         13    1    1    2    0    0 -0.81362445219E+01  0.16258149182E+02  0.43367412439E+02  0.47024137583E+02  0.10566000000E+00 0.  1.
        994    1    1    2    0    0  0.28529325815E+01 -0.11729771303E+02  0.41838793166E+01  0.17167606591E+03  0.17120000000E+03 0.  0.
        998    1    1    2    0    0  0.52833119404E+01 -0.45283778784E+01  0.14524487045E+04  0.14524997965E+04  0.10000000000E+02 0.  1.
</event>
<event>
 5    1  0.7732857E-009  0.3805769E+03  0.7957747E-01  0.3448650E+00
         13   -1    0    0    0    0  0.00000000000E+00  0.00000000000E+00  0.14999999963E+04  0.15000000000E+04  0.10566000000E+00 0.  1.
        994   -1    0    0    0    0 -0.00000000000E+00 -0.00000000000E+00  0.11368683772E-12  0.17120000000E+03  0.17120000000E+03 0.  0.
         13    1    1    2    0    0  0.13848021034E+02 -0.18845904037E+01  0.22573070262E+02  0.26549463886E+02  0.10566000000E+00 0.  1.
        994    1    1    2    0    0 -0.28506660870E+02  0.56028285946E+01  0.66634540878E+01  0.17377532340E+03  0.17120000000E+03 0.  0.
        998    1    1    2    0    0  0.14658639836E+02 -0.37182381909E+01  0.14707634719E+04  0.14708752127E+04  0.10000000000E+02 0.  1.
</event>
<event>
 5    1  0.7732857E-009  0.3687244E+03  0.7957747E-01  0.3501774E+00
         13   -1    0    0    0    0  0.00000000000E+00  0.00000000000E+00  0.14999999963E+04  0.15000000000E+04  0.10566000000E+00 0. -1.
        994   -1    0    0    0    0 -0.00000000000E+00 -0.00000000000E+00  0.11368683772E-12  0.17120000000E+03  0.17120000000E+03 0.  0.
         13    1    1    2    0    0 -0.92033815734E+01  0.60700284139E+02  0.18866275779E+03  0.19840079150E+03  0.10566000000E+00 0. -1.
        994    1    1    2    0    0 -0.43774264920E+02 -0.42697038849E+02  0.23038188364E+02  0.18324688679E+03  0.17120000000E+03 0.  0.
        998    1    1    2    0    0  0.52977646494E+02 -0.18003245290E+02  0.12882990501E+04  0.12895523217E+04  0.10000000000E+02 0. -1.
</event>
<event>
 5    1  0.7732857E-009  0.3769834E+03  0.7957747E-01  0.3464400E+00
         13   -1    0    0    0    0  0.00000000000E+00  0.00000000000E+00  0.14999999963E+04  0.15000000000E+04  0.10566000000E+00 0.  1.
        994   -1    0    0    0    0 -0.00000000000E+00 -0.00000000000E+00  0.11368683772E-12  0.17120000000E+03  0.17120000000E+03 0.  0.
         13    1    1    2    0    0  0.16433174252E+02 -0.15122138038E+02  0.41518413860E+02  0.47143590533E+02  0.10566000000E+00 0.  1.
        994    1    1    2    0    0 -0.78635310952E+01  0.16484014260E+02  0.67908384060E+01  0.17230529108E+03  0.17120000000E+03 0.  0.
        998    1    1    2    0    0 -0.85696431564E+01 -0.13618762211E+01  0.14516907440E+04  0.14517511184E+04  0.10000000000E+02 0.  1.
</event>
<event>
 5    1  0.7732857E-009  0.3848791E+03  0.7957747E-01  0.3430185E+00
         13   -1    0    0    0    0  0.00000000000E+00  0.00000000000E+00  0.14999999963E+04  0.15000000000E+04  0.10566000000E+00 0.  1.
        994   -1    0    0    0    0 -0.00000000000E+00 -0.00000000000E+00  0.11368683772E-12  0.17120000000E+03  0.17120000000E+03 0.  0.
         13    1    1    2    0    0  0.11102920375E+02  0.53706182056E+01  0.44634211850E+02  0.46307044953E+02  0.10566000000E+00 0.  1.
        994    1    1    2    0    0 -0.87505352947E+01 -0.31111909964E+01  0.19739715359E+01  0.17146308040E+03  0.17120000000E+03 0.  0.
        998    1    1    2    0    0 -0.23523850800E+01 -0.22594272092E+01  0.14533918129E+04  0.14534298746E+04  0.10000000000E+02 0.  0.
</event>
<event>
 5    1  0.7732857E-009  0.3840498E+03  0.7957747E-01  0.3433712E+00
         13   -1    0    0    0    0  0.00000000000E+00  0.00000000000E+00  0.14999999963E+04  0.15000000000E+04  0.10566000000E+00 0. -1.
        994   -1    0    0    0    0 -0.00000000000E+00 -0.00000000000E+00  0.11368683772E-12  0.17120000000E+03  0.17120000000E+03 0.  0.
         13    1    1    2    0    0  0.20565815718E+02  0.37762943209E+01  0.10725899425E+03  0.10927815969E+03  0.10566000000E+00 0. -1.
        994    1    1    2    0    0 -0.99408408753E+01  0.77184296838E+01  0.26253045093E+01  0.17168205118E+03  0.17120000000E+03 0.  0.
        998    1    1    2    0    0 -0.10624974842E+02 -0.11494724005E+02  0.13901156975E+04  0.13902397891E+04  0.10000000000E+02 0. -1.
</event>
<event>
 5    1  0.7732857E-009  0.3829464E+03  0.7957747E-01  0.3438429E+00
         13   -1    0    0    0    0  0.00000000000E+00  0.00000000000E+00  0.14999999963E+04  0.15000000000E+04  0.10566000000E+00 0. -1.
        994   -1    0    0    0    0 -0.00000000000E+00 -0.00000000000E+00  0.11368683772E-12  0.17120000000E+03  0.17120000000E+03 0.  0.
         13    1    1    2    0    0 -0.12100866409E+02  0.16677557879E+02  0.84768432129E+02  0.87236862359E+02  0.10566000000E+00 0. -1.
        994    1    1    2    0    0 -0.80616703229E+01 -0.78305417457E+01  0.30714531844E+01  0.17159598404E+03  0.17120000000E+03 0.  0.
        998    1    1    2    0    0  0.20162536732E+02 -0.88470161328E+01  0.14121601110E+04  0.14123671536E+04  0.10000000000E+02 0. -1.
</event>
<event>
 5    1  0.7732857E-009  0.3799670E+03  0.7957747E-01  0.3451302E+00
         13   -1    0    0    0    0  0.00000000000E+00  0.00000000000E+00  0.14999999963E+04  0.15000000000E+04  0.10566000000E+00 0. -1.
        994   -1    0    0    0    0 -0.00000000000E+00 -0.00000000000E+00  0.11368683772E-12  0.17120000000E+03  0.17120000000E+03 0.  0.
         13    1    1    2    0    0 -0.39541171475E+02 -0.16713711749E+01  0.20780576651E+03  0.21154088371E+03  0.10566000000E+00 0. -1.
        994    1    1    2    0    0  0.90771391698E+01  0.83157258623E+01  0.46566068114E+01  0.17170518262E+03  0.17120000000E+03 0.  0.
        998    1    1    2    0    0  0.30464032305E+02 -0.66443546874E+01  0.12875376230E+04  0.12879539337E+04  0.10000000000E+02 0. -1.
</event>
<event>
 5    1  0.7732857E-009  0.3791805E+03  0.7957747E-01  0.3454735E+00
         13   -1    0    0    0    0  0.00000000000E+00  0.00000000000E+00  0.14999999963E+04  0.15000000000E+04  0.10566000000E+00 0. -1.
        994   -1    0    0    0    0 -0.00000000000E+00 -0.00000000000E+00  0.11368683772E-12  0.17120000000E+03  0.17120000000E+03 0.  0.
         13    1    1    2    0    0 -0.27986142612E+02 -0.44136998185E+01  0.83057885890E+02  0.87757213362E+02  0.10566000000E+00 0. -1.
        994    1    1    2    0    0  0.25966655395E+02  0.79516558760E+01  0.70234212104E+01  0.17348274977E+03  0.17120000000E+03 0.  0.
        998    1    1    2    0    0  0.20194872174E+01 -0.35379560575E+01  0.14099186892E+04  0.14099600369E+04  0.10000000000E+02 0. -1.
</event>
<event>
 5    1  0.7732857E-009  0.3855001E+03  0.7957747E-01  0.3427554E+00
         13   -1    0    0    0    0  0.00000000000E+00  0.00000000000E+00  0.14999999963E+04  0.15000000000E+04  0.10566000000E+00 0.  1.
        994   -1    0    0    0    0 -0.00000000000E+00 -0.00000000000E+00  0.11368683772E-12  0.17120000000E+03  0.17120000000E+03 0.  0.
         13    1    1    2    0    0 -0.12218958052E+02  0.57003693282E+01  0.62799798655E+02  0.64231012926E+02  0.10566000000E+00 0.  1.
        994    1    1    2    0    0  0.13625772749E+02 -0.10155617899E+02  0.23308364968E+01  0.17205717380E+03  0.17120000000E+03 0.  0.
        998    1    1    2    0    0 -0.14068146972E+01  0.44552485709E+01  0.14348693611E+04  0.14349118133E+04  0.10000000000E+02 0.  1.
</event>
<event>
 5    1  0.7732857E-009  0.3830774E+03  0.7957747E-01  0.3437867E+00
         13   -1    0    0    0    0  0.00000000000E+00  0.00000000000E+00  0.14999999963E+04  0.15000000000E+04  0.10566000000E+00 0. -1.
        994   -1    0    0    0    0 -0.00000000000E+00 -0.00000000000E+00  0.11368683772E-12  0.17120000000E+03  0.17120000000E+03 0.  0.
         13    1    1    2    0    0  0.30497075065E+02  0.19946031197E+02  0.16961542358E+03  0.17348578855E+03  0.10566000000E+00 0. -1.
        994    1    1    2    0    0 -0.58879607661E+02 -0.45295357099E+02  0.21069417900E+02  0.18780798158E+03  0.17120000000E+03 0.  0.
        998    1    1    2    0    0  0.28382532596E+02  0.25349325902E+02  0.13093151548E+04  0.13099062299E+04  0.10000000000E+02 0. -1.
</event>
<event>
 5    1  0.7732857E-009  0.3098817E+03  0.7957747E-01  0.3827904E+00
         13   -1    0    0    0    0  0.00000000000E+00  0.00000000000E+00  0.14999999963E+04  0.15000000000E+04  0.10566000000E+00 0. -1.
        994   -1    0    0    0    0 -0.00000000000E+00 -0.00000000000E+00  0.11368683772E-12  0.17120000000E+03  0.17120000000E+03 0.  0.
         13    1    1    2    0    0 -0.23484388818E+03  0.91592635021E+02  0.39475586932E+03  0.46837278970E+03  0.10566000000E+00 0. -1.
        994    1    1    2    0    0  0.24308335648E+03 -0.10763759506E+03  0.46543118544E+03  0.56268196918E+03  0.17120000000E+03 0.  0.
        998    1    1    2    0    0 -0.82394682974E+01  0.16044960037E+02  0.63981294152E+03  0.64014524111E+03  0.10000000000E+02 0. -1.
</event>
<event>
 5    1  0.7732857E-009  0.3706420E+03  0.7957747E-01  0.3492946E+00
         13   -1    0    0    0    0  0.00000000000E+00  0.00000000000E+00  0.14999999963E+04  0.15000000000E+04  0.10566000000E+00 0. -1.
        994   -1    0    0    0    0 -0.00000000000E+00 -0.00000000000E+00  0.11368683772E-12  0.17120000000E+03  0.17120000000E+03 0.  0.
         13    1    1    2    0    0 -0.17750905043E+02  0.10155780824E+02  0.13695963759E+02  0.24613514607E+02  0.10566000000E+00 0. -1.
        994    1    1    2    0    0  0.12728885494E+02 -0.41910587634E+01  0.11908167845E+02  0.17213609140E+03  0.17120000000E+03 0.  0.
        998    1    1    2    0    0  0.50220195496E+01 -0.59647220603E+01  0.14743958647E+04  0.14744503940E+04  0.10000000000E+02 0. -1.
</event>
<event>
 5    1  0.1215614E-008  0.3859758E+03  0.7957747E-01  0.3425544E+00
         13   -1    0    0    0    0  0.00000000000E+00  0.00000000000E+00  0.14999999963E+04  0.15000000000E+04  0.10566000000E+00 0. -1.
        994   -1    0    0    0    0 -0.00000000000E+00 -0.00000000000E+00  0.11368683772E-12  0.17120000000E+03  0.17120000000E+03 0.  0.
         13    1    1    2    0    0  0.97586943921E+01  0.35292459942E+01  0.47083259769E+02  0.48213402785E+02  0.10566000000E+00 0. -1.
        994    1    1    2    0    0 -0.10385160685E+02  0.39840646688E+01  0.15521561216E+01  0.17156798513E+03  0.17120000000E+03 0.  0.
        998    1    1    2    0    0  0.62646629301E+00 -0.75133106631E+01  0.14513645804E+04  0.14514186121E+04  0.10000000000E+02 0. -1.
</event>
<event>
 5    1  0.7732857E-009  0.3821834E+03  0.7957747E-01  0.3441706E+00
         13   -1    0    0    0    0  0.00000000000E+00  0.00000000000E+00  0.14999999963E+04  0.15000000000E+04  0.10566000000E+00 0. -1.
        994   -1    0    0    0    0 -0.00000000000E+00 -0.00000000000E+00  0.11368683772E-12  0.17120000000E+03  0.17120000000E+03 0.  0.
         13    1    1    2    0    0  0.18302805082E+02  0.20639911542E+02  0.12902035685E+03  0.13193658427E+03  0.10566000000E+00 0. -1.
        994    1    1    2    0    0 -0.29605020548E+01 -0.12419114792E+02  0.35761960597E+01  0.17171263251E+03  0.17120000000E+03 0.  0.
        998    1    1    2    0    0 -0.15342303027E+02 -0.82207967508E+01  0.13674034434E+04  0.13675507832E+04  0.10000000000E+02 0. -1.
</event>
<event>
 5    1  0.7732857E-009  0.3836849E+03  0.7957747E-01  0.3435269E+00
         13   -1    0    0    0    0  0.00000000000E+00  0.00000000000E+00  0.14999999963E+04  0.15000000000E+04  0.10566000000E+00 0.  1.
        994   -1    0    0    0    0 -0.00000000000E+00 -0.00000000000E+00  0.11368683772E-12  0.17120000000E+03  0.17120000000E+03 0.  0.
         13    1    1    2    0    0  0.40282530439E+01 -0.10624033923E+02  0.26912686062E+02  0.29213023714E+02  0.10566000000E+00 0.  1.
        994    1    1    2    0    0 -0.56230763381E+01  0.12997439961E+02  0.29471302533E+01  0.17181000556E+03  0.17120000000E+03 0.  0.
        998    1    1    2    0    0  0.15948232942E+01 -0.23734060378E+01  0.14701401800E+04  0.14701769707E+04  0.10000000000E+02 0.  1.
</event>
<event>
 5    1  0.7732857E-009  0.3959898E+03  0.7957747E-01  0.3384360E+00
         13   -1    0    0    0    0  0.00000000000E+00  0.00000000000E+00  0.14999999963E+04  0.15000000000E+04  0.10566000000E+00 0. -1.
        994   -1    0    0    0    0 -0.00000000000E+00 -0.00000000000E+00  0.11368683772E-12  0.17120000000E+03  0.17120000000E+03 0.  0.
         13    1    1    2    0    0  0.67778684034E+02  0.54030504315E+02  0.16787253972E+03  0.18892973869E+03  0.10566000000E+00 0. -1.
        994    1    1    2    0    0  0.80078158405E+01 -0.20567454168E+02  0.27282326348E+02  0.17475957947E+03  0.17120000000E+03 0.  0.
        998    1    1    2    0    0 -0.75786499875E+02 -0.33463050148E+02  0.13048451302E+04  0.13075106818E+04  0.10000000000E+02 0. -1.
</event>
<event>
 5    1  0.7732857E-009  0.3853430E+03  0.7957747E-01  0.3428219E+00
         13   -1    0    0    0    0  0.00000000000E+00  0.00000000000E+00  0.14999999963E+04  0.15000000000E+04  0.10566000000E+00 0. -1.
        994   -1    0    0    0    0 -0.00000000000E+00 -0.00000000000E+00  0.11368683772E-12  0.17120000000E+03  0.17120000000E+03 0.  0.
         13    1    1    2    0    0 -0.10213126138E+02  0.71540958868E+01  0.58884613969E+02  0.60190513869E+02  0.10566000000E+00 0. -1.
        994    1    1    2    0    0 -0.12677865738E+02 -0.66677220736E+01  0.21342530170E+01  0.17181147177E+03  0.17120000000E+03 0.  0.
        998    1    1    2    0    0  0.22890991876E+02 -0.48637381317E+00  0.14389811293E+04  0.14391980144E+04  0.10000000000E+02 0. -1.
</event>
<event>
 5    1  0.7732857E-009  0.3804752E+03  0.7957747E-01  0.3449092E+00
         13   -1    0    0    0    0  0.00000000000E+00  0.00000000000E+00  0.14999999963E+04  0.15000000000E+04  0.10566000000E+00 0.  1.
        994   -1    0    0    0    0 -0.00000000000E+00 -0.00000000000E+00  0.11368683772E-12  0.17120000000E+03  0.17120000000E+03 0.  0.
         13    1    1    2    0    0 -0.32827855270E+02  0.12056371936E+02  0.16052775436E+03  0.16429301650E+03  0.10566000000E+00 0.  1.
        994    1    1    2    0    0  0.15776954661E+02 -0.35596819676E+01  0.47670010014E+01  0.17202833468E+03  0.17120000000E+03 0.  0.
        998    1    1    2    0    0  0.17050900609E+02 -0.84966899681E+01  0.13347052409E+04  0.13348786488E+04  0.10000000000E+02 0.  1.
</event>
<event>
 5    1  0.7732857E-009  0.3846759E+03  0.7957747E-01  0.3431048E+00
         13   -1    0    0    0    0  0.00000000000E+00  0.00000000000E+00  0.14999999963E+04  0.15000000000E+04  0.10566000000E+00 0.  1.
        994   -1    0    0    0    0 -0.00000000000E+00 -0.00000000000E+00  0.11368683772E-12  0.17120000000E+03  0.17120000000E+03 0.  0.
         13    1    1    2    0    0  0.62752874229E+00 -0.10665631889E+02  0.27822300981E+02  0.29803373833E+02  0.10566000000E+00 0.  1.
        994    1    1    2    0    0 -0.97179569392E+00  0.37934239488E+02  0.65460502598E+01  0.17547718281E+03  0.17120000000E+03 0.  0.
        998    1    1    2    0    0  0.34426695163E+00 -0.27268607599E+02  0.14656316450E+04  0.14659194434E+04  0.10000000000E+02 0.  1.
</event>
<event>
 5    1  0.7732857E-009  0.3809327E+03  0.7957747E-01  0.3447107E+00
         13   -1    0    0    0    0  0.00000000000E+00  0.00000000000E+00  0.14999999963E+04  0.15000000000E+04  0.10566000000E+00 0.  1.
        994   -1    0    0    0    0 -0.00000000000E+00 -0.00000000000E+00  0.11368683772E-12  0.17120000000E+03  0.17120000000E+03 0.  0.
         13    1    1    2    0    0 -0.38715152029E+02 -0.16027982490E+02  0.24957353525E+03  0.25306663131E+03  0.10566000000E+00 0.  1.
        994    1    1    2    0    0  0.20767523288E+02 -0.43334827724E+00  0.51023564058E+01  0.17253101708E+03  0.17120000000E+03 0.  0.
        998    1    1    2    0    0  0.17947628741E+02  0.16461330767E+02  0.12453241046E+04  0.12456023516E+04  0.10000000000E+02 0.  1.
</event>
<event>
 5    1  0.7732857E-009  0.3809661E+03  0.7957747E-01  0.3446963E+00
         13   -1    0    0    0    0  0.00000000000E+00  0.00000000000E+00  0.14999999963E+04  0.15000000000E+04  0.10566000000E+00 0.  1.
        994   -1    0    0    0    0 -0.00000000000E+00 -0.00000000000E+00  0.11368683772E-12  0.17120000000E+03  0.17120000000E+03 0.  0.
         13    1    1    2    0    0 -0.11554219527E+02  0.61875149114E+01  0.21659263001E+02  0.25316401155E+02  0.10566000000E+00 0.  1.
        994    1    1    2    0    0  0.13012226006E+02 -0.93623248000E+01  0.45030142114E+01  0.17200781461E+03  0.17120000000E+03 0.  0.
        998    1    1    2    0    0 -0.14580064797E+01  0.31748098886E+01  0.14738377191E+04  0.14738757842E+04  0.10000000000E+02 0.  1.
</event>
<event>
 5    1  0.7732857E-009  0.3758783E+03  0.7957747E-01  0.3469304E+00
         13   -1    0    0    0    0  0.00000000000E+00  0.00000000000E+00  0.14999999963E+04  0.15000000000E+04  0.10566000000E+00 0.  1.
        994   -1    0    0    0    0 -0.00000000000E+00 -0.00000000000E+00  0.11368683772E-12  0.17120000000E+03  0.17120000000E+03 0.  0.
         13    1    1    2    0    0  0.51021513516E+02 -0.40843321735E+02  0.29581578930E+03  0.30294944155E+03  0.10566000000E+00 0.  1.
        994    1    1    2    0    0 -0.42743057931E+02  0.36253870242E+02  0.16950107479E+02  0.18093661391E+03  0.17120000000E+03 0.  0.
        998    1    1    2    0    0 -0.82784555848E+01  0.45894514933E+01  0.11872340995E+04  0.11873139445E+04  0.10000000000E+02 0.  1.
</event>
<event>
 5    1  0.7732857E-009  0.3748269E+03  0.7957747E-01  0.3473997E+00
         13   -1    0    0    0    0  0.00000000000E+00  0.00000000000E+00  0.14999999963E+04  0.15000000000E+04  0.10566000000E+00 0.  1.
        994   -1    0    0    0    0 -0.00000000000E+00 -0.00000000000E+00  0.11368683772E-12  0.17120000000E+03  0.17120000000E+03 0.  0.
         13    1    1    2    0    0 -0.64243558024E+01 -0.66047574705E+02  0.31689183829E+03  0.32376535147E+03  0.10566000000E+00 0.  1.
        994    1    1    2    0    0  0.22343182439E+02  0.38926599623E+02  0.13650319815E+02  0.17751132130E+03  0.17120000000E+03 0.  0.
        998    1    1    2    0    0 -0.15918826637E+02  0.27120975082E+02  0.11694578382E+04  0.11699233272E+04  0.10000000000E+02 0.  1.
</event>
<event>
 5    1  0.7732857E-009  0.3833856E+03  0.7957747E-01  0.3436548E+00
         13   -1    0    0    0    0  0.00000000000E+00  0.00000000000E+00  0.14999999963E+04  0.15000000000E+04  0.10566000000E+00 0. -1.
        994   -1    0    0    0    0 -0.00000000000E+00 -0.00000000000E+00  0.11368683772E-12  0.17120000000E+03  0.17120000000E+03 0.  0.
         13    1    1    2    0    0  0.29321485151E+00 -0.25628065055E+02  0.12400093458E+03  0.12662198322E+03  0.10566000000E+00 0. -1.
        994    1    1    2    0    0  0.33704999034E+01  0.26739383403E+02  0.48387718275E+01  0.17337591703E+03  0.17120000000E+03 0.  0.
        998    1    1    2    0    0 -0.36637147549E+01 -0.11113183475E+01  0.13711602899E+04  0.13712020997E+04  0.10000000000E+02 0. -1.
</event>
<event>
 5    1  0.7732857E-009  0.3785897E+03  0.7957747E-01  0.3457322E+00
         13   -1    0    0    0    0  0.00000000000E+00  0.00000000000E+00  0.14999999963E+04  0.15000000000E+04  0.10566000000E+00 0. -1.
        994   -1    0    0    0    0 -0.00000000000E+00 -0.00000000000E+00  0.11368683772E-12  0.17120000000E+03  0.17120000000E+03 0.  0.
         13    1    1    2    0    0  0.28069169304E+02 -0.31578694259E+02  0.24431199288E+03  0.24793840612E+03  0.10566000000E+00 0. -1.
        994    1    1    2    0    0  0.69269740436E+01 -0.93246725617E+01  0.53000479091E+01  0.17167545834E+03  0.17120000000E+03 0.  0.
        998    1    1    2    0    0 -0.34996143348E+02  0.40903366821E+02  0.12503879555E+04  0.12515861355E+04  0.10000000000E+02 0. -1.
</event>
<event>
 5    1  0.7732857E-009  0.3739886E+03  0.7957747E-01  0.3477759E+00
         13   -1    0    0    0    0  0.00000000000E+00  0.00000000000E+00  0.14999999963E+04  0.15000000000E+04  0.10566000000E+00 0.  1.
        994   -1    0    0    0    0 -0.00000000000E+00 -0.00000000000E+00  0.11368683772E-12  0.17120000000E+03  0.17120000000E+03 0.  0.
         13    1    1    2    0    0 -0.63502464199E+02  0.62704705379E+02  0.45887032731E+03  0.46746810745E+03  0.10566000000E+00 0.  1.
        994    1    1    2    0    0  0.63916847979E+02 -0.36901800168E+02  0.26011988013E+02  0.18823700442E+03  0.17120000000E+03 0.  0.
        998    1    1    2    0    0 -0.41438377964E+00 -0.25802905211E+02  0.10151176810E+04  0.10154948881E+04  0.10000000000E+02 0.  1.
</event>
<event>
 5    1  0.7732857E-009  0.4120886E+03  0.7957747E-01  0.3322329E+00
         13   -1    0    0    0    0  0.00000000000E+00  0.00000000000E+00  0.14999999963E+04  0.15000000000E+04  0.10566000000E+00 0.  1.
        994   -1    0    0    0    0 -0.00000000000E+00 -0.00000000000E+00  0.11368683772E-12  0.17120000000E+03  0.17120000000E+03 0.  0.
         13    1    1    2    0    0  0.78828698039E+02 -0.11281491374E+03  0.34976563827E+03  0.37586856915E+03  0.10566000000E+00 0.  1.
        994    1    1    2    0    0  0.74968399117E+02  0.88334023458E+02  0.93057377684E+02  0.22669864602E+03  0.17120000000E+03 0.  0.
        998    1    1    2    0    0 -0.15379709716E+03  0.24480890281E+02  0.10571769803E+04  0.10686327848E+04  0.10000000000E+02 0.  1.
</event>
<event>
 5    1  0.7732857E-009  0.3727729E+03  0.7957747E-01  0.3483243E+00
         13   -1    0    0    0    0  0.00000000000E+00  0.00000000000E+00  0.14999999963E+04  0.15000000000E+04  0.10566000000E+00 0. -1.
        994   -1    0    0    0    0 -0.00000000000E+00 -0.00000000000E+00  0.11368683772E-12  0.17120000000E+03  0.17120000000E+03 0.  0.
         13    1    1    2    0    0 -0.67534686706E+01  0.18841550680E+02  0.22876289014E+02  0.30396531615E+02  0.10566000000E+00 0. -1.
        994    1    1    2    0    0 -0.14350282035E+02 -0.82432321908E+01  0.87654123044E+01  0.17222123540E+03  0.17120000000E+03 0.  0.
        998    1    1    2    0    0  0.21103750705E+02 -0.10598318489E+02  0.14683582950E+04  0.14685822330E+04  0.10000000000E+02 0. -1.
</event>
<event>
 5    1  0.7732857E-009  0.3832645E+03  0.7957747E-01  0.3437066E+00
         13   -1    0    0    0    0  0.00000000000E+00  0.00000000000E+00  0.14999999963E+04  0.15000000000E+04  0.10566000000E+00 0.  1.
        994   -1    0    0    0    0 -0.00000000000E+00 -0.00000000000E+00  0.11368683772E-12  0.17120000000E+03  0.17120000000E+03 0.  0.
         13    1    1    2    0    0 -0.22140927238E+02 -0.18614810661E+01  0.77574224421E+02  0.80693600919E+02  0.10566000000E+00 0.  1.
        994    1    1    2    0    0  0.54798430832E+02  0.43678925173E+02  0.18908270405E+02  0.18595074406E+03  0.17120000000E+03 0.  0.
        998    1    1    2    0    0 -0.32657503594E+02 -0.41817444107E+02  0.14035175015E+04  0.14045556550E+04  0.10000000000E+02 0.  1.
</event>
<event>
 5    1  0.7732857E-009  0.3722751E+03  0.7957747E-01  0.3485500E+00
         13   -1    0    0    0    0  0.00000000000E+00  0.00000000000E+00  0.14999999963E+04  0.15000000000E+04  0.10566000000E+00 0. -1.
        994   -1    0    0    0    0 -0.00000000000E+00 -0.00000000000E+00  0.11368683772E-12  0.17120000000E+03  0.17120000000E+03 0.  0.
         13    1    1    2    0    0  0.44759689352E+02 -0.35005282036E+02  0.22566353691E+03  0.23270763334E+03  0.10566000000E+00 0. -1.
        994    1    1    2    0    0  0.15875001326E+01  0.19453174645E+02  0.93927131150E+01  0.17256479716E+03  0.17120000000E+03 0.  0.
        998    1    1    2    0    0 -0.46347189485E+02  0.15552107391E+02  0.12649437463E+04  0.12659275695E+04  0.10000000000E+02 0. -1.
</event>
<event>
 5    1  0.7732857E-009  0.3825795E+03  0.7957747E-01  0.3440003E+00
         13   -1    0    0    0    0  0.00000000000E+00  0.00000000000E+00  0.14999999963E+04  0.15000000000E+04  0.10566000000E+00 0. -1.
        994   -1    0    0    0    0 -0.00000000000E+00 -0.00000000000E+00  0.11368683772E-12  0.17120000000E+03  0.17120000000E+03 0.  0.
         13    1    1    2    0    0  0.18826557186E+02 -0.27415284950E-02  0.58931930682E+02  0.61866169115E+02  0.10566000000E+00 0. -1.
        994    1    1    2    0    0 -0.21600426307E+02  0.16089332482E+01  0.43933190406E+01  0.17262070657E+03  0.17120000000E+03 0.  0.
        998    1    1    2    0    0  0.27738691207E+01 -0.16061917197E+01  0.14366747466E+04  0.14367131243E+04  0.10000000000E+02 0. -1.
</event>
<event>
 5    1  0.7732857E-009  0.3692914E+03  0.7957747E-01  0.3499154E+00
         13   -1    0    0    0    0  0.00000000000E+00  0.00000000000E+00  0.14999999963E+04  0.15000000000E+04  0.10566000000E+00 0. -1.
        994   -1    0    0    0    0 -0.00000000000E+00 -0.00000000000E+00  0.11368683772E-12  0.17120000000E+03  0.17120000000E+03 0.  0.
         13    1    1    2    0    0 -0.86756741194E+01  0.66721323299E+02  0.21433145962E+03  0.22464413647E+03  0.10566000000E+00 0. -1.
        994    1    1    2    0    0 -0.63647585884E+01 -0.55630892069E+02  0.20587132088E+02  0.18129692858E+03  0.17120000000E+03 0.  0.
        998    1    1    2    0    0  0.15040432708E+02 -0.11090431230E+02  0.12650814046E+04  0.12652589350E+04  0.10000000000E+02 0. -1.
</event>
<event>
 5    1  0.7732857E-009  0.3740907E+03  0.7957747E-01  0.3477299E+00
         13   -1    0    0    0    0  0.00000000000E+00  0.00000000000E+00  0.14999999963E+04  0.15000000000E+04  0.10566000000E+00 0.  1.
        994   -1    0    0    0    0 -0.00000000000E+00 -0.00000000000E+00  0.11368683772E-12  0.17120000000E+03  0.17120000000E+03 0.  0.
         13    1    1    2    0    0 -0.12717453723E+02 -0.11023096420E+02  0.18248129877E+02  0.24824336686E+02  0.10566000000E+00 0.  1.
        994    1    1    2    0    0 -0.24497374060E+02 -0.11614657255E+02  0.96566380823E+01  0.17360216663E+03  0.17120000000E+03 0.  0.
        998    1    1    2    0    0  0.37214827782E+02  0.22637753675E+02  0.14720952283E+04  0.14727734967E+04  0.10000000000E+02 0.  1.
</event>
<event>
 5    1  0.7732857E-009  0.3755231E+03  0.7957747E-01  0.3470887E+00
         13   -1    0    0    0    0  0.00000000000E+00  0.00000000000E+00  0.14999999963E+04  0.15000000000E+04  0.10566000000E+00 0.  1.
        994   -1    0    0    0    0 -0.00000000000E+00 -0.00000000000E+00  0.11368683772E-12  0.17120000000E+03  0.17120000000E+03 0.  0.
         13    1    1    2    0    0 -0.58984389132E+02 -0.11244042922E+03  0.40104343705E+03  0.42066359226E+03  0.10566000000E+00 0.  1.
        994    1    1    2    0    0  0.33229335939E+02  0.12912317753E+03  0.80310068609E+02  0.23137876061E+03  0.17120000000E+03 0.  0.
        998    1    1    2    0    0  0.25755053193E+02 -0.16682748306E+02  0.10186464906E+04  0.10191576471E+04  0.10000000000E+02 0. -1.
</event>
<event>
 5    1  0.7732857E-009  0.3831555E+03  0.7957747E-01  0.3437533E+00
         13   -1    0    0    0    0  0.00000000000E+00  0.00000000000E+00  0.14999999963E+04  0.15000000000E+04  0.10566000000E+00 0. -1.
        994   -1    0    0    0    0 -0.00000000000E+00 -0.00000000000E+00  0.11368683772E-12  0.17120000000E+03  0.17120000000E+03 0.  0.
         13    1    1    2    0    0 -0.16861213825E+02  0.28800563263E+01  0.55262768082E+02  0.57849632291E+02  0.10566000000E+00 0. -1.
        994    1    1    2    0    0  0.16588273141E+02 -0.72720047010E+00  0.34613216281E+01  0.17203813639E+03  0.17120000000E+03 0.  0.
        998    1    1    2    0    0  0.27294068371E+00 -0.21528558562E+01  0.14412759066E+04  0.14413122313E+04  0.10000000000E+02 0. -1.
</event>
<event>
 5    1  0.7732857E-009  0.3745994E+03  0.7957747E-01  0.3475017E+00
         13   -1    0    0    0    0  0.00000000000E+00  0.00000000000E+00  0.14999999963E+04  0.15000000000E+04  0.10566000000E+00 0.  1.
        994   -1    0    0    0    0 -0.00000000000E+00 -0.00000000000E+00  0.11368683772E-12  0.17120000000E+03  0.17120000000E+03 0.  0.
         13    1    1    2    0    0 -0.10045055936E+03 -0.77887025839E+01  0.60893463363E+03  0.61721339743E+03  0.10566000000E+00 0.  1.
        994    1    1    2    0    0  0.75301792226E+02 -0.12889392761E+01  0.26443228249E+02  0.18889337097E+03  0.17120000000E+03 0.  0.
        998    1    1    2    0    0  0.25148767134E+02  0.90776418600E+01  0.86462213440E+03  0.86509323160E+03  0.10000000000E+02 0. -1.
</event>
<event>
 5    1  0.7732857E-009  0.3832062E+03  0.7957747E-01  0.3437316E+00
         13   -1    0    0    0    0  0.00000000000E+00  0.00000000000E+00  0.14999999963E+04  0.15000000000E+04  0.10566000000E+00 0.  1.
        994   -1    0    0    0    0 -0.00000000000E+00 -0.00000000000E+00  0.11368683772E-12  0.17120000000E+03  0.17120000000E+03 0.  0.
         13    1    1    2    0    0 -0.12405974127E+02  0.26060379819E+02  0.17354960289E+03  0.17593330389E+03  0.10566000000E+00 0.  1.
        994    1    1    2    0    0  0.52458797405E+01 -0.94872361624E+01  0.29122146306E+01  0.17156761903E+03  0.17120000000E+03 0.  0.
        998    1    1    2    0    0  0.71600943864E+01 -0.16573143657E+02  0.13235381788E+04  0.13236990771E+04  0.10000000000E+02 0.  1.
</event>
<event>
 5    1  0.7732857E-009  0.3771063E+03  0.7957747E-01  0.3463856E+00
         13   -1    0    0    0    0  0.00000000000E+00  0.00000000000E+00  0.14999999963E+04  0.15000000000E+04  0.10566000000E+00 0. -1.
        994   -1    0    0    0    0 -0.00000000000E+00 -0.00000000000E+00  0.11368683772E-12  0.17120000000E+03  0.17120000000E+03 0.  0.
         13    1    1    2    0    0  0.52911553788E+01 -0.12529281291E+02  0.14311002449E+02  0.19743230992E+02  0.10566000000E+00 0. -1.
        994    1    1    2    0    0 -0.26940342383E+02 -0.98871043112E+01  0.83856831268E+01  0.17379095650E+03  0.17120000000E+03 0.  0.
        998    1    1    2    0    0  0.21649187004E+02  0.22416385602E+02  0.14773033107E+04  0.14776658125E+04  0.10000000000E+02 0. -1.
</event>
<event>
 5    1  0.7732857E-009  0.3702424E+03  0.7957747E-01  0.3494778E+00
         13   -1    0    0    0    0  0.00000000000E+00  0.00000000000E+00  0.14999999963E+04  0.15000000000E+04  0.10566000000E+00 0. -1.
        994   -1    0    0    0    0 -0.00000000000E+00 -0.00000000000E+00  0.11368683772E-12  0.17120000000E+03  0.17120000000E+03 0.  0.
         13    1    1    2    0    0 -0.58629007607E+02  0.18840837061E+02  0.15277886270E+03  0.16472319122E+03  0.10566000000E+00 0. -1.
        994    1    1    2    0    0  0.47255902358E+02 -0.47953719612E+02  0.27099761735E+02  0.18594761794E+03  0.17120000000E+03 0.  0.
        998    1    1    2    0    0  0.11373105249E+02  0.29112882551E+02  0.13201213718E+04  0.13205291908E+04  0.10000000000E+02 0. -1.
</event>
<event>
 5    1  0.7732857E-009  0.3712880E+03  0.7957747E-01  0.3489992E+00
         13   -1    0    0    0    0  0.00000000000E+00  0.00000000000E+00  0.14999999963E+04  0.15000000000E+04  0.10566000000E+00 0.  1.
        994   -1    0    0    0    0 -0.00000000000E+00 -0.00000000000E+00  0.11368683772E-12  0.17120000000E+03  0.17120000000E+03 0.  0.
         13    1    1    2    0    0 -0.87134966422E+02  0.10230781755E+02  0.34765263749E+03  0.35855200290E+03  0.10566000000E+00 0.  1.
        994    1    1    2    0    0  0.49443976403E+02  0.40248444539E+02  0.26035853019E+02  0.18453170387E+03  0.17120000000E+03 0.  0.
        998    1    1    2    0    0  0.37690990019E+02 -0.50479226294E+02  0.11263115058E+04  0.11281162932E+04  0.10000000000E+02 0.  1.
</event>
<event>
 5    1  0.7732857E-009  0.3846445E+03  0.7957747E-01  0.3431181E+00
         13   -1    0    0    0    0  0.00000000000E+00  0.00000000000E+00  0.14999999963E+04  0.15000000000E+04  0.10566000000E+00 0. -1.
        994   -1    0    0    0    0 -0.00000000000E+00 -0.00000000000E+00  0.11368683772E-12  0.17120000000E+03  0.17120000000E+03 0.  0.
         13    1    1    2    0    0  0.16944445958E+02 -0.29880283932E+01  0.83814066839E+02  0.85561974770E+02  0.10566000000E+00 0. -1.
        994    1    1    2    0    0 -0.94481977378E+01 -0.92942856506E+01  0.23852930383E+01  0.17172880309E+03  0.17120000000E+03 0.  0.
        998    1    1    2    0    0 -0.74962482197E+01  0.12282314044E+02  0.14138006364E+04  0.14139092221E+04  0.10000000000E+02 0. -1.
</event>
<event>
 5    1  0.7732857E-009  0.3821109E+03  0.7957747E-01  0.3442019E+00
         13   -1    0    0    0    0  0.00000000000E+00  0.00000000000E+00  0.14999999963E+04  0.15000000000E+04  0.10566000000E+00 0. -1.
        994   -1    0    0    0    0 -0.00000000000E+00 -0.00000000000E+00  0.11368683772E-12  0.17120000000E+03  0.17120000000E+03 0.  0.
         13    1    1    2    0    0  0.21704240374E+01 -0.17903367553E+02  0.51929132442E+02  0.54971695175E+02  0.10566000000E+00 0. -1.
        994    1    1    2    0    0 -0.43863964424E+01  0.11312491491E+02  0.35602358719E+01  0.17166632814E+03  0.17120000000E+03 0.  0.
        998    1    1    2    0    0  0.22159724050E+01  0.65908760623E+01  0.14445106280E+04  0.14445619767E+04  0.10000000000E+02 0. -1.
</event>
<event>
 5    1  0.7732857E-009  0.3837661E+03  0.7957747E-01  0.3434922E+00
         13   -1    0    0    0    0  0.00000000000E+00  0.00000000000E+00  0.14999999963E+04  0.15000000000E+04  0.10566000000E+00 0.  1.
        994   -1    0    0    0    0 -0.00000000000E+00 -0.00000000000E+00  0.11368683772E-12  0.17120000000E+03  0.17120000000E+03 0.  0.
         13    1    1    2    0    0 -0.63770330084E+01  0.19950852558E+02  0.90685067871E+02  0.93072529603E+02  0.10566000000E+00 0.  1.
        994    1    1    2    0    0  0.56590541444E+01 -0.23539443748E+02  0.41817233187E+01  0.17295391616E+03  0.17120000000E+03 0.  0.
        998    1    1    2    0    0  0.71797886403E+00  0.35885911892E+01  0.14051332051E+04  0.14051735542E+04  0.10000000000E+02 0.  0.
</event>
<event>
 5    1  0.7732857E-009  0.3915083E+03  0.7957747E-01  0.3402530E+00
         13   -1    0    0    0    0  0.00000000000E+00  0.00000000000E+00  0.14999999963E+04  0.15000000000E+04  0.10566000000E+00 0.  1.
        994   -1    0    0    0    0 -0.00000000000E+00 -0.00000000000E+00  0.11368683772E-12  0.17120000000E+03  0.17120000000E+03 0.  0.
         13    1    1    2    0    0 -0.70806671737E+02  0.11069095915E+03  0.42550168397E+03  0.44532883067E+03  0.10566000000E+00 0.  1.
        994    1    1    2    0    0  0.81366337413E+02 -0.18778397947E+02  0.49700418267E+02  0.19685700564E+03  0.17120000000E+03 0.  0.
        998    1    1    2    0    0 -0.10559665676E+02 -0.91912561201E+02  0.10247978940E+04  0.10290141637E+04  0.10000000000E+02 0.  1.
</event>
<event>
 5    1  0.7732857E-009  0.3766206E+03  0.7957747E-01  0.3466007E+00
         13   -1    0    0    0    0  0.00000000000E+00  0.00000000000E+00  0.14999999963E+04  0.15000000000E+04  0.10566000000E+00 0.  1.
        994   -1    0    0    0    0 -0.00000000000E+00 -0.00000000000E+00  0.11368683772E-12  0.17120000000E+03  0.17120000000E+03 0.  0.
         13    1    1    2    0    0  0.35901583358E+02 -0.38967978481E+02  0.27972504588E+03  0.28469903317E+03  0.10566000000E+00 0.  1.
        994    1    1    2    0    0 -0.51422044357E+02 -0.27088217634E+02  0.17355555537E+02  0.18162778832E+03  0.17120000000E+03 0.  0.
        998    1    1    2    0    0  0.15520460999E+02  0.66056196116E+02  0.12029193949E+04  0.12048731785E+04  0.10000000000E+02 0.  1.
</event>
<event>
 5    1  0.7732857E-009  0.3751808E+03  0.7957747E-01  0.3472415E+00
         13   -1    0    0    0    0  0.00000000000E+00  0.00000000000E+00  0.14999999963E+04  0.15000000000E+04  0.10566000000E+00 0. -1.
        994   -1    0    0    0    0 -0.00000000000E+00 -0.00000000000E+00  0.11368683772E-12  0.17120000000E+03  0.17120000000E+03 0.  0.
         13    1    1    2    0    0  0.25318683488E+02 -0.10470653191E+02  0.59120298330E+02  0.65160502994E+02  0.10566000000E+00 0. -1.
        994    1    1    2    0    0  0.14337906910E+02  0.17982851216E+02  0.83849293743E+01  0.17294133558E+03  0.17120000000E+03 0.  0.
        998    1    1    2    0    0 -0.39656590398E+02 -0.75121980250E+01  0.14324947686E+04  0.14330981614E+04  0.10000000000E+02 0. -1.
</event>
<event>
 5    1  0.7732857E-009  0.3749170E+03  0.7957747E-01  0.3473594E+00
         13   -1    0    0    0    0  0.00000000000E+00  0.00000000000E+00  0.14999999963E+04  0.15000000000E+04  0.10566000000E+00 0.  1.
        994   -1    0    0    0    0 -0.00000000000E+00 -0.00000000000E+00  0.11368683772E-12  0.17120000000E+03  0.17120000000E+03 0.  0.
         13    1    1    2    0    0 -0.35632107891E+02 -0.25769281638E+02  0.16918801930E+03  0.17480932478E+03  0.10566000000E+00 0.  1.
        994    1    1    2    0    0 -0.78985266975E+01  0.71740724596E+00  0.69352727404E+01  0.17152387415E+03  0.17120000000E+03 0.  0.
        998    1    1    2    0    0  0.43530634588E+02  0.25051874392E+02  0.13238767042E+04  0.13248668011E+04  0.10000000000E+02 0.  1.
</event>
<event>
 5    1  0.7732857E-009  0.4135567E+03  0.7957747E-01  0.3316910E+00
         13   -1    0    0    0    0  0.00000000000E+00  0.00000000000E+00  0.14999999963E+04  0.15000000000E+04  0.10566000000E+00 0.  1.
        994   -1    0    0    0    0 -0.00000000000E+00 -0.00000000000E+00  0.11368683772E-12  0.17120000000E+03  0.17120000000E+03 0.  0.
         13    1    1    2    0    0 -0.22533834825E+02 -0.29870943023E+02  0.23379835760E+01  0.37490322488E+02  0.10566000000E+00 0.  1.
        994    1    1    2    0    0  0.28770320979E+02  0.94934723787E+02  0.78275009925E+02  0.21278334129E+03  0.17120000000E+03 0.  0.
        998    1    1    2    0    0 -0.62364861535E+01 -0.65063780764E+02  0.14193870028E+04  0.14209263362E+04  0.10000000000E+02 0.  1.
</event>
<event>
 5    1  0.7732857E-009  0.3700506E+03  0.7957747E-01  0.3495659E+00
         13   -1    0    0    0    0  0.00000000000E+00  0.00000000000E+00  0.14999999963E+04  0.15000000000E+04  0.10566000000E+00 0.  1.
        994   -1    0    0    0    0 -0.00000000000E+00 -0.00000000000E+00  0.11368683772E-12  0.17120000000E+03  0.17120000000E+03 0.  0.
         13    1    1    2    0    0  0.16188949741E+02 -0.46051152208E+02  0.98301449042E+02  0.10975416512E+03  0.10566000000E+00 0.  1.
        994    1    1    2    0    0 -0.32986265228E+02  0.40615126059E+02  0.20600230985E+02  0.18019847856E+03  0.17120000000E+03 0.  0.
        998    1    1    2    0    0  0.16797315487E+02  0.54360261489E+01  0.13810983163E+04  0.13812473563E+04  0.10000000000E+02 0.  1.
</event>
<event>
 5    1  0.7732857E-009  0.3854130E+03  0.7957747E-01  0.3427922E+00
         13   -1    0    0    0    0  0.00000000000E+00  0.00000000000E+00  0.14999999963E+04  0.15000000000E+04  0.10566000000E+00 0. -1.
        994   -1    0    0    0    0 -0.00000000000E+00 -0.00000000000E+00  0.11368683772E-12  0.17120000000E+03  0.17120000000E+03 0.  0.
         13    1    1    2    0    0 -0.89236898998E+01 -0.12094408421E+02  0.75126188278E+02  0.76615026501E+02  0.10566000000E+00 0. -1.
        994    1    1    2    0    0  0.18026165666E+02  0.90627915712E+01  0.27632933332E+01  0.17240693904E+03  0.17120000000E+03 0.  0.
        998    1    1    2    0    0 -0.91024757662E+01  0.30316168500E+01  0.14221105147E+04  0.14221780345E+04  0.10000000000E+02 0.  1.
</event>
<event>
 5    1  0.7732857E-009  0.3781094E+03  0.7957747E-01  0.3459432E+00
         13   -1    0    0    0    0  0.00000000000E+00  0.00000000000E+00  0.14999999963E+04  0.15000000000E+04  0.10566000000E+00 0. -1.
        994   -1    0    0    0    0 -0.00000000000E+00 -0.00000000000E+00  0.11368683772E-12  0.17120000000E+03  0.17120000000E+03 0.  0.
         13    1    1    2    0    0  0.47295664791E+02  0.12274366439E+02  0.24561327480E+03  0.25042650000E+03  0.10566000000E+00 0. -1.
        994    1    1    2    0    0 -0.18540016125E+02 -0.12177915241E+02  0.67474761348E+01  0.17276284974E+03  0.17120000000E+03 0.  0.
        998    1    1    2    0    0 -0.28755648666E+02 -0.96451198463E-01  0.12476392453E+04  0.12480106503E+04  0.10000000000E+02 0. -1.
</event>
<event>
 5    1  0.7732857E-009  0.3724921E+03  0.7957747E-01  0.3484515E+00
         13   -1    0    0    0    0  0.00000000000E+00  0.00000000000E+00  0.14999999963E+04  0.15000000000E+04  0.10566000000E+00 0. -1.
        994   -1    0    0    0    0 -0.00000000000E+00 -0.00000000000E+00  0.11368683772E-12  0.17120000000E+03  0.17120000000E+03 0.  0.
         13    1    1    2    0    0 -0.22502071766E+02  0.32854128317E+00  0.14887065418E+02  0.26983088295E+02  0.10566000000E+00 0. -1.
        994    1    1    2    0    0  0.29881443185E+02  0.13904213757E+02  0.16103169374E+02  0.17508563582E+03  0.17120000000E+03 0.  0.
        998    1    1    2    0    0 -0.73793714199E+01 -0.14232755041E+02  0.14690097615E+04  0.14691312759E+04  0.10000000000E+02 0. -1.
</event>
<event>
 5    1  0.7732857E-009  0.3785077E+03  0.7957747E-01  0.3457682E+00
         13   -1    0    0    0    0  0.00000000000E+00  0.00000000000E+00  0.14999999963E+04  0.15000000000E+04  0.10566000000E+00 0.  1.
        994   -1    0    0    0    0 -0.00000000000E+00 -0.00000000000E+00  0.11368683772E-12  0.17120000000E+03  0.17120000000E+03 0.  0.
         13    1    1    2    0    0 -0.95257410146E+01  0.30697465221E+02  0.11558540924E+03  0.11997113030E+03  0.10566000000E+00 0.  1.
        994    1    1    2    0    0 -0.13907405789E+02 -0.34944882247E+01  0.55794263865E+01  0.17189007354E+03  0.17120000000E+03 0.  0.
        998    1    1    2    0    0  0.23433146804E+02 -0.27202976996E+02  0.13788351607E+04  0.13793387962E+04  0.10000000000E+02 0.  1.
</event>
<event>
 5    1  0.7732857E-009  0.3784429E+03  0.7957747E-01  0.3457967E+00
         13   -1    0    0    0    0  0.00000000000E+00  0.00000000000E+00  0.14999999963E+04  0.15000000000E+04  0.10566000000E+00 0. -1.
        994   -1    0    0    0    0 -0.00000000000E+00 -0.00000000000E+00  0.11368683772E-12  0.17120000000E+03  0.17120000000E+03 0.  0.
         13    1    1    2    0    0  0.67304879361E+02  0.50445097458E+02  0.48373431542E+03  0.49099241717E+03  0.10566000000E+00 0. -1.
        994    1    1    2    0    0 -0.70496677876E+02 -0.45871256944E+02  0.29071503331E+02  0.19294700337E+03  0.17120000000E+03 0.  0.
        998    1    1    2    0    0  0.31917985143E+01 -0.45738405134E+01  0.98719417753E+03  0.98726057946E+03  0.10000000000E+02 0.  0.
</event>
<event>
 5    1  0.7732857E-009  0.3821975E+03  0.7957747E-01  0.3441645E+00
         13   -1    0    0    0    0  0.00000000000E+00  0.00000000000E+00  0.14999999963E+04  0.15000000000E+04  0.10566000000E+00 0. -1.
        994   -1    0    0    0    0 -0.00000000000E+00 -0.00000000000E+00  0.11368683772E-12  0.17120000000E+03  0.17120000000E+03 0.  0.
         13    1    1    2    0    0 -0.92010786598E+00  0.17881873029E+02  0.54208604280E+02  0.57089332834E+02  0.10566000000E+00 0. -1.
        994    1    1    2    0    0  0.24071496176E+02 -0.11246582402E+01  0.49575566609E+01  0.17295872095E+03  0.17120000000E+03 0.  0.
        998    1    1    2    0    0 -0.23151388310E+02 -0.16757214789E+02  0.14408338353E+04  0.14411519462E+04  0.10000000000E+02 0. -1.
</event>
<event>
 5    1  0.7732857E-009  0.3786890E+03  0.7957747E-01  0.3456887E+00
         13   -1    0    0    0    0  0.00000000000E+00  0.00000000000E+00  0.14999999963E+04  0.15000000000E+04  0.10566000000E+00 0.  1.
        994   -1    0    0    0    0 -0.00000000000E+00 -0.00000000000E+00  0.11368683772E-12  0.17120000000E+03  0.17120000000E+03 0.  0.
         13    1    1    2    0    0  0.54198545043E+02 -0.59892581322E+02  0.46984468145E+03  0.47673749531E+03  0.10566000000E+00 0.  1.
        994    1    1    2    0    0 -0.54070128525E+02  0.58513887010E+02  0.26412122255E+02  0.19066854479E+03  0.17120000000E+03 0.  0.
        998    1    1    2    0    0 -0.12841651823E+00  0.13786943121E+01  0.10037431926E+04  0.10037939599E+04  0.10000000000E+02 0.  0.
</event>
<event>
 5    1  0.7732857E-009  0.3720254E+03  0.7957747E-01  0.3486634E+00
         13   -1    0    0    0    0  0.00000000000E+00  0.00000000000E+00  0.14999999963E+04  0.15000000000E+04  0.10566000000E+00 0.  1.
        994   -1    0    0    0    0 -0.00000000000E+00 -0.00000000000E+00  0.11368683772E-12  0.17120000000E+03  0.17120000000E+03 0.  0.
         13    1    1    2    0    0 -0.32380280836E+02  0.10379449699E+02  0.70252024263E+02  0.78048533876E+02  0.10566000000E+00 0.  1.
        994    1    1    2    0    0  0.66383113933E+01 -0.95726791416E+01  0.86803291722E+01  0.17181528302E+03  0.17120000000E+03 0.  0.
        998    1    1    2    0    0  0.25741969443E+02 -0.80677055749E+00  0.14210676428E+04  0.14213361831E+04  0.10000000000E+02 0.  1.
</event>
<event>
 5    1  0.7732857E-009  0.3839878E+03  0.7957747E-01  0.3433976E+00
         13   -1    0    0    0    0  0.00000000000E+00  0.00000000000E+00  0.14999999963E+04  0.15000000000E+04  0.10566000000E+00 0.  1.
        994   -1    0    0    0    0 -0.00000000000E+00 -0.00000000000E+00  0.11368683772E-12  0.17120000000E+03  0.17120000000E+03 0.  0.
         13    1    1    2    0    0  0.20423112385E+02  0.73179831934E+01  0.10309841528E+03  0.10535630401E+03  0.10566000000E+00 0.  1.
        994    1    1    2    0    0 -0.21304259727E+02 -0.77515152012E+01  0.38311338630E+01  0.17273701125E+03  0.17120000000E+03 0.  0.
        998    1    1    2    0    0  0.88114734230E+00  0.43353200777E+00  0.13930704471E+04  0.13931066847E+04  0.10000000000E+02 0.  0.
</event>
<event>
 5    1  0.7732857E-009  0.3740612E+03  0.7957747E-01  0.3477432E+00
         13   -1    0    0    0    0  0.00000000000E+00  0.00000000000E+00  0.14999999963E+04  0.15000000000E+04  0.10566000000E+00 0.  1.
        994   -1    0    0    0    0 -0.00000000000E+00 -0.00000000000E+00  0.11368683772E-12  0.17120000000E+03  0.17120000000E+03 0.  0.
         13    1    1    2    0    0 -0.35898163519E+02 -0.81034868546E+01  0.89732160534E+02  0.96985650698E+02  0.10566000000E+00 0.  1.
        994    1    1    2    0    0  0.24293257347E+02  0.25338980022E+02  0.11375076202E+02  0.17513154661E+03  0.17120000000E+03 0.  0.
        998    1    1    2    0    0  0.11604906173E+02 -0.17235493167E+02  0.13988927595E+04  0.13990828027E+04  0.10000000000E+02 0.  1.
</event>
<event>
 5    1  0.7732857E-009  0.3728422E+03  0.7957747E-01  0.3482930E+00
         13   -1    0    0    0    0  0.00000000000E+00  0.00000000000E+00  0.14999999963E+04  0.15000000000E+04  0.10566000000E+00 0. -1.
        994   -1    0    0    0    0 -0.00000000000E+00 -0.00000000000E+00  0.11368683772E-12  0.17120000000E+03  0.17120000000E+03 0.  0.
         13    1    1    2    0    0 -0.20733310433E+02 -0.81346147829E+01  0.28096303564E+02  0.35853250302E+02  0.10566000000E+00 0. -1.
        994    1    1    2    0    0  0.16165425172E+02  0.20051013928E+02  0.10065775955E+02  0.17341892623E+03  0.17120000000E+03 0.  0.
        998    1    1    2    0    0  0.45678852610E+01 -0.11916399145E+02  0.14618379168E+04  0.14619278235E+04  0.10000000000E+02 0. -1.
</event>
<event>
 5    1  0.7732857E-009  0.3846918E+03  0.7957747E-01  0.3430980E+00
         13   -1    0    0    0    0  0.00000000000E+00  0.00000000000E+00  0.14999999963E+04  0.15000000000E+04  0.10566000000E+00 0. -1.
        994   -1    0    0    0    0 -0.00000000000E+00 -0.00000000000E+00  0.11368683772E-12  0.17120000000E+03  0.17120000000E+03 0.  0.
         13    1    1    2    0    0 -0.56313405676E+01  0.99561239195E+01  0.36693730586E+02  0.38435366896E+02  0.10566000000E+00 0. -1.
        994    1    1    2    0    0  0.65558149575E+01 -0.31778728945E+01  0.19579914377E+01  0.17136613235E+03  0.17120000000E+03 0.  0.
        998    1    1    2    0    0 -0.92447438989E+00 -0.67782510250E+01  0.14613482743E+04  0.14613985008E+04  0.10000000000E+02 0. -1.
</event>
<event>
 5    1  0.7732857E-009  0.3841472E+03  0.7957747E-01  0.3433297E+00
         13   -1    0    0    0    0  0.00000000000E+00  0.00000000000E+00  0.14999999963E+04  0.15000000000E+04  0.10566000000E+00 0. -1.
        994   -1    0    0    0    0 -0.00000000000E+00 -0.00000000000E+00  0.11368683772E-12  0.17120000000E+03  0.17120000000E+03 0.  0.
         13    1    1    2    0    0 -0.65085447860E+01 -0.90363547718E+01  0.31615336089E+02  0.33519509287E+02  0.10566000000E+00 0. -1.
        994    1    1    2    0    0 -0.66250835281E+01 -0.51273868869E+01  0.22855940793E+01  0.17142008566E+03  0.17120000000E+03 0.  0.
        998    1    1    2    0    0  0.13133628314E+02  0.14163741659E+02  0.14660990661E+04  0.14662604051E+04  0.10000000000E+02 0. -1.
</event>
<event>
 5    1  0.7732857E-009  0.3777165E+03  0.7957747E-01  0.3461162E+00
         13   -1    0    0    0    0  0.00000000000E+00  0.00000000000E+00  0.14999999963E+04  0.15000000000E+04  0.10566000000E+00 0.  1.
        994   -1    0    0    0    0 -0.00000000000E+00 -0.00000000000E+00  0.11368683772E-12  0.17120000000E+03  0.17120000000E+03 0.  0.
         13    1    1    2    0    0  0.28848084374E+02  0.17789548613E+02  0.97600561630E+02  0.10331776617E+03  0.10566000000E+00 0.  1.
        994    1    1    2    0    0 -0.32496391442E+02 -0.23835914310E+02  0.10780663223E+02  0.17620961656E+03  0.17120000000E+03 0.  0.
        998    1    1    2    0    0  0.36483070686E+01  0.60463656963E+01  0.13916187714E+04  0.13916726173E+04  0.10000000000E+02 0.  1.
</event>
<event>
 5    1  0.7732857E-009  0.3844788E+03  0.7957747E-01  0.3431886E+00
         13   -1    0    0    0    0  0.00000000000E+00  0.00000000000E+00  0.14999999963E+04  0.15000000000E+04  0.10566000000E+00 0.  1.
        994   -1    0    0    0    0 -0.00000000000E+00 -0.00000000000E+00  0.11368683772E-12  0.17120000000E+03  0.17120000000E+03 0.  0.
         13    1    1    2    0    0 -0.14850898733E+02  0.16618517688E+02  0.12114167757E+03  0.12317484131E+03  0.10566000000E+00 0.  1.
        994    1    1    2    0    0  0.16606044297E+02 -0.17104589734E+02  0.37635607738E+01  0.17289283411E+03  0.17120000000E+03 0.  0.
        998    1    1    2    0    0 -0.17551455640E+01  0.48607204616E+00  0.13750947579E+04  0.13751323246E+04  0.10000000000E+02 0.  1.
</event>
<event>
 5    1  0.7732857E-009  0.3857849E+03  0.7957747E-01  0.3426350E+00
         13   -1    0    0    0    0  0.00000000000E+00  0.00000000000E+00  0.14999999963E+04  0.15000000000E+04  0.10566000000E+00 0.  1.
        994   -1    0    0    0    0 -0.00000000000E+00 -0.00000000000E+00  0.11368683772E-12  0.17120000000E+03  0.17120000000E+03 0.  0.
         13    1    1    2    0    0 -0.97765422775E+01  0.47795436371E+01  0.43948315822E+02  0.45275715829E+02  0.10566000000E+00 0.  1.
        994    1    1    2    0    0  0.15689448882E+02 -0.19897352904E+02  0.33499517579E+01  0.17309744549E+03  0.17120000000E+03 0.  0.
        998    1    1    2    0    0 -0.59129066044E+01  0.15117809267E+02  0.14527017287E+04  0.14528268387E+04  0.10000000000E+02 0.  1.
</event>
<event>
 5    1  0.7732857E-009  0.3840956E+03  0.7957747E-01  0.3433517E+00
         13   -1    0    0    0    0  0.00000000000E+00  0.00000000000E+00  0.14999999963E+04  0.15000000000E+04  0.10566000000E+00 0. -1.
        994   -1    0    0    0    0 -0.00000000000E+00 -0.00000000000E+00  0.11368683772E-12  0.17120000000E+03  0.17120000000E+03 0.  0.
         13    1    1    2    0    0  0.43845478861E+01  0.12203362551E+02  0.38703976841E+02  0.40818565691E+02  0.10566000000E+00 0. -1.
        994    1    1    2    0    0 -0.29958540077E+01 -0.15718441832E+02  0.29248080901E+01  0.17197104133E+03  0.17120000000E+03 0.  0.
        998    1    1    2    0    0 -0.13886938784E+01  0.35150792816E+01  0.14583712113E+04  0.14584103930E+04  0.10000000000E+02 0. -1.
</event>
<event>
 5    1  0.7732857E-009  0.3848410E+03  0.7957747E-01  0.3430347E+00
         13   -1    0    0    0    0  0.00000000000E+00  0.00000000000E+00  0.14999999963E+04  0.15000000000E+04  0.10566000000E+00 0.  1.
        994   -1    0    0    0    0 -0.00000000000E+00 -0.00000000000E+00  0.11368683772E-12  0.17120000000E+03  0.17120000000E+03 0.  0.
         13    1    1    2    0    0  0.22591052443E+01 -0.11090358910E+02  0.35958425370E+02  0.37697733836E+02  0.10566000000E+00 0.  1.
        994    1    1    2    0    0 -0.33667358887E+01  0.14849903959E+02  0.24723614567E+01  0.17189359246E+03  0.17120000000E+03 0.  0.
        998    1    1    2    0    0  0.11076306444E+01 -0.37595450491E+01  0.14615692095E+04  0.14616086737E+04  0.10000000000E+02 0.  1.
</event>
<event>
 5    1  0.7732857E-009  0.3783124E+03  0.7957747E-01  0.3458540E+00
         13   -1    0    0    0    0  0.00000000000E+00  0.00000000000E+00  0.14999999963E+04  0.15000000000E+04  0.10566000000E+00 0. -1.
        994   -1    0    0    0    0 -0.00000000000E+00 -0.00000000000E+00  0.11368683772E-12  0.17120000000E+03  0.17120000000E+03 0.  0.
         13    1    1    2    0    0 -0.55188709760E+02 -0.13726727748E+03  0.86331304245E+03  0.87589812169E+03  0.10566000000E+00 0. -1.
        994    1    1    2    0    0  0.53817686046E+02  0.13612632935E+03  0.80767572728E+02  0.23928970241E+03  0.17120000000E+03 0.  0.
        998    1    1    2    0    0  0.13710237148E+01  0.11409481275E+01  0.55591938110E+03  0.55601217590E+03  0.10000000000E+02 0.  0.
</event>
<event>
 5    1  0.8207388E-009  0.3853429E+03  0.7957747E-01  0.3428219E+00
         13   -1    0    0    0    0  0.00000000000E+00  0.00000000000E+00  0.14999999963E+04  0.15000000000E+04  0.10566000000E+00 0. -1.
        994   -1    0    0    0    0 -0.00000000000E+00 -0.00000000000E+00  0.11368683772E-12  0.17120000000E+03  0.17120000000E+03 0.  0.
         13    1    1    2    0    0 -0.12309938726E+02  0.72988554993E+01  0.55659219284E+02  0.57469711487E+02  0.10566000000E+00 0. -1.
        994    1    1    2    0    0  0.45373875016E+02 -0.19353193731E+02  0.94946843222E+01  0.17841783451E+03  0.17120000000E+03 0.  0.
        998    1    1    2    0    0 -0.33063936290E+02  0.12054338232E+02  0.14348460927E+04  0.14353124540E+04  0.10000000000E+02 0. -1.
</event>
<event>
 5    1  0.7732857E-009  0.3763636E+03  0.7957747E-01  0.3467147E+00
         13   -1    0    0    0    0  0.00000000000E+00  0.00000000000E+00  0.14999999963E+04  0.15000000000E+04  0.10566000000E+00 0.  1.
        994   -1    0    0    0    0 -0.00000000000E+00 -0.00000000000E+00  0.11368683772E-12  0.17120000000E+03  0.17120000000E+03 0.  0.
         13    1    1    2    0    0 -0.10184075257E+02 -0.16296747147E+02  0.28303806290E+02  0.34211342723E+02  0.10566000000E+00 0.  1.
        994    1    1    2    0    0  0.86025506079E+01  0.11775102974E+02  0.67000309660E+01  0.17195053749E+03  0.17120000000E+03 0.  0.
        998    1    1    2    0    0  0.15815246488E+01  0.45216441723E+01  0.14649961590E+04  0.14650381198E+04  0.10000000000E+02 0.  1.
</event>
<event>
 5    1  0.7732857E-009  0.3979571E+03  0.7957747E-01  0.3376512E+00
         13   -1    0    0    0    0  0.00000000000E+00  0.00000000000E+00  0.14999999963E+04  0.15000000000E+04  0.10566000000E+00 0. -1.
        994   -1    0    0    0    0 -0.00000000000E+00 -0.00000000000E+00  0.11368683772E-12  0.17120000000E+03  0.17120000000E+03 0.  0.
         13    1    1    2    0    0  0.54404752128E+02  0.55455564519E+02  0.98748668709E+02  0.12564436886E+03  0.10566000000E+00 0. -1.
        994    1    1    2    0    0 -0.41637834317E+02 -0.67150497231E+02  0.51233689910E+02  0.19538994218E+03  0.17120000000E+03 0.  0.
        998    1    1    2    0    0 -0.12766917811E+02  0.11694932712E+02  0.13500176377E+04  0.13501656890E+04  0.10000000000E+02 0. -1.
</event>
<event>
 5    1  0.7732857E-009  0.3823194E+03  0.7957747E-01  0.3441121E+00
         13   -1    0    0    0    0  0.00000000000E+00  0.00000000000E+00  0.14999999963E+04  0.15000000000E+04  0.10566000000E+00 0.  1.
        994   -1    0    0    0    0 -0.00000000000E+00 -0.00000000000E+00  0.11368683772E-12  0.17120000000E+03  0.17120000000E+03 0.  0.
         13    1    1    2    0    0 -0.16987729651E+01  0.19232022533E+02  0.59263761960E+02  0.62329456648E+02  0.10566000000E+00 0.  1.
        994    1    1    2    0    0 -0.14469986102E+01 -0.22005849384E+02  0.45820070956E+01  0.17267537752E+03  0.17120000000E+03 0.  0.
        998    1    1    2    0    0  0.31457715753E+01  0.27738268506E+01  0.14361542272E+04  0.14361951658E+04  0.10000000000E+02 0.  1.
</event>
<event>
 5    1  0.7732857E-009  0.3837412E+03  0.7957747E-01  0.3435029E+00
         13   -1    0    0    0    0  0.00000000000E+00  0.00000000000E+00  0.14999999963E+04  0.15000000000E+04  0.10566000000E+00 0.  1.
        994   -1    0    0    0    0 -0.00000000000E+00 -0.00000000000E+00  0.11368683772E-12  0.17120000000E+03  0.17120000000E+03 0.  0.
         13    1    1    2    0    0 -0.44156055983E+00 -0.10243279575E+02  0.22698314275E+02  0.24906713696E+02  0.10566000000E+00 0.  1.
        994    1    1    2    0    0 -0.53061241136E+01  0.54751877474E+01  0.24483887659E+01  0.17138718517E+03  0.17120000000E+03 0.  0.
        998    1    1    2    0    0  0.57476846735E+01  0.47680918277E+01  0.14748532932E+04  0.14749061011E+04  0.10000000000E+02 0.  1.
</event>
<event>
 5    1  0.7732857E-009  0.3855603E+03  0.7957747E-01  0.3427299E+00
         13   -1    0    0    0    0  0.00000000000E+00  0.00000000000E+00  0.14999999963E+04  0.15000000000E+04  0.10566000000E+00 0. -1.
        994   -1    0    0    0    0 -0.00000000000E+00 -0.00000000000E+00  0.11368683772E-12  0.17120000000E+03  0.17120000000E+03 0.  0.
         13    1    1    2    0    0 -0.51157133422E+02 -0.76777954770E+02  0.23130678980E+03  0.24902760652E+03  0.10566000000E+00 0. -1.
        994    1    1    2    0    0  0.17624643998E+02  0.35194327747E+02  0.25168103840E+02  0.17746025536E+03  0.17120000000E+03 0.  0.
        998    1    1    2    0    0  0.33532489424E+02  0.41583627022E+02  0.12435251026E+04  0.12447121381E+04  0.10000000000E+02 0. -1.
</event>
<event>
 5    1  0.7732857E-009  0.3842492E+03  0.7957747E-01  0.3432863E+00
         13   -1    0    0    0    0  0.00000000000E+00  0.00000000000E+00  0.14999999963E+04  0.15000000000E+04  0.10566000000E+00 0.  1.
        994   -1    0    0    0    0 -0.00000000000E+00 -0.00000000000E+00  0.11368683772E-12  0.17120000000E+03  0.17120000000E+03 0.  0.
         13    1    1    2    0    0  0.14441515756E+02 -0.25401540332E+00  0.50163927022E+02  0.52202036736E+02  0.10566000000E+00 0.  1.
        994    1    1    2    0    0 -0.15585593671E+02 -0.30003353160E+01  0.28342834531E+01  0.17195751192E+03  0.17120000000E+03 0.  0.
        998    1    1    2    0    0  0.11440779153E+01  0.32543507194E+01  0.14470017858E+04  0.14470404513E+04  0.10000000000E+02 0.  1.
</event>
<event>
 5    1  0.7732857E-009  0.3785178E+03  0.7957747E-01  0.3457638E+00
         13   -1    0    0    0    0  0.00000000000E+00  0.00000000000E+00  0.14999999963E+04  0.15000000000E+04  0.10566000000E+00 0. -1.
        994   -1    0    0    0    0 -0.00000000000E+00 -0.00000000000E+00  0.11368683772E-12  0.17120000000E+03  0.17120000000E+03 0.  0.
         13    1    1    2    0    0 -0.11914944536E+02  0.20976479821E+01  0.12939437313E+02  0.17714576833E+02  0.10566000000E+00 0. -1.
        994    1    1    2    0    0  0.48163831950E+01 -0.40118303926E+01  0.50152197053E+01  0.17138811149E+03  0.17120000000E+03 0.  0.
        998    1    1    2    0    0  0.70985613412E+01  0.19141824105E+01  0.14820453393E+04  0.14820973117E+04  0.10000000000E+02 0. -1.
</event>
<event>
 5    1  0.7732857E-009  0.3909916E+03  0.7957747E-01  0.3404652E+00
         13   -1    0    0    0    0  0.00000000000E+00  0.00000000000E+00  0.14999999963E+04  0.15000000000E+04  0.10566000000E+00 0. -1.
        994   -1    0    0    0    0 -0.00000000000E+00 -0.00000000000E+00  0.11368683772E-12  0.17120000000E+03  0.17120000000E+03 0.  0.
         13    1    1    2    0    0  0.65140567082E+02 -0.28232132717E+02  0.94868957242E+02  0.11849251879E+03  0.10566000000E+00 0. -1.
        994    1    1    2    0    0 -0.76691455504E+02  0.30362786678E+02  0.48681661296E+02  0.19617039101E+03  0.17120000000E+03 0.  0.
        998    1    1    2    0    0  0.11550888422E+02 -0.21306539605E+01  0.13564493777E+04  0.13565370902E+04  0.10000000000E+02 0. -1.
</event>
<event>
 5    1  0.7732857E-009  0.3819813E+03  0.7957747E-01  0.3442577E+00
         13   -1    0    0    0    0  0.00000000000E+00  0.00000000000E+00  0.14999999963E+04  0.15000000000E+04  0.10566000000E+00 0.  1.
        994   -1    0    0    0    0 -0.00000000000E+00 -0.00000000000E+00  0.11368683772E-12  0.17120000000E+03  0.17120000000E+03 0.  0.
         13    1    1    2    0    0 -0.10188965500E+02  0.15097835122E+02  0.50782537076E+02  0.53950318620E+02  0.10566000000E+00 0.  1.
        994    1    1    2    0    0  0.39526894034E+01 -0.17563221611E+02  0.42134194148E+01  0.17219548023E+03  0.17120000000E+03 0.  0.
        998    1    1    2    0    0  0.62362760964E+01  0.24653864882E+01  0.14450040398E+04  0.14450542012E+04  0.10000000000E+02 0.  1.
</event>
<event>
 5    1  0.7732857E-009  0.3824580E+03  0.7957747E-01  0.3440525E+00
         13   -1    0    0    0    0  0.00000000000E+00  0.00000000000E+00  0.14999999963E+04  0.15000000000E+04  0.10566000000E+00 0. -1.
        994   -1    0    0    0    0 -0.00000000000E+00 -0.00000000000E+00  0.11368683772E-12  0.17120000000E+03  0.17120000000E+03 0.  0.
         13    1    1    2    0    0  0.12869074215E+02 -0.13972472519E+02  0.58306359638E+02  0.61322799983E+02  0.10566000000E+00 0. -1.
        994    1    1    2    0    0 -0.11130462991E+02  0.21467429143E+02  0.48388599259E+01  0.17296702659E+03  0.17120000000E+03 0.  0.
        998    1    1    2    0    0 -0.17386112240E+01 -0.74949566236E+01  0.14368547767E+04  0.14369101734E+04  0.10000000000E+02 0. -1.
</event>
<event>
 5    1  0.7732857E-009  0.3844974E+03  0.7957747E-01  0.3431807E+00
         13   -1    0    0    0    0  0.00000000000E+00  0.00000000000E+00  0.14999999963E+04  0.15000000000E+04  0.10566000000E+00 0.  1.
        994   -1    0    0    0    0 -0.00000000000E+00 -0.00000000000E+00  0.11368683772E-12  0.17120000000E+03  0.17120000000E+03 0.  0.
         13    1    1    2    0    0  0.22642875142E+01 -0.12427956131E+02  0.41690326257E+02  0.43562318108E+02  0.10566000000E+00 0.  1.
        994    1    1    2    0    0 -0.38029269419E+01  0.10115376715E+02  0.22646579750E+01  0.17155568127E+03  0.17120000000E+03 0.  0.
        998    1    1    2    0    0  0.15386394277E+01  0.23125794167E+01  0.14560450120E+04  0.14560820006E+04  0.10000000000E+02 0.  1.
</event>
<event>
 5    1  0.7732857E-009  0.3830952E+03  0.7957747E-01  0.3437791E+00
         13   -1    0    0    0    0  0.00000000000E+00  0.00000000000E+00  0.14999999963E+04  0.15000000000E+04  0.10566000000E+00 0.  1.
        994   -1    0    0    0    0 -0.00000000000E+00 -0.00000000000E+00  0.11368683772E-12  0.17120000000E+03  0.17120000000E+03 0.  0.
         13    1    1    2    0    0 -0.19099324117E+02 -0.47050263426E+00  0.62231759324E+02  0.65098453031E+02  0.10566000000E+00 0.  1.
        994    1    1    2    0    0  0.36973016552E+02 -0.20938008782E+02  0.85761120708E+01  0.17660236086E+03  0.17120000000E+03 0.  0.
        998    1    1    2    0    0 -0.17873692435E+02  0.21408511417E+02  0.14291921249E+04  0.14294991861E+04  0.10000000000E+02 0.  1.
</event>
<event>
 5    1  0.7732857E-009  0.3749774E+03  0.7957747E-01  0.3473324E+00
         13   -1    0    0    0    0  0.00000000000E+00  0.00000000000E+00  0.14999999963E+04  0.15000000000E+04  0.10566000000E+00 0. -1.
        994   -1    0    0    0    0 -0.00000000000E+00 -0.00000000000E+00  0.11368683772E-12  0.17120000000E+03  0.17120000000E+03 0.  0.
         13    1    1    2    0    0  0.12186233066E+02  0.31760823040E+01  0.92993581862E+01  0.15655063138E+02  0.10566000000E+00 0. -1.
        994    1    1    2    0    0  0.13507436789E+02  0.37776777043E+01  0.73593640271E+01  0.17193115464E+03  0.17120000000E+03 0.  0.
        998    1    1    2    0    0 -0.25693669856E+02 -0.69537600084E+01  0.14833412741E+04  0.14836137822E+04  0.10000000000E+02 0. -1.
</event>
<event>
 5    1  0.7732857E-009  0.3792844E+03  0.7957747E-01  0.3454280E+00
         13   -1    0    0    0    0  0.00000000000E+00  0.00000000000E+00  0.14999999963E+04  0.15000000000E+04  0.10566000000E+00 0. -1.
        994   -1    0    0    0    0 -0.00000000000E+00 -0.00000000000E+00  0.11368683772E-12  0.17120000000E+03  0.17120000000E+03 0.  0.
         13    1    1    2    0    0  0.61397144640E+02 -0.15157413623E+03  0.98660442756E+03  0.10000663157E+04  0.10566000000E+00 0. -1.
        994    1    1    2    0    0 -0.56308200843E+02  0.14843427926E+03  0.94184641111E+02  0.25176086941E+03  0.17120000000E+03 0.  0.
        998    1    1    2    0    0 -0.50889437967E+01  0.31398569635E+01  0.41921092760E+03  0.41937281489E+03  0.10000000000E+02 0.  0.
</event>
<event>
 5    1  0.7732857E-009  0.3781849E+03  0.7957747E-01  0.3459100E+00
         13   -1    0    0    0    0  0.00000000000E+00  0.00000000000E+00  0.14999999963E+04  0.15000000000E+04  0.10566000000E+00 0.  1.
        994   -1    0    0    0    0 -0.00000000000E+00 -0.00000000000E+00  0.11368683772E-12  0.17120000000E+03  0.17120000000E+03 0.  0.
         13    1    1    2    0    0  0.62528255055E+01  0.51972768015E+02  0.22775681890E+03  0.23369519927E+03  0.10566000000E+00 0.  1.
        994    1    1    2    0    0 -0.80373429083E+01 -0.53160964702E+02  0.14836179444E+02  0.18005621142E+03  0.17120000000E+03 0.  0.
        998    1    1    2    0    0  0.17845174028E+01  0.11881966869E+01  0.12574069979E+04  0.12574485893E+04  0.10000000000E+02 0.  1.
</event>
<event>
 5    1  0.7732857E-009  0.3811469E+03  0.7957747E-01  0.3446180E+00
         13   -1    0    0    0    0  0.00000000000E+00  0.00000000000E+00  0.14999999963E+04  0.15000000000E+04  0.10566000000E+00 0. -1.
        994   -1    0    0    0    0 -0.00000000000E+00 -0.00000000000E+00  0.11368683772E-12  0.17120000000E+03  0.17120000000E+03 0.  0.
         13    1    1    2    0    0  0.26281451948E+02  0.21540280945E+02  0.15859919450E+03  0.16219868705E+03  0.10566000000E+00 0. -1.
        994    1    1    2    0    0 -0.20475448394E+02 -0.10232049729E+02  0.53021559983E+01  0.17280477912E+03  0.17120000000E+03 0.  0.
        998    1    1    2    0    0 -0.58060035541E+01 -0.11308231216E+02  0.13360986458E+04  0.13361965338E+04  0.10000000000E+02 0.  0.
</event>
<event>
 5    1  0.7732857E-009  0.3776084E+03  0.7957747E-01  0.3461639E+00
         13   -1    0    0    0    0  0.00000000000E+00  0.00000000000E+00  0.14999999963E+04  0.15000000000E+04  0.10566000000E+00 0.  1.
        994   -1    0    0    0    0 -0.00000000000E+00 -0.00000000000E+00  0.11368683772E-12  0.17120000000E+03  0.17120000000E+03 0.  0.
         13    1    1    2    0    0  0.12300109050E+03  0.82411757662E+02  0.85788674542E+03  0.87056915015E+03  0.10566000000E+00 0.  1.
        994    1    1    2    0    0 -0.12030526495E+03 -0.79231428131E+02  0.78798893345E+02  0.23721231328E+03  0.17120000000E+03 0.  0.
        998    1    1    2    0    0 -0.26958255582E+01 -0.31803295310E+01  0.56331435751E+03  0.56341853657E+03  0.10000000000E+02 0.  0.
</event>
<event>
 5    1  0.7732857E-009  0.3723832E+03  0.7957747E-01  0.3485009E+00
         13   -1    0    0    0    0  0.00000000000E+00  0.00000000000E+00  0.14999999963E+04  0.15000000000E+04  0.10566000000E+00 0. -1.
        994   -1    0    0    0    0 -0.00000000000E+00 -0.00000000000E+00  0.11368683772E-12  0.17120000000E+03  0.17120000000E+03 0.  0.
         13    1    1    2    0    0  0.30358503694E+02 -0.16063448320E+02  0.85115720406E+02  0.91784367638E+02  0.10566000000E+00 0. -1.
        994    1    1    2    0    0  0.20611410294E+02 -0.23325988784E+02  0.11358844083E+02  0.17437716400E+03  0.17120000000E+03 0.  0.
        998    1    1    2    0    0 -0.50969913988E+02  0.39389437104E+02  0.14035254318E+04  0.14050384684E+04  0.10000000000E+02 0. -1.
</event>
<event>
 5    1  0.7732857E-009  0.3824668E+03  0.7957747E-01  0.3440487E+00
         13   -1    0    0    0    0  0.00000000000E+00  0.00000000000E+00  0.14999999963E+04  0.15000000000E+04  0.10566000000E+00 0. -1.
        994   -1    0    0    0    0 -0.00000000000E+00 -0.00000000000E+00  0.11368683772E-12  0.17120000000E+03  0.17120000000E+03 0.  0.
         13    1    1    2    0    0 -0.36097017245E+02  0.13192000066E+02  0.17477535552E+03  0.17895099771E+03  0.10566000000E+00 0. -1.
        994    1    1    2    0    0  0.62137293811E+02 -0.40506741568E+02  0.21356056585E+02  0.18779606105E+03  0.17120000000E+03 0.  0.
        998    1    1    2    0    0 -0.26040276566E+02  0.27314741502E+02  0.13038685842E+04  0.13044529412E+04  0.10000000000E+02 0. -1.
</event>
<event>
 5    1  0.7732857E-009  0.3819137E+03  0.7957747E-01  0.3442868E+00
         13   -1    0    0    0    0  0.00000000000E+00  0.00000000000E+00  0.14999999963E+04  0.15000000000E+04  0.10566000000E+00 0.  1.
        994   -1    0    0    0    0 -0.00000000000E+00 -0.00000000000E+00  0.11368683772E-12  0.17120000000E+03  0.17120000000E+03 0.  0.
         13    1    1    2    0    0  0.35427972724E+02 -0.75947188220E+01  0.19407748189E+03  0.19743075025E+03  0.10566000000E+00 0.  1.
        994    1    1    2    0    0 -0.28395193541E+02  0.30075665602E+01  0.58834209007E+01  0.17366458221E+03  0.17120000000E+03 0.  0.
        998    1    1    2    0    0 -0.70327791827E+01  0.45871522619E+01  0.13000390935E+04  0.13001046675E+04  0.10000000000E+02 0.  1.
</event>
<event>
 5    1  0.7732857E-009  0.3837268E+03  0.7957747E-01  0.3435090E+00
         13   -1    0    0    0    0  0.00000000000E+00  0.00000000000E+00  0.14999999963E+04  0.15000000000E+04  0.10566000000E+00 0. -1.
        994   -1    0    0    0    0 -0.00000000000E+00 -0.00000000000E+00  0.11368683772E-12  0.17120000000E+03  0.17120000000E+03 0.  0.
         13    1    1    2    0    0 -0.10620199095E+02  0.15734936769E+01  0.24348500688E+02  0.26610621206E+02  0.10566000000E+00 0. -1.
        994    1    1    2    0    0  0.71788468322E+01 -0.33750636613E+02  0.62053533859E+01  0.17475293338E+03  0.17120000000E+03 0.  0.
        998    1    1    2    0    0  0.34413522627E+01  0.32177142936E+02  0.14694461422E+04  0.14698364454E+04  0.10000000000E+02 0. -1.
</event>
<event>
 5    1  0.8688326E-009  0.3853967E+03  0.7957747E-01  0.3427991E+00
         13   -1    0    0    0    0  0.00000000000E+00  0.00000000000E+00  0.14999999963E+04  0.15000000000E+04  0.10566000000E+00 0. -1.
        994   -1    0    0    0    0 -0.00000000000E+00 -0.00000000000E+00  0.11368683772E-12  0.17120000000E+03  0.17120000000E+03 0.  0.
         13    1    1    2    0    0  0.42653499657E+01 -0.10085241808E+02  0.41257875830E+02  0.42686400583E+02  0.10566000000E+00 0. -1.
        994    1    1    2    0    0 -0.22252288859E+01  0.10244134265E+02  0.17943126306E+01  0.17153003669E+03  0.17120000000E+03 0.  0.
        998    1    1    2    0    0 -0.20401210798E+01 -0.15889245687E+00  0.14569478078E+04  0.14569835627E+04  0.10000000000E+02 0. -1.
</event>
<event>
 5    1  0.7732857E-009  0.3853679E+03  0.7957747E-01  0.3428113E+00
         13   -1    0    0    0    0  0.00000000000E+00  0.00000000000E+00  0.14999999963E+04  0.15000000000E+04  0.10566000000E+00 0.  1.
        994   -1    0    0    0    0 -0.00000000000E+00 -0.00000000000E+00  0.11368683772E-12  0.17120000000E+03  0.17120000000E+03 0.  0.
         13    1    1    2    0    0 -0.36872957125E+01 -0.11385883950E+02  0.49921850858E+02  0.51336506115E+02  0.10566000000E+00 0.  1.
        994    1    1    2    0    0  0.61276708635E+00  0.71284332840E+01  0.16157463072E+01  0.17135705612E+03  0.17120000000E+03 0.  0.
        998    1    1    2    0    0  0.30745286262E+01  0.42574506657E+01  0.14484623991E+04  0.14485064378E+04  0.10000000000E+02 0.  1.
</event>
<event>
 5    1  0.7732857E-009  0.3726706E+03  0.7957747E-01  0.3483707E+00
         13   -1    0    0    0    0  0.00000000000E+00  0.00000000000E+00  0.14999999963E+04  0.15000000000E+04  0.10566000000E+00 0. -1.
        994   -1    0    0    0    0 -0.00000000000E+00 -0.00000000000E+00  0.11368683772E-12  0.17120000000E+03  0.17120000000E+03 0.  0.
         13    1    1    2    0    0  0.99776987461E+02  0.55446245451E+02  0.50946775296E+03  0.52209877977E+03  0.10566000000E+00 0. -1.
        994    1    1    2    0    0 -0.10400594158E+03 -0.54370396444E+02  0.56650817794E+02  0.21515606208E+03  0.17120000000E+03 0.  0.
        998    1    1    2    0    0  0.42289541153E+01 -0.10758490075E+01  0.93388142552E+03  0.93394515815E+03  0.10000000000E+02 0.  0.
</event>
<event>
 5    1  0.7732857E-009  0.3738749E+03  0.7957747E-01  0.3478270E+00
         13   -1    0    0    0    0  0.00000000000E+00  0.00000000000E+00  0.14999999963E+04  0.15000000000E+04  0.10566000000E+00 0. -1.
        994   -1    0    0    0    0 -0.00000000000E+00 -0.00000000000E+00  0.11368683772E-12  0.17120000000E+03  0.17120000000E+03 0.  0.
         13    1    1    2    0    0 -0.21277649693E+02 -0.69291366225E+02  0.21381436213E+03  0.22576674783E+03  0.10566000000E+00 0. -1.
        994    1    1    2    0    0  0.15747586632E+02  0.13350837389E+03  0.71672562833E+02  0.22916995581E+03  0.17120000000E+03 0.  0.
        998    1    1    2    0    0  0.55300630609E+01 -0.64217007662E+02  0.12145130713E+04  0.12162632964E+04  0.10000000000E+02 0. -1.
</event>
<event>
 5    1  0.7732857E-009  0.3741987E+03  0.7957747E-01  0.3476814E+00
         13   -1    0    0    0    0  0.00000000000E+00  0.00000000000E+00  0.14999999963E+04  0.15000000000E+04  0.10566000000E+00 0.  1.
        994   -1    0    0    0    0 -0.00000000000E+00 -0.00000000000E+00  0.11368683772E-12  0.17120000000E+03  0.17120000000E+03 0.  0.
         13    1    1    2    0    0  0.11861648463E+03 -0.62380561763E+02  0.77511523544E+03  0.78661607172E+03  0.10566000000E+00 0.  1.
        994    1    1    2    0    0 -0.10354588467E+03  0.52781598904E+02  0.54625204043E+02  0.21401168270E+03  0.17120000000E+03 0.  0.
        998    1    1    2    0    0 -0.15070599958E+02  0.95989628584E+01  0.67025955680E+03  0.67057224559E+03  0.10000000000E+02 0.  1.
</event>
<event>
 5    1  0.7732857E-009  0.3728714E+03  0.7957747E-01  0.3482798E+00
         13   -1    0    0    0    0  0.00000000000E+00  0.00000000000E+00  0.14999999963E+04  0.15000000000E+04  0.10566000000E+00 0.  1.
        994   -1    0    0    0    0 -0.00000000000E+00 -0.00000000000E+00  0.11368683772E-12  0.17120000000E+03  0.17120000000E+03 0.  0.
         13    1    1    2    0    0 -0.76687946036E+01 -0.11260952943E+02  0.83806183406E+01  0.15995793186E+02  0.10566000000E+00 0.  1.
        994    1    1    2    0    0  0.65095726472E+01  0.10063453691E+02  0.82678734055E+01  0.17181805891E+03  0.17120000000E+03 0.  0.
        998    1    1    2    0    0  0.11592219564E+01  0.11974992519E+01  0.14833515045E+04  0.14833861479E+04  0.10000000000E+02 0.  1.
</event>
<event>
 5    1  0.7732857E-009  0.3848133E+03  0.7957747E-01  0.3430465E+00
         13   -1    0    0    0    0  0.00000000000E+00  0.00000000000E+00  0.14999999963E+04  0.15000000000E+04  0.10566000000E+00 0.  1.
        994   -1    0    0    0    0 -0.00000000000E+00 -0.00000000000E+00  0.11368683772E-12  0.17120000000E+03  0.17120000000E+03 0.  0.
         13    1    1    2    0    0  0.17409324476E+02  0.48157473052E+01  0.89963050492E+02  0.91758583352E+02  0.10566000000E+00 0.  1.
        994    1    1    2    0    0 -0.18500869728E+02 -0.29812966194E+01  0.28793079924E+01  0.17224662761E+03  0.17120000000E+03 0.  0.
        998    1    1    2    0    0  0.10915452514E+01 -0.18344506858E+01  0.14071576378E+04  0.14071947890E+04  0.10000000000E+02 0.  1.
</event>
<event>
 5    1  0.7732857E-009  0.3828105E+03  0.7957747E-01  0.3439012E+00
         13   -1    0    0    0    0  0.00000000000E+00  0.00000000000E+00  0.14999999963E+04  0.15000000000E+04  0.10566000000E+00 0. -1.
        994   -1    0    0    0    0 -0.00000000000E+00 -0.00000000000E+00  0.11368683772E-12  0.17120000000E+03  0.17120000000E+03 0.  0.
         13    1    1    2    0    0  0.14342843203E+01  0.12480320903E+02  0.28006995705E+02  0.30695578734E+02  0.10566000000E+00 0. -1.
        994    1    1    2    0    0 -0.45600833691E+00 -0.90025712054E+01  0.29902784276E+01  0.17146322054E+03  0.17120000000E+03 0.  0.
        998    1    1    2    0    0 -0.97827598341E+00 -0.34777496974E+01  0.14690027221E+04  0.14690412007E+04  0.10000000000E+02 0. -1.
</event>
<event>
 5    1  0.7732857E-009  0.3856313E+03  0.7957747E-01  0.3426999E+00
         13   -1    0    0    0    0  0.00000000000E+00  0.00000000000E+00  0.14999999963E+04  0.15000000000E+04  0.10566000000E+00 0. -1.
        994   -1    0    0    0    0 -0.00000000000E+00 -0.00000000000E+00  0.11368683772E-12  0.17120000000E+03  0.17120000000E+03 0.  0.
         13    1    1    2    0    0  0.35261357231E+01 -0.11147222821E+02  0.51983159014E+02  0.53281837382E+02  0.10566000000E+00 0. -1.
        994    1    1    2    0    0 -0.39654822267E+01  0.77271615679E+01  0.15646603716E+01  0.17142730890E+03  0.17120000000E+03 0.  0.
        998    1    1    2    0    0  0.43934650362E+00  0.34200612531E+01  0.14464521769E+04  0.14464908537E+04  0.10000000000E+02 0. -1.
</event>
<event>
 5    1  0.7732857E-009  0.3821170E+03  0.7957747E-01  0.3441992E+00
         13   -1    0    0    0    0  0.00000000000E+00  0.00000000000E+00  0.14999999963E+04  0.15000000000E+04  0.10566000000E+00 0. -1.
        994   -1    0    0    0    0 -0.00000000000E+00 -0.00000000000E+00  0.11368683772E-12  0.17120000000E+03  0.17120000000E+03 0.  0.
         13    1    1    2    0    0 -0.52910092630E+01  0.11636138657E+02  0.25127168690E+02  0.28191847621E+02  0.10566000000E+00 0. -1.
        994    1    1    2    0    0  0.65263570567E+01 -0.11363342473E+02  0.36385348410E+01  0.17173933104E+03  0.17120000000E+03 0.  0.
        998    1    1    2    0    0 -0.12353477937E+01 -0.27279618419E+00  0.14712342927E+04  0.14712688213E+04  0.10000000000E+02 0. -1.
</event>
<event>
 5    1  0.7732857E-009  0.3792708E+03  0.7957747E-01  0.3454340E+00
         13   -1    0    0    0    0  0.00000000000E+00  0.00000000000E+00  0.14999999963E+04  0.15000000000E+04  0.10566000000E+00 0. -1.
        994   -1    0    0    0    0 -0.00000000000E+00 -0.00000000000E+00  0.11368683772E-12  0.17120000000E+03  0.17120000000E+03 0.  0.
         13    1    1    2    0    0  0.14145545261E+02  0.18255374200E+02  0.50773680763E+02  0.55779323770E+02  0.10566000000E+00 0. -1.
        994    1    1    2    0    0  0.30844947360E+01 -0.64847319497E+02  0.18757077651E+02  0.18405422276E+03  0.17120000000E+03 0.  0.
        998    1    1    2    0    0 -0.17230039997E+02  0.46591945297E+02  0.14304692379E+04  0.14313664535E+04  0.10000000000E+02 0. -1.
</event>
<event>
 5    1  0.7732857E-009  0.3846503E+03  0.7957747E-01  0.3431157E+00
         13   -1    0    0    0    0  0.00000000000E+00  0.00000000000E+00  0.14999999963E+04  0.15000000000E+04  0.10566000000E+00 0. -1.
        994   -1    0    0    0    0 -0.00000000000E+00 -0.00000000000E+00  0.11368683772E-12  0.17120000000E+03  0.17120000000E+03 0.  0.
         13    1    1    2    0    0  0.89409040385E+01  0.86974809682E+01  0.42307697610E+02  0.44108257519E+02  0.10566000000E+00 0. -1.
        994    1    1    2    0    0 -0.30423212031E+01 -0.12779418631E+02  0.23722362006E+01  0.17171964583E+03  0.17120000000E+03 0.  0.
        998    1    1    2    0    0 -0.58985828354E+01  0.40819376625E+01  0.14553200625E+04  0.14553720967E+04  0.10000000000E+02 0. -1.
</event>
<event>
 5    1  0.7732857E-009  0.3808871E+03  0.7957747E-01  0.3447305E+00
         13   -1    0    0    0    0  0.00000000000E+00  0.00000000000E+00  0.14999999963E+04  0.15000000000E+04  0.10566000000E+00 0. -1.
        994   -1    0    0    0    0 -0.00000000000E+00 -0.00000000000E+00  0.11368683772E-12  0.17120000000E+03  0.17120000000E+03 0.  0.
         13    1    1    2    0    0 -0.35278241235E+02 -0.11205027297E+02  0.21810920560E+03  0.22122780945E+03  0.10566000000E+00 0. -1.
        994    1    1    2    0    0 -0.66789939594E+00  0.78485082966E+01  0.38928583399E+01  0.17142531761E+03  0.17120000000E+03 0.  0.
        998    1    1    2    0    0  0.35946140631E+02  0.33565190002E+01  0.12779979323E+04  0.12785468729E+04  0.10000000000E+02 0. -1.
</event>
<event>
 5    1  0.7732857E-009  0.3832508E+03  0.7957747E-01  0.3437125E+00
         13   -1    0    0    0    0  0.00000000000E+00  0.00000000000E+00  0.14999999963E+04  0.15000000000E+04  0.10566000000E+00 0. -1.
        994   -1    0    0    0    0 -0.00000000000E+00 -0.00000000000E+00  0.11368683772E-12  0.17120000000E+03  0.17120000000E+03 0.  0.
         13    1    1    2    0    0 -0.61063444322E+01  0.88272186149E+01  0.23239852638E+02  0.25599006728E+02  0.10566000000E+00 0. -1.
        994    1    1    2    0    0  0.39100187258E+00  0.87292973389E+01  0.27536654023E+01  0.17144496548E+03  0.17120000000E+03 0.  0.
        998    1    1    2    0    0  0.57153425596E+01 -0.17556515954E+02  0.14740064782E+04  0.14741560278E+04  0.10000000000E+02 0. -1.
</event>
<event>
 5    1  0.7732857E-009  0.3855605E+03  0.7957747E-01  0.3427299E+00
         13   -1    0    0    0    0  0.00000000000E+00  0.00000000000E+00  0.14999999963E+04  0.15000000000E+04  0.10566000000E+00 0. -1.
        994   -1    0    0    0    0 -0.00000000000E+00 -0.00000000000E+00  0.11368683772E-12  0.17120000000E+03  0.17120000000E+03 0.  0.
         13    1    1    2    0    0  0.74418033769E+01 -0.13225027038E+02  0.91405459778E+02  0.92656629654E+02  0.10566000000E+00 0. -1.
        994    1    1    2    0    0  0.65263255333E+01  0.61501412400E+01  0.16161417353E+01  0.17144231997E+03  0.17120000000E+03 0.  0.
        998    1    1    2    0    0 -0.13968128910E+02  0.70748857979E+01  0.14069783948E+04  0.14071010504E+04  0.10000000000E+02 0. -1.
</event>
<event>
 5    1  0.7732857E-009  0.3708665E+03  0.7957747E-01  0.3491918E+00
         13   -1    0    0    0    0  0.00000000000E+00  0.00000000000E+00  0.14999999963E+04  0.15000000000E+04  0.10566000000E+00 0.  1.
        994   -1    0    0    0    0 -0.00000000000E+00 -0.00000000000E+00  0.11368683772E-12  0.17120000000E+03  0.17120000000E+03 0.  0.
         13    1    1    2    0    0  0.10654388172E+03  0.46508263836E+02  0.59063029442E+03  0.60196243503E+03  0.10566000000E+00 0.  1.
        994    1    1    2    0    0 -0.73215244785E+02 -0.54138843988E+01  0.30545296782E+02  0.18876503217E+03  0.17120000000E+03 0.  0.
        998    1    1    2    0    0 -0.33328636938E+02 -0.41094379437E+02  0.87882440508E+03  0.88047253280E+03  0.10000000000E+02 0.  1.
</event>
<event>
 5    1  0.7732857E-009  0.3817699E+03  0.7957747E-01  0.3443488E+00
         13   -1    0    0    0    0  0.00000000000E+00  0.00000000000E+00  0.14999999963E+04  0.15000000000E+04  0.10566000000E+00 0.  1.
        994   -1    0    0    0    0 -0.00000000000E+00 -0.00000000000E+00  0.11368683772E-12  0.17120000000E+03  0.17120000000E+03 0.  0.
         13    1    1    2    0    0  0.72362153360E+01  0.17261483657E+02  0.54174729498E+02  0.57316961806E+02  0.10566000000E+00 0.  1.
        994    1    1    2    0    0 -0.66690140563E+01 -0.44790884527E+01  0.34568841613E+01  0.17142324239E+03  0.17120000000E+03 0.  0.
        998    1    1    2    0    0 -0.56720127968E+00 -0.12782395204E+02  0.14423683826E+04  0.14424597958E+04  0.10000000000E+02 0.  1.
</event>
<event>
 5    1  0.7732857E-009  0.3819114E+03  0.7957747E-01  0.3442878E+00
         13   -1    0    0    0    0  0.00000000000E+00  0.00000000000E+00  0.14999999963E+04  0.15000000000E+04  0.10566000000E+00 0.  1.
        994   -1    0    0    0    0 -0.00000000000E+00 -0.00000000000E+00  0.11368683772E-12  0.17120000000E+03  0.17120000000E+03 0.  0.
         13    1    1    2    0    0 -0.74795668630E+01  0.13489429974E+02  0.34342730504E+02  0.37647615382E+02  0.10566000000E+00 0.  1.
        994    1    1    2    0    0 -0.22368308408E+01 -0.31555362179E+02  0.65029349337E+01  0.17421960985E+03  0.17120000000E+03 0.  0.
        998    1    1    2    0    0  0.97163977037E+01  0.18065932205E+02  0.14591543308E+04  0.14593327748E+04  0.10000000000E+02 0.  1.
</event>
<event>
 5    1  0.7732857E-009  0.3986483E+03  0.7957747E-01  0.3373773E+00
         13   -1    0    0    0    0  0.00000000000E+00  0.00000000000E+00  0.14999999963E+04  0.15000000000E+04  0.10566000000E+00 0. -1.
        994   -1    0    0    0    0 -0.00000000000E+00 -0.00000000000E+00  0.11368683772E-12  0.17120000000E+03  0.17120000000E+03 0.  0.
         13    1    1    2    0    0 -0.95180660124E+02 -0.13528194138E+03  0.38593477650E+03  0.41988834778E+03  0.10566000000E+00 0. -1.
        994    1    1    2    0    0  0.12773822681E+03  0.91331270246E+02  0.13104886133E+03  0.26672401386E+03  0.17120000000E+03 0.  0.
        998    1    1    2    0    0 -0.32557566687E+02  0.43950671131E+02  0.98301635844E+03  0.98458763836E+03  0.10000000000E+02 0. -1.
</event>
<event>
 5    1  0.7732857E-009  0.3713154E+03  0.7957747E-01  0.3489867E+00
         13   -1    0    0    0    0  0.00000000000E+00  0.00000000000E+00  0.14999999963E+04  0.15000000000E+04  0.10566000000E+00 0. -1.
        994   -1    0    0    0    0 -0.00000000000E+00 -0.00000000000E+00  0.11368683772E-12  0.17120000000E+03  0.17120000000E+03 0.  0.
         13    1    1    2    0    0  0.19400661438E+01 -0.69403828444E+02  0.22937188352E+03  0.23965001017E+03  0.10566000000E+00 0. -1.
        994    1    1    2    0    0  0.10489792258E+02  0.74508816176E+02  0.28330253620E+02  0.18913921513E+03  0.17120000000E+03 0.  0.
        998    1    1    2    0    0 -0.12429858402E+02 -0.51049877325E+01  0.12422978591E+04  0.12424107747E+04  0.10000000000E+02 0. -1.
</event>
<event>
 5    1  0.7732857E-009  0.3767383E+03  0.7957747E-01  0.3465485E+00
         13   -1    0    0    0    0  0.00000000000E+00  0.00000000000E+00  0.14999999963E+04  0.15000000000E+04  0.10566000000E+00 0.  1.
        994   -1    0    0    0    0 -0.00000000000E+00 -0.00000000000E+00  0.11368683772E-12  0.17120000000E+03  0.17120000000E+03 0.  0.
         13    1    1    2    0    0 -0.16822890572E+02  0.29675770469E+02  0.91869210380E+02  0.97998081512E+02  0.10566000000E+00 0.  1.
        994    1    1    2    0    0  0.73535586912E+01 -0.38499251936E+02  0.10998082018E+02  0.17597347821E+03  0.17120000000E+03 0.  0.
        998    1    1    2    0    0  0.94693318812E+01  0.88234814668E+01  0.13971327039E+04  0.13972284403E+04  0.10000000000E+02 0.  1.
</event>
<event>
 5    1  0.7732857E-009  0.3798982E+03  0.7957747E-01  0.3451602E+00
         13   -1    0    0    0    0  0.00000000000E+00  0.00000000000E+00  0.14999999963E+04  0.15000000000E+04  0.10566000000E+00 0. -1.
        994   -1    0    0    0    0 -0.00000000000E+00 -0.00000000000E+00  0.11368683772E-12  0.17120000000E+03  0.17120000000E+03 0.  0.
         13    1    1    2    0    0  0.73730030095E+01  0.10186859898E+02  0.16800724448E+02  0.20985918945E+02  0.10566000000E+00 0. -1.
        994    1    1    2    0    0 -0.10170981393E+02 -0.12647171520E+02  0.50658666241E+01  0.17204215418E+03  0.17120000000E+03 0.  0.
        998    1    1    2    0    0  0.27979783837E+01  0.24603116227E+01  0.14781334052E+04  0.14781719269E+04  0.10000000000E+02 0. -1.
</event>
<event>
 5    1  0.7732857E-009  0.3853444E+03  0.7957747E-01  0.3428213E+00
         13   -1    0    0    0    0  0.00000000000E+00  0.00000000000E+00  0.14999999963E+04  0.15000000000E+04  0.10566000000E+00 0.  1.
        994   -1    0    0    0    0 -0.00000000000E+00 -0.00000000000E+00  0.11368683772E-12  0.17120000000E+03  0.17120000000E+03 0.  0.
         13    1    1    2    0    0  0.12499706471E+02  0.70334559876E+01  0.78615566785E+02  0.79913269674E+02  0.10566000000E+00 0.  1.
        994    1    1    2    0    0 -0.11131661268E+01  0.11201352953E+02  0.18756134744E+01  0.17157991541E+03  0.17120000000E+03 0.  0.
        998    1    1    2    0    0 -0.11386540345E+02 -0.18234808940E+02  0.14195088160E+04  0.14197068149E+04  0.10000000000E+02 0.  1.
</event>
<event>
 5    1  0.7732857E-009  0.3857694E+03  0.7957747E-01  0.3426416E+00
         13   -1    0    0    0    0  0.00000000000E+00  0.00000000000E+00  0.14999999963E+04  0.15000000000E+04  0.10566000000E+00 0.  1.
        994   -1    0    0    0    0 -0.00000000000E+00 -0.00000000000E+00  0.11368683772E-12  0.17120000000E+03  0.17120000000E+03 0.  0.
         13    1    1    2    0    0 -0.10374208772E+02  0.29123737144E+01  0.51488819578E+02  0.52604332843E+02  0.10566000000E+00 0.  1.
        994    1    1    2    0    0 -0.64656002134E+01  0.34993462283E+01  0.14259565074E+01  0.17136371484E+03  0.17120000000E+03 0.  0.
        998    1    1    2    0    0  0.16839808985E+02 -0.64117199427E+01  0.14470852202E+04  0.14472319523E+04  0.10000000000E+02 0.  1.
</event>
<event>
 5    1  0.7732857E-009  0.3685101E+03  0.7957747E-01  0.3502766E+00
         13   -1    0    0    0    0  0.00000000000E+00  0.00000000000E+00  0.14999999963E+04  0.15000000000E+04  0.10566000000E+00 0. -1.
        994   -1    0    0    0    0 -0.00000000000E+00 -0.00000000000E+00  0.11368683772E-12  0.17120000000E+03  0.17120000000E+03 0.  0.
         13    1    1    2    0    0  0.18537850891E+02  0.83947251336E+01  0.16146932618E+02  0.25978027691E+02  0.10566000000E+00 0. -1.
        994    1    1    2    0    0 -0.17433304105E+02 -0.44792192628E+01  0.11176727859E+02  0.17250606581E+03  0.17120000000E+03 0.  0.
        998    1    1    2    0    0 -0.11045467857E+01 -0.39155058708E+01  0.14726763358E+04  0.14727159065E+04  0.10000000000E+02 0. -1.
</event>
<event>
 5    1  0.7732857E-009  0.3846992E+03  0.7957747E-01  0.3430949E+00
         13   -1    0    0    0    0  0.00000000000E+00  0.00000000000E+00  0.14999999963E+04  0.15000000000E+04  0.10566000000E+00 0. -1.
        994   -1    0    0    0    0 -0.00000000000E+00 -0.00000000000E+00  0.11368683772E-12  0.17120000000E+03  0.17120000000E+03 0.  0.
         13    1    1    2    0    0 -0.49958890155E+01  0.14768856952E+02  0.91732246317E+02  0.93047806106E+02  0.10566000000E+00 0. -1.
        994    1    1    2    0    0 -0.16745578444E+02  0.24424821779E+02  0.46717939907E+01  0.17380521274E+03  0.17120000000E+03 0.  0.
        998    1    1    2    0    0  0.21741467460E+02 -0.39193678731E+02  0.14035959560E+04  0.14043469812E+04  0.10000000000E+02 0. -1.
</event>
<event>
 5    1  0.7732857E-009  0.3811211E+03  0.7957747E-01  0.3446291E+00
         13   -1    0    0    0    0  0.00000000000E+00  0.00000000000E+00  0.14999999963E+04  0.15000000000E+04  0.10566000000E+00 0. -1.
        994   -1    0    0    0    0 -0.00000000000E+00 -0.00000000000E+00  0.11368683772E-12  0.17120000000E+03  0.17120000000E+03 0.  0.
         13    1    1    2    0    0 -0.65770957219E+01  0.24694438609E+02  0.10866953599E+03  0.11163401230E+03  0.10566000000E+00 0. -1.
        994    1    1    2    0    0  0.13254543343E+02  0.19496488740E+02  0.54215986101E+01  0.17290063541E+03  0.17120000000E+03 0.  0.
        998    1    1    2    0    0 -0.66774476213E+01 -0.44190927349E+02  0.13859088617E+04  0.13866653523E+04  0.10000000000E+02 0. -1.
</event>
<event>
 5    1  0.7732857E-009  0.3808307E+03  0.7957747E-01  0.3447549E+00
         13   -1    0    0    0    0  0.00000000000E+00  0.00000000000E+00  0.14999999963E+04  0.15000000000E+04  0.10566000000E+00 0. -1.
        994   -1    0    0    0    0 -0.00000000000E+00 -0.00000000000E+00  0.11368683772E-12  0.17120000000E+03  0.17120000000E+03 0.  0.
         13    1    1    2    0    0  0.16478043272E+01 -0.30088931396E+02  0.12159217966E+03  0.12527062054E+03  0.10566000000E+00 0. -1.
        994    1    1    2    0    0 -0.64337537140E+00  0.17214453187E+02  0.47043240923E+01  0.17212879479E+03  0.17120000000E+03 0.  0.
        998    1    1    2    0    0 -0.10044289558E+01  0.12874478209E+02  0.13737034925E+04  0.13738005847E+04  0.10000000000E+02 0. -1.
</event>
<event>
 5    1  0.7732857E-009  0.3798262E+03  0.7957747E-01  0.3451916E+00
         13   -1    0    0    0    0  0.00000000000E+00  0.00000000000E+00  0.14999999963E+04  0.15000000000E+04  0.10566000000E+00 0.  1.
        994   -1    0    0    0    0 -0.00000000000E+00 -0.00000000000E+00  0.11368683772E-12  0.17120000000E+03  0.17120000000E+03 0.  0.
         13    1    1    2    0    0  0.18348196132E+02 -0.39137620065E+00  0.51427674029E+02  0.54604269949E+02  0.10566000000E+00 0.  1.
        994    1    1    2    0    0  0.64373782503E+02 -0.88438625227E+00  0.18211394292E+02  0.18380930579E+03  0.17120000000E+03 0.  0.
        998    1    1    2    0    0 -0.82721978635E+02  0.12757624529E+01  0.14303609280E+04  0.14327864243E+04  0.10000000000E+02 0.  1.
</event>
<event>
 5    1  0.7732857E-009  0.3266783E+03  0.7957747E-01  0.3722231E+00
         13   -1    0    0    0    0  0.00000000000E+00  0.00000000000E+00  0.14999999963E+04  0.15000000000E+04  0.10566000000E+00 0. -1.
        994   -1    0    0    0    0 -0.00000000000E+00 -0.00000000000E+00  0.11368683772E-12  0.17120000000E+03  0.17120000000E+03 0.  0.
         13    1    1    2    0    0  0.21201393738E+03 -0.53376647189E+02  0.88558484254E+03  0.91217295543E+03  0.10566000000E+00 0. -1.
        994    1    1    2    0    0 -0.15600679600E+03  0.11892461442E+03  0.18122495089E+03  0.31722721690E+03  0.17120000000E+03 0.  0.
        998    1    1    2    0    0 -0.56007141379E+02 -0.65547967228E+02  0.43319020285E+03  0.44179982768E+03  0.10000000000E+02 0. -1.
</event>
<event>
 5    1  0.7732857E-009  0.3783207E+03  0.7957747E-01  0.3458503E+00
         13   -1    0    0    0    0  0.00000000000E+00  0.00000000000E+00  0.14999999963E+04  0.15000000000E+04  0.10566000000E+00 0.  1.
        994   -1    0    0    0    0 -0.00000000000E+00 -0.00000000000E+00  0.11368683772E-12  0.17120000000E+03  0.17120000000E+03 0.  0.
         13    1    1    2    0    0  0.34931557576E+01  0.23098838887E+02  0.58847648420E+02  0.63315206575E+02  0.10566000000E+00 0.  1.
        994    1    1    2    0    0 -0.35689178304E+01  0.14060504025E+02  0.56909760586E+01  0.17190771407E+03  0.17120000000E+03 0.  0.
        998    1    1    2    0    0  0.75762072810E-01 -0.37159342911E+02  0.14354613718E+04  0.14359770794E+04  0.10000000000E+02 0.  1.
</event>
<event>
 5    1  0.7732857E-009  0.3705283E+03  0.7957747E-01  0.3493466E+00
         13   -1    0    0    0    0  0.00000000000E+00  0.00000000000E+00  0.14999999963E+04  0.15000000000E+04  0.10566000000E+00 0.  1.
        994   -1    0    0    0    0 -0.00000000000E+00 -0.00000000000E+00  0.11368683772E-12  0.17120000000E+03  0.17120000000E+03 0.  0.
         13    1    1    2    0    0 -0.33419725958E+01 -0.10358193622E+02  0.24214730257E+01  0.11150589742E+02  0.10566000000E+00 0.  1.
        994    1    1    2    0    0  0.80484938325E+01  0.37184526872E+01  0.92645353739E+01  0.17167957584E+03  0.17120000000E+03 0.  0.
        998    1    1    2    0    0 -0.47065212366E+01  0.66397409351E+01  0.14883139879E+04  0.14883698344E+04  0.10000000000E+02 0.  1.
</event>
<event>
 5    1  0.7732857E-009  0.3795652E+03  0.7957747E-01  0.3453054E+00
         13   -1    0    0    0    0  0.00000000000E+00  0.00000000000E+00  0.14999999963E+04  0.15000000000E+04  0.10566000000E+00 0.  1.
        994   -1    0    0    0    0 -0.00000000000E+00 -0.00000000000E+00  0.11368683772E-12  0.17120000000E+03  0.17120000000E+03 0.  0.
         13    1    1    2    0    0  0.63432285831E+02  0.89208639388E+02  0.30927194586E+03  0.32807161396E+03  0.10566000000E+00 0.  1.
        994    1    1    2    0    0 -0.49283057835E+02 -0.84079593653E+02  0.51312638959E+02  0.20356970495E+03  0.17120000000E+03 0.  0.
        998    1    1    2    0    0 -0.14149227997E+02 -0.51290457353E+01  0.11394154115E+04  0.11395586811E+04  0.10000000000E+02 0.  1.
</event>
<event>
 5    1  0.7732857E-009  0.3637041E+03  0.7957747E-01  0.3525336E+00
         13   -1    0    0    0    0  0.00000000000E+00  0.00000000000E+00  0.14999999963E+04  0.15000000000E+04  0.10566000000E+00 0. -1.
        994   -1    0    0    0    0 -0.00000000000E+00 -0.00000000000E+00  0.11368683772E-12  0.17120000000E+03  0.17120000000E+03 0.  0.
         13    1    1    2    0    0 -0.96677160480E+02 -0.23646741239E+03  0.10556024185E+04  0.10860754060E+04  0.10566000000E+00 0. -1.
        994    1    1    2    0    0  0.58221448584E+02  0.24565234555E+03  0.27436215808E+03  0.41026679824E+03  0.17120000000E+03 0.  0.
        998    1    1    2    0    0  0.38455711895E+02 -0.91849331615E+01  0.17003541970E+03  0.17485779573E+03  0.10000000000E+02 0.  1.
</event>
<event>
 5    1  0.7732857E-009  0.3841253E+03  0.7957747E-01  0.3433390E+00
         13   -1    0    0    0    0  0.00000000000E+00  0.00000000000E+00  0.14999999963E+04  0.15000000000E+04  0.10566000000E+00 0.  1.
        994   -1    0    0    0    0 -0.00000000000E+00 -0.00000000000E+00  0.11368683772E-12  0.17120000000E+03  0.17120000000E+03 0.  0.
         13    1    1    2    0    0 -0.58341670022E+01 -0.15094500525E+02  0.70300472041E+02  0.72139094699E+02  0.10566000000E+00 0.  1.
        994    1    1    2    0    0 -0.12816584203E-01 -0.81661523652E+01  0.22850081947E+01  0.17140988149E+03  0.17120000000E+03 0.  0.
        998    1    1    2    0    0  0.58469835864E+01  0.23260652890E+02  0.14274145160E+04  0.14276510238E+04  0.10000000000E+02 0.  1.
</event>
<event>
 5    1  0.7732857E-009  0.3804160E+03  0.7957747E-01  0.3449349E+00
         13   -1    0    0    0    0  0.00000000000E+00  0.00000000000E+00  0.14999999963E+04  0.15000000000E+04  0.10566000000E+00 0. -1.
        994   -1    0    0    0    0 -0.00000000000E+00 -0.00000000000E+00  0.11368683772E-12  0.17120000000E+03  0.17120000000E+03 0.  0.
         13    1    1    2    0    0 -0.11053971577E+02 -0.25103856738E+02  0.88896320045E+02  0.93032041751E+02  0.10566000000E+00 0. -1.
        994    1    1    2    0    0  0.20420848121E+02  0.23092028394E+02  0.71020694599E+01  0.17409805342E+03  0.17120000000E+03 0.  0.
        998    1    1    2    0    0 -0.93668765443E+01  0.20118283437E+01  0.14040016068E+04  0.14040699048E+04  0.10000000000E+02 0. -1.
</event>
<event>
 5    1  0.7732857E-009  0.3743125E+03  0.7957747E-01  0.3476303E+00
         13   -1    0    0    0    0  0.00000000000E+00  0.00000000000E+00  0.14999999963E+04  0.15000000000E+04  0.10566000000E+00 0. -1.
        994   -1    0    0    0    0 -0.00000000000E+00 -0.00000000000E+00  0.11368683772E-12  0.17120000000E+03  0.17120000000E+03 0.  0.
         13    1    1    2    0    0  0.42346293166E+02  0.42556765060E+02  0.16867936437E+03  0.17904475956E+03  0.10566000000E+00 0. -1.
        994    1    1    2    0    0  0.38270176874E+02 -0.94436317869E+01  0.18773179033E+02  0.17667954287E+03  0.17120000000E+03 0.  0.
        998    1    1    2    0    0 -0.80616470040E+02 -0.33113133273E+02  0.13125474529E+04  0.13154756976E+04  0.10000000000E+02 0. -1.
</event>
<event>
 5    1  0.1100588E-008  0.3854850E+03  0.7957747E-01  0.3427618E+00
         13   -1    0    0    0    0  0.00000000000E+00  0.00000000000E+00  0.14999999963E+04  0.15000000000E+04  0.10566000000E+00 0.  1.
        994   -1    0    0    0    0 -0.00000000000E+00 -0.00000000000E+00  0.11368683772E-12  0.17120000000E+03  0.17120000000E+03 0.  0.
         13    1    1    2    0    0 -0.10590630578E+02  0.59082530728E+01  0.51988097901E+02  0.53383915160E+02  0.10566000000E+00 0.  1.
        994    1    1    2    0    0  0.13360007157E+02 -0.28376509812E+00  0.19760834465E+01  0.17173210305E+03  0.17120000000E+03 0.  0.
        998    1    1    2    0    0 -0.27693765794E+01 -0.56244879747E+01  0.14460358149E+04  0.14460839818E+04  0.10000000000E+02 0.  1.
</event>
<event>
 5    1  0.7732857E-009  0.3817515E+03  0.7957747E-01  0.3443567E+00
         13   -1    0    0    0    0  0.00000000000E+00  0.00000000000E+00  0.14999999963E+04  0.15000000000E+04  0.10566000000E+00 0.  1.
        994   -1    0    0    0    0 -0.00000000000E+00 -0.00000000000E+00  0.11368683772E-12  0.17120000000E+03  0.17120000000E+03 0.  0.
         13    1    1    2    0    0 -0.11995911333E+02 -0.18802263049E+02  0.67978348027E+01  0.23316275571E+02  0.10566000000E+00 0.  1.
        994    1    1    2    0    0  0.12191883293E+01  0.21427565852E+02  0.18974292300E+02  0.17358021421E+03  0.17120000000E+03 0.  0.
        998    1    1    2    0    0  0.10776723004E+02 -0.26253028029E+01  0.14742278692E+04  0.14743035102E+04  0.10000000000E+02 0.  1.
</event>
<event>
 5    1  0.8435295E-009  0.3856685E+03  0.7957747E-01  0.3426842E+00
         13   -1    0    0    0    0  0.00000000000E+00  0.00000000000E+00  0.14999999963E+04  0.15000000000E+04  0.10566000000E+00 0.  1.
        994   -1    0    0    0    0 -0.00000000000E+00 -0.00000000000E+00  0.11368683772E-12  0.17120000000E+03  0.17120000000E+03 0.  0.
         13    1    1    2    0    0  0.12446718661E+02  0.40276848805E+00  0.58527611240E+02  0.59837909968E+02  0.10566000000E+00 0.  1.
        994    1    1    2    0    0 -0.12282551973E+02 -0.28397022005E+01  0.18202701749E+01  0.17167317314E+03  0.17120000000E+03 0.  0.
        998    1    1    2    0    0 -0.16416668721E+00  0.24369337124E+01  0.14396521149E+04  0.14396889169E+04  0.10000000000E+02 0.  1.
</event>
<event>
 5    1  0.1256044E-008  0.3861274E+03  0.7957747E-01  0.3424905E+00
         13   -1    0    0    0    0  0.00000000000E+00  0.00000000000E+00  0.14999999963E+04  0.15000000000E+04  0.10566000000E+00 0.  1.
        994   -1    0    0    0    0 -0.00000000000E+00 -0.00000000000E+00  0.11368683772E-12  0.17120000000E+03  0.17120000000E+03 0.  0.
         13    1    1    2    0    0  0.56457001479E+01  0.10962465642E+02  0.70093063073E+02  0.71169503568E+02  0.10566000000E+00 0.  1.
        994    1    1    2    0    0 -0.34426379646E+00 -0.12705617893E+02  0.16009818541E+01  0.17167863695E+03  0.17120000000E+03 0.  0.
        998    1    1    2    0    0 -0.53014363514E+01  0.17431522504E+01  0.14283059514E+04  0.14283518595E+04  0.10000000000E+02 0.  1.
</event>
<event>
 5    1  0.7732857E-009  0.3686159E+03  0.7957747E-01  0.3502276E+00
         13   -1    0    0    0    0  0.00000000000E+00  0.00000000000E+00  0.14999999963E+04  0.15000000000E+04  0.10566000000E+00 0.  1.
        994   -1    0    0    0    0 -0.00000000000E+00 -0.00000000000E+00  0.11368683772E-12  0.17120000000E+03  0.17120000000E+03 0.  0.
         13    1    1    2    0    0 -0.71256029414E+01  0.45994097638E+02  0.95050330280E+02  0.10583386833E+03  0.10566000000E+00 0.  1.
        994    1    1    2    0    0 -0.67103077672E+01 -0.52328933098E+02  0.19955891964E+02  0.18025266459E+03  0.17120000000E+03 0.  0.
        998    1    1    2    0    0  0.13835910709E+02  0.63348354598E+01  0.13849937740E+04  0.13851134671E+04  0.10000000000E+02 0.  1.
</event>
<event>
 5    1  0.7732857E-009  0.3751103E+03  0.7957747E-01  0.3472730E+00
         13   -1    0    0    0    0  0.00000000000E+00  0.00000000000E+00  0.14999999963E+04  0.15000000000E+04  0.10566000000E+00 0. -1.
        994   -1    0    0    0    0 -0.00000000000E+00 -0.00000000000E+00  0.11368683772E-12  0.17120000000E+03  0.17120000000E+03 0.  0.
         13    1    1    2    0    0  0.17681684096E+02 -0.49270914135E+02  0.24391354425E+03  0.24946761947E+03  0.10566000000E+00 0. -1.
        994    1    1    2    0    0  0.14433274519E+02  0.10598502863E+02  0.77123792432E+01  0.17230661180E+03  0.17120000000E+03 0.  0.
        998    1    1    2    0    0 -0.32114958614E+02  0.38672411272E+02  0.12483740728E+04  0.12494257687E+04  0.10000000000E+02 0. -1.
</event>
<event>
 5    1  0.7732857E-009  0.3846744E+03  0.7957747E-01  0.3431054E+00
         13   -1    0    0    0    0  0.00000000000E+00  0.00000000000E+00  0.14999999963E+04  0.15000000000E+04  0.10566000000E+00 0.  1.
        994   -1    0    0    0    0 -0.00000000000E+00 -0.00000000000E+00  0.11368683772E-12  0.17120000000E+03  0.17120000000E+03 0.  0.
         13    1    1    2    0    0  0.11208239742E+02  0.44953010428E+01  0.40991631633E+02  0.42733562893E+02  0.10566000000E+00 0.  1.
        994    1    1    2    0    0 -0.67499477951E+01  0.25323001906E+01  0.19629813269E+01  0.17136297043E+03  0.17120000000E+03 0.  0.
        998    1    1    2    0    0 -0.44582919467E+01 -0.70276012333E+01  0.14570453833E+04  0.14571034667E+04  0.10000000000E+02 0.  1.
</event>
<event>
 5    1  0.7732857E-009  0.3829970E+03  0.7957747E-01  0.3438212E+00
         13   -1    0    0    0    0  0.00000000000E+00  0.00000000000E+00  0.14999999963E+04  0.15000000000E+04  0.10566000000E+00 0. -1.
        994   -1    0    0    0    0 -0.00000000000E+00 -0.00000000000E+00  0.11368683772E-12  0.17120000000E+03  0.17120000000E+03 0.  0.
         13    1    1    2    0    0 -0.49604534661E+01  0.18355889661E+02  0.63638122521E+02  0.66418119410E+02  0.10566000000E+00 0. -1.
        994    1    1    2    0    0  0.19453687562E+02 -0.21378879396E+02  0.53984142325E+01  0.17370689486E+03  0.17120000000E+03 0.  0.
        998    1    1    2    0    0 -0.14493234096E+02  0.30229897346E+01  0.14309634595E+04  0.14310749857E+04  0.10000000000E+02 0. -1.
</event>
<event>
 5    1  0.7732857E-009  0.3845939E+03  0.7957747E-01  0.3431396E+00
         13   -1    0    0    0    0  0.00000000000E+00  0.00000000000E+00  0.14999999963E+04  0.15000000000E+04  0.10566000000E+00 0.  1.
        994   -1    0    0    0    0 -0.00000000000E+00 -0.00000000000E+00  0.11368683772E-12  0.17120000000E+03  0.17120000000E+03 0.  0.
         13    1    1    2    0    0  0.14111590598E+02  0.93604318039E+01  0.78093675437E+02  0.79908622689E+02  0.10566000000E+00 0.  1.
        994    1    1    2    0    0 -0.84481220589E+01 -0.71113663419E+01  0.22335494891E+01  0.17157030932E+03  0.17120000000E+03 0.  0.
        998    1    1    2    0    0 -0.56634685395E+01 -0.22490654620E+01  0.14196727714E+04  0.14197210680E+04  0.10000000000E+02 0.  1.
</event>
<event>
 5    1  0.7732857E-009  0.3788256E+03  0.7957747E-01  0.3456288E+00
         13   -1    0    0    0    0  0.00000000000E+00  0.00000000000E+00  0.14999999963E+04  0.15000000000E+04  0.10566000000E+00 0.  1.
        994   -1    0    0    0    0 -0.00000000000E+00 -0.00000000000E+00  0.11368683772E-12  0.17120000000E+03  0.17120000000E+03 0.  0.
         13    1    1    2    0    0 -0.23124104216E+02  0.10192334663E+02  0.64618064486E+02  0.69383811538E+02  0.10566000000E+00 0.  1.
        994    1    1    2    0    0  0.22326536984E+02 -0.53774381407E+00  0.64027761183E+01  0.17276920722E+03  0.17120000000E+03 0.  0.
        998    1    1    2    0    0  0.79756723198E+00 -0.96545908490E+01  0.14289791557E+04  0.14290469812E+04  0.10000000000E+02 0.  1.
</event>
<event>
 5    1  0.7732857E-009  0.3816813E+03  0.7957747E-01  0.3443870E+00
         13   -1    0    0    0    0  0.00000000000E+00  0.00000000000E+00  0.14999999963E+04  0.15000000000E+04  0.10566000000E+00 0. -1.
        994   -1    0    0    0    0 -0.00000000000E+00 -0.00000000000E+00  0.11368683772E-12  0.17120000000E+03  0.17120000000E+03 0.  0.
         13    1    1    2    0    0  0.42305331591E+01  0.12864792796E+02  0.26894342447E+02  0.30111743958E+02  0.10566000000E+00 0. -1.
        994    1    1    2    0    0  0.36140042374E+01 -0.78702101288E+01  0.35362208548E+01  0.17145537639E+03  0.17120000000E+03 0.  0.
        998    1    1    2    0    0 -0.78445373965E+01 -0.49945826673E+01  0.14695694330E+04  0.14696328797E+04  0.10000000000E+02 0. -1.
</event>
<event>
 5    1  0.7732857E-009  0.3853497E+03  0.7957747E-01  0.3428190E+00
         13   -1    0    0    0    0  0.00000000000E+00  0.00000000000E+00  0.14999999963E+04  0.15000000000E+04  0.10566000000E+00 0.  1.
        994   -1    0    0    0    0 -0.00000000000E+00 -0.00000000000E+00  0.11368683772E-12  0.17120000000E+03  0.17120000000E+03 0.  0.
         13    1    1    2    0    0  0.69094420839E+01  0.14576976165E+02  0.90343053160E+02  0.91772038455E+02  0.10566000000E+00 0.  1.
        994    1    1    2    0    0 -0.32498573675E+01 -0.89068018784E+01  0.17519549113E+01  0.17147128634E+03  0.17120000000E+03 0.  0.
        998    1    1    2    0    0 -0.36595847164E+01 -0.56701742865E+01  0.14079049882E+04  0.14079566752E+04  0.10000000000E+02 0.  1.
</event>
<event>
 5    1  0.7732857E-009  0.3872557E+03  0.7957747E-01  0.3420162E+00
         13   -1    0    0    0    0  0.00000000000E+00  0.00000000000E+00  0.14999999963E+04  0.15000000000E+04  0.10566000000E+00 0.  1.
        994   -1    0    0    0    0 -0.00000000000E+00 -0.00000000000E+00  0.11368683772E-12  0.17120000000E+03  0.17120000000E+03 0.  0.
         13    1    1    2    0    0  0.15852657183E+02 -0.29038634988E+02  0.17525869143E+02  0.37439502066E+02  0.10566000000E+00 0.  1.
        994    1    1    2    0    0 -0.37629549814E+00  0.52397591917E+02  0.30664867980E+02  0.18164642404E+03  0.17120000000E+03 0.  0.
        998    1    1    2    0    0 -0.15476361685E+02 -0.23358956929E+02  0.14518092592E+04  0.14521140739E+04  0.10000000000E+02 0.  1.
</event>
<event>
 5    1  0.7732857E-009  0.3841354E+03  0.7957747E-01  0.3433348E+00
         13   -1    0    0    0    0  0.00000000000E+00  0.00000000000E+00  0.14999999963E+04  0.15000000000E+04  0.10566000000E+00 0.  1.
        994   -1    0    0    0    0 -0.00000000000E+00 -0.00000000000E+00  0.11368683772E-12  0.17120000000E+03  0.17120000000E+03 0.  0.
         13    1    1    2    0    0  0.14340793951E+02  0.12035981002E+01  0.49526260231E+02  0.51574883772E+02  0.10566000000E+00 0.  1.
        994    1    1    2    0    0 -0.11160160365E+02  0.30269823932E+01  0.25011202245E+01  0.17160829643E+03  0.17120000000E+03 0.  0.
        998    1    1    2    0    0 -0.31806335860E+01 -0.42305804934E+01  0.14479726158E+04  0.14480168198E+04  0.10000000000E+02 0.  1.
</event>
<event>
 5    1  0.7732857E-009  0.3829811E+03  0.7957747E-01  0.3438280E+00
         13   -1    0    0    0    0  0.00000000000E+00  0.00000000000E+00  0.14999999963E+04  0.15000000000E+04  0.10566000000E+00 0.  1.
        994   -1    0    0    0    0 -0.00000000000E+00 -0.00000000000E+00  0.11368683772E-12  0.17120000000E+03  0.17120000000E+03 0.  0.
         13    1    1    2    0    0  0.33040672707E+02 -0.78032101890E+01  0.19465820198E+03  0.19759656603E+03  0.10566000000E+00 0.  1.
        994    1    1    2    0    0 -0.27174573661E+02  0.32130229980E+02  0.85199980594E+01  0.17650166996E+03  0.17120000000E+03 0.  0.
        998    1    1    2    0    0 -0.58660990454E+01 -0.24327019791E+02  0.12968217962E+04  0.12971017640E+04  0.10000000000E+02 0.  1.
</event>
<event>
 5    1  0.7732857E-009  0.3853759E+03  0.7957747E-01  0.3428079E+00
         13   -1    0    0    0    0  0.00000000000E+00  0.00000000000E+00  0.14999999963E+04  0.15000000000E+04  0.10566000000E+00 0. -1.
        994   -1    0    0    0    0 -0.00000000000E+00 -0.00000000000E+00  0.11368683772E-12  0.17120000000E+03  0.17120000000E+03 0.  0.
         13    1    1    2    0    0 -0.33302120284E+00 -0.12068319697E+02  0.50042369807E+02  0.51478201050E+02  0.10566000000E+00 0. -1.
        994    1    1    2    0    0 -0.29759233698E+01  0.10176586774E+02  0.18129630910E+01  0.17153759318E+03  0.17120000000E+03 0.  0.
        998    1    1    2    0    0  0.33089445726E+01  0.18917329233E+01  0.14481446634E+04  0.14481842058E+04  0.10000000000E+02 0. -1.
</event>
<event>
 5    1  0.7732857E-009  0.3783597E+03  0.7957747E-01  0.3458332E+00
         13   -1    0    0    0    0  0.00000000000E+00  0.00000000000E+00  0.14999999963E+04  0.15000000000E+04  0.10566000000E+00 0.  1.
        994   -1    0    0    0    0 -0.00000000000E+00 -0.00000000000E+00  0.11368683772E-12  0.17120000000E+03  0.17120000000E+03 0.  0.
         13    1    1    2    0    0  0.98964497761E+01  0.87107081835E+01  0.15314939596E+02  0.20208282809E+02  0.10566000000E+00 0.  1.
        994    1    1    2    0    0 -0.90596526024E+01 -0.56082838038E+01  0.53451395276E+01  0.17161451183E+03  0.17120000000E+03 0.  0.
        998    1    1    2    0    0 -0.83679717370E+00 -0.31024243796E+01  0.14793399172E+04  0.14793772054E+04  0.10000000000E+02 0.  1.
</event>
<event>
 5    1  0.7732857E-009  0.3814168E+03  0.7957747E-01  0.3445012E+00
         13   -1    0    0    0    0  0.00000000000E+00  0.00000000000E+00  0.14999999963E+04  0.15000000000E+04  0.10566000000E+00 0. -1.
        994   -1    0    0    0    0 -0.00000000000E+00 -0.00000000000E+00  0.11368683772E-12  0.17120000000E+03  0.17120000000E+03 0.  0.
         13    1    1    2    0    0  0.24087498871E+02  0.22703437694E+02  0.15365099224E+03  0.15717599138E+03  0.10566000000E+00 0. -1.
        994    1    1    2    0    0 -0.14461521544E+02 -0.20392894567E+02  0.55020271822E+01  0.17310320060E+03  0.17120000000E+03 0.  0.
        998    1    1    2    0    0 -0.96259773270E+01 -0.23105431265E+01  0.13408469769E+04  0.13409208080E+04  0.10000000000E+02 0. -1.
</event>
<event>
 5    1  0.7732857E-009  0.3734629E+03  0.7957747E-01  0.3480126E+00
         13   -1    0    0    0    0  0.00000000000E+00  0.00000000000E+00  0.14999999963E+04  0.15000000000E+04  0.10566000000E+00 0.  1.
        994   -1    0    0    0    0 -0.00000000000E+00 -0.00000000000E+00  0.11368683772E-12  0.17120000000E+03  0.17120000000E+03 0.  0.
         13    1    1    2    0    0  0.35820012765E+02  0.17743990953E+02  0.99627718807E+02  0.10734810687E+03  0.10566000000E+00 0.  1.
        994    1    1    2    0    0 -0.32883627474E+02 -0.14707595414E+02  0.11917039137E+02  0.17535421906E+03  0.17120000000E+03 0.  0.
        998    1    1    2    0    0 -0.29363852918E+01 -0.30363955388E+01  0.13884552383E+04  0.13884976741E+04  0.10000000000E+02 0.  1.
</event>
<event>
 5    1  0.7732857E-009  0.3837613E+03  0.7957747E-01  0.3434943E+00
         13   -1    0    0    0    0  0.00000000000E+00  0.00000000000E+00  0.14999999963E+04  0.15000000000E+04  0.10566000000E+00 0.  1.
        994   -1    0    0    0    0 -0.00000000000E+00 -0.00000000000E+00  0.11368683772E-12  0.17120000000E+03  0.17120000000E+03 0.  0.
         13    1    1    2    0    0 -0.10404379642E+02 -0.21644738430E+02  0.13436664725E+03  0.13649598117E+03  0.10566000000E+00 0.  1.
        994    1    1    2    0    0 -0.36542289152E+00  0.95286145536E+01  0.25466661668E+01  0.17148426615E+03  0.17120000000E+03 0.  0.
        998    1    1    2    0    0  0.10769802533E+02  0.12116123877E+02  0.13630866829E+04  0.13632197527E+04  0.10000000000E+02 0.  1.
</event>
<event>
 5    1  0.7732857E-009  0.3834670E+03  0.7957747E-01  0.3436200E+00
         13   -1    0    0    0    0  0.00000000000E+00  0.00000000000E+00  0.14999999963E+04  0.15000000000E+04  0.10566000000E+00 0. -1.
        994   -1    0    0    0    0 -0.00000000000E+00 -0.00000000000E+00  0.11368683772E-12  0.17120000000E+03  0.17120000000E+03 0.  0.
         13    1    1    2    0    0 -0.15439855362E+02  0.28152669659E+01  0.54312994448E+02  0.56535187199E+02  0.10566000000E+00 0. -1.
        994    1    1    2    0    0  0.10363477382E+01  0.21339516890E+02  0.39032020000E+01  0.17257208344E+03  0.17120000000E+03 0.  0.
        998    1    1    2    0    0  0.14403507624E+02 -0.24154783856E+02  0.14417837998E+04  0.14420927294E+04  0.10000000000E+02 0. -1.
</event>
<event>
 5    1  0.7732857E-009  0.3727601E+03  0.7957747E-01  0.3483301E+00
         13   -1    0    0    0    0  0.00000000000E+00  0.00000000000E+00  0.14999999963E+04  0.15000000000E+04  0.10566000000E+00 0.  1.
        994   -1    0    0    0    0 -0.00000000000E+00 -0.00000000000E+00  0.11368683772E-12  0.17120000000E+03  0.17120000000E+03 0.  0.
         13    1    1    2    0    0  0.34205595905E+02 -0.13891762548E+02  0.79276938090E+02  0.87451975020E+02  0.10566000000E+00 0.  1.
        994    1    1    2    0    0 -0.25326817576E+02  0.43737032538E+02  0.16633550934E+02  0.17927769164E+03  0.17120000000E+03 0.  0.
        998    1    1    2    0    0 -0.88787783298E+01 -0.29845269990E+02  0.14040895073E+04  0.14044703333E+04  0.10000000000E+02 0.  1.
</event>
<event>
 5    1  0.7732857E-009  0.3749833E+03  0.7957747E-01  0.3473297E+00
         13   -1    0    0    0    0  0.00000000000E+00  0.00000000000E+00  0.14999999963E+04  0.15000000000E+04  0.10566000000E+00 0.  1.
        994   -1    0    0    0    0 -0.00000000000E+00 -0.00000000000E+00  0.11368683772E-12  0.17120000000E+03  0.17120000000E+03 0.  0.
         13    1    1    2    0    0  0.77041105777E+02 -0.13686632678E+03  0.80399888708E+03  0.81919591367E+03  0.10566000000E+00 0.  1.
        994    1    1    2    0    0 -0.77669187310E+02  0.13282862798E+03  0.91973738002E+02  0.24788012335E+03  0.17120000000E+03 0.  0.
        998    1    1    2    0    0  0.62808153254E+00  0.40376987986E+01  0.60402737119E+03  0.60412396298E+03  0.10000000000E+02 0.  0.
</event>
<event>
 5    1  0.7732857E-009  0.2735379E+03  0.7957747E-01  0.4105149E+00
         13   -1    0    0    0    0  0.00000000000E+00  0.00000000000E+00  0.14999999963E+04  0.15000000000E+04  0.10566000000E+00 0. -1.
        994   -1    0    0    0    0 -0.00000000000E+00 -0.00000000000E+00  0.11368683772E-12  0.17120000000E+03  0.17120000000E+03 0.  0.
         13    1    1    2    0    0 -0.16139559892E+03  0.66923281877E+02  0.46766851579E+03  0.49924054005E+03  0.10566000000E+00 0. -1.
        994    1    1    2    0    0  0.15587292632E+03 -0.69309827501E+02  0.13950019321E+03  0.27905190423E+03  0.17120000000E+03 0.  0.
        998    1    1    2    0    0  0.55226726029E+01  0.23865456241E+01  0.89283128729E+03  0.89290755572E+03  0.10000000000E+02 0.  0.
</event>
<event>
 5    1  0.7732857E-009  0.3837269E+03  0.7957747E-01  0.3435090E+00
         13   -1    0    0    0    0  0.00000000000E+00  0.00000000000E+00  0.14999999963E+04  0.15000000000E+04  0.10566000000E+00 0. -1.
        994   -1    0    0    0    0 -0.00000000000E+00 -0.00000000000E+00  0.11368683772E-12  0.17120000000E+03  0.17120000000E+03 0.  0.
         13    1    1    2    0    0 -0.23646095778E+02 -0.76140294812E+01  0.13978987012E+03  0.14198003466E+03  0.10566000000E+00 0. -1.
        994    1    1    2    0    0  0.17362158066E+02 -0.14501481456E+02  0.39552590291E+01  0.17273338291E+03  0.17120000000E+03 0.  0.
        998    1    1    2    0    0  0.62839377128E+01  0.22115510937E+02  0.13562548671E+04  0.13564865824E+04  0.10000000000E+02 0. -1.
</event>
<event>
 5    1  0.7732857E-009  0.3847353E+03  0.7957747E-01  0.3430796E+00
         13   -1    0    0    0    0  0.00000000000E+00  0.00000000000E+00  0.14999999963E+04  0.15000000000E+04  0.10566000000E+00 0. -1.
        994   -1    0    0    0    0 -0.00000000000E+00 -0.00000000000E+00  0.11368683772E-12  0.17120000000E+03  0.17120000000E+03 0.  0.
         13    1    1    2    0    0  0.20990370516E+02  0.19133255389E+01  0.12577080287E+03  0.12752475245E+03  0.10566000000E+00 0. -1.
        994    1    1    2    0    0 -0.19600982483E+02  0.37230134477E+02  0.76102938201E+01  0.17645860138E+03  0.17120000000E+03 0.  0.
        998    1    1    2    0    0 -0.13893880339E+01 -0.39143460016E+02  0.13666188996E+04  0.13672166462E+04  0.10000000000E+02 0. -1.
</event>
<event>
 5    1  0.7732857E-009  0.3804908E+03  0.7957747E-01  0.3449024E+00
         13   -1    0    0    0    0  0.00000000000E+00  0.00000000000E+00  0.14999999963E+04  0.15000000000E+04  0.10566000000E+00 0.  1.
        994   -1    0    0    0    0 -0.00000000000E+00 -0.00000000000E+00  0.11368683772E-12  0.17120000000E+03  0.17120000000E+03 0.  0.
         13    1    1    2    0    0 -0.30413044594E+02  0.44437982018E+01  0.12321206113E+03  0.12698788838E+03  0.10566000000E+00 0.  1.
        994    1    1    2    0    0  0.17193664354E+02  0.16485618196E+02  0.57815939502E+01  0.17294584277E+03  0.17120000000E+03 0.  0.
        998    1    1    2    0    0  0.13219380240E+02 -0.20929416398E+02  0.13710063412E+04  0.13712662689E+04  0.10000000000E+02 0.  1.
</event>
<event>
 5    1  0.1745845E-008  0.3856776E+03  0.7957747E-01  0.3426804E+00
         13   -1    0    0    0    0  0.00000000000E+00  0.00000000000E+00  0.14999999963E+04  0.15000000000E+04  0.10566000000E+00 0. -1.
        994   -1    0    0    0    0 -0.00000000000E+00 -0.00000000000E+00  0.11368683772E-12  0.17120000000E+03  0.17120000000E+03 0.  0.
         13    1    1    2    0    0 -0.11901318163E+02 -0.68698721912E+01  0.74863462676E+02  0.76114293834E+02  0.10566000000E+00 0. -1.
        994    1    1    2    0    0  0.48377688740E+01  0.48293656894E+01  0.14474594614E+01  0.17134252805E+03  0.17120000000E+03 0.  0.
        998    1    1    2    0    0  0.70635492888E+01  0.20405065018E+01  0.14236890741E+04  0.14237431781E+04  0.10000000000E+02 0. -1.
</event>
<event>
 5    1  0.7732857E-009  0.3855308E+03  0.7957747E-01  0.3427424E+00
         13   -1    0    0    0    0  0.00000000000E+00  0.00000000000E+00  0.14999999963E+04  0.15000000000E+04  0.10566000000E+00 0. -1.
        994   -1    0    0    0    0 -0.00000000000E+00 -0.00000000000E+00  0.11368683772E-12  0.17120000000E+03  0.17120000000E+03 0.  0.
         13    1    1    2    0    0 -0.11025393556E+02 -0.44490058656E+01  0.52099856699E+02  0.53439303779E+02  0.10566000000E+00 0. -1.
        994    1    1    2    0    0  0.58258195373E+01  0.57550574150E+01  0.15870402649E+01  0.17140309086E+03  0.17120000000E+03 0.  0.
        998    1    1    2    0    0  0.51995740188E+01 -0.13060515494E+01  0.14463130993E+04  0.14463576054E+04  0.10000000000E+02 0. -1.
</event>
<event>
 5    1  0.7732857E-009  0.3851246E+03  0.7957747E-01  0.3429144E+00
         13   -1    0    0    0    0  0.00000000000E+00  0.00000000000E+00  0.14999999963E+04  0.15000000000E+04  0.10566000000E+00 0. -1.
        994   -1    0    0    0    0 -0.00000000000E+00 -0.00000000000E+00  0.11368683772E-12  0.17120000000E+03  0.17120000000E+03 0.  0.
         13    1    1    2    0    0  0.64188985557E+01 -0.11979891719E+02  0.56020046730E+02  0.57645267490E+02  0.10566000000E+00 0. -1.
        994    1    1    2    0    0 -0.57857639629E+01  0.16876984609E+02  0.26153585012E+01  0.17214699467E+03  0.17120000000E+03 0.  0.
        998    1    1    2    0    0 -0.63313459277E+00 -0.48970928901E+01  0.14413645910E+04  0.14414077378E+04  0.10000000000E+02 0. -1.
</event>
<event>
 5    1  0.7732857E-009  0.3769674E+03  0.7957747E-01  0.3464470E+00
         13   -1    0    0    0    0  0.00000000000E+00  0.00000000000E+00  0.14999999963E+04  0.15000000000E+04  0.10566000000E+00 0. -1.
        994   -1    0    0    0    0 -0.00000000000E+00 -0.00000000000E+00  0.11368683772E-12  0.17120000000E+03  0.17120000000E+03 0.  0.
         13    1    1    2    0    0 -0.72532723547E+02  0.42269535236E+02  0.42932046780E+03  0.43745146568E+03  0.10566000000E+00 0. -1.
        994    1    1    2    0    0  0.77473912645E+02 -0.38062636839E+02  0.31261228311E+02  0.19426187444E+03  0.17120000000E+03 0.  0.
        998    1    1    2    0    0 -0.49411890983E+01 -0.42068983972E+01  0.10394183002E+04  0.10394866599E+04  0.10000000000E+02 0. -1.
</event>
<event>
 5    1  0.7732857E-009  0.3780177E+03  0.7957747E-01  0.3459836E+00
         13   -1    0    0    0    0  0.00000000000E+00  0.00000000000E+00  0.14999999963E+04  0.15000000000E+04  0.10566000000E+00 0. -1.
        994   -1    0    0    0    0 -0.00000000000E+00 -0.00000000000E+00  0.11368683772E-12  0.17120000000E+03  0.17120000000E+03 0.  0.
         13    1    1    2    0    0  0.85075852416E+02 -0.11100302038E+03  0.40330675076E+03  0.42686756444E+03  0.10566000000E+00 0. -1.
        994    1    1    2    0    0 -0.74215322366E+02  0.13563809321E+03  0.10711873137E+03  0.25434124521E+03  0.17120000000E+03 0.  0.
        998    1    1    2    0    0 -0.10860530050E+02 -0.24635072824E+02  0.98957451414E+03  0.98999119035E+03  0.10000000000E+02 0. -1.
</event>
<event>
 5    1  0.7732857E-009  0.3720958E+03  0.7957747E-01  0.3486314E+00
         13   -1    0    0    0    0  0.00000000000E+00  0.00000000000E+00  0.14999999963E+04  0.15000000000E+04  0.10566000000E+00 0.  1.
        994   -1    0    0    0    0 -0.00000000000E+00 -0.00000000000E+00  0.11368683772E-12  0.17120000000E+03  0.17120000000E+03 0.  0.
         13    1    1    2    0    0  0.26825222147E+02 -0.58535249493E+01  0.42263463789E+02  0.50399085637E+02  0.10566000000E+00 0.  1.
        994    1    1    2    0    0 -0.22421658962E+02  0.71288534883E+01  0.10080285045E+02  0.17310286967E+03  0.17120000000E+03 0.  0.
        998    1    1    2    0    0 -0.44035631860E+01 -0.12753285390E+01  0.14476562474E+04  0.14476980447E+04  0.10000000000E+02 0.  1.
</event>
<event>
 5    1  0.7732857E-009  0.3792145E+03  0.7957747E-01  0.3454586E+00
         13   -1    0    0    0    0  0.00000000000E+00  0.00000000000E+00  0.14999999963E+04  0.15000000000E+04  0.10566000000E+00 0.  1.
        994   -1    0    0    0    0 -0.00000000000E+00 -0.00000000000E+00  0.11368683772E-12  0.17120000000E+03  0.17120000000E+03 0.  0.
         13    1    1    2    0    0 -0.19812695758E+02  0.66904860199E+01  0.45056137428E+02  0.49672650426E+02  0.10566000000E+00 0.  1.
        994    1    1    2    0    0  0.22437100818E+02 -0.55441034828E+01  0.63225187318E+01  0.17286866350E+03  0.17120000000E+03 0.  0.
        998    1    1    2    0    0 -0.26244050601E+01 -0.11463825370E+01  0.14486213401E+04  0.14486586861E+04  0.10000000000E+02 0.  1.
</event>
<event>
 5    1  0.7732857E-009  0.3835413E+03  0.7957747E-01  0.3435882E+00
         13   -1    0    0    0    0  0.00000000000E+00  0.00000000000E+00  0.14999999963E+04  0.15000000000E+04  0.10566000000E+00 0.  1.
        994   -1    0    0    0    0 -0.00000000000E+00 -0.00000000000E+00  0.11368683772E-12  0.17120000000E+03  0.17120000000E+03 0.  0.
         13    1    1    2    0    0  0.13735584723E+02 -0.10485773420E+02  0.62533199329E+02  0.64877036880E+02  0.10566000000E+00 0.  1.
        994    1    1    2    0    0 -0.23018277678E+02 -0.97525365883E+01  0.44238162941E+01  0.17307213302E+03  0.17120000000E+03 0.  0.
        998    1    1    2    0    0  0.92826929546E+01  0.20238310008E+02  0.14330429807E+04  0.14332508301E+04  0.10000000000E+02 0.  1.
</event>
<event>
 5    1  0.7732857E-009  0.3839762E+03  0.7957747E-01  0.3434026E+00
         13   -1    0    0    0    0  0.00000000000E+00  0.00000000000E+00  0.14999999963E+04  0.15000000000E+04  0.10566000000E+00 0.  1.
        994   -1    0    0    0    0 -0.00000000000E+00 -0.00000000000E+00  0.11368683772E-12  0.17120000000E+03  0.17120000000E+03 0.  0.
         13    1    1    2    0    0  0.14875404651E+02  0.77828406467E+01  0.60864820338E+02  0.63137847531E+02  0.10566000000E+00 0.  1.
        994    1    1    2    0    0 -0.16579902421E+02 -0.21293167278E+02  0.45460852141E+01  0.17337358227E+03  0.17120000000E+03 0.  0.
        998    1    1    2    0    0  0.17044977694E+01  0.13510326631E+02  0.14345890907E+04  0.14346885702E+04  0.10000000000E+02 0.  1.
</event>
<event>
 5    1  0.7732857E-009  0.3850778E+03  0.7957747E-01  0.3429342E+00
         13   -1    0    0    0    0  0.00000000000E+00  0.00000000000E+00  0.14999999963E+04  0.15000000000E+04  0.10566000000E+00 0.  1.
        994   -1    0    0    0    0 -0.00000000000E+00 -0.00000000000E+00  0.11368683772E-12  0.17120000000E+03  0.17120000000E+03 0.  0.
         13    1    1    2    0    0  0.18592550071E+02  0.92577515162E+01  0.12520514944E+03  0.12691623022E+03  0.10566000000E+00 0.  1.
        994    1    1    2    0    0 -0.19816150494E+02 -0.96864149267E+01  0.31926903800E+01  0.17264454734E+03  0.17120000000E+03 0.  0.
        998    1    1    2    0    0  0.12236004230E+01  0.42866341049E+00  0.13716021565E+04  0.13716392224E+04  0.10000000000E+02 0.  1.
</event>
<event>
 5    1  0.7732857E-009  0.3797675E+03  0.7957747E-01  0.3452172E+00
         13   -1    0    0    0    0  0.00000000000E+00  0.00000000000E+00  0.14999999963E+04  0.15000000000E+04  0.10566000000E+00 0. -1.
        994   -1    0    0    0    0 -0.00000000000E+00 -0.00000000000E+00  0.11368683772E-12  0.17120000000E+03  0.17120000000E+03 0.  0.
         13    1    1    2    0    0 -0.69805436622E+01 -0.84069013810E+01  0.12545882447E+02  0.16637737558E+02  0.10566000000E+00 0. -1.
        994    1    1    2    0    0  0.55845361467E+01 -0.10417221750E+02  0.47180928634E+01  0.17167237970E+03  0.17120000000E+03 0.  0.
        998    1    1    2    0    0  0.13960075155E+01  0.18824123131E+02  0.14827360210E+04  0.14828898827E+04  0.10000000000E+02 0. -1.
</event>
<event>
 5    1  0.7732857E-009  0.3801113E+03  0.7957747E-01  0.3450674E+00
         13   -1    0    0    0    0  0.00000000000E+00  0.00000000000E+00  0.14999999963E+04  0.15000000000E+04  0.10566000000E+00 0.  1.
        994   -1    0    0    0    0 -0.00000000000E+00 -0.00000000000E+00  0.11368683772E-12  0.17120000000E+03  0.17120000000E+03 0.  0.
         13    1    1    2    0    0 -0.50106112900E+01 -0.13223643969E+02  0.22802380025E+02  0.26831524074E+02  0.10566000000E+00 0.  1.
        994    1    1    2    0    0  0.64961544559E+00  0.11133510134E+02  0.44927123567E+01  0.17162168136E+03  0.17120000000E+03 0.  0.
        998    1    1    2    0    0  0.43609958444E+01  0.20901338345E+01  0.14727049039E+04  0.14727467946E+04  0.10000000000E+02 0.  1.
</event>
<event>
 5    1  0.7732857E-009  0.3720478E+03  0.7957747E-01  0.3486532E+00
         13   -1    0    0    0    0  0.00000000000E+00  0.00000000000E+00  0.14999999963E+04  0.15000000000E+04  0.10566000000E+00 0. -1.
        994   -1    0    0    0    0 -0.00000000000E+00 -0.00000000000E+00  0.11368683772E-12  0.17120000000E+03  0.17120000000E+03 0.  0.
         13    1    1    2    0    0 -0.17640063583E+02 -0.51459316144E+01  0.17003589484E+02  0.25035688022E+02  0.10566000000E+00 0. -1.
        994    1    1    2    0    0  0.13524141808E+02  0.28752720150E+01  0.88592505406E+01  0.17198574337E+03  0.17120000000E+03 0.  0.
        998    1    1    2    0    0  0.41159217747E+01  0.22706595994E+01  0.14741371563E+04  0.14741785686E+04  0.10000000000E+02 0. -1.
</event>
<event>
 5    1  0.7732857E-009  0.3781908E+03  0.7957747E-01  0.3459074E+00
         13   -1    0    0    0    0  0.00000000000E+00  0.00000000000E+00  0.14999999963E+04  0.15000000000E+04  0.10566000000E+00 0.  1.
        994   -1    0    0    0    0 -0.00000000000E+00 -0.00000000000E+00  0.11368683772E-12  0.17120000000E+03  0.17120000000E+03 0.  0.
         13    1    1    2    0    0 -0.68392741218E+00 -0.21583857418E+02  0.45417352555E+02  0.50289936716E+02  0.10566000000E+00 0.  1.
        994    1    1    2    0    0 -0.15877189672E+02  0.67715157754E+01  0.60518290537E+01  0.17217433959E+03  0.17120000000E+03 0.  0.
        998    1    1    2    0    0  0.16561117084E+02  0.14812341643E+02  0.14485308147E+04  0.14487357237E+04  0.10000000000E+02 0.  1.
</event>
<event>
 5    1  0.7732857E-009  0.3761941E+03  0.7957747E-01  0.3467900E+00
         13   -1    0    0    0    0  0.00000000000E+00  0.00000000000E+00  0.14999999963E+04  0.15000000000E+04  0.10566000000E+00 0. -1.
        994   -1    0    0    0    0 -0.00000000000E+00 -0.00000000000E+00  0.11368683772E-12  0.17120000000E+03  0.17120000000E+03 0.  0.
         13    1    1    2    0    0 -0.34150967107E+02 -0.88919138410E+02  0.44081187793E+03  0.45098561465E+03  0.10566000000E+00 0. -1.
        994    1    1    2    0    0  0.20172130393E+02  0.34004563674E+01  0.15749074988E+02  0.17313564425E+03  0.17120000000E+03 0.  0.
        998    1    1    2    0    0  0.13978836713E+02  0.85518682043E+02  0.10434390434E+04  0.10470787411E+04  0.10000000000E+02 0. -1.
</event>
<event>
 5    1  0.7732857E-009  0.3788803E+03  0.7957747E-01  0.3456048E+00
         13   -1    0    0    0    0  0.00000000000E+00  0.00000000000E+00  0.14999999963E+04  0.15000000000E+04  0.10566000000E+00 0.  1.
        994   -1    0    0    0    0 -0.00000000000E+00 -0.00000000000E+00  0.11368683772E-12  0.17120000000E+03  0.17120000000E+03 0.  0.
         13    1    1    2    0    0  0.67636669961E+01 -0.16690483404E+02  0.31062892676E+01  0.18275109426E+02  0.10566000000E+00 0.  1.
        994    1    1    2    0    0 -0.16841726335E+02  0.19475016055E+02  0.18109436557E+02  0.17406984716E+03  0.17120000000E+03 0.  0.
        998    1    1    2    0    0  0.10078059339E+02 -0.27845326516E+01  0.14787842705E+04  0.14788550434E+04  0.10000000000E+02 0.  1.
</event>
<event>
 5    1  0.7938814E-009  0.3849687E+03  0.7957747E-01  0.3429805E+00
         13   -1    0    0    0    0  0.00000000000E+00  0.00000000000E+00  0.14999999963E+04  0.15000000000E+04  0.10566000000E+00 0. -1.
        994   -1    0    0    0    0 -0.00000000000E+00 -0.00000000000E+00  0.11368683772E-12  0.17120000000E+03  0.17120000000E+03 0.  0.
         13    1    1    2    0    0  0.19187344864E+01 -0.19289487380E+02  0.10589547035E+03  0.10765513304E+03  0.10566000000E+00 0. -1.
        994    1    1    2    0    0  0.39849753024E-01  0.21894306290E+02  0.32238598335E+01  0.17262443485E+03  0.17120000000E+03 0.  0.
        998    1    1    2    0    0 -0.19585842394E+01 -0.26048189096E+01  0.13908806661E+04  0.13909204321E+04  0.10000000000E+02 0. -1.
</event>
<event>
 5    1  0.7732857E-009  0.3266661E+03  0.7957747E-01  0.3722303E+00
         13   -1    0    0    0    0  0.00000000000E+00  0.00000000000E+00  0.14999999963E+04  0.15000000000E+04  0.10566000000E+00 0. -1.
        994   -1    0    0    0    0 -0.00000000000E+00 -0.00000000000E+00  0.11368683772E-12  0.17120000000E+03  0.17120000000E+03 0.  0.
         13    1    1    2    0    0  0.11994407722E+03  0.17481279973E+03  0.81796190498E+03  0.84498981400E+03  0.10566000000E+00 0. -1.
        994    1    1    2    0    0 -0.11506860406E+03 -0.16225784473E+03  0.16737796302E+03  0.31127674877E+03  0.17120000000E+03 0.  0.
        998    1    1    2    0    0 -0.48754731571E+01 -0.12554954993E+02  0.51466012828E+03  0.51493343723E+03  0.10000000000E+02 0. -1.
</event>
<event>
 5    1  0.7732857E-009  0.3856226E+03  0.7957747E-01  0.3427036E+00
         13   -1    0    0    0    0  0.00000000000E+00  0.00000000000E+00  0.14999999963E+04  0.15000000000E+04  0.10566000000E+00 0.  1.
        994   -1    0    0    0    0 -0.00000000000E+00 -0.00000000000E+00  0.11368683772E-12  0.17120000000E+03  0.17120000000E+03 0.  0.
         13    1    1    2    0    0 -0.10469074666E+02 -0.22116160028E+01  0.43286621340E+02  0.44589634679E+02  0.10566000000E+00 0.  1.
        994    1    1    2    0    0  0.74806938427E+01  0.47615320908E+01  0.15794473649E+01  0.17143677442E+03  0.17120000000E+03 0.  0.
        998    1    1    2    0    0  0.29883808230E+01 -0.25499160880E+01  0.14551339276E+04  0.14551735909E+04  0.10000000000E+02 0.  1.
</event>
<event>
 5    1  0.7732857E-009  0.3815863E+03  0.7957747E-01  0.3444280E+00
         13   -1    0    0    0    0  0.00000000000E+00  0.00000000000E+00  0.14999999963E+04  0.15000000000E+04  0.10566000000E+00 0. -1.
        994   -1    0    0    0    0 -0.00000000000E+00 -0.00000000000E+00  0.11368683772E-12  0.17120000000E+03  0.17120000000E+03 0.  0.
         13    1    1    2    0    0 -0.12000849721E+02 -0.33187348729E+02  0.19478584435E+03  0.19795695702E+03  0.10566000000E+00 0. -1.
        994    1    1    2    0    0 -0.17333789607E+02  0.22809672148E+02  0.60686963082E+01  0.17368652936E+03  0.17120000000E+03 0.  0.
        998    1    1    2    0    0  0.29334639328E+02  0.10377676581E+02  0.12991454556E+04  0.12995565136E+04  0.10000000000E+02 0. -1.
</event>
<event>
 5    1  0.7732857E-009  0.3800797E+03  0.7957747E-01  0.3450812E+00
         13   -1    0    0    0    0  0.00000000000E+00  0.00000000000E+00  0.14999999963E+04  0.15000000000E+04  0.10566000000E+00 0.  1.
        994   -1    0    0    0    0 -0.00000000000E+00 -0.00000000000E+00  0.11368683772E-12  0.17120000000E+03  0.17120000000E+03 0.  0.
         13    1    1    2    0    0  0.22544569147E+02  0.82492391600E+01  0.56721509575E+02  0.61592599858E+02  0.10566000000E+00 0.  1.
        994    1    1    2    0    0 -0.54761021879E+02 -0.38207958557E+02  0.19140545628E+02  0.18475502186E+03  0.17120000000E+03 0.  0.
        998    1    1    2    0    0  0.32216452732E+02  0.29958719397E+02  0.14241379411E+04  0.14248523783E+04  0.10000000000E+02 0.  1.
</event>
<event>
 5    1  0.7732857E-009  0.3858872E+03  0.7957747E-01  0.3425918E+00
         13   -1    0    0    0    0  0.00000000000E+00  0.00000000000E+00  0.14999999963E+04  0.15000000000E+04  0.10566000000E+00 0.  1.
        994   -1    0    0    0    0 -0.00000000000E+00 -0.00000000000E+00  0.11368683772E-12  0.17120000000E+03  0.17120000000E+03 0.  0.
         13    1    1    2    0    0  0.11798226417E+02 -0.56107968095E+01  0.76755964472E+02  0.77859928291E+02  0.10566000000E+00 0.  1.
        994    1    1    2    0    0 -0.76382881245E+01 -0.11969555677E+02  0.18517325167E+01  0.17179779574E+03  0.17120000000E+03 0.  0.
        998    1    1    2    0    0 -0.41599382921E+01  0.17580352486E+02  0.14213922993E+04  0.14215422760E+04  0.10000000000E+02 0.  1.
</event>
<event>
 5    1  0.7732857E-009  0.3747783E+03  0.7957747E-01  0.3474215E+00
         13   -1    0    0    0    0  0.00000000000E+00  0.00000000000E+00  0.14999999963E+04  0.15000000000E+04  0.10566000000E+00 0.  1.
        994   -1    0    0    0    0 -0.00000000000E+00 -0.00000000000E+00  0.11368683772E-12  0.17120000000E+03  0.17120000000E+03 0.  0.
         13    1    1    2    0    0  0.16637968611E+02 -0.29890459413E+02  0.37754000722E+02  0.50947397362E+02  0.10566000000E+00 0.  1.
        994    1    1    2    0    0 -0.23014060797E+02  0.19018149534E+02  0.16663728835E+02  0.17458080325E+03  0.17120000000E+03 0.  0.
        998    1    1    2    0    0  0.63760921860E+01  0.10872309880E+02  0.14455822667E+04  0.14456717994E+04  0.10000000000E+02 0.  1.
</event>
<event>
 5    1  0.7732857E-009  0.3831283E+03  0.7957747E-01  0.3437649E+00
         13   -1    0    0    0    0  0.00000000000E+00  0.00000000000E+00  0.14999999963E+04  0.15000000000E+04  0.10566000000E+00 0.  1.
        994   -1    0    0    0    0 -0.00000000000E+00 -0.00000000000E+00  0.11368683772E-12  0.17120000000E+03  0.17120000000E+03 0.  0.
         13    1    1    2    0    0  0.85415493514E+01 -0.85507298152E+01  0.27200896418E+02  0.29765298179E+02  0.10566000000E+00 0.  1.
        994    1    1    2    0    0 -0.84622984859E+01  0.96263413930E+01  0.31060192291E+01  0.17170720515E+03  0.17120000000E+03 0.  0.
        998    1    1    2    0    0 -0.79250865505E-01 -0.10756115777E+01  0.14696930806E+04  0.14697274967E+04  0.10000000000E+02 0.  1.
</event>
<event>
 5    1  0.7732857E-009  0.3851171E+03  0.7957747E-01  0.3429176E+00
         13   -1    0    0    0    0  0.00000000000E+00  0.00000000000E+00  0.14999999963E+04  0.15000000000E+04  0.10566000000E+00 0. -1.
        994   -1    0    0    0    0 -0.00000000000E+00 -0.00000000000E+00  0.11368683772E-12  0.17120000000E+03  0.17120000000E+03 0.  0.
         13    1    1    2    0    0  0.98785840221E+01  0.14411922146E+02  0.97285278573E+02  0.98841926900E+02  0.10566000000E+00 0. -1.
        994    1    1    2    0    0 -0.78274712946E+01 -0.81531381356E+01  0.19920638170E+01  0.17158423962E+03  0.17120000000E+03 0.  0.
        998    1    1    2    0    0 -0.20511127275E+01 -0.62587840104E+01  0.14007226539E+04  0.14007738335E+04  0.10000000000E+02 0. -1.
</event>
<event>
 5    1  0.7732857E-009  0.3936309E+03  0.7957747E-01  0.3393873E+00
         13   -1    0    0    0    0  0.00000000000E+00  0.00000000000E+00  0.14999999963E+04  0.15000000000E+04  0.10566000000E+00 0.  1.
        994   -1    0    0    0    0 -0.00000000000E+00 -0.00000000000E+00  0.11368683772E-12  0.17120000000E+03  0.17120000000E+03 0.  0.
         13    1    1    2    0    0  0.22024136285E+02  0.67348454809E+02  0.10349970558E+03  0.12543156366E+03  0.10566000000E+00 0.  1.
        994    1    1    2    0    0 -0.18432061680E+02 -0.23034623448E+02  0.27353569014E+02  0.17586356221E+03  0.17120000000E+03 0.  0.
        998    1    1    2    0    0 -0.35920746052E+01 -0.44313831361E+02  0.13691467217E+04  0.13699048741E+04  0.10000000000E+02 0.  1.
</event>
<event>
 5    1  0.7732857E-009  0.3787882E+03  0.7957747E-01  0.3456452E+00
         13   -1    0    0    0    0  0.00000000000E+00  0.00000000000E+00  0.14999999963E+04  0.15000000000E+04  0.10566000000E+00 0. -1.
        994   -1    0    0    0    0 -0.00000000000E+00 -0.00000000000E+00  0.11368683772E-12  0.17120000000E+03  0.17120000000E+03 0.  0.
         13    1    1    2    0    0  0.28742309325E+02 -0.37091097135E+02  0.65237215602E+02  0.80360284317E+02  0.10566000000E+00 0. -1.
        994    1    1    2    0    0  0.24777260188E+02  0.54489006229E+02  0.28704484192E+02  0.18362012917E+03  0.17120000000E+03 0.  0.
        998    1    1    2    0    0 -0.53519569513E+02 -0.17397909094E+02  0.14060582965E+04  0.14072195865E+04  0.10000000000E+02 0. -1.
</event>
<event>
 5    1  0.7732857E-009  0.3853870E+03  0.7957747E-01  0.3428033E+00
         13   -1    0    0    0    0  0.00000000000E+00  0.00000000000E+00  0.14999999963E+04  0.15000000000E+04  0.10566000000E+00 0. -1.
        994   -1    0    0    0    0 -0.00000000000E+00 -0.00000000000E+00  0.11368683772E-12  0.17120000000E+03  0.17120000000E+03 0.  0.
         13    1    1    2    0    0  0.33666653365E+01  0.10275320311E+02  0.40759069443E+02  0.42169059142E+02  0.10566000000E+00 0. -1.
        994    1    1    2    0    0 -0.66076116970E+01 -0.53190998137E+01  0.16745129196E+01  0.17141819433E+03  0.17120000000E+03 0.  0.
        998    1    1    2    0    0  0.32409463605E+01 -0.49562204973E+01  0.14575664139E+04  0.14576127465E+04  0.10000000000E+02 0. -1.
</event>
<event>
 5    1  0.7732857E-009  0.3804441E+03  0.7957747E-01  0.3449227E+00
         13   -1    0    0    0    0  0.00000000000E+00  0.00000000000E+00  0.14999999963E+04  0.15000000000E+04  0.10566000000E+00 0. -1.
        994   -1    0    0    0    0 -0.00000000000E+00 -0.00000000000E+00  0.11368683772E-12  0.17120000000E+03  0.17120000000E+03 0.  0.
         13    1    1    2    0    0 -0.44803366694E+01  0.34932822746E+02  0.15954418187E+03  0.16338522777E+03  0.10566000000E+00 0. -1.
        994    1    1    2    0    0  0.16575890233E+01 -0.18499160226E+02  0.50614953970E+01  0.17227891707E+03  0.17120000000E+03 0.  0.
        998    1    1    2    0    0  0.28227476461E+01 -0.16433662520E+02  0.13353943190E+04  0.13355358552E+04  0.10000000000E+02 0. -1.
</event>
<event>
 5    1  0.7732857E-009  0.3830257E+03  0.7957747E-01  0.3438089E+00
         13   -1    0    0    0    0  0.00000000000E+00  0.00000000000E+00  0.14999999963E+04  0.15000000000E+04  0.10566000000E+00 0.  1.
        994   -1    0    0    0    0 -0.00000000000E+00 -0.00000000000E+00  0.11368683772E-12  0.17120000000E+03  0.17120000000E+03 0.  0.
         13    1    1    2    0    0  0.11031857552E+02 -0.13619305851E+02  0.59633674603E+02  0.62156043018E+02  0.10566000000E+00 0.  1.
        994    1    1    2    0    0  0.25063405368E+01  0.95508399922E+01  0.29363128479E+01  0.17150965635E+03  0.17120000000E+03 0.  0.
        998    1    1    2    0    0 -0.13538198089E+02  0.40684658592E+01  0.14374300088E+04  0.14375343006E+04  0.10000000000E+02 0.  1.
</event>
<event>
 5    1  0.7732857E-009  0.3791074E+03  0.7957747E-01  0.3455054E+00
         13   -1    0    0    0    0  0.00000000000E+00  0.00000000000E+00  0.14999999963E+04  0.15000000000E+04  0.10566000000E+00 0.  1.
        994   -1    0    0    0    0 -0.00000000000E+00 -0.00000000000E+00  0.11368683772E-12  0.17120000000E+03  0.17120000000E+03 0.  0.
         13    1    1    2    0    0  0.11027596474E+02  0.50398223292E+01  0.13803319206E+02  0.18372546863E+02  0.10566000000E+00 0.  1.
        994    1    1    2    0    0 -0.13824120942E+02 -0.74021856932E+01  0.54092547483E+01  0.17200174043E+03  0.17120000000E+03 0.  0.
        998    1    1    2    0    0  0.27965244679E+01  0.23623633639E+01  0.14807874223E+04  0.14808257127E+04  0.10000000000E+02 0.  1.
</event>
<event>
 5    1  0.7732857E-009  0.3837275E+03  0.7957747E-01  0.3435087E+00
         13   -1    0    0    0    0  0.00000000000E+00  0.00000000000E+00  0.14999999963E+04  0.15000000000E+04  0.10566000000E+00 0. -1.
        994   -1    0    0    0    0 -0.00000000000E+00 -0.00000000000E+00  0.11368683772E-12  0.17120000000E+03  0.17120000000E+03 0.  0.
         13    1    1    2    0    0 -0.32283226083E+01 -0.98030747426E+01  0.22541939788E+02  0.24792590722E+02  0.10566000000E+00 0. -1.
        994    1    1    2    0    0  0.59682398269E+01  0.89399796134E+01  0.26448545181E+01  0.17155750749E+03  0.17120000000E+03 0.  0.
        998    1    1    2    0    0 -0.27399172186E+01  0.86309512923E+00  0.14748132020E+04  0.14748499018E+04  0.10000000000E+02 0. -1.
</event>
<event>
 5    1  0.7732857E-009  0.3763277E+03  0.7957747E-01  0.3467306E+00
         13   -1    0    0    0    0  0.00000000000E+00  0.00000000000E+00  0.14999999963E+04  0.15000000000E+04  0.10566000000E+00 0. -1.
        994   -1    0    0    0    0 -0.00000000000E+00 -0.00000000000E+00  0.11368683772E-12  0.17120000000E+03  0.17120000000E+03 0.  0.
         13    1    1    2    0    0 -0.10888289007E+02 -0.10543341367E+02  0.16587924775E+02  0.22469697307E+02  0.10566000000E+00 0. -1.
        994    1    1    2    0    0  0.75200588731E+01  0.61257047107E+01  0.63169121453E+01  0.17159084743E+03  0.17120000000E+03 0.  0.
        998    1    1    2    0    0  0.33682301341E+01  0.44176366559E+01  0.14770951594E+04  0.14771394553E+04  0.10000000000E+02 0. -1.
</event>
<event>
 5    1  0.7732857E-009  0.3783234E+03  0.7957747E-01  0.3458491E+00
         13   -1    0    0    0    0  0.00000000000E+00  0.00000000000E+00  0.14999999963E+04  0.15000000000E+04  0.10566000000E+00 0.  1.
        994   -1    0    0    0    0 -0.00000000000E+00 -0.00000000000E+00  0.11368683772E-12  0.17120000000E+03  0.17120000000E+03 0.  0.
         13    1    1    2    0    0  0.15557335935E+02 -0.28893790628E+02  0.13259845045E+03  0.13659883625E+03  0.10566000000E+00 0.  1.
        994    1    1    2    0    0  0.24033834120E+02 -0.88083258657E+01  0.71875224861E+01  0.17325216381E+03  0.17120000000E+03 0.  0.
        998    1    1    2    0    0 -0.39591170055E+02  0.37702116494E+02  0.13602140233E+04  0.13613489999E+04  0.10000000000E+02 0.  1.
</event>
<event>
 5    1  0.7732857E-009  0.3781674E+03  0.7957747E-01  0.3459177E+00
         13   -1    0    0    0    0  0.00000000000E+00  0.00000000000E+00  0.14999999963E+04  0.15000000000E+04  0.10566000000E+00 0.  1.
        994   -1    0    0    0    0 -0.00000000000E+00 -0.00000000000E+00  0.11368683772E-12  0.17120000000E+03  0.17120000000E+03 0.  0.
         13    1    1    2    0    0  0.65877771123E+01 -0.19171700297E+02  0.38120917863E+02  0.43176016981E+02  0.10566000000E+00 0.  1.
        994    1    1    2    0    0 -0.77979840130E+01  0.15839122782E+02  0.61100741653E+01  0.17221631564E+03  0.17120000000E+03 0.  0.
        998    1    1    2    0    0  0.12102069008E+01  0.33325775150E+01  0.14557690043E+04  0.14558076674E+04  0.10000000000E+02 0.  1.
</event>
<event>
 5    1  0.7732857E-009  0.3840737E+03  0.7957747E-01  0.3433610E+00
         13   -1    0    0    0    0  0.00000000000E+00  0.00000000000E+00  0.14999999963E+04  0.15000000000E+04  0.10566000000E+00 0. -1.
        994   -1    0    0    0    0 -0.00000000000E+00 -0.00000000000E+00  0.11368683772E-12  0.17120000000E+03  0.17120000000E+03 0.  0.
         13    1    1    2    0    0  0.95343735765E+01 -0.95110848826E+01  0.48851536963E+02  0.50673946391E+02  0.10566000000E+00 0. -1.
        994    1    1    2    0    0  0.35800544501E+01 -0.20070516108E+02  0.34629308733E+01  0.17244440929E+03  0.17120000000E+03 0.  0.
        998    1    1    2    0    0 -0.13114428027E+02  0.29581600990E+02  0.14476855284E+04  0.14480816443E+04  0.10000000000E+02 0. -1.
</event>
<event>
 5    1  0.7732857E-009  0.3806854E+03  0.7957747E-01  0.3448180E+00
         13   -1    0    0    0    0  0.00000000000E+00  0.00000000000E+00  0.14999999963E+04  0.15000000000E+04  0.10566000000E+00 0. -1.
        994   -1    0    0    0    0 -0.00000000000E+00 -0.00000000000E+00  0.11368683772E-12  0.17120000000E+03  0.17120000000E+03 0.  0.
         13    1    1    2    0    0 -0.38584376224E+02  0.15384167363E+02  0.19614730605E+03  0.20049739033E+03  0.10566000000E+00 0. -1.
        994    1    1    2    0    0  0.40098195093E+02 -0.16442988913E+02  0.10077684529E+02  0.17688763908E+03  0.17120000000E+03 0.  0.
        998    1    1    2    0    0 -0.15138188696E+01  0.10588215496E+01  0.12937750057E+04  0.12938149706E+04  0.10000000000E+02 0.  0.
</event>
<event>
 5    1  0.7732857E-009  0.3805673E+03  0.7957747E-01  0.3448692E+00
         13   -1    0    0    0    0  0.00000000000E+00  0.00000000000E+00  0.14999999963E+04  0.15000000000E+04  0.10566000000E+00 0. -1.
        994   -1    0    0    0    0 -0.00000000000E+00 -0.00000000000E+00  0.11368683772E-12  0.17120000000E+03  0.17120000000E+03 0.  0.
         13    1    1    2    0    0 -0.49353485509E+02 -0.23619719789E+02  0.30626975114E+03  0.31111867401E+03  0.10566000000E+00 0. -1.
        994    1    1    2    0    0  0.52521631731E+02  0.20605660461E+02  0.14541966933E+02  0.18084253881E+03  0.17120000000E+03 0.  0.
        998    1    1    2    0    0 -0.31681462212E+01  0.30140593289E+01  0.11791882782E+04  0.11792387872E+04  0.10000000000E+02 0. -1.
</event>
<event>
 5    1  0.7732857E-009  0.3855505E+03  0.7957747E-01  0.3427341E+00
         13   -1    0    0    0    0  0.00000000000E+00  0.00000000000E+00  0.14999999963E+04  0.15000000000E+04  0.10566000000E+00 0.  1.
        994   -1    0    0    0    0 -0.00000000000E+00 -0.00000000000E+00  0.11368683772E-12  0.17120000000E+03  0.17120000000E+03 0.  0.
         13    1    1    2    0    0 -0.11808711245E+02  0.12937354230E+01  0.51753395156E+02  0.53099383112E+02  0.10566000000E+00 0.  1.
        994    1    1    2    0    0  0.93010092872E+01 -0.29001235739E+01  0.16687270733E+01  0.17148511347E+03  0.17120000000E+03 0.  0.
        998    1    1    2    0    0  0.25077019583E+01  0.16063881509E+01  0.14465778740E+04  0.14466155034E+04  0.10000000000E+02 0.  1.
</event>
<event>
 5    1  0.7732857E-009  0.3764744E+03  0.7957747E-01  0.3466655E+00
         13   -1    0    0    0    0  0.00000000000E+00  0.00000000000E+00  0.14999999963E+04  0.15000000000E+04  0.10566000000E+00 0. -1.
        994   -1    0    0    0    0 -0.00000000000E+00 -0.00000000000E+00  0.11368683772E-12  0.17120000000E+03  0.17120000000E+03 0.  0.
         13    1    1    2    0    0  0.23993290450E+02 -0.49946695349E+01  0.44886453402E+02  0.51141270745E+02  0.10566000000E+00 0. -1.
        994    1    1    2    0    0 -0.41317526755E+02 -0.37016621933E+01  0.11766281123E+02  0.17654666718E+03  0.17120000000E+03 0.  0.
        998    1    1    2    0    0  0.17324236305E+02  0.86963317282E+01  0.14433472618E+04  0.14435120621E+04  0.10000000000E+02 0. -1.
</event>
<event>
 5    1  0.7732857E-009  0.3726803E+03  0.7957747E-01  0.3483662E+00
         13   -1    0    0    0    0  0.00000000000E+00  0.00000000000E+00  0.14999999963E+04  0.15000000000E+04  0.10566000000E+00 0. -1.
        994   -1    0    0    0    0 -0.00000000000E+00 -0.00000000000E+00  0.11368683772E-12  0.17120000000E+03  0.17120000000E+03 0.  0.
         13    1    1    2    0    0 -0.24538845704E+02 -0.81071770646E+01  0.40219959867E+02  0.47807296558E+02  0.10566000000E+00 0. -1.
        994    1    1    2    0    0  0.15525312219E+02 -0.19397798531E+02  0.99925675182E+01  0.17328185512E+03  0.17120000000E+03 0.  0.
        998    1    1    2    0    0  0.90135334849E+01  0.27504975595E+02  0.14497874689E+04  0.14501108483E+04  0.10000000000E+02 0. -1.
</event>
<event>
 5    1  0.7732857E-009  0.2797499E+03  0.7957747E-01  0.4052109E+00
         13   -1    0    0    0    0  0.00000000000E+00  0.00000000000E+00  0.14999999963E+04  0.15000000000E+04  0.10566000000E+00 0. -1.
        994   -1    0    0    0    0 -0.00000000000E+00 -0.00000000000E+00  0.11368683772E-12  0.17120000000E+03  0.17120000000E+03 0.  0.
         13    1    1    2    0    0 -0.44783162087E+02  0.18728554268E+03  0.43964207671E+03  0.47996517882E+03  0.10566000000E+00 0. -1.
        994    1    1    2    0    0  0.40016953482E+02 -0.20228928375E+03  0.20951781382E+03  0.34019033671E+03  0.17120000000E+03 0.  0.
        998    1    1    2    0    0  0.47662086046E+01  0.15003741066E+02  0.85084010575E+03  0.85104448447E+03  0.10000000000E+02 0. -1.
</event>
<event>
 5    1  0.7732857E-009  0.3833081E+03  0.7957747E-01  0.3436880E+00
         13   -1    0    0    0    0  0.00000000000E+00  0.00000000000E+00  0.14999999963E+04  0.15000000000E+04  0.10566000000E+00 0. -1.
        994   -1    0    0    0    0 -0.00000000000E+00 -0.00000000000E+00  0.11368683772E-12  0.17120000000E+03  0.17120000000E+03 0.  0.
         13    1    1    2    0    0  0.74976251177E+01 -0.82687611144E+01  0.24793545507E+02  0.27190400064E+02  0.10566000000E+00 0. -1.
        994    1    1    2    0    0  0.29536153118E+01  0.59770866803E+01  0.26194646967E+01  0.17134979137E+03  0.17120000000E+03 0.  0.
        998    1    1    2    0    0 -0.10451240429E+02  0.22916744340E+01  0.14725869861E+04  0.14726598086E+04  0.10000000000E+02 0. -1.
</event>
<event>
 5    1  0.7732857E-009  0.3861691E+03  0.7957747E-01  0.3424729E+00
         13   -1    0    0    0    0  0.00000000000E+00  0.00000000000E+00  0.14999999963E+04  0.15000000000E+04  0.10566000000E+00 0.  1.
        994   -1    0    0    0    0 -0.00000000000E+00 -0.00000000000E+00  0.11368683772E-12  0.17120000000E+03  0.17120000000E+03 0.  0.
         13    1    1    2    0    0  0.39061568441E+02  0.44072866145E+02  0.77918474371E+02  0.97670484138E+02  0.10566000000E+00 0.  1.
        994    1    1    2    0    0 -0.27533241738E+02 -0.49374232119E+02  0.31704650589E+02  0.18305878582E+03  0.17120000000E+03 0.  0.
        998    1    1    2    0    0 -0.11528326703E+02  0.53013659738E+01  0.13903768713E+04  0.13904707300E+04  0.10000000000E+02 0.  1.
</event>
<event>
 5    1  0.7732857E-009  0.3811404E+03  0.7957747E-01  0.3446208E+00
         13   -1    0    0    0    0  0.00000000000E+00  0.00000000000E+00  0.14999999963E+04  0.15000000000E+04  0.10566000000E+00 0. -1.
        994   -1    0    0    0    0 -0.00000000000E+00 -0.00000000000E+00  0.11368683772E-12  0.17120000000E+03  0.17120000000E+03 0.  0.
         13    1    1    2    0    0  0.19543000032E+03 -0.40381344080E+02  0.87903529186E+03  0.90140257015E+03  0.10566000000E+00 0. -1.
        994    1    1    2    0    0 -0.22079757528E+03  0.43225290332E+02  0.19615041079E+03  0.34409943131E+03  0.17120000000E+03 0.  0.
        998    1    1    2    0    0  0.25367574959E+02 -0.28439462523E+01  0.42481429363E+03  0.42569799854E+03  0.10000000000E+02 0. -1.
</event>
<event>
 5    1  0.7732857E-009  0.3855387E+03  0.7957747E-01  0.3427391E+00
         13   -1    0    0    0    0  0.00000000000E+00  0.00000000000E+00  0.14999999963E+04  0.15000000000E+04  0.10566000000E+00 0.  1.
        994   -1    0    0    0    0 -0.00000000000E+00 -0.00000000000E+00  0.11368683772E-12  0.17120000000E+03  0.17120000000E+03 0.  0.
         13    1    1    2    0    0  0.61745512946E+01  0.14082736953E+02  0.88795325700E+02  0.90116977279E+02  0.10566000000E+00 0.  1.
        994    1    1    2    0    0 -0.56107837361E+01 -0.60207539451E+01  0.15853121349E+01  0.17140502789E+03  0.17120000000E+03 0.  0.
        998    1    1    2    0    0 -0.56376755850E+00 -0.80619830075E+01  0.14096193584E+04  0.14096779948E+04  0.10000000000E+02 0.  1.
</event>
<event>
 5    1  0.7732857E-009  0.3823608E+03  0.7957747E-01  0.3440943E+00
         13   -1    0    0    0    0  0.00000000000E+00  0.00000000000E+00  0.14999999963E+04  0.15000000000E+04  0.10566000000E+00 0. -1.
        994   -1    0    0    0    0 -0.00000000000E+00 -0.00000000000E+00  0.11368683772E-12  0.17120000000E+03  0.17120000000E+03 0.  0.
         13    1    1    2    0    0  0.74681603448E+01  0.11280731766E+02  0.29702157491E+02  0.32638285062E+02  0.10566000000E+00 0. -1.
        994    1    1    2    0    0 -0.75227412607E+01 -0.95765395079E+01  0.34382129613E+01  0.17166701213E+03  0.17120000000E+03 0.  0.
        998    1    1    2    0    0  0.54580915872E-01 -0.17041922578E+01  0.14668596258E+04  0.14668947028E+04  0.10000000000E+02 0. -1.
</event>
<event>
 5    1  0.7732857E-009  0.3800856E+03  0.7957747E-01  0.3450786E+00
         13   -1    0    0    0    0  0.00000000000E+00  0.00000000000E+00  0.14999999963E+04  0.15000000000E+04  0.10566000000E+00 0.  1.
        994   -1    0    0    0    0 -0.00000000000E+00 -0.00000000000E+00  0.11368683772E-12  0.17120000000E+03  0.17120000000E+03 0.  0.
         13    1    1    2    0    0  0.26008495616E+02  0.97018158013E+01  0.99050113139E+02  0.10286643355E+03  0.10566000000E+00 0.  1.
        994    1    1    2    0    0 -0.58586832588E+01  0.31047641408E+01  0.42368842104E+01  0.17138073088E+03  0.17120000000E+03 0.  0.
        998    1    1    2    0    0 -0.20149812357E+02 -0.12806579942E+02  0.13967129989E+04  0.13969528356E+04  0.10000000000E+02 0.  1.
</event>
<event>
 5    1  0.7732857E-009  0.3927254E+03  0.7957747E-01  0.3397554E+00
         13   -1    0    0    0    0  0.00000000000E+00  0.00000000000E+00  0.14999999963E+04  0.15000000000E+04  0.10566000000E+00 0. -1.
        994   -1    0    0    0    0 -0.00000000000E+00 -0.00000000000E+00  0.11368683772E-12  0.17120000000E+03  0.17120000000E+03 0.  0.
         13    1    1    2    0    0 -0.92851161249E+02 -0.15589620887E+02  0.15688583664E+03  0.18296871680E+03  0.10566000000E+00 0. -1.
        994    1    1    2    0    0  0.10205143542E+03  0.13944299643E+02  0.65086074496E+02  0.21012990282E+03  0.17120000000E+03 0.  0.
        998    1    1    2    0    0 -0.92002741754E+01  0.16453212447E+01  0.12780280851E+04  0.12781013804E+04  0.10000000000E+02 0. -1.
</event>
<event>
 5    1  0.7732857E-009  0.4558476E+03  0.7957747E-01  0.3175481E+00
         13   -1    0    0    0    0  0.00000000000E+00  0.00000000000E+00  0.14999999963E+04  0.15000000000E+04  0.10566000000E+00 0. -1.
        994   -1    0    0    0    0 -0.00000000000E+00 -0.00000000000E+00  0.11368683772E-12  0.17120000000E+03  0.17120000000E+03 0.  0.
         13    1    1    2    0    0 -0.36415517612E+02  0.33249536574E+02 -0.56387321933E+01  0.49632933322E+02  0.10566000000E+00 0. -1.
        994    1    1    2    0    0  0.51706315227E+02 -0.85929964967E+01  0.80857669834E+02  0.19645555577E+03  0.17120000000E+03 0.  0.
        998    1    1    2    0    0 -0.15290797614E+02 -0.24656540077E+02  0.14247810586E+04  0.14251115109E+04  0.10000000000E+02 0. -1.
</event>
<event>
 5    1  0.7732857E-009  0.3856957E+03  0.7957747E-01  0.3426727E+00
         13   -1    0    0    0    0  0.00000000000E+00  0.00000000000E+00  0.14999999963E+04  0.15000000000E+04  0.10566000000E+00 0. -1.
        994   -1    0    0    0    0 -0.00000000000E+00 -0.00000000000E+00  0.11368683772E-12  0.17120000000E+03  0.17120000000E+03 0.  0.
         13    1    1    2    0    0  0.85339082554E+01  0.77965756172E+01  0.54935265679E+02  0.56138300302E+02  0.10566000000E+00 0. -1.
        994    1    1    2    0    0 -0.66391863182E+01  0.64330145554E+01  0.15656088863E+01  0.17145656477E+03  0.17120000000E+03 0.  0.
        998    1    1    2    0    0 -0.18947219371E+01 -0.14229590173E+02  0.14434991217E+04  0.14436051349E+04  0.10000000000E+02 0. -1.
</event>
<event>
 5    1  0.7732857E-009  0.3756418E+03  0.7957747E-01  0.3470357E+00
         13   -1    0    0    0    0  0.00000000000E+00  0.00000000000E+00  0.14999999963E+04  0.15000000000E+04  0.10566000000E+00 0. -1.
        994   -1    0    0    0    0 -0.00000000000E+00 -0.00000000000E+00  0.11368683772E-12  0.17120000000E+03  0.17120000000E+03 0.  0.
         13    1    1    2    0    0  0.30248457166E+02  0.73877806631E+01  0.71571405228E+02  0.78051429675E+02  0.10566000000E+00 0. -1.
        994    1    1    2    0    0 -0.29168385087E+02 -0.13258027097E+01  0.92466744806E+01  0.17391806528E+03  0.17120000000E+03 0.  0.
        998    1    1    2    0    0 -0.10800720789E+01 -0.60619779534E+01  0.14191819166E+04  0.14192305050E+04  0.10000000000E+02 0. -1.
</event>
<event>
 5    1  0.7732857E-009  0.3817416E+03  0.7957747E-01  0.3443610E+00
         13   -1    0    0    0    0  0.00000000000E+00  0.00000000000E+00  0.14999999963E+04  0.15000000000E+04  0.10566000000E+00 0.  1.
        994   -1    0    0    0    0 -0.00000000000E+00 -0.00000000000E+00  0.11368683772E-12  0.17120000000E+03  0.17120000000E+03 0.  0.
         13    1    1    2    0    0 -0.23478066872E+02 -0.73458490294E+01  0.83870770596E+02  0.87404224419E+02  0.10566000000E+00 0.  1.
        994    1    1    2    0    0  0.28152163456E+02  0.20171597749E+02  0.72535211692E+01  0.17481845221E+03  0.17120000000E+03 0.  0.
        998    1    1    2    0    0 -0.46740965837E+01 -0.12825748720E+02  0.14088757045E+04  0.14089773234E+04  0.10000000000E+02 0.  1.
</event>
<event>
 5    1  0.7732857E-009  0.3744759E+03  0.7957747E-01  0.3475570E+00
         13   -1    0    0    0    0  0.00000000000E+00  0.00000000000E+00  0.14999999963E+04  0.15000000000E+04  0.10566000000E+00 0.  1.
        994   -1    0    0    0    0 -0.00000000000E+00 -0.00000000000E+00  0.11368683772E-12  0.17120000000E+03  0.17120000000E+03 0.  0.
         13    1    1    2    0    0 -0.55427189699E+02  0.11201795107E+01  0.27557841410E+03  0.28109945151E+03  0.10566000000E+00 0.  1.
        994    1    1    2    0    0  0.38924126131E+00 -0.15403437241E+02  0.77569988161E+01  0.17206693005E+03  0.17120000000E+03 0.  0.
        998    1    1    2    0    0  0.55037948437E+02  0.14283257730E+02  0.12166645834E+04  0.12180336184E+04  0.10000000000E+02 0.  1.
</event>
<event>
 5    1  0.7732857E-009  0.3837349E+03  0.7957747E-01  0.3435055E+00
         13   -1    0    0    0    0  0.00000000000E+00  0.00000000000E+00  0.14999999963E+04  0.15000000000E+04  0.10566000000E+00 0. -1.
        994   -1    0    0    0    0 -0.00000000000E+00 -0.00000000000E+00  0.11368683772E-12  0.17120000000E+03  0.17120000000E+03 0.  0.
         13    1    1    2    0    0 -0.71534132414E+00  0.21095639942E+02  0.94167428228E+02  0.96504162817E+02  0.10566000000E+00 0. -1.
        994    1    1    2    0    0  0.31765528485E+01 -0.19406731317E+02  0.35375838733E+01  0.17236202078E+03  0.17120000000E+03 0.  0.
        998    1    1    2    0    0 -0.24612115243E+01 -0.16889086258E+01  0.14022949842E+04  0.14023338164E+04  0.10000000000E+02 0. -1.
</event>
<event>
 5    1  0.7732857E-009  0.3805239E+03  0.7957747E-01  0.3448880E+00
         13   -1    0    0    0    0  0.00000000000E+00  0.00000000000E+00  0.14999999963E+04  0.15000000000E+04  0.10566000000E+00 0. -1.
        994   -1    0    0    0    0 -0.00000000000E+00 -0.00000000000E+00  0.11368683772E-12  0.17120000000E+03  0.17120000000E+03 0.  0.
         13    1    1    2    0    0  0.94244743612E+01  0.66064697200E+01  0.15284195071E+02  0.19133320207E+02  0.10566000000E+00 0. -1.
        994    1    1    2    0    0 -0.10363526794E+02 -0.80045498637E+01  0.44413636272E+01  0.17175750702E+03  0.17120000000E+03 0.  0.
        998    1    1    2    0    0  0.93905243254E+00  0.13980801437E+01  0.14802744376E+04  0.14803091728E+04  0.10000000000E+02 0. -1.
</event>
<event>
 5    1  0.7732857E-009  0.3699420E+03  0.7957747E-01  0.3496157E+00
         13   -1    0    0    0    0  0.00000000000E+00  0.00000000000E+00  0.14999999963E+04  0.15000000000E+04  0.10566000000E+00 0.  1.
        994   -1    0    0    0    0 -0.00000000000E+00 -0.00000000000E+00  0.11368683772E-12  0.17120000000E+03  0.17120000000E+03 0.  0.
         13    1    1    2    0    0 -0.18058350330E+02  0.75561932131E+02  0.26029549980E+03  0.27164216901E+03  0.10566000000E+00 0.  1.
        994    1    1    2    0    0  0.47055984236E+02 -0.72501945133E+02  0.35598914634E+02  0.19505773613E+03  0.17120000000E+03 0.  0.
        998    1    1    2    0    0 -0.28997633906E+02 -0.30599869983E+01  0.12041055818E+04  0.12045000949E+04  0.10000000000E+02 0.  1.
</event>
<event>
 5    1  0.7732857E-009  0.3767727E+03  0.7957747E-01  0.3465332E+00
         13   -1    0    0    0    0  0.00000000000E+00  0.00000000000E+00  0.14999999963E+04  0.15000000000E+04  0.10566000000E+00 0. -1.
        994   -1    0    0    0    0 -0.00000000000E+00 -0.00000000000E+00  0.11368683772E-12  0.17120000000E+03  0.17120000000E+03 0.  0.
         13    1    1    2    0    0 -0.69966771005E+01 -0.84583726397E+01  0.80256032455E+01  0.13598493654E+02  0.10566000000E+00 0. -1.
        994    1    1    2    0    0 -0.21101795440E+02  0.11754208138E+02  0.77451619411E+01  0.17306898831E+03  0.17120000000E+03 0.  0.
        998    1    1    2    0    0  0.28098472541E+02 -0.32958354987E+01  0.14842292311E+04  0.14845325180E+04  0.10000000000E+02 0. -1.
</event>
<event>
 5    1  0.7732857E-009  0.3735076E+03  0.7957747E-01  0.3479924E+00
         13   -1    0    0    0    0  0.00000000000E+00  0.00000000000E+00  0.14999999963E+04  0.15000000000E+04  0.10566000000E+00 0. -1.
        994   -1    0    0    0    0 -0.00000000000E+00 -0.00000000000E+00  0.11368683772E-12  0.17120000000E+03  0.17120000000E+03 0.  0.
         13    1    1    2    0    0 -0.86468580784E+02  0.26838221977E+02  0.37916089767E+03  0.38982060375E+03  0.10566000000E+00 0. -1.
        994    1    1    2    0    0  0.91132547984E+02 -0.37873027123E+02  0.41489042387E+02  0.20191653752E+03  0.17120000000E+03 0.  0.
        998    1    1    2    0    0 -0.46639672001E+01  0.11034805146E+02  0.10793500562E+04  0.10794628587E+04  0.10000000000E+02 0. -1.
</event>
<event>
 5    1  0.7732857E-009  0.3841630E+03  0.7957747E-01  0.3433230E+00
         13   -1    0    0    0    0  0.00000000000E+00  0.00000000000E+00  0.14999999963E+04  0.15000000000E+04  0.10566000000E+00 0.  1.
        994   -1    0    0    0    0 -0.00000000000E+00 -0.00000000000E+00  0.11368683772E-12  0.17120000000E+03  0.17120000000E+03 0.  0.
         13    1    1    2    0    0 -0.17643383161E+02 -0.16108524132E+01  0.73069086477E+02  0.75186344355E+02  0.10566000000E+00 0.  1.
        994    1    1    2    0    0  0.18409850937E+02  0.45661012624E+01  0.32335259392E+01  0.17227787897E+03  0.17120000000E+03 0.  0.
        998    1    1    2    0    0 -0.76646777532E+00 -0.29552488493E+01  0.14236973839E+04  0.14237357767E+04  0.10000000000E+02 0.  1.
</event>
<event>
 5    1  0.7732857E-009  0.3691433E+03  0.7957747E-01  0.3499837E+00
         13   -1    0    0    0    0  0.00000000000E+00  0.00000000000E+00  0.14999999963E+04  0.15000000000E+04  0.10566000000E+00 0.  1.
        994   -1    0    0    0    0 -0.00000000000E+00 -0.00000000000E+00  0.11368683772E-12  0.17120000000E+03  0.17120000000E+03 0.  0.
         13    1    1    2    0    0 -0.20528107976E+02  0.19257342529E+01  0.15318970747E+02  0.25686449702E+02  0.10566000000E+00 0.  1.
        994    1    1    2    0    0  0.26107719230E+02 -0.28334434628E+01  0.12894014879E+02  0.17368171183E+03  0.17120000000E+03 0.  0.
        998    1    1    2    0    0 -0.55796112533E+01  0.90770920993E+00  0.14717870107E+04  0.14718318385E+04  0.10000000000E+02 0.  1.
</event>
<event>
 5    1  0.7732857E-009  0.3855870E+03  0.7957747E-01  0.3427186E+00
         13   -1    0    0    0    0  0.00000000000E+00  0.00000000000E+00  0.14999999963E+04  0.15000000000E+04  0.10566000000E+00 0.  1.
        994   -1    0    0    0    0 -0.00000000000E+00 -0.00000000000E+00  0.11368683772E-12  0.17120000000E+03  0.17120000000E+03 0.  0.
         13    1    1    2    0    0 -0.13274828674E+02 -0.14063134201E+01  0.64112843365E+02  0.65487912184E+02  0.10566000000E+00 0.  1.
        994    1    1    2    0    0  0.14432482149E+02  0.82827029798E+01  0.22483947246E+01  0.17202149572E+03  0.17120000000E+03 0.  0.
        998    1    1    2    0    0 -0.11576534746E+01 -0.68763895596E+01  0.14336387582E+04  0.14336905921E+04  0.10000000000E+02 0.  1.
</event>
<event>
 5    1  0.7732857E-009  0.3861056E+03  0.7957747E-01  0.3424997E+00
         13   -1    0    0    0    0  0.00000000000E+00  0.00000000000E+00  0.14999999963E+04  0.15000000000E+04  0.10566000000E+00 0. -1.
        994   -1    0    0    0    0 -0.00000000000E+00 -0.00000000000E+00  0.11368683772E-12  0.17120000000E+03  0.17120000000E+03 0.  0.
         13    1    1    2    0    0 -0.12415205548E+02  0.12047215206E+00  0.72859057429E+02  0.73909439558E+02  0.10566000000E+00 0. -1.
        994    1    1    2    0    0  0.70541004280E+01 -0.59202119677E+00  0.12464223178E+01  0.17135082256E+03  0.17120000000E+03 0.  0.
        998    1    1    2    0    0  0.53611051200E+01  0.47154904471E+00  0.14258945165E+04  0.14259397379E+04  0.10000000000E+02 0. -1.
</event>
<event>
 5    1  0.7732857E-009  0.3820463E+03  0.7957747E-01  0.3442296E+00
         13   -1    0    0    0    0  0.00000000000E+00  0.00000000000E+00  0.14999999963E+04  0.15000000000E+04  0.10566000000E+00 0. -1.
        994   -1    0    0    0    0 -0.00000000000E+00 -0.00000000000E+00  0.11368683772E-12  0.17120000000E+03  0.17120000000E+03 0.  0.
         13    1    1    2    0    0  0.76088426260E+01 -0.26140674298E+02  0.11686171579E+03  0.11999125435E+03  0.10566000000E+00 0. -1.
        994    1    1    2    0    0  0.10152188777E+02  0.22609257892E+02  0.51459610647E+01  0.17306116374E+03  0.17120000000E+03 0.  0.
        998    1    1    2    0    0 -0.17761031403E+02  0.35314164064E+01  0.13779923194E+04  0.13781475819E+04  0.10000000000E+02 0. -1.
</event>
<event>
 5    1  0.7732857E-009  0.3712659E+03  0.7957747E-01  0.3490093E+00
         13   -1    0    0    0    0  0.00000000000E+00  0.00000000000E+00  0.14999999963E+04  0.15000000000E+04  0.10566000000E+00 0. -1.
        994   -1    0    0    0    0 -0.00000000000E+00 -0.00000000000E+00  0.11368683772E-12  0.17120000000E+03  0.17120000000E+03 0.  0.
         13    1    1    2    0    0  0.49035183395E+02  0.59449318301E+01  0.12188782201E+03  0.13151594483E+03  0.10566000000E+00 0. -1.
        994    1    1    2    0    0 -0.61411328289E+02 -0.42721586112E-01  0.21706199386E+02  0.18317191968E+03  0.17120000000E+03 0.  0.
        998    1    1    2    0    0  0.12376144894E+02 -0.59022102439E+01  0.13564059749E+04  0.13565121355E+04  0.10000000000E+02 0. -1.
</event>
<event>
 5    1  0.7732857E-009  0.3813174E+03  0.7957747E-01  0.3445442E+00
         13   -1    0    0    0    0  0.00000000000E+00  0.00000000000E+00  0.14999999963E+04  0.15000000000E+04  0.10566000000E+00 0.  1.
        994   -1    0    0    0    0 -0.00000000000E+00 -0.00000000000E+00  0.11368683772E-12  0.17120000000E+03  0.17120000000E+03 0.  0.
         13    1    1    2    0    0  0.65166161581E+01 -0.18085863640E+02  0.50217169225E+02  0.53771181862E+02  0.10566000000E+00 0.  1.
        994    1    1    2    0    0 -0.13145709050E+02  0.17984144118E+02  0.51230387599E+01  0.17271920748E+03  0.17120000000E+03 0.  0.
        998    1    1    2    0    0  0.66290928921E+01  0.10171952163E+00  0.14446597883E+04  0.14447096107E+04  0.10000000000E+02 0.  1.
</event>
<event>
 5    1  0.7732857E-009  0.3772988E+03  0.7957747E-01  0.3463005E+00
         13   -1    0    0    0    0  0.00000000000E+00  0.00000000000E+00  0.14999999963E+04  0.15000000000E+04  0.10566000000E+00 0.  1.
        994   -1    0    0    0    0 -0.00000000000E+00 -0.00000000000E+00  0.11368683772E-12  0.17120000000E+03  0.17120000000E+03 0.  0.
         13    1    1    2    0    0  0.13420060192E+02  0.49906089737E+01  0.16254879522E+02  0.21661866628E+02  0.10566000000E+00 0.  1.
        994    1    1    2    0    0 -0.93459212616E+01 -0.29750781989E+01  0.58275152198E+01  0.17157971112E+03  0.17120000000E+03 0.  0.
        998    1    1    2    0    0 -0.40741389308E+01 -0.20155307749E+01  0.14779176015E+04  0.14779584223E+04  0.10000000000E+02 0.  1.
</event>
<event>
 5    1  0.7732857E-009  0.3746606E+03  0.7957747E-01  0.3474742E+00
         13   -1    0    0    0    0  0.00000000000E+00  0.00000000000E+00  0.14999999963E+04  0.15000000000E+04  0.10566000000E+00 0.  1.
        994   -1    0    0    0    0 -0.00000000000E+00 -0.00000000000E+00  0.11368683772E-12  0.17120000000E+03  0.17120000000E+03 0.  0.
         13    1    1    2    0    0 -0.28021613676E+02  0.12969638776E+02  0.61938139605E+02  0.69208140162E+02  0.10566000000E+00 0.  1.
        994    1    1    2    0    0  0.40855714119E+02 -0.13369909667E+02  0.13167964900E+02  0.17700502581E+03  0.17120000000E+03 0.  0.
        998    1    1    2    0    0 -0.12834100443E+02  0.40027089081E+00  0.14248938918E+04  0.14249868340E+04  0.10000000000E+02 0.  1.
</event>
<event>
 5    1  0.7732857E-009  0.3789273E+03  0.7957747E-01  0.3455842E+00
         13   -1    0    0    0    0  0.00000000000E+00  0.00000000000E+00  0.14999999963E+04  0.15000000000E+04  0.10566000000E+00 0. -1.
        994   -1    0    0    0    0 -0.00000000000E+00 -0.00000000000E+00  0.11368683772E-12  0.17120000000E+03  0.17120000000E+03 0.  0.
         13    1    1    2    0    0  0.61020320988E+02  0.30386579096E+01  0.31202898095E+03  0.31795409909E+03  0.10566000000E+00 0. -1.
        994    1    1    2    0    0 -0.62966071672E+02  0.43920353957E+01  0.18159430091E+02  0.18336635749E+03  0.17120000000E+03 0.  0.
        998    1    1    2    0    0  0.19457506832E+01 -0.74306933053E+01  0.11698115852E+04  0.11698795434E+04  0.10000000000E+02 0. -1.
</event>
<event>
 5    1  0.7732857E-009  0.3687770E+03  0.7957747E-01  0.3501530E+00
         13   -1    0    0    0    0  0.00000000000E+00  0.00000000000E+00  0.14999999963E+04  0.15000000000E+04  0.10566000000E+00 0. -1.
        994   -1    0    0    0    0 -0.00000000000E+00 -0.00000000000E+00  0.11368683772E-12  0.17120000000E+03  0.17120000000E+03 0.  0.
         13    1    1    2    0    0 -0.15913615448E+02  0.28558241370E+02  0.56075310689E+02  0.64909690646E+02  0.10566000000E+00 0. -1.
        994    1    1    2    0    0 -0.15738242544E+02  0.28810805400E+02  0.14054618869E+02  0.17488489671E+03  0.17120000000E+03 0.  0.
        998    1    1    2    0    0  0.31651857992E+02 -0.57369046770E+02  0.14298700667E+04  0.14314054126E+04  0.10000000000E+02 0. -1.
</event>
<event>
 5    1  0.7732857E-009  0.3826421E+03  0.7957747E-01  0.3439734E+00
         13   -1    0    0    0    0  0.00000000000E+00  0.00000000000E+00  0.14999999963E+04  0.15000000000E+04  0.10566000000E+00 0.  1.
        994   -1    0    0    0    0 -0.00000000000E+00 -0.00000000000E+00  0.11368683772E-12  0.17120000000E+03  0.17120000000E+03 0.  0.
         13    1    1    2    0    0  0.22419882480E+02  0.77375848540E+00  0.82024792242E+02  0.85037212672E+02  0.10566000000E+00 0.  1.
        994    1    1    2    0    0 -0.29485782470E+02  0.16167054638E+02  0.65618116050E+01  0.17459462304E+03  0.17120000000E+03 0.  0.
        998    1    1    2    0    0  0.70658999898E+01 -0.16940813124E+02  0.14114133924E+04  0.14115681643E+04  0.10000000000E+02 0.  1.
</event>
<event>
 5    1  0.7732857E-009  0.3863443E+03  0.7957747E-01  0.3423991E+00
         13   -1    0    0    0    0  0.00000000000E+00  0.00000000000E+00  0.14999999963E+04  0.15000000000E+04  0.10566000000E+00 0.  1.
        994   -1    0    0    0    0 -0.00000000000E+00 -0.00000000000E+00  0.11368683772E-12  0.17120000000E+03  0.17120000000E+03 0.  0.
         13    1    1    2    0    0 -0.10318079286E+02  0.22251448609E+01  0.58826926759E+02  0.59766483130E+02  0.10566000000E+00 0.  1.
        994    1    1    2    0    0  0.66507200989E+01 -0.28797617201E+01  0.11361930153E+01  0.17135710093E+03  0.17120000000E+03 0.  0.
        998    1    1    2    0    0  0.36673591873E+01  0.65461685920E+00  0.14400368765E+04  0.14400764159E+04  0.10000000000E+02 0.  1.
</event>
<event>
 5    1  0.7732857E-009  0.3710733E+03  0.7957747E-01  0.3490973E+00
         13   -1    0    0    0    0  0.00000000000E+00  0.00000000000E+00  0.14999999963E+04  0.15000000000E+04  0.10566000000E+00 0. -1.
        994   -1    0    0    0    0 -0.00000000000E+00 -0.00000000000E+00  0.11368683772E-12  0.17120000000E+03  0.17120000000E+03 0.  0.
         13    1    1    2    0    0 -0.92034855973E+00  0.21730908928E+02  0.16087116410E+02  0.27053390226E+02  0.10566000000E+00 0. -1.
        994    1    1    2    0    0 -0.16434637295E+02 -0.30148523557E+01  0.12487751215E+02  0.17246614325E+03  0.17120000000E+03 0.  0.
        998    1    1    2    0    0  0.17354985854E+02 -0.18716056573E+02  0.14714251287E+04  0.14716804665E+04  0.10000000000E+02 0. -1.
</event>
<event>
 5    1  0.7732857E-009  0.3705603E+03  0.7957747E-01  0.3493320E+00
         13   -1    0    0    0    0  0.00000000000E+00  0.00000000000E+00  0.14999999963E+04  0.15000000000E+04  0.10566000000E+00 0. -1.
        994   -1    0    0    0    0 -0.00000000000E+00 -0.00000000000E+00  0.11368683772E-12  0.17120000000E+03  0.17120000000E+03 0.  0.
         13    1    1    2    0    0 -0.39134468119E+01 -0.13004398574E+02  0.30244552830E+01  0.13913588395E+02  0.10566000000E+00 0. -1.
        994    1    1    2    0    0 -0.39703999180E+01  0.14093861144E+02  0.11986755239E+02  0.17224262916E+03  0.17120000000E+03 0.  0.
        998    1    1    2    0    0  0.78838467299E+01 -0.10894625698E+01  0.14849887858E+04  0.14850437824E+04  0.10000000000E+02 0. -1.
</event>
<event>
 5    1  0.7732857E-009  0.3891220E+03  0.7957747E-01  0.3412376E+00
         13   -1    0    0    0    0  0.00000000000E+00  0.00000000000E+00  0.14999999963E+04  0.15000000000E+04  0.10566000000E+00 0. -1.
        994   -1    0    0    0    0 -0.00000000000E+00 -0.00000000000E+00  0.11368683772E-12  0.17120000000E+03  0.17120000000E+03 0.  0.
         13    1    1    2    0    0 -0.60293115112E+02 -0.25235284377E+02  0.88309196481E+02  0.10986630355E+03  0.10566000000E+00 0. -1.
        994    1    1    2    0    0  0.56103872414E+02  0.27065370701E+02  0.36129171326E+02  0.18572812337E+03  0.17120000000E+03 0.  0.
        998    1    1    2    0    0  0.41892426980E+01 -0.18300863244E+01  0.13755616285E+04  0.13756055731E+04  0.10000000000E+02 0. -1.
</event>
<event>
 5    1  0.7732857E-009  0.3772796E+03  0.7957747E-01  0.3463090E+00
         13   -1    0    0    0    0  0.00000000000E+00  0.00000000000E+00  0.14999999963E+04  0.15000000000E+04  0.10566000000E+00 0.  1.
        994   -1    0    0    0    0 -0.00000000000E+00 -0.00000000000E+00  0.11368683772E-12  0.17120000000E+03  0.17120000000E+03 0.  0.
         13    1    1    2    0    0 -0.24989069928E+02  0.36681245962E+02  0.15540063421E+03  0.16161477562E+03  0.10566000000E+00 0.  1.
        994    1    1    2    0    0  0.26033918044E+02 -0.41619985510E+02  0.13685828844E+02  0.17862455037E+03  0.17120000000E+03 0.  0.
        998    1    1    2    0    0 -0.10448481152E+01  0.49387395485E+01  0.13309135332E+04  0.13309606740E+04  0.10000000000E+02 0.  1.
</event>
<event>
 5    1  0.7732857E-009  0.3825419E+03  0.7957747E-01  0.3440165E+00
         13   -1    0    0    0    0  0.00000000000E+00  0.00000000000E+00  0.14999999963E+04  0.15000000000E+04  0.10566000000E+00 0. -1.
        994   -1    0    0    0    0 -0.00000000000E+00 -0.00000000000E+00  0.11368683772E-12  0.17120000000E+03  0.17120000000E+03 0.  0.
         13    1    1    2    0    0  0.47951169521E+00 -0.20259799809E+02  0.69862743369E+02  0.72742721250E+02  0.10566000000E+00 0. -1.
        994    1    1    2    0    0 -0.16863231994E+01  0.16162855159E+02  0.37314356413E+01  0.17201001478E+03  0.17120000000E+03 0.  0.
        998    1    1    2    0    0  0.12068115042E+01  0.40969446504E+01  0.14264058173E+04  0.14264472640E+04  0.10000000000E+02 0. -1.
</event>
<event>
 5    1  0.7732857E-009  0.3732301E+03  0.7957747E-01  0.3481176E+00
         13   -1    0    0    0    0  0.00000000000E+00  0.00000000000E+00  0.14999999963E+04  0.15000000000E+04  0.10566000000E+00 0. -1.
        994   -1    0    0    0    0 -0.00000000000E+00 -0.00000000000E+00  0.11368683772E-12  0.17120000000E+03  0.17120000000E+03 0.  0.
         13    1    1    2    0    0 -0.53361956442E+02 -0.55162868159E+02  0.45809417969E+03  0.46447898666E+03  0.10566000000E+00 0. -1.
        994    1    1    2    0    0  0.30245130299E+02  0.80863746182E+01  0.10949542176E+02  0.17438316959E+03  0.17120000000E+03 0.  0.
        998    1    1    2    0    0  0.23116826143E+02  0.47076493541E+02  0.10309562744E+04  0.10323378437E+04  0.10000000000E+02 0.  1.
</event>
<event>
 5    1  0.7732857E-009  0.3754365E+03  0.7957747E-01  0.3471273E+00
         13   -1    0    0    0    0  0.00000000000E+00  0.00000000000E+00  0.14999999963E+04  0.15000000000E+04  0.10566000000E+00 0.  1.
        994   -1    0    0    0    0 -0.00000000000E+00 -0.00000000000E+00  0.11368683772E-12  0.17120000000E+03  0.17120000000E+03 0.  0.
         13    1    1    2    0    0  0.21712784519E+02 -0.60476642389E+01  0.38565555202E+02  0.44669144455E+02  0.10566000000E+00 0.  1.
        994    1    1    2    0    0  0.49624127898E+01  0.12703539388E+02  0.70863140736E+01  0.17188851416E+03  0.17120000000E+03 0.  0.
        998    1    1    2    0    0 -0.26675197309E+02 -0.66558751491E+01  0.14543481270E+04  0.14546423414E+04  0.10000000000E+02 0.  1.
</event>
<event>
 5    1  0.7732857E-009  0.3815527E+03  0.7957747E-01  0.3444425E+00
         13   -1    0    0    0    0  0.00000000000E+00  0.00000000000E+00  0.14999999963E+04  0.15000000000E+04  0.10566000000E+00 0. -1.
        994   -1    0    0    0    0 -0.00000000000E+00 -0.00000000000E+00  0.11368683772E-12  0.17120000000E+03  0.17120000000E+03 0.  0.
         13    1    1    2    0    0  0.23044685683E+02  0.20313950144E+02  0.18542924981E+03  0.18795672895E+03  0.10566000000E+00 0. -1.
        994    1    1    2    0    0  0.23101762803E+02 -0.22934746016E+01  0.51459285392E+01  0.17284349004E+03  0.17120000000E+03 0.  0.
        998    1    1    2    0    0 -0.46146448487E+02 -0.18020475543E+02  0.13094248179E+04  0.13103997810E+04  0.10000000000E+02 0. -1.
</event>
<event>
 5    1  0.7732857E-009  0.3857308E+03  0.7957747E-01  0.3426579E+00
         13   -1    0    0    0    0  0.00000000000E+00  0.00000000000E+00  0.14999999963E+04  0.15000000000E+04  0.10566000000E+00 0. -1.
        994   -1    0    0    0    0 -0.00000000000E+00 -0.00000000000E+00  0.11368683772E-12  0.17120000000E+03  0.17120000000E+03 0.  0.
         13    1    1    2    0    0  0.86338670875E+01 -0.93176793082E+01  0.75861902954E+02  0.76918153205E+02  0.10566000000E+00 0. -1.
        994    1    1    2    0    0  0.76194477662E+00 -0.16215991085E+02  0.21328460671E+01  0.17198118490E+03  0.17120000000E+03 0.  0.
        998    1    1    2    0    0 -0.93958118642E+01  0.25533670394E+02  0.14220052473E+04  0.14223006619E+04  0.10000000000E+02 0. -1.
</event>
<event>
 5    1  0.7732857E-009  0.3848972E+03  0.7957747E-01  0.3430108E+00
         13   -1    0    0    0    0  0.00000000000E+00  0.00000000000E+00  0.14999999963E+04  0.15000000000E+04  0.10566000000E+00 0. -1.
        994   -1    0    0    0    0 -0.00000000000E+00 -0.00000000000E+00  0.11368683772E-12  0.17120000000E+03  0.17120000000E+03 0.  0.
         13    1    1    2    0    0  0.12146109201E+02 -0.12488404149E+02  0.89950799161E+02  0.91622298818E+02  0.10566000000E+00 0. -1.
        994    1    1    2    0    0 -0.30281985976E+01  0.13435433244E+02  0.23054119313E+01  0.17176855293E+03  0.17120000000E+03 0.  0.
        998    1    1    2    0    0 -0.91179106032E+01 -0.94702909438E+00  0.14077437852E+04  0.14078091482E+04  0.10000000000E+02 0. -1.
</event>
<event>
 5    1  0.7732857E-009  0.3708608E+03  0.7957747E-01  0.3491944E+00
         13   -1    0    0    0    0  0.00000000000E+00  0.00000000000E+00  0.14999999963E+04  0.15000000000E+04  0.10566000000E+00 0. -1.
        994   -1    0    0    0    0 -0.00000000000E+00 -0.00000000000E+00  0.11368683772E-12  0.17120000000E+03  0.17120000000E+03 0.  0.
         13    1    1    2    0    0  0.76484949928E+02 -0.77807983901E+01  0.27347061736E+03  0.28407160737E+03  0.10566000000E+00 0. -1.
        994    1    1    2    0    0 -0.33044446409E+02  0.60256115015E+01  0.15361242262E+02  0.17513894826E+03  0.17120000000E+03 0.  0.
        998    1    1    2    0    0 -0.43440503519E+02  0.17551868887E+01  0.12111681367E+04  0.12119894444E+04  0.10000000000E+02 0. -1.
</event>
<event>
 5    1  0.7732857E-009  0.3789669E+03  0.7957747E-01  0.3455669E+00
         13   -1    0    0    0    0  0.00000000000E+00  0.00000000000E+00  0.14999999963E+04  0.15000000000E+04  0.10566000000E+00 0.  1.
        994   -1    0    0    0    0 -0.00000000000E+00 -0.00000000000E+00  0.11368683772E-12  0.17120000000E+03  0.17120000000E+03 0.  0.
         13    1    1    2    0    0  0.41625507129E+02 -0.29784741356E+02  0.27719572746E+03  0.28188170594E+03  0.10566000000E+00 0.  1.
        994    1    1    2    0    0 -0.33406850305E+02  0.59480515596E+01  0.85274184244E+01  0.17473852989E+03  0.17120000000E+03 0.  0.
        998    1    1    2    0    0 -0.82186568232E+01  0.23836689797E+02  0.12142768504E+04  0.12145797642E+04  0.10000000000E+02 0.  1.
</event>
<event>
 5    1  0.7732857E-009  0.3827766E+03  0.7957747E-01  0.3439157E+00
         13   -1    0    0    0    0  0.00000000000E+00  0.00000000000E+00  0.14999999963E+04  0.15000000000E+04  0.10566000000E+00 0. -1.
        994   -1    0    0    0    0 -0.00000000000E+00 -0.00000000000E+00  0.11368683772E-12  0.17120000000E+03  0.17120000000E+03 0.  0.
         13    1    1    2    0    0 -0.13598546328E+02  0.51284497022E+01  0.36410043891E+02  0.39203621246E+02  0.10566000000E+00 0. -1.
        994    1    1    2    0    0  0.16495138873E+02 -0.89317244211E+01  0.39044873388E+01  0.17226883157E+03  0.17120000000E+03 0.  0.
        998    1    1    2    0    0 -0.28965925449E+01  0.38032747190E+01  0.14596854650E+04  0.14597275472E+04  0.10000000000E+02 0. -1.
</event>
<event>
 5    1  0.7732857E-009  0.3713385E+03  0.7957747E-01  0.3489762E+00
         13   -1    0    0    0    0  0.00000000000E+00  0.00000000000E+00  0.14999999963E+04  0.15000000000E+04  0.10566000000E+00 0. -1.
        994   -1    0    0    0    0 -0.00000000000E+00 -0.00000000000E+00  0.11368683772E-12  0.17120000000E+03  0.17120000000E+03 0.  0.
         13    1    1    2    0    0  0.30824998466E+02  0.13833281717E+02  0.45801934498E+02  0.56915451165E+02  0.10566000000E+00 0. -1.
        994    1    1    2    0    0 -0.31983813559E+01 -0.22553214181E+02  0.13472920943E+02  0.17323347457E+03  0.17120000000E+03 0.  0.
        998    1    1    2    0    0 -0.27626617110E+02  0.87199324644E+01  0.14407251408E+04  0.14410510743E+04  0.10000000000E+02 0. -1.
</event>
<event>
 5    1  0.7732857E-009  0.3777616E+03  0.7957747E-01  0.3460963E+00
         13   -1    0    0    0    0  0.00000000000E+00  0.00000000000E+00  0.14999999963E+04  0.15000000000E+04  0.10566000000E+00 0.  1.
        994   -1    0    0    0    0 -0.00000000000E+00 -0.00000000000E+00  0.11368683772E-12  0.17120000000E+03  0.17120000000E+03 0.  0.
         13    1    1    2    0    0 -0.21724039739E+02 -0.28642268213E+02  0.11404303802E+03  0.11957482643E+03  0.10566000000E+00 0.  1.
        994    1    1    2    0    0  0.16761538699E+02  0.29137096179E+02  0.90821528250E+01  0.17470502298E+03  0.17120000000E+03 0.  0.
        998    1    1    2    0    0  0.49625010399E+01 -0.49482796572E+00  0.13768748054E+04  0.13769201506E+04  0.10000000000E+02 0.  1.
</event>
<event>
 5    1  0.7732857E-009  0.3834794E+03  0.7957747E-01  0.3436147E+00
         13   -1    0    0    0    0  0.00000000000E+00  0.00000000000E+00  0.14999999963E+04  0.15000000000E+04  0.10566000000E+00 0.  1.
        994   -1    0    0    0    0 -0.00000000000E+00 -0.00000000000E+00  0.11368683772E-12  0.17120000000E+03  0.17120000000E+03 0.  0.
         13    1    1    2    0    0 -0.12166161790E+02  0.68113749515E+01  0.39323908499E+02  0.41722790716E+02  0.10566000000E+00 0.  1.
        994    1    1    2    0    0  0.12716870061E+02 -0.51836930228E+01  0.30104782957E+01  0.17177628601E+03  0.17120000000E+03 0.  0.
        998    1    1    2    0    0 -0.55070827100E+00 -0.16276819286E+01  0.14576656095E+04  0.14577009233E+04  0.10000000000E+02 0.  1.
</event>
<event>
 5    1  0.7732857E-009  0.3829632E+03  0.7957747E-01  0.3438357E+00
         13   -1    0    0    0    0  0.00000000000E+00  0.00000000000E+00  0.14999999963E+04  0.15000000000E+04  0.10566000000E+00 0.  1.
        994   -1    0    0    0    0 -0.00000000000E+00 -0.00000000000E+00  0.11368683772E-12  0.17120000000E+03  0.17120000000E+03 0.  0.
         13    1    1    2    0    0 -0.25052898646E+02 -0.12853551737E+02  0.14128676645E+03  0.14406534302E+03  0.10566000000E+00 0.  1.
        994    1    1    2    0    0  0.20836847571E+02  0.12188306103E+02  0.45762961057E+01  0.17295407341E+03  0.17120000000E+03 0.  0.
        998    1    1    2    0    0  0.42160510748E+01  0.66524563415E+00  0.13541369337E+04  0.13541805836E+04  0.10000000000E+02 0.  1.
</event>
<event>
 5    1  0.7732857E-009  0.3812961E+03  0.7957747E-01  0.3445534E+00
         13   -1    0    0    0    0  0.00000000000E+00  0.00000000000E+00  0.14999999963E+04  0.15000000000E+04  0.10566000000E+00 0.  1.
        994   -1    0    0    0    0 -0.00000000000E+00 -0.00000000000E+00  0.11368683772E-12  0.17120000000E+03  0.17120000000E+03 0.  0.
         13    1    1    2    0    0 -0.18146591606E+02 -0.27357455089E+02  0.16655842106E+03  0.16976291682E+03  0.10566000000E+00 0.  1.
        994    1    1    2    0    0  0.17018229774E+02 -0.95136264000E+00  0.44479437882E+01  0.17210389141E+03  0.17120000000E+03 0.  0.
        998    1    1    2    0    0  0.11283618322E+01  0.28308817729E+02  0.13289936314E+04  0.13293331918E+04  0.10000000000E+02 0.  1.
</event>
<event>
 5    1  0.7732857E-009  0.3833259E+03  0.7957747E-01  0.3436803E+00
         13   -1    0    0    0    0  0.00000000000E+00  0.00000000000E+00  0.14999999963E+04  0.15000000000E+04  0.10566000000E+00 0. -1.
        994   -1    0    0    0    0 -0.00000000000E+00 -0.00000000000E+00  0.11368683772E-12  0.17120000000E+03  0.17120000000E+03 0.  0.
         13    1    1    2    0    0  0.89178127624E+01 -0.27535744438E+02  0.17302913634E+03  0.17543328587E+03  0.10566000000E+00 0. -1.
        994    1    1    2    0    0 -0.83120229584E+01  0.12764297093E+02  0.32311195085E+01  0.17190665240E+03  0.17120000000E+03 0.  0.
        998    1    1    2    0    0 -0.60578980400E+00  0.14771447345E+02  0.13237397404E+04  0.13238600617E+04  0.10000000000E+02 0. -1.
</event>
<event>
 5    1  0.7732857E-009  0.3854944E+03  0.7957747E-01  0.3427578E+00
         13   -1    0    0    0    0  0.00000000000E+00  0.00000000000E+00  0.14999999963E+04  0.15000000000E+04  0.10566000000E+00 0. -1.
        994   -1    0    0    0    0 -0.00000000000E+00 -0.00000000000E+00  0.11368683772E-12  0.17120000000E+03  0.17120000000E+03 0.  0.
         13    1    1    2    0    0 -0.20812611624E+01  0.11011346277E+02  0.44455500633E+02  0.45846309507E+02  0.10566000000E+00 0. -1.
        994    1    1    2    0    0 -0.14136894177E+01 -0.12181653270E+02  0.18788203084E+01  0.17164894745E+03  0.17120000000E+03 0.  0.
        998    1    1    2    0    0  0.34949505801E+01  0.11703069922E+01  0.14536656753E+04  0.14537047430E+04  0.10000000000E+02 0. -1.
</event>
<event>
 5    1  0.7732857E-009  0.3808014E+03  0.7957747E-01  0.3447677E+00
         13   -1    0    0    0    0  0.00000000000E+00  0.00000000000E+00  0.14999999963E+04  0.15000000000E+04  0.10566000000E+00 0. -1.
        994   -1    0    0    0    0 -0.00000000000E+00 -0.00000000000E+00  0.11368683772E-12  0.17120000000E+03  0.17120000000E+03 0.  0.
         13    1    1    2    0    0 -0.15951682520E+02  0.69953282458E+00  0.32397622074E+02  0.36118729234E+02  0.10566000000E+00 0. -1.
        994    1    1    2    0    0  0.14440782020E+02  0.75217119901E+01  0.46135660701E+01  0.17203440740E+03  0.17120000000E+03 0.  0.
        998    1    1    2    0    0  0.15109005003E+01 -0.82212448147E+01  0.14629888081E+04  0.14630468634E+04  0.10000000000E+02 0. -1.
</event>
<event>
 5    1  0.7732857E-009  0.3718824E+03  0.7957747E-01  0.3487284E+00
         13   -1    0    0    0    0  0.00000000000E+00  0.00000000000E+00  0.14999999963E+04  0.15000000000E+04  0.10566000000E+00 0.  1.
        994   -1    0    0    0    0 -0.00000000000E+00 -0.00000000000E+00  0.11368683772E-12  0.17120000000E+03  0.17120000000E+03 0.  0.
         13    1    1    2    0    0  0.18155091486E+02  0.73399743513E+02  0.19659944291E+03  0.21063827243E+03  0.10566000000E+00 0.  1.
        994    1    1    2    0    0 -0.12418576079E+02 -0.83410902499E+02  0.37404989864E+02  0.19447409327E+03  0.17120000000E+03 0.  0.
        998    1    1    2    0    0 -0.57365154064E+01  0.10011158987E+02  0.12659955635E+04  0.12660876343E+04  0.10000000000E+02 0.  1.
</event>
<event>
 5    1  0.7732857E-009  0.3778403E+03  0.7957747E-01  0.3460617E+00
         13   -1    0    0    0    0  0.00000000000E+00  0.00000000000E+00  0.14999999963E+04  0.15000000000E+04  0.10566000000E+00 0.  1.
        994   -1    0    0    0    0 -0.00000000000E+00 -0.00000000000E+00  0.11368683772E-12  0.17120000000E+03  0.17120000000E+03 0.  0.
         13    1    1    2    0    0 -0.50040649981E+02 -0.17996401164E+02  0.27616815326E+03  0.28124152813E+03  0.10566000000E+00 0.  1.
        994    1    1    2    0    0  0.25118049952E+02  0.97062977607E+01  0.76726687564E+01  0.17347460476E+03  0.17120000000E+03 0.  0.
        998    1    1    2    0    0  0.24922600029E+02  0.82901034028E+01  0.12161591743E+04  0.12164838671E+04  0.10000000000E+02 0.  1.
</event>
<event>
 5    1  0.7732857E-009  0.3832495E+03  0.7957747E-01  0.3437130E+00
         13   -1    0    0    0    0  0.00000000000E+00  0.00000000000E+00  0.14999999963E+04  0.15000000000E+04  0.10566000000E+00 0.  1.
        994   -1    0    0    0    0 -0.00000000000E+00 -0.00000000000E+00  0.11368683772E-12  0.17120000000E+03  0.17120000000E+03 0.  0.
         13    1    1    2    0    0  0.14409600949E+02 -0.12671134656E+02  0.78186555421E+02  0.80506787699E+02  0.10566000000E+00 0.  1.
        994    1    1    2    0    0 -0.15071326450E+02 -0.16190268959E+02  0.41216193756E+01  0.17267222543E+03  0.17120000000E+03 0.  0.
        998    1    1    2    0    0  0.66172550072E+00  0.28861403615E+02  0.14176918215E+04  0.14180209869E+04  0.10000000000E+02 0.  1.
</event>
<event>
 5    1  0.7732857E-009  0.3743866E+03  0.7957747E-01  0.3475971E+00
         13   -1    0    0    0    0  0.00000000000E+00  0.00000000000E+00  0.14999999963E+04  0.15000000000E+04  0.10566000000E+00 0. -1.
        994   -1    0    0    0    0 -0.00000000000E+00 -0.00000000000E+00  0.11368683772E-12  0.17120000000E+03  0.17120000000E+03 0.  0.
         13    1    1    2    0    0 -0.19184157087E+02 -0.34271440898E+02  0.11827766824E+03  0.12462817303E+03  0.10566000000E+00 0. -1.
        994    1    1    2    0    0  0.53783951272E+02 -0.24003332106E+02  0.18903239370E+02  0.18203199121E+03  0.17120000000E+03 0.  0.
        998    1    1    2    0    0 -0.34599794185E+02  0.58274773004E+02  0.13628190887E+04  0.13645398358E+04  0.10000000000E+02 0. -1.
</event>
<event>
 5    1  0.7732857E-009  0.2528665E+03  0.7957747E-01  0.4303087E+00
         13   -1    0    0    0    0  0.00000000000E+00  0.00000000000E+00  0.14999999963E+04  0.15000000000E+04  0.10566000000E+00 0.  1.
        994   -1    0    0    0    0 -0.00000000000E+00 -0.00000000000E+00  0.11368683772E-12  0.17120000000E+03  0.17120000000E+03 0.  0.
         13    1    1    2    0    0  0.14667269190E+03  0.23415473505E+02  0.53012520979E+03  0.55053965540E+03  0.10566000000E+00 0.  1.
        994    1    1    2    0    0 -0.27388906705E+02  0.37136099126E+02  0.40789677830E+02  0.18194086920E+03  0.17120000000E+03 0.  0.
        998    1    1    2    0    0 -0.11928378520E+03 -0.60551572632E+02  0.92908510866E+03  0.93871947540E+03  0.10000000000E+02 0.  1.
</event>
<event>
 5    1  0.7732857E-009  0.3965102E+03  0.7957747E-01  0.3382276E+00
         13   -1    0    0    0    0  0.00000000000E+00  0.00000000000E+00  0.14999999963E+04  0.15000000000E+04  0.10566000000E+00 0.  1.
        994   -1    0    0    0    0 -0.00000000000E+00 -0.00000000000E+00  0.11368683772E-12  0.17120000000E+03  0.17120000000E+03 0.  0.
         13    1    1    2    0    0 -0.19470118375E+02 -0.49425046905E+02  0.49180274412E+02  0.72392204872E+02  0.10566000000E+00 0.  1.
        994    1    1    2    0    0  0.36396351772E+02 -0.31363434343E+01  0.30876847617E+02  0.17775643671E+03  0.17120000000E+03 0.  0.
        998    1    1    2    0    0 -0.16926233397E+02  0.52561390339E+02  0.14199428743E+04  0.14210513584E+04  0.10000000000E+02 0.  1.
</event>
<event>
 5    1  0.7732857E-009  0.3830086E+03  0.7957747E-01  0.3438162E+00
         13   -1    0    0    0    0  0.00000000000E+00  0.00000000000E+00  0.14999999963E+04  0.15000000000E+04  0.10566000000E+00 0. -1.
        994   -1    0    0    0    0 -0.00000000000E+00 -0.00000000000E+00  0.11368683772E-12  0.17120000000E+03  0.17120000000E+03 0.  0.
         13    1    1    2    0    0  0.12275458691E+02 -0.12655936269E+02  0.56748505432E+02  0.59424436402E+02  0.10566000000E+00 0. -1.
        994    1    1    2    0    0 -0.78586986198E+01  0.17349346059E+02  0.38237259533E+01  0.17229863561E+03  0.17120000000E+03 0.  0.
        998    1    1    2    0    0 -0.44167600716E+01 -0.46934097907E+01  0.14394277649E+04  0.14394769280E+04  0.10000000000E+02 0. -1.
</event>
<event>
 5    1  0.7732857E-009  0.3836777E+03  0.7957747E-01  0.3435300E+00
         13   -1    0    0    0    0  0.00000000000E+00  0.00000000000E+00  0.14999999963E+04  0.15000000000E+04  0.10566000000E+00 0.  1.
        994   -1    0    0    0    0 -0.00000000000E+00 -0.00000000000E+00  0.11368683772E-12  0.17120000000E+03  0.17120000000E+03 0.  0.
         13    1    1    2    0    0  0.25474480577E+01 -0.10916435411E+02  0.26384890410E+02  0.28667606451E+02  0.10566000000E+00 0.  1.
        994    1    1    2    0    0  0.85455355047E+00  0.11903495219E+02  0.27585931610E+01  0.17163762203E+03  0.17120000000E+03 0.  0.
        998    1    1    2    0    0 -0.34020016082E+01 -0.98705980771E+00  0.14708565127E+04  0.14708947715E+04  0.10000000000E+02 0.  1.
</event>
<event>
 5    1  0.7732857E-009  0.3793871E+03  0.7957747E-01  0.3453832E+00
         13   -1    0    0    0    0  0.00000000000E+00  0.00000000000E+00  0.14999999963E+04  0.15000000000E+04  0.10566000000E+00 0. -1.
        994   -1    0    0    0    0 -0.00000000000E+00 -0.00000000000E+00  0.11368683772E-12  0.17120000000E+03  0.17120000000E+03 0.  0.
         13    1    1    2    0    0  0.51764901385E+02  0.70151927746E+01  0.30977635838E+03  0.31414999812E+03  0.10566000000E+00 0. -1.
        994    1    1    2    0    0 -0.38447854387E+02  0.41381812552E+02  0.15205899186E+02  0.18091807894E+03  0.17120000000E+03 0.  0.
        998    1    1    2    0    0 -0.13317046999E+02 -0.48397005327E+02  0.11750177387E+04  0.11761319229E+04  0.10000000000E+02 0. -1.
</event>
<event>
 5    1  0.7732857E-009  0.3824663E+03  0.7957747E-01  0.3440489E+00
         13   -1    0    0    0    0  0.00000000000E+00  0.00000000000E+00  0.14999999963E+04  0.15000000000E+04  0.10566000000E+00 0. -1.
        994   -1    0    0    0    0 -0.00000000000E+00 -0.00000000000E+00  0.11368683772E-12  0.17120000000E+03  0.17120000000E+03 0.  0.
         13    1    1    2    0    0  0.33859090067E+01 -0.17068403934E+02  0.53914226317E+02  0.56652888329E+02  0.10566000000E+00 0. -1.
        994    1    1    2    0    0 -0.16506361959E+02 -0.23197654369E+01  0.38151458704E+01  0.17205184287E+03  0.17120000000E+03 0.  0.
        998    1    1    2    0    0  0.13120452953E+02  0.19388169371E+02  0.14422706241E+04  0.14424952688E+04  0.10000000000E+02 0. -1.
</event>
<event>
 5    1  0.7732857E-009  0.3719637E+03  0.7957747E-01  0.3486914E+00
         13   -1    0    0    0    0  0.00000000000E+00  0.00000000000E+00  0.14999999963E+04  0.15000000000E+04  0.10566000000E+00 0. -1.
        994   -1    0    0    0    0 -0.00000000000E+00 -0.00000000000E+00  0.11368683772E-12  0.17120000000E+03  0.17120000000E+03 0.  0.
         13    1    1    2    0    0 -0.84018407289E+01 -0.16775150201E+02  0.17975839245E+02  0.25983428421E+02  0.10566000000E+00 0. -1.
        994    1    1    2    0    0 -0.24305997204E+01  0.11018673523E+02  0.86836356826E+01  0.17179104898E+03  0.17120000000E+03 0.  0.
        998    1    1    2    0    0  0.10832440449E+02  0.57564766781E+01  0.14733405214E+04  0.14734255226E+04  0.10000000000E+02 0. -1.
</event>
<event>
 5    1  0.7732857E-009  0.3770334E+03  0.7957747E-01  0.3464178E+00
         13   -1    0    0    0    0  0.00000000000E+00  0.00000000000E+00  0.14999999963E+04  0.15000000000E+04  0.10566000000E+00 0.  1.
        994   -1    0    0    0    0 -0.00000000000E+00 -0.00000000000E+00  0.11368683772E-12  0.17120000000E+03  0.17120000000E+03 0.  0.
         13    1    1    2    0    0  0.17803951661E+02  0.31811504901E+02  0.11382991359E+03  0.11952494689E+03  0.10566000000E+00 0.  1.
        994    1    1    2    0    0 -0.11614473823E+02 -0.22912518382E+02  0.78691788343E+01  0.17329524943E+03  0.17120000000E+03 0.  0.
        998    1    1    2    0    0 -0.61894778377E+01 -0.88989865190E+01  0.13783009039E+04  0.13783798037E+04  0.10000000000E+02 0.  1.
</event>
<event>
 5    1  0.7732857E-009  0.3856150E+03  0.7957747E-01  0.3427068E+00
         13   -1    0    0    0    0  0.00000000000E+00  0.00000000000E+00  0.14999999963E+04  0.15000000000E+04  0.10566000000E+00 0.  1.
        994   -1    0    0    0    0 -0.00000000000E+00 -0.00000000000E+00  0.11368683772E-12  0.17120000000E+03  0.17120000000E+03 0.  0.
         13    1    1    2    0    0 -0.12943435432E+02  0.29499812693E+00  0.63276040633E+02  0.64587057736E+02  0.10566000000E+00 0.  1.
        994    1    1    2    0    0  0.95394674134E+01  0.27109074212E+01  0.16479552746E+01  0.17149491600E+03  0.17120000000E+03 0.  0.
        998    1    1    2    0    0  0.34039680185E+01 -0.30059055481E+01  0.14350760004E+04  0.14351180263E+04  0.10000000000E+02 0.  1.
</event>
<event>
 5    1  0.7732857E-009  0.3851333E+03  0.7957747E-01  0.3429107E+00
         13   -1    0    0    0    0  0.00000000000E+00  0.00000000000E+00  0.14999999963E+04  0.15000000000E+04  0.10566000000E+00 0. -1.
        994   -1    0    0    0    0 -0.00000000000E+00 -0.00000000000E+00  0.11368683772E-12  0.17120000000E+03  0.17120000000E+03 0.  0.
         13    1    1    2    0    0 -0.15001343069E+02  0.36081249015E+01  0.77417161782E+02  0.78939767935E+02  0.10566000000E+00 0. -1.
        994    1    1    2    0    0  0.64995682462E+01 -0.68701744108E+01  0.18580710686E+01  0.17147109410E+03  0.17120000000E+03 0.  0.
        998    1    1    2    0    0  0.85017748223E+01  0.32620495094E+01  0.14207247634E+04  0.14207891380E+04  0.10000000000E+02 0.  0.
</event>
<event>
 5    1  0.7732857E-009  0.3714720E+03  0.7957747E-01  0.3489153E+00
         13   -1    0    0    0    0  0.00000000000E+00  0.00000000000E+00  0.14999999963E+04  0.15000000000E+04  0.10566000000E+00 0.  1.
        994   -1    0    0    0    0 -0.00000000000E+00 -0.00000000000E+00  0.11368683772E-12  0.17120000000E+03  0.17120000000E+03 0.  0.
         13    1    1    2    0    0  0.10319070166E+02  0.17404952810E+02  0.12324255463E+02  0.23692066777E+02  0.10566000000E+00 0.  1.
        994    1    1    2    0    0 -0.18825528816E+02 -0.69120203379E+01  0.13133805135E+02  0.17287022126E+03  0.17120000000E+03 0.  0.
        998    1    1    2    0    0  0.85064586503E+01 -0.10492932472E+02  0.14745419357E+04  0.14746377120E+04  0.10000000000E+02 0.  1.
</event>
<event>
 5    1  0.7732857E-009  0.3705604E+03  0.7957747E-01  0.3493319E+00
         13   -1    0    0    0    0  0.00000000000E+00  0.00000000000E+00  0.14999999963E+04  0.15000000000E+04  0.10566000000E+00 0.  1.
        994   -1    0    0    0    0 -0.00000000000E+00 -0.00000000000E+00  0.11368683772E-12  0.17120000000E+03  0.17120000000E+03 0.  0.
         13    1    1    2    0    0  0.13769407152E+03  0.42511619742E+02  0.72756756554E+03  0.74170173839E+03  0.10566000000E+00 0.  1.
        994    1    1    2    0    0 -0.12463985275E+03 -0.21832717645E+02  0.66444094909E+02  0.22301573532E+03  0.17120000000E+03 0.  0.
        998    1    1    2    0    0 -0.13054218772E+02 -0.20678902097E+02  0.70598833583E+03  0.70648252629E+03  0.10000000000E+02 0.  1.
</event>
<event>
 5    1  0.7732857E-009  0.3734778E+03  0.7957747E-01  0.3480059E+00
         13   -1    0    0    0    0  0.00000000000E+00  0.00000000000E+00  0.14999999963E+04  0.15000000000E+04  0.10566000000E+00 0.  1.
        994   -1    0    0    0    0 -0.00000000000E+00 -0.00000000000E+00  0.11368683772E-12  0.17120000000E+03  0.17120000000E+03 0.  0.
         13    1    1    2    0    0  0.32150541723E+02  0.84145311298E+02  0.26036928178E+03  0.27551091594E+03  0.10566000000E+00 0.  1.
        994    1    1    2    0    0 -0.12563060102E+02 -0.89828019599E+02  0.42508638456E+02  0.19835152615E+03  0.17120000000E+03 0.  0.
        998    1    1    2    0    0 -0.19587481621E+02  0.56827083018E+01  0.11971220760E+04  0.11973375579E+04  0.10000000000E+02 0.  1.
</event>
<event>
 5    1  0.7732857E-009  0.3807319E+03  0.7957747E-01  0.3447978E+00
         13   -1    0    0    0    0  0.00000000000E+00  0.00000000000E+00  0.14999999963E+04  0.15000000000E+04  0.10566000000E+00 0. -1.
        994   -1    0    0    0    0 -0.00000000000E+00 -0.00000000000E+00  0.11368683772E-12  0.17120000000E+03  0.17120000000E+03 0.  0.
         13    1    1    2    0    0 -0.14217371825E+01  0.12009035499E+02  0.18687138915E+02  0.22258899234E+02  0.10566000000E+00 0. -1.
        994    1    1    2    0    0 -0.17181983606E+02  0.64134752107E+01  0.48866092896E+01  0.17224886698E+03  0.17120000000E+03 0.  0.
        998    1    1    2    0    0  0.18603720789E+02 -0.18422510710E+02  0.14764262481E+04  0.14766922338E+04  0.10000000000E+02 0. -1.
</event>
<event>
 5    1  0.7732857E-009  0.3743148E+03  0.7957747E-01  0.3476293E+00
         13   -1    0    0    0    0  0.00000000000E+00  0.00000000000E+00  0.14999999963E+04  0.15000000000E+04  0.10566000000E+00 0.  1.
        994   -1    0    0    0    0 -0.00000000000E+00 -0.00000000000E+00  0.11368683772E-12  0.17120000000E+03  0.17120000000E+03 0.  0.
         13    1    1    2    0    0  0.21193382356E+02  0.95861433371E+02  0.41511222799E+03  0.42656388368E+03  0.10566000000E+00 0.  1.
        994    1    1    2    0    0 -0.40659300921E+02 -0.10905519251E+03  0.54685753548E+02  0.21411722351E+03  0.17120000000E+03 0.  0.
        998    1    1    2    0    0  0.19465918565E+02  0.13193759139E+02  0.10302020147E+04  0.10305188928E+04  0.10000000000E+02 0.  1.
</event>
<event>
 5    1  0.7732857E-009  0.3696442E+03  0.7957747E-01  0.3497528E+00
         13   -1    0    0    0    0  0.00000000000E+00  0.00000000000E+00  0.14999999963E+04  0.15000000000E+04  0.10566000000E+00 0. -1.
        994   -1    0    0    0    0 -0.00000000000E+00 -0.00000000000E+00  0.11368683772E-12  0.17120000000E+03  0.17120000000E+03 0.  0.
         13    1    1    2    0    0 -0.46092302144E+02  0.16706158102E+02  0.17780574565E+03  0.18444102143E+03  0.10566000000E+00 0. -1.
        994    1    1    2    0    0 -0.64422767874E+02  0.31084411635E+02  0.28836061175E+02  0.18776978482E+03  0.17120000000E+03 0.  0.
        998    1    1    2    0    0  0.11051507002E+03 -0.47790569737E+02  0.12933581895E+04  0.12989891937E+04  0.10000000000E+02 0. -1.
</event>
<event>
 5    1  0.7732857E-009  0.3931072E+03  0.7957747E-01  0.3396000E+00
         13   -1    0    0    0    0  0.00000000000E+00  0.00000000000E+00  0.14999999963E+04  0.15000000000E+04  0.10566000000E+00 0. -1.
        994   -1    0    0    0    0 -0.00000000000E+00 -0.00000000000E+00  0.11368683772E-12  0.17120000000E+03  0.17120000000E+03 0.  0.
         13    1    1    2    0    0 -0.11255957592E+02 -0.26660408153E+02  0.34072788254E+01  0.29139228837E+02  0.10566000000E+00 0. -1.
        994    1    1    2    0    0  0.14248321391E+03  0.69939682764E+02  0.12755593404E+03  0.26603191872E+03  0.17120000000E+03 0.  0.
        998    1    1    2    0    0 -0.13122725631E+03 -0.43279274611E+02  0.13690367834E+04  0.13760288524E+04  0.10000000000E+02 0. -1.
</event>
<event>
 5    1  0.7732857E-009  0.3848138E+03  0.7957747E-01  0.3430462E+00
         13   -1    0    0    0    0  0.00000000000E+00  0.00000000000E+00  0.14999999963E+04  0.15000000000E+04  0.10566000000E+00 0.  1.
        994   -1    0    0    0    0 -0.00000000000E+00 -0.00000000000E+00  0.11368683772E-12  0.17120000000E+03  0.17120000000E+03 0.  0.
         13    1    1    2    0    0  0.64192638094E+01  0.12614759762E+02  0.56415957785E+02  0.58164512966E+02  0.10566000000E+00 0.  1.
        994    1    1    2    0    0 -0.53721787747E+01 -0.13354045841E+02  0.24046906950E+01  0.17182087586E+03  0.17120000000E+03 0.  0.
        998    1    1    2    0    0 -0.10470850347E+01  0.73928607809E+00  0.14411793478E+04  0.14412146112E+04  0.10000000000E+02 0.  1.
</event>
<event>
 5    1  0.1190653E-008  0.3845211E+03  0.7957747E-01  0.3431706E+00
         13   -1    0    0    0    0  0.00000000000E+00  0.00000000000E+00  0.14999999963E+04  0.15000000000E+04  0.10566000000E+00 0.  1.
        994   -1    0    0    0    0 -0.00000000000E+00 -0.00000000000E+00  0.11368683772E-12  0.17120000000E+03  0.17120000000E+03 0.  0.
         13    1    1    2    0    0  0.64033318565E+01  0.86356676050E+01  0.30013526536E+02  0.31881034378E+02  0.10566000000E+00 0.  1.
        994    1    1    2    0    0 -0.81820179069E+01 -0.81203444595E+01  0.23058935948E+01  0.17160315427E+03  0.17120000000E+03 0.  0.
        998    1    1    2    0    0  0.17786860503E+01 -0.51532314552E+00  0.14676805761E+04  0.14677158113E+04  0.10000000000E+02 0.  1.
</event>
<event>
 5    1  0.7732857E-009  0.3840800E+03  0.7957747E-01  0.3433583E+00
         13   -1    0    0    0    0  0.00000000000E+00  0.00000000000E+00  0.14999999963E+04  0.15000000000E+04  0.10566000000E+00 0. -1.
        994   -1    0    0    0    0 -0.00000000000E+00 -0.00000000000E+00  0.11368683772E-12  0.17120000000E+03  0.17120000000E+03 0.  0.
         13    1    1    2    0    0 -0.92068425508E+01  0.94262432455E+01  0.42492981364E+02  0.44489151944E+02  0.10566000000E+00 0. -1.
        994    1    1    2    0    0  0.79336403295E+01  0.53028815599E+01  0.23880048123E+01  0.17148237743E+03  0.17120000000E+03 0.  0.
        998    1    1    2    0    0  0.12732022213E+01 -0.14729124805E+02  0.14551190101E+04  0.14552284706E+04  0.10000000000E+02 0. -1.
</event>
<event>
 5    1  0.7732857E-009  0.3726397E+03  0.7957747E-01  0.3483847E+00
         13   -1    0    0    0    0  0.00000000000E+00  0.00000000000E+00  0.14999999963E+04  0.15000000000E+04  0.10566000000E+00 0.  1.
        994   -1    0    0    0    0 -0.00000000000E+00 -0.00000000000E+00  0.11368683772E-12  0.17120000000E+03  0.17120000000E+03 0.  0.
         13    1    1    2    0    0  0.99322388427E+02  0.10015315970E+03  0.76842658349E+03  0.78126501113E+03  0.10566000000E+00 0.  1.
        994    1    1    2    0    0 -0.70902247031E+02 -0.10452004165E+03  0.64699945204E+02  0.22236701790E+03  0.17120000000E+03 0.  0.
        998    1    1    2    0    0 -0.28420141396E+02  0.43668819526E+01  0.66687346759E+03  0.66756797097E+03  0.10000000000E+02 0.  1.
</event>
<event>
 5    1  0.7732857E-009  0.3342143E+03  0.7957747E-01  0.3678470E+00
         13   -1    0    0    0    0  0.00000000000E+00  0.00000000000E+00  0.14999999963E+04  0.15000000000E+04  0.10566000000E+00 0. -1.
        994   -1    0    0    0    0 -0.00000000000E+00 -0.00000000000E+00  0.11368683772E-12  0.17120000000E+03  0.17120000000E+03 0.  0.
         13    1    1    2    0    0  0.12483102683E+03  0.18569388361E+03  0.97520413397E+03  0.10005439110E+04  0.10566000000E+00 0. -1.
        994    1    1    2    0    0 -0.54124180968E+02 -0.15917249196E+03  0.13876944533E+03  0.27718533171E+03  0.17120000000E+03 0.  0.
        998    1    1    2    0    0 -0.70706845864E+02 -0.26521391654E+02  0.38602641698E+03  0.39347075733E+03  0.10000000000E+02 0. -1.
</event>
<event>
 5    1  0.7732857E-009  0.3859614E+03  0.7957747E-01  0.3425605E+00
         13   -1    0    0    0    0  0.00000000000E+00  0.00000000000E+00  0.14999999963E+04  0.15000000000E+04  0.10566000000E+00 0. -1.
        994   -1    0    0    0    0 -0.00000000000E+00 -0.00000000000E+00  0.11368683772E-12  0.17120000000E+03  0.17120000000E+03 0.  0.
         13    1    1    2    0    0  0.18432420809E+01  0.13079198046E+02  0.71652768254E+02  0.72860094190E+02  0.10566000000E+00 0. -1.
        994    1    1    2    0    0  0.10919902577E+02 -0.19077507028E+02  0.27393116710E+01  0.17262716871E+03  0.17120000000E+03 0.  0.
        998    1    1    2    0    0 -0.12763144658E+02  0.59983089819E+01  0.14256079164E+04  0.14257127371E+04  0.10000000000E+02 0. -1.
</event>
<event>
 5    1  0.7732857E-009  0.3784246E+03  0.7957747E-01  0.3458047E+00
         13   -1    0    0    0    0  0.00000000000E+00  0.00000000000E+00  0.14999999963E+04  0.15000000000E+04  0.10566000000E+00 0. -1.
        994   -1    0    0    0    0 -0.00000000000E+00 -0.00000000000E+00  0.11368683772E-12  0.17120000000E+03  0.17120000000E+03 0.  0.
         13    1    1    2    0    0 -0.17257653260E+02 -0.31976380336E+01  0.28694496622E+02  0.33636836734E+02  0.10566000000E+00 0. -1.
        994    1    1    2    0    0  0.18714349381E+02  0.22347864027E+00  0.61084665617E+01  0.17232826286E+03  0.17120000000E+03 0.  0.
        998    1    1    2    0    0 -0.14566961214E+01  0.29741593934E+01  0.14651970331E+04  0.14652349004E+04  0.10000000000E+02 0. -1.
</event>
<event>
 5    1  0.7732857E-009  0.3761213E+03  0.7957747E-01  0.3468223E+00
         13   -1    0    0    0    0  0.00000000000E+00  0.00000000000E+00  0.14999999963E+04  0.15000000000E+04  0.10566000000E+00 0.  1.
        994   -1    0    0    0    0 -0.00000000000E+00 -0.00000000000E+00  0.11368683772E-12  0.17120000000E+03  0.17120000000E+03 0.  0.
         13    1    1    2    0    0  0.88993501040E+01  0.71561042136E+01  0.80386353625E+01  0.13965639345E+02  0.10566000000E+00 0.  1.
        994    1    1    2    0    0 -0.27438537054E+02  0.36686937462E+02  0.13244715652E+02  0.17771794279E+03  0.17120000000E+03 0.  0.
        998    1    1    2    0    0  0.18539186950E+02 -0.43843041675E+02  0.14787166453E+04  0.14795164179E+04  0.10000000000E+02 0.  1.
</event>
<event>
 5    1  0.7732857E-009  0.3776780E+03  0.7957747E-01  0.3461332E+00
         13   -1    0    0    0    0  0.00000000000E+00  0.00000000000E+00  0.14999999963E+04  0.15000000000E+04  0.10566000000E+00 0. -1.
        994   -1    0    0    0    0 -0.00000000000E+00 -0.00000000000E+00  0.11368683772E-12  0.17120000000E+03  0.17120000000E+03 0.  0.
         13    1    1    2    0    0  0.23188952989E+01  0.16022532512E+02  0.23329286748E+02  0.28396577394E+02  0.10566000000E+00 0. -1.
        994    1    1    2    0    0 -0.52049532373E+01  0.41956877471E+01  0.54604978287E+01  0.17141747977E+03  0.17120000000E+03 0.  0.
        998    1    1    2    0    0  0.28860579384E+01 -0.20218220259E+02  0.14712102117E+04  0.14713859428E+04  0.10000000000E+02 0. -1.
</event>
<event>
 5    1  0.7732857E-009  0.3786754E+03  0.7957747E-01  0.3456947E+00
         13   -1    0    0    0    0  0.00000000000E+00  0.00000000000E+00  0.14999999963E+04  0.15000000000E+04  0.10566000000E+00 0. -1.
        994   -1    0    0    0    0 -0.00000000000E+00 -0.00000000000E+00  0.11368683772E-12  0.17120000000E+03  0.17120000000E+03 0.  0.
         13    1    1    2    0    0 -0.12190382238E+02 -0.37932121504E+02  0.19338584970E+03  0.19744758618E+03  0.10566000000E+00 0. -1.
        994    1    1    2    0    0  0.63418443146E+01 -0.28703772311E+01  0.49660323402E+01  0.17141341701E+03  0.17120000000E+03 0.  0.
        998    1    1    2    0    0  0.58485379229E+01  0.40802498735E+02  0.13016481142E+04  0.13023389968E+04  0.10000000000E+02 0. -1.
</event>
<event>
 5    1  0.7732857E-009  0.3846301E+03  0.7957747E-01  0.3431242E+00
         13   -1    0    0    0    0  0.00000000000E+00  0.00000000000E+00  0.14999999963E+04  0.15000000000E+04  0.10566000000E+00 0. -1.
        994   -1    0    0    0    0 -0.00000000000E+00 -0.00000000000E+00  0.11368683772E-12  0.17120000000E+03  0.17120000000E+03 0.  0.
         13    1    1    2    0    0 -0.65106821877E+01 -0.13144333935E+02  0.58303180075E+02  0.60120166900E+02  0.10566000000E+00 0. -1.
        994    1    1    2    0    0  0.28225755412E+01  0.12150999668E+02  0.23264297989E+01  0.17166964205E+03  0.17120000000E+03 0.  0.
        998    1    1    2    0    0  0.36881066465E+01  0.99333426684E+00  0.14393703864E+04  0.14394101911E+04  0.10000000000E+02 0. -1.
</event>
<event>
 5    1  0.7732857E-009  0.3851982E+03  0.7957747E-01  0.3428832E+00
         13   -1    0    0    0    0  0.00000000000E+00  0.00000000000E+00  0.14999999963E+04  0.15000000000E+04  0.10566000000E+00 0.  1.
        994   -1    0    0    0    0 -0.00000000000E+00 -0.00000000000E+00  0.11368683772E-12  0.17120000000E+03  0.17120000000E+03 0.  0.
         13    1    1    2    0    0 -0.11722117524E+02  0.77957111400E+01  0.62056077263E+02  0.63632924188E+02  0.10566000000E+00 0.  1.
        994    1    1    2    0    0  0.20954210120E+02  0.18943751802E+01  0.29879710945E+01  0.17251387060E+03  0.17120000000E+03 0.  0.
        998    1    1    2    0    0 -0.92320925953E+01 -0.96900863202E+01  0.14349559479E+04  0.14350532052E+04  0.10000000000E+02 0.  1.
</event>
<event>
 5    1  0.7732857E-009  0.3788581E+03  0.7957747E-01  0.3456146E+00
         13   -1    0    0    0    0  0.00000000000E+00  0.00000000000E+00  0.14999999963E+04  0.15000000000E+04  0.10566000000E+00 0.  1.
        994   -1    0    0    0    0 -0.00000000000E+00 -0.00000000000E+00  0.11368683772E-12  0.17120000000E+03  0.17120000000E+03 0.  0.
         13    1    1    2    0    0 -0.28449318377E+02  0.16456226102E+02  0.11389850184E+03  0.11854556499E+03  0.10566000000E+00 0.  1.
        994    1    1    2    0    0 -0.70857050565E+01 -0.52527720918E+02  0.14196174985E+02  0.17977858623E+03  0.17120000000E+03 0.  0.
        998    1    1    2    0    0  0.35535023433E+02  0.36071494816E+02  0.13719053195E+04  0.13728758488E+04  0.10000000000E+02 0.  1.
</event>
<event>
 5    1  0.7732857E-009  0.3783741E+03  0.7957747E-01  0.3458269E+00
         13   -1    0    0    0    0  0.00000000000E+00  0.00000000000E+00  0.14999999963E+04  0.15000000000E+04  0.10566000000E+00 0. -1.
        994   -1    0    0    0    0 -0.00000000000E+00 -0.00000000000E+00  0.11368683772E-12  0.17120000000E+03  0.17120000000E+03 0.  0.
         13    1    1    2    0    0  0.46716144811E+02  0.22880084093E+02  0.24922142723E+03  0.25459227676E+03  0.10566000000E+00 0. -1.
        994    1    1    2    0    0 -0.20971334160E+02 -0.55912694482E+02  0.17036518718E+02  0.18211454975E+03  0.17120000000E+03 0.  0.
        998    1    1    2    0    0 -0.25744810652E+02  0.33032610388E+02  0.12337420503E+04  0.12344931735E+04  0.10000000000E+02 0. -1.
</event>
<event>
 5    1  0.7732857E-009  0.3843166E+03  0.7957747E-01  0.3432576E+00
         13   -1    0    0    0    0  0.00000000000E+00  0.00000000000E+00  0.14999999963E+04  0.15000000000E+04  0.10566000000E+00 0.  1.
        994   -1    0    0    0    0 -0.00000000000E+00 -0.00000000000E+00  0.11368683772E-12  0.17120000000E+03  0.17120000000E+03 0.  0.
         13    1    1    2    0    0 -0.85470062649E+01  0.22206694202E+02  0.13437578834E+03  0.13646630441E+03  0.10566000000E+00 0.  1.
        994    1    1    2    0    0  0.55070210242E+01 -0.21887645543E+02  0.36505502632E+01  0.17271989702E+03  0.17120000000E+03 0.  0.
        998    1    1    2    0    0  0.30399852407E+01 -0.31904865847E+00  0.13619736577E+04  0.13620137986E+04  0.10000000000E+02 0.  1.
</event>
<event>
 5    1  0.7732857E-009  0.3802439E+03  0.7957747E-01  0.3450097E+00
         13   -1    0    0    0    0  0.00000000000E+00  0.00000000000E+00  0.14999999963E+04  0.15000000000E+04  0.10566000000E+00 0. -1.
        994   -1    0    0    0    0 -0.00000000000E+00 -0.00000000000E+00  0.11368683772E-12  0.17120000000E+03  0.17120000000E+03 0.  0.
         13    1    1    2    0    0 -0.20848059730E+02  0.58999411326E+02  0.36128130086E+03  0.36666028098E+03  0.10566000000E+00 0. -1.
        994    1    1    2    0    0  0.23756793696E+02 -0.60652222637E+02  0.18315460859E+02  0.18408686391E+03  0.17120000000E+03 0.  0.
        998    1    1    2    0    0 -0.29087339655E+01  0.16528113114E+01  0.11204032346E+04  0.11204528551E+04  0.10000000000E+02 0.  0.
</event>
<event>
 5    1  0.7732857E-009  0.3751078E+03  0.7957747E-01  0.3472741E+00
         13   -1    0    0    0    0  0.00000000000E+00  0.00000000000E+00  0.14999999963E+04  0.15000000000E+04  0.10566000000E+00 0. -1.
        994   -1    0    0    0    0 -0.00000000000E+00 -0.00000000000E+00  0.11368683772E-12  0.17120000000E+03  0.17120000000E+03 0.  0.
         13    1    1    2    0    0 -0.10631010745E+02  0.29069207374E+00  0.54276940105E+01  0.11940432055E+02  0.10566000000E+00 0. -1.
        994    1    1    2    0    0  0.12140650855E+02 -0.22651589346E+01  0.71418246881E+01  0.17179339920E+03  0.17120000000E+03 0.  0.
        998    1    1    2    0    0 -0.15096401095E+01  0.19744668609E+01  0.14874304776E+04  0.14874661687E+04  0.10000000000E+02 0. -1.
</event>
<event>
 5    1  0.7732857E-009  0.3829001E+03  0.7957747E-01  0.3438627E+00
         13   -1    0    0    0    0  0.00000000000E+00  0.00000000000E+00  0.14999999963E+04  0.15000000000E+04  0.10566000000E+00 0. -1.
        994   -1    0    0    0    0 -0.00000000000E+00 -0.00000000000E+00  0.11368683772E-12  0.17120000000E+03  0.17120000000E+03 0.  0.
         13    1    1    2    0    0 -0.30688813764E+02  0.46355161653E+01  0.15934325978E+03  0.16233784803E+03  0.10566000000E+00 0. -1.
        994    1    1    2    0    0  0.34542751762E+02  0.42719313413E+01  0.66980169720E+01  0.17483064528E+03  0.17120000000E+03 0.  0.
        998    1    1    2    0    0 -0.38539379980E+01 -0.89074475066E+01  0.13339587195E+04  0.13340315067E+04  0.10000000000E+02 0. -1.
</event>
<event>
 5    1  0.7732857E-009  0.3828998E+03  0.7957747E-01  0.3438629E+00
         13   -1    0    0    0    0  0.00000000000E+00  0.00000000000E+00  0.14999999963E+04  0.15000000000E+04  0.10566000000E+00 0.  1.
        994   -1    0    0    0    0 -0.00000000000E+00 -0.00000000000E+00  0.11368683772E-12  0.17120000000E+03  0.17120000000E+03 0.  0.
         13    1    1    2    0    0  0.22647749948E+01  0.33532430500E+02  0.19758942439E+03  0.20042740555E+03  0.10566000000E+00 0.  1.
        994    1    1    2    0    0 -0.50047575610E+01 -0.26323192872E+02  0.50573792591E+01  0.17335793944E+03  0.17120000000E+03 0.  0.
        998    1    1    2    0    0  0.27399825662E+01 -0.72092376281E+01  0.12973531926E+04  0.12974146550E+04  0.10000000000E+02 0.  1.
</event>
<event>
 5    1  0.7732857E-009  0.3809872E+03  0.7957747E-01  0.3446871E+00
         13   -1    0    0    0    0  0.00000000000E+00  0.00000000000E+00  0.14999999963E+04  0.15000000000E+04  0.10566000000E+00 0. -1.
        994   -1    0    0    0    0 -0.00000000000E+00 -0.00000000000E+00  0.11368683772E-12  0.17120000000E+03  0.17120000000E+03 0.  0.
         13    1    1    2    0    0  0.64801981996E+01 -0.29200567505E+02  0.13189660320E+03  0.13524566984E+03  0.10566000000E+00 0. -1.
        994    1    1    2    0    0 -0.13800628602E+02  0.26177011984E+01  0.42933404769E+01  0.17182893377E+03  0.17120000000E+03 0.  0.
        998    1    1    2    0    0  0.73204304021E+01  0.26582866307E+02  0.13638100526E+04  0.13641253964E+04  0.10000000000E+02 0. -1.
</event>
<event>
 5    1  0.7732857E-009  0.3798147E+03  0.7957747E-01  0.3451966E+00
         13   -1    0    0    0    0  0.00000000000E+00  0.00000000000E+00  0.14999999963E+04  0.15000000000E+04  0.10566000000E+00 0. -1.
        994   -1    0    0    0    0 -0.00000000000E+00 -0.00000000000E+00  0.11368683772E-12  0.17120000000E+03  0.17120000000E+03 0.  0.
         13    1    1    2    0    0 -0.39399343929E+02  0.11896257686E+02  0.22241373146E+03  0.22618954078E+03  0.10566000000E+00 0. -1.
        994    1    1    2    0    0  0.85259270563E+01 -0.50035081854E+01  0.45536653997E+01  0.17154562773E+03  0.17120000000E+03 0.  0.
        998    1    1    2    0    0  0.30873416873E+02 -0.68927495007E+01  0.12730325994E+04  0.12734648315E+04  0.10000000000E+02 0. -1.
</event>
<event>
 5    1  0.7732857E-009  0.3746858E+03  0.7957747E-01  0.3474629E+00
         13   -1    0    0    0    0  0.00000000000E+00  0.00000000000E+00  0.14999999963E+04  0.15000000000E+04  0.10566000000E+00 0.  1.
        994   -1    0    0    0    0 -0.00000000000E+00 -0.00000000000E+00  0.11368683772E-12  0.17120000000E+03  0.17120000000E+03 0.  0.
         13    1    1    2    0    0  0.49907511992E+02  0.52695449004E+02  0.29717615962E+03  0.30591052795E+03  0.10566000000E+00 0.  1.
        994    1    1    2    0    0 -0.50324791214E+02 -0.58052889144E+02  0.27199192337E+02  0.18961001717E+03  0.17120000000E+03 0.  0.
        998    1    1    2    0    0  0.41727922195E+00  0.53574401408E+01  0.11756246443E+04  0.11756794549E+04  0.10000000000E+02 0.  1.
</event>
<event>
 5    1  0.7732857E-009  0.3855607E+03  0.7957747E-01  0.3427298E+00
         13   -1    0    0    0    0  0.00000000000E+00  0.00000000000E+00  0.14999999963E+04  0.15000000000E+04  0.10566000000E+00 0.  1.
        994   -1    0    0    0    0 -0.00000000000E+00 -0.00000000000E+00  0.11368683772E-12  0.17120000000E+03  0.17120000000E+03 0.  0.
         13    1    1    2    0    0  0.16763180741E+02 -0.85654672239E+01  0.11358597571E+03  0.11513538335E+03  0.10566000000E+00 0.  1.
        994    1    1    2    0    0 -0.22033196592E+02  0.19600155739E+02  0.42119581080E+01  0.17377228907E+03  0.17120000000E+03 0.  0.
        998    1    1    2    0    0  0.52700158511E+01 -0.11034688515E+02  0.13822020625E+04  0.13822923276E+04  0.10000000000E+02 0.  1.
</event>
<event>
 5    1  0.7732857E-009  0.3848766E+03  0.7957747E-01  0.3430196E+00
         13   -1    0    0    0    0  0.00000000000E+00  0.00000000000E+00  0.14999999963E+04  0.15000000000E+04  0.10566000000E+00 0.  1.
        994   -1    0    0    0    0 -0.00000000000E+00 -0.00000000000E+00  0.11368683772E-12  0.17120000000E+03  0.17120000000E+03 0.  0.
         13    1    1    2    0    0  0.16423989999E+02 -0.92440800478E+01  0.10057659710E+03  0.10232723739E+03  0.10566000000E+00 0.  1.
        994    1    1    2    0    0 -0.14102414502E+02  0.10764306155E+02  0.27275897829E+01  0.17213839818E+03  0.17120000000E+03 0.  0.
        998    1    1    2    0    0 -0.23215754972E+01 -0.15202261068E+01  0.13966958094E+04  0.13967343644E+04  0.10000000000E+02 0.  1.
</event>
<event>
 5    1  0.7732857E-009  0.3839896E+03  0.7957747E-01  0.3433969E+00
         13   -1    0    0    0    0  0.00000000000E+00  0.00000000000E+00  0.14999999963E+04  0.15000000000E+04  0.10566000000E+00 0.  1.
        994   -1    0    0    0    0 -0.00000000000E+00 -0.00000000000E+00  0.11368683772E-12  0.17120000000E+03  0.17120000000E+03 0.  0.
         13    1    1    2    0    0  0.11909687436E+02 -0.61097705619E+01  0.41363151131E+02  0.43475181272E+02  0.10566000000E+00 0.  1.
        994    1    1    2    0    0 -0.70653225824E+01  0.74597791003E+01  0.24810289938E+01  0.17152598227E+03  0.17120000000E+03 0.  0.
        998    1    1    2    0    0 -0.48443648534E+01 -0.13500085384E+01  0.14561558162E+04  0.14561988365E+04  0.10000000000E+02 0.  1.
</event>
<event>
 5    1  0.7732857E-009  0.3788986E+03  0.7957747E-01  0.3455968E+00
         13   -1    0    0    0    0  0.00000000000E+00  0.00000000000E+00  0.14999999963E+04  0.15000000000E+04  0.10566000000E+00 0.  1.
        994   -1    0    0    0    0 -0.00000000000E+00 -0.00000000000E+00  0.11368683772E-12  0.17120000000E+03  0.17120000000E+03 0.  0.
         13    1    1    2    0    0  0.74384385042E+01  0.46068150947E+02  0.26409352567E+03  0.26818464975E+03  0.10566000000E+00 0.  1.
        994    1    1    2    0    0  0.58745954661E+00 -0.10714768997E+02  0.50765889680E+01  0.17161108105E+03  0.17120000000E+03 0.  0.
        998    1    1    2    0    0 -0.80258980508E+01 -0.35353381951E+02  0.12308298816E+04  0.12314042692E+04  0.10000000000E+02 0.  1.
</event>
<event>
 5    1  0.7732857E-009  0.3839931E+03  0.7957747E-01  0.3433954E+00
         13   -1    0    0    0    0  0.00000000000E+00  0.00000000000E+00  0.14999999963E+04  0.15000000000E+04  0.10566000000E+00 0.  1.
        994   -1    0    0    0    0 -0.00000000000E+00 -0.00000000000E+00  0.11368683772E-12  0.17120000000E+03  0.17120000000E+03 0.  0.
         13    1    1    2    0    0 -0.77571876561E+01  0.64081911236E+01  0.22820422149E+02  0.24940362967E+02  0.10566000000E+00 0.  1.
        994    1    1    2    0    0  0.66497633216E+01 -0.82114672366E+01  0.24993323341E+01  0.17154397165E+03  0.17120000000E+03 0.  0.
        998    1    1    2    0    0  0.11074243344E+01  0.18032761130E+01  0.14746802418E+04  0.14747156654E+04  0.10000000000E+02 0.  1.
</event>
<event>
 5    1  0.7732857E-009  0.3833757E+03  0.7957747E-01  0.3436590E+00
         13   -1    0    0    0    0  0.00000000000E+00  0.00000000000E+00  0.14999999963E+04  0.15000000000E+04  0.10566000000E+00 0. -1.
        994   -1    0    0    0    0 -0.00000000000E+00 -0.00000000000E+00  0.11368683772E-12  0.17120000000E+03  0.17120000000E+03 0.  0.
         13    1    1    2    0    0  0.31449173833E+01  0.30330200590E+02  0.17183083287E+03  0.17451549462E+03  0.10566000000E+00 0. -1.
        994    1    1    2    0    0 -0.11122606835E+02 -0.28925860960E+02  0.56203754489E+01  0.17407310658E+03  0.17120000000E+03 0.  0.
        998    1    1    2    0    0  0.79776894521E+01 -0.14043396305E+01  0.13225487880E+04  0.13226113988E+04  0.10000000000E+02 0. -1.
</event>
<event>
 5    1  0.7732857E-009  0.3843756E+03  0.7957747E-01  0.3432325E+00
         13   -1    0    0    0    0  0.00000000000E+00  0.00000000000E+00  0.14999999963E+04  0.15000000000E+04  0.10566000000E+00 0.  1.
        994   -1    0    0    0    0 -0.00000000000E+00 -0.00000000000E+00  0.11368683772E-12  0.17120000000E+03  0.17120000000E+03 0.  0.
         13    1    1    2    0    0  0.12771713366E+02  0.57820759415E+00  0.40377506861E+02  0.42353337657E+02  0.10566000000E+00 0.  1.
        994    1    1    2    0    0 -0.15793410400E+02  0.82960554827E+00  0.27651342916E+01  0.17195117338E+03  0.17120000000E+03 0.  0.
        998    1    1    2    0    0  0.30216970335E+01 -0.14078131424E+01  0.14568573551E+04  0.14568954890E+04  0.10000000000E+02 0.  1.
</event>
<event>
 5    1  0.7732857E-009  0.3835973E+03  0.7957747E-01  0.3435643E+00
         13   -1    0    0    0    0  0.00000000000E+00  0.00000000000E+00  0.14999999963E+04  0.15000000000E+04  0.10566000000E+00 0. -1.
        994   -1    0    0    0    0 -0.00000000000E+00 -0.00000000000E+00  0.11368683772E-12  0.17120000000E+03  0.17120000000E+03 0.  0.
         13    1    1    2    0    0  0.10921207025E+02 -0.59156671759E+01  0.31779127223E+02  0.34120257503E+02  0.10566000000E+00 0. -1.
        994    1    1    2    0    0 -0.14992291608E+02  0.10893426093E+01  0.30750149042E+01  0.17188615765E+03  0.17120000000E+03 0.  0.
        998    1    1    2    0    0  0.40710845828E+01  0.48263245665E+01  0.14651458542E+04  0.14651935848E+04  0.10000000000E+02 0. -1.
</event>
<event>
 5    1  0.7732857E-009  0.3775975E+03  0.7957747E-01  0.3461687E+00
         13   -1    0    0    0    0  0.00000000000E+00  0.00000000000E+00  0.14999999963E+04  0.15000000000E+04  0.10566000000E+00 0.  1.
        994   -1    0    0    0    0 -0.00000000000E+00 -0.00000000000E+00  0.11368683772E-12  0.17120000000E+03  0.17120000000E+03 0.  0.
         13    1    1    2    0    0  0.15459512323E+02 -0.81724456044E+01  0.26791478028E+02  0.31993434442E+02  0.10566000000E+00 0.  1.
        994    1    1    2    0    0 -0.35365802204E+01  0.63620096185E+01  0.55294231390E+01  0.17144385987E+03  0.17120000000E+03 0.  0.
        998    1    1    2    0    0 -0.11922932103E+02  0.18104359859E+01  0.14676790951E+04  0.14677627057E+04  0.10000000000E+02 0.  1.
</event>
<event>
 5    1  0.7732857E-009  0.3829271E+03  0.7957747E-01  0.3438512E+00
         13   -1    0    0    0    0  0.00000000000E+00  0.00000000000E+00  0.14999999963E+04  0.15000000000E+04  0.10566000000E+00 0. -1.
        994   -1    0    0    0    0 -0.00000000000E+00 -0.00000000000E+00  0.11368683772E-12  0.17120000000E+03  0.17120000000E+03 0.  0.
         13    1    1    2    0    0  0.20907648819E+01 -0.19628189607E+02  0.69294542768E+02  0.72051245281E+02  0.10566000000E+00 0. -1.
        994    1    1    2    0    0 -0.33296523156E+01  0.20800502424E+02  0.41334072819E+01  0.17254064026E+03  0.17120000000E+03 0.  0.
        998    1    1    2    0    0  0.12388874336E+01 -0.11723128171E+01  0.14265720462E+04  0.14266081145E+04  0.10000000000E+02 0. -1.
</event>
<event>
 5    1  0.7732857E-009  0.3791590E+03  0.7957747E-01  0.3454828E+00
         13   -1    0    0    0    0  0.00000000000E+00  0.00000000000E+00  0.14999999963E+04  0.15000000000E+04  0.10566000000E+00 0.  1.
        994   -1    0    0    0    0 -0.00000000000E+00 -0.00000000000E+00  0.11368683772E-12  0.17120000000E+03  0.17120000000E+03 0.  0.
         13    1    1    2    0    0  0.29071989359E+02  0.16575550711E+02  0.11706586028E+03  0.12175531304E+03  0.10566000000E+00 0.  1.
        994    1    1    2    0    0 -0.28492859133E+02 -0.40846100144E+01  0.73406550674E+01  0.17375802795E+03  0.17120000000E+03 0.  0.
        998    1    1    2    0    0 -0.57913022671E+00 -0.12490940697E+02  0.13755934809E+04  0.13756866590E+04  0.10000000000E+02 0.  1.
</event>
<event>
 5    1  0.7732857E-009  0.3761556E+03  0.7957747E-01  0.3468071E+00
         13   -1    0    0    0    0  0.00000000000E+00  0.00000000000E+00  0.14999999963E+04  0.15000000000E+04  0.10566000000E+00 0. -1.
        994   -1    0    0    0    0 -0.00000000000E+00 -0.00000000000E+00  0.11368683772E-12  0.17120000000E+03  0.17120000000E+03 0.  0.
         13    1    1    2    0    0  0.92998377629E+02 -0.54451061047E+02  0.62833170182E+03  0.63750635681E+03  0.10566000000E+00 0. -1.
        994    1    1    2    0    0 -0.91392980188E+02  0.36844133929E+02  0.39707859109E+02  0.20148528757E+03  0.17120000000E+03 0.  0.
        998    1    1    2    0    0 -0.16053974418E+01  0.17606927119E+02  0.83196043535E+03  0.83220835562E+03  0.10000000000E+02 0. -1.
</event>
<event>
 5    1  0.7732857E-009  0.3729536E+03  0.7957747E-01  0.3482426E+00
         13   -1    0    0    0    0  0.00000000000E+00  0.00000000000E+00  0.14999999963E+04  0.15000000000E+04  0.10566000000E+00 0.  1.
        994   -1    0    0    0    0 -0.00000000000E+00 -0.00000000000E+00  0.11368683772E-12  0.17120000000E+03  0.17120000000E+03 0.  0.
         13    1    1    2    0    0 -0.42720333405E+02 -0.10448593510E+02  0.10354788231E+03  0.11250055595E+03  0.10566000000E+00 0.  1.
        994    1    1    2    0    0  0.58166864426E+02  0.49687130926E+02  0.28037700723E+02  0.18959891286E+03  0.17120000000E+03 0.  0.
        998    1    1    2    0    0 -0.15446531021E+02 -0.39238537416E+02  0.13684144132E+04  0.13691005312E+04  0.10000000000E+02 0.  1.
</event>
<event>
 5    1  0.7732857E-009  0.3842998E+03  0.7957747E-01  0.3432647E+00
         13   -1    0    0    0    0  0.00000000000E+00  0.00000000000E+00  0.14999999963E+04  0.15000000000E+04  0.10566000000E+00 0. -1.
        994   -1    0    0    0    0 -0.00000000000E+00 -0.00000000000E+00  0.11368683772E-12  0.17120000000E+03  0.17120000000E+03 0.  0.
         13    1    1    2    0    0  0.15249130274E+00 -0.21992049180E+02  0.11306103396E+03  0.11518021551E+03  0.10566000000E+00 0. -1.
        994    1    1    2    0    0 -0.33468047368E+00  0.23680910040E+02  0.38291562983E+01  0.17287278545E+03  0.17120000000E+03 0.  0.
        998    1    1    2    0    0  0.18218917094E+00 -0.16888608603E+01  0.13831098060E+04  0.13831469990E+04  0.10000000000E+02 0. -1.
</event>
<event>
 5    1  0.7732857E-009  0.3697017E+03  0.7957747E-01  0.3497263E+00
         13   -1    0    0    0    0  0.00000000000E+00  0.00000000000E+00  0.14999999963E+04  0.15000000000E+04  0.10566000000E+00 0. -1.
        994   -1    0    0    0    0 -0.00000000000E+00 -0.00000000000E+00  0.11368683772E-12  0.17120000000E+03  0.17120000000E+03 0.  0.
         13    1    1    2    0    0 -0.16906615947E+02  0.13270214231E+02  0.20215532101E+02  0.29506120562E+02  0.10566000000E+00 0. -1.
        994    1    1    2    0    0  0.17124914687E+02 -0.12442215002E+02  0.10977459891E+02  0.17285258472E+03  0.17120000000E+03 0.  0.
        998    1    1    2    0    0 -0.21829874078E+00 -0.82799922863E+00  0.14688070043E+04  0.14688412947E+04  0.10000000000E+02 0. -1.
</event>
<event>
 5    1  0.7732857E-009  0.3796451E+03  0.7957747E-01  0.3452705E+00
         13   -1    0    0    0    0  0.00000000000E+00  0.00000000000E+00  0.14999999963E+04  0.15000000000E+04  0.10566000000E+00 0. -1.
        994   -1    0    0    0    0 -0.00000000000E+00 -0.00000000000E+00  0.11368683772E-12  0.17120000000E+03  0.17120000000E+03 0.  0.
         13    1    1    2    0    0 -0.27468716790E+02 -0.11691485020E+01  0.85145245494E+02  0.89474137629E+02  0.10566000000E+00 0. -1.
        994    1    1    2    0    0  0.19964135282E+02 -0.10565936139E+02  0.60218610213E+01  0.17278862380E+03  0.17120000000E+03 0.  0.
        998    1    1    2    0    0  0.75045815073E+01  0.11735084641E+02  0.14088328898E+04  0.14089372386E+04  0.10000000000E+02 0. -1.
</event>
<event>
 5    1  0.7732857E-009  0.3831352E+03  0.7957747E-01  0.3437620E+00
         13   -1    0    0    0    0  0.00000000000E+00  0.00000000000E+00  0.14999999963E+04  0.15000000000E+04  0.10566000000E+00 0.  1.
        994   -1    0    0    0    0 -0.00000000000E+00 -0.00000000000E+00  0.11368683772E-12  0.17120000000E+03  0.17120000000E+03 0.  0.
         13    1    1    2    0    0 -0.19323856376E+02  0.36003855564E+02  0.20471172484E+03  0.20875006705E+03  0.10566000000E+00 0.  1.
        994    1    1    2    0    0  0.42648486899E+02 -0.65286102190E+02  0.22946451005E+02  0.18951820015E+03  0.17120000000E+03 0.  0.
        998    1    1    2    0    0 -0.23324630523E+02  0.29282246626E+02  0.12723418204E+04  0.12729317328E+04  0.10000000000E+02 0.  1.
</event>
<event>
 5    1  0.7732857E-009  0.3795120E+03  0.7957747E-01  0.3453286E+00
         13   -1    0    0    0    0  0.00000000000E+00  0.00000000000E+00  0.14999999963E+04  0.15000000000E+04  0.10566000000E+00 0.  1.
        994   -1    0    0    0    0 -0.00000000000E+00 -0.00000000000E+00  0.11368683772E-12  0.17120000000E+03  0.17120000000E+03 0.  0.
         13    1    1    2    0    0 -0.22844674943E+02 -0.27658936827E+02  0.18030478563E+03  0.18383885020E+03  0.10566000000E+00 0.  1.
        994    1    1    2    0    0 -0.17788699493E+02  0.28036434522E+01  0.54662799932E+01  0.17223129351E+03  0.17120000000E+03 0.  0.
        998    1    1    2    0    0  0.40633374436E+02  0.24855293375E+02  0.13142289307E+04  0.13151298563E+04  0.10000000000E+02 0.  1.
</event>
<event>
 5    1  0.7732857E-009  0.3714027E+03  0.7957747E-01  0.3489469E+00
         13   -1    0    0    0    0  0.00000000000E+00  0.00000000000E+00  0.14999999963E+04  0.15000000000E+04  0.10566000000E+00 0.  1.
        994   -1    0    0    0    0 -0.00000000000E+00 -0.00000000000E+00  0.11368683772E-12  0.17120000000E+03  0.17120000000E+03 0.  0.
         13    1    1    2    0    0  0.10970383776E+02  0.18903446218E+02  0.15306231032E+02  0.26682980934E+02  0.10566000000E+00 0.  1.
        994    1    1    2    0    0 -0.32743725278E+02 -0.17444584646E+01  0.15469231691E+02  0.17499694800E+03  0.17120000000E+03 0.  0.
        998    1    1    2    0    0  0.21773341502E+02 -0.17158987753E+02  0.14692245336E+04  0.14695200711E+04  0.10000000000E+02 0.  1.
</event>
<event>
 5    1  0.7732857E-009  0.3838079E+03  0.7957747E-01  0.3434744E+00
         13   -1    0    0    0    0  0.00000000000E+00  0.00000000000E+00  0.14999999963E+04  0.15000000000E+04  0.10566000000E+00 0. -1.
        994   -1    0    0    0    0 -0.00000000000E+00 -0.00000000000E+00  0.11368683772E-12  0.17120000000E+03  0.17120000000E+03 0.  0.
         13    1    1    2    0    0  0.10587622734E+02  0.84125716325E+01  0.45446085298E+02  0.47415471626E+02  0.10566000000E+00 0. -1.
        994    1    1    2    0    0  0.11222009814E+02  0.10126084496E+02  0.29777815392E+01  0.17189176325E+03  0.17120000000E+03 0.  0.
        998    1    1    2    0    0 -0.21809632549E+02 -0.18538656128E+02  0.14515761294E+04  0.14518927651E+04  0.10000000000E+02 0. -1.
</event>
<event>
 5    1  0.7732857E-009  0.3784580E+03  0.7957747E-01  0.3457900E+00
         13   -1    0    0    0    0  0.00000000000E+00  0.00000000000E+00  0.14999999963E+04  0.15000000000E+04  0.10566000000E+00 0.  1.
        994   -1    0    0    0    0 -0.00000000000E+00 -0.00000000000E+00  0.11368683772E-12  0.17120000000E+03  0.17120000000E+03 0.  0.
         13    1    1    2    0    0 -0.29583560239E+02 -0.26533711492E+02  0.17913230933E+03  0.18348738456E+03  0.10566000000E+00 0.  1.
        994    1    1    2    0    0  0.38432477952E+01  0.31967574154E+01  0.49975389301E+01  0.17134586428E+03  0.17120000000E+03 0.  0.
        998    1    1    2    0    0  0.25740312444E+02  0.23336954076E+02  0.13158701480E+04  0.13163667512E+04  0.10000000000E+02 0.  1.
</event>
<event>
 5    1  0.7732857E-009  0.3878448E+03  0.7957747E-01  0.3417696E+00
         13   -1    0    0    0    0  0.00000000000E+00  0.00000000000E+00  0.14999999963E+04  0.15000000000E+04  0.10566000000E+00 0.  1.
        994   -1    0    0    0    0 -0.00000000000E+00 -0.00000000000E+00  0.11368683772E-12  0.17120000000E+03  0.17120000000E+03 0.  0.
         13    1    1    2    0    0  0.25077016677E+02 -0.50138047505E+01  0.69647981935E+01  0.26504991632E+02  0.10566000000E+00 0.  1.
        994    1    1    2    0    0 -0.18305821552E+02  0.34458342862E+01  0.22000634735E+02  0.17361003659E+03  0.17120000000E+03 0.  0.
        998    1    1    2    0    0 -0.67711951256E+01  0.15679704643E+01  0.14710345634E+04  0.14710849718E+04  0.10000000000E+02 0.  1.
</event>
<event>
 5    1  0.7732857E-009  0.3837862E+03  0.7957747E-01  0.3434836E+00
         13   -1    0    0    0    0  0.00000000000E+00  0.00000000000E+00  0.14999999963E+04  0.15000000000E+04  0.10566000000E+00 0.  1.
        994   -1    0    0    0    0 -0.00000000000E+00 -0.00000000000E+00  0.11368683772E-12  0.17120000000E+03  0.17120000000E+03 0.  0.
         13    1    1    2    0    0 -0.92197380177E+01 -0.44220337634E+02  0.48496823788E+02  0.66275145501E+02  0.10566000000E+00 0.  1.
        994    1    1    2    0    0  0.15696649366E+02  0.30959832287E+02  0.22862879708E+02  0.17617334442E+03  0.17120000000E+03 0.  0.
        998    1    1    2    0    0 -0.64769113481E+01  0.13260505347E+02  0.14286402928E+04  0.14287515101E+04  0.10000000000E+02 0.  1.
</event>
<event>
 5    1  0.7732857E-009  0.3809721E+03  0.7957747E-01  0.3446936E+00
         13   -1    0    0    0    0  0.00000000000E+00  0.00000000000E+00  0.14999999963E+04  0.15000000000E+04  0.10566000000E+00 0. -1.
        994   -1    0    0    0    0 -0.00000000000E+00 -0.00000000000E+00  0.11368683772E-12  0.17120000000E+03  0.17120000000E+03 0.  0.
         13    1    1    2    0    0 -0.89066964580E+01 -0.15874829445E+02  0.43629091286E+02  0.47274181349E+02  0.10566000000E+00 0. -1.
        994    1    1    2    0    0  0.59734038499E+01  0.14009508157E+02  0.44164996924E+01  0.17193281636E+03  0.17120000000E+03 0.  0.
        998    1    1    2    0    0  0.29332926081E+01  0.18653212883E+01  0.14519544053E+04  0.14519930023E+04  0.10000000000E+02 0. -1.
</event>
<event>
 5    1  0.7732857E-009  0.3685194E+03  0.7957747E-01  0.3502723E+00
         13   -1    0    0    0    0  0.00000000000E+00  0.00000000000E+00  0.14999999963E+04  0.15000000000E+04  0.10566000000E+00 0.  1.
        994   -1    0    0    0    0 -0.00000000000E+00 -0.00000000000E+00  0.11368683772E-12  0.17120000000E+03  0.17120000000E+03 0.  0.
         13    1    1    2    0    0 -0.40289226476E+02  0.31410605527E+02  0.12046759594E+03  0.13085220955E+03  0.10566000000E+00 0.  1.
        994    1    1    2    0    0  0.39168743445E+02 -0.16501611880E+02  0.16467352454E+02  0.17716406903E+03  0.17120000000E+03 0.  0.
        998    1    1    2    0    0  0.11204830310E+01 -0.14908993647E+02  0.13630650479E+04  0.13631837214E+04  0.10000000000E+02 0.  1.
</event>
<event>
 5    1  0.7732857E-009  0.3844110E+03  0.7957747E-01  0.3432174E+00
         13   -1    0    0    0    0  0.00000000000E+00  0.00000000000E+00  0.14999999963E+04  0.15000000000E+04  0.10566000000E+00 0. -1.
        994   -1    0    0    0    0 -0.00000000000E+00 -0.00000000000E+00  0.11368683772E-12  0.17120000000E+03  0.17120000000E+03 0.  0.
         13    1    1    2    0    0 -0.16138977487E+02  0.45406795698E+01  0.74621865459E+02  0.76482143889E+02  0.10566000000E+00 0. -1.
        994    1    1    2    0    0  0.67540720108E+01 -0.19335233123E+01  0.20855097873E+01  0.17135677796E+03  0.17120000000E+03 0.  0.
        998    1    1    2    0    0  0.93849054759E+01 -0.26071562575E+01  0.14232926210E+04  0.14233610782E+04  0.10000000000E+02 0. -1.
</event>
<event>
 5    1  0.7732857E-009  0.3817612E+03  0.7957747E-01  0.3443525E+00
         13   -1    0    0    0    0  0.00000000000E+00  0.00000000000E+00  0.14999999963E+04  0.15000000000E+04  0.10566000000E+00 0. -1.
        994   -1    0    0    0    0 -0.00000000000E+00 -0.00000000000E+00  0.11368683772E-12  0.17120000000E+03  0.17120000000E+03 0.  0.
         13    1    1    2    0    0 -0.15241895118E+02 -0.28489987801E+01  0.35998674535E+02  0.39196273971E+02  0.10566000000E+00 0. -1.
        994    1    1    2    0    0  0.93806438067E+01  0.23265735125E+00  0.35394286803E+01  0.17149349306E+03  0.17120000000E+03 0.  0.
        998    1    1    2    0    0  0.58612513115E+01  0.26163414289E+01  0.14604618931E+04  0.14605102330E+04  0.10000000000E+02 0. -1.
</event>
<event>
 5    1  0.7732857E-009  0.3779345E+03  0.7957747E-01  0.3460202E+00
         13   -1    0    0    0    0  0.00000000000E+00  0.00000000000E+00  0.14999999963E+04  0.15000000000E+04  0.10566000000E+00 0. -1.
        994   -1    0    0    0    0 -0.00000000000E+00 -0.00000000000E+00  0.11368683772E-12  0.17120000000E+03  0.17120000000E+03 0.  0.
         13    1    1    2    0    0  0.89383595782E+01 -0.15604817120E+02  0.30276867471E+02  0.35215116885E+02  0.10566000000E+00 0. -1.
        994    1    1    2    0    0  0.59983705220E+01  0.17047254088E+01  0.53103411596E+01  0.17139581751E+03  0.17120000000E+03 0.  0.
        998    1    1    2    0    0 -0.14936730100E+02  0.13900091711E+02  0.14644127876E+04  0.14645890656E+04  0.10000000000E+02 0. -1.
</event>
<event>
 5    1  0.7732857E-009  0.3775189E+03  0.7957747E-01  0.3462033E+00
         13   -1    0    0    0    0  0.00000000000E+00  0.00000000000E+00  0.14999999963E+04  0.15000000000E+04  0.10566000000E+00 0.  1.
        994   -1    0    0    0    0 -0.00000000000E+00 -0.00000000000E+00  0.11368683772E-12  0.17120000000E+03  0.17120000000E+03 0.  0.
         13    1    1    2    0    0 -0.10592155515E+03 -0.10496011477E+03  0.72348092266E+03  0.73868847166E+03  0.10566000000E+00 0.  1.
        994    1    1    2    0    0  0.94443150721E+02  0.14789503621E+03  0.11739500407E+03  0.27181515306E+03  0.17120000000E+03 0.  0.
        998    1    1    2    0    0  0.11478404432E+02 -0.42934921442E+02  0.65912406955E+03  0.66069637528E+03  0.10000000000E+02 0. -1.
</event>
<event>
 5    1  0.7732857E-009  0.3805971E+03  0.7957747E-01  0.3448563E+00
         13   -1    0    0    0    0  0.00000000000E+00  0.00000000000E+00  0.14999999963E+04  0.15000000000E+04  0.10566000000E+00 0. -1.
        994   -1    0    0    0    0 -0.00000000000E+00 -0.00000000000E+00  0.11368683772E-12  0.17120000000E+03  0.17120000000E+03 0.  0.
         13    1    1    2    0    0 -0.19412092247E+02 -0.29192080231E+01  0.51453359008E+02  0.55070958028E+02  0.10566000000E+00 0. -1.
        994    1    1    2    0    0 -0.16514812069E+01  0.94217330913E+01  0.41373377205E+01  0.17151692047E+03  0.17120000000E+03 0.  0.
        998    1    1    2    0    0  0.21063573454E+02 -0.65025250682E+01  0.14444092995E+04  0.14446121215E+04  0.10000000000E+02 0. -1.
</event>
<event>
 5    1  0.7732857E-009  0.2094941E+03  0.7957747E-01  0.4872929E+00
         13   -1    0    0    0    0  0.00000000000E+00  0.00000000000E+00  0.14999999963E+04  0.15000000000E+04  0.10566000000E+00 0.  1.
        994   -1    0    0    0    0 -0.00000000000E+00 -0.00000000000E+00  0.11368683772E-12  0.17120000000E+03  0.17120000000E+03 0.  0.
         13    1    1    2    0    0 -0.55647316479E+02 -0.39955029490E+02  0.52362192712E+01  0.68705584702E+02  0.10566000000E+00 0.  1.
        994    1    1    2    0    0  0.59697319528E+02  0.44322450964E+02  0.10792130846E+03  0.21560310396E+03  0.17120000000E+03 0.  0.
        998    1    1    2    0    0 -0.40500030493E+01 -0.43674214731E+01  0.13868424685E+04  0.13868913113E+04  0.10000000000E+02 0.  1.
</event>
<event>
 5    1  0.7732857E-009  0.3840020E+03  0.7957747E-01  0.3433916E+00
         13   -1    0    0    0    0  0.00000000000E+00  0.00000000000E+00  0.14999999963E+04  0.15000000000E+04  0.10566000000E+00 0.  1.
        994   -1    0    0    0    0 -0.00000000000E+00 -0.00000000000E+00  0.11368683772E-12  0.17120000000E+03  0.17120000000E+03 0.  0.
         13    1    1    2    0    0 -0.10778580337E+02 -0.56193284436E+01  0.34986226301E+02  0.37037843364E+02  0.10566000000E+00 0.  1.
        994    1    1    2    0    0 -0.17115099940E+01  0.93813913345E+01  0.24265240260E+01  0.17148255826E+03  0.17120000000E+03 0.  0.
        998    1    1    2    0    0  0.12490090331E+02 -0.37620628909E+01  0.14625872460E+04  0.14626795984E+04  0.10000000000E+02 0.  1.
</event>
<event>
 5    1  0.7732857E-009  0.3834619E+03  0.7957747E-01  0.3436222E+00
         13   -1    0    0    0    0  0.00000000000E+00  0.00000000000E+00  0.14999999963E+04  0.15000000000E+04  0.10566000000E+00 0. -1.
        994   -1    0    0    0    0 -0.00000000000E+00 -0.00000000000E+00  0.11368683772E-12  0.17120000000E+03  0.17120000000E+03 0.  0.
         13    1    1    2    0    0 -0.12946333018E+02  0.39399638529E+01  0.36227569814E+02  0.38672714314E+02  0.10566000000E+00 0. -1.
        994    1    1    2    0    0  0.16838891582E+02 -0.55434434908E+01  0.34351442778E+01  0.17214969722E+03  0.17120000000E+03 0.  0.
        998    1    1    2    0    0 -0.38925585642E+01  0.16034796379E+01  0.14603372822E+04  0.14603775885E+04  0.10000000000E+02 0. -1.
</event>
<event>
 5    1  0.7732857E-009  0.3848016E+03  0.7957747E-01  0.3430514E+00
         13   -1    0    0    0    0  0.00000000000E+00  0.00000000000E+00  0.14999999963E+04  0.15000000000E+04  0.10566000000E+00 0. -1.
        994   -1    0    0    0    0 -0.00000000000E+00 -0.00000000000E+00  0.11368683772E-12  0.17120000000E+03  0.17120000000E+03 0.  0.
         13    1    1    2    0    0 -0.20360034007E+01 -0.12797055080E+02  0.47729930381E+02  0.49457732932E+02  0.10566000000E+00 0. -1.
        994    1    1    2    0    0 -0.97434081561E+01  0.13137053599E+02  0.26095036497E+01  0.17199931886E+03  0.17120000000E+03 0.  0.
        998    1    1    2    0    0  0.11779411557E+02 -0.33999851906E+00  0.14496605622E+04  0.14497429482E+04  0.10000000000E+02 0. -1.
</event>
<event>
 5    1  0.7732857E-009  0.3841911E+03  0.7957747E-01  0.3433110E+00
         13   -1    0    0    0    0  0.00000000000E+00  0.00000000000E+00  0.14999999963E+04  0.15000000000E+04  0.10566000000E+00 0. -1.
        994   -1    0    0    0    0 -0.00000000000E+00 -0.00000000000E+00  0.11368683772E-12  0.17120000000E+03  0.17120000000E+03 0.  0.
         13    1    1    2    0    0  0.19688007476E+01 -0.15638993991E+02  0.63318159285E+02  0.65250707037E+02  0.10566000000E+00 0. -1.
        994    1    1    2    0    0 -0.28604460037E+02  0.31645023153E+00  0.47351835946E+01  0.17363806391E+03  0.17120000000E+03 0.  0.
        998    1    1    2    0    0  0.26635659289E+02  0.15322543760E+02  0.14319466534E+04  0.14323112291E+04  0.10000000000E+02 0. -1.
</event>
<event>
 5    1  0.7732857E-009  0.3843488E+03  0.7957747E-01  0.3432439E+00
         13   -1    0    0    0    0  0.00000000000E+00  0.00000000000E+00  0.14999999963E+04  0.15000000000E+04  0.10566000000E+00 0. -1.
        994   -1    0    0    0    0 -0.00000000000E+00 -0.00000000000E+00  0.11368683772E-12  0.17120000000E+03  0.17120000000E+03 0.  0.
         13    1    1    2    0    0  0.53455981918E+01  0.10927255108E+02  0.37524765573E+02  0.39447427287E+02  0.10566000000E+00 0. -1.
        994    1    1    2    0    0 -0.57693536429E+01 -0.58947085602E+01  0.21780477964E+01  0.17141241764E+03  0.17120000000E+03 0.  0.
        998    1    1    2    0    0  0.42375545108E+00 -0.50325465474E+01  0.14602971829E+04  0.14603401551E+04  0.10000000000E+02 0. -1.
</event>
<event>
 5    1  0.1103276E-008  0.3861553E+03  0.7957747E-01  0.3424787E+00
         13   -1    0    0    0    0  0.00000000000E+00  0.00000000000E+00  0.14999999963E+04  0.15000000000E+04  0.10566000000E+00 0.  1.
        994   -1    0    0    0    0 -0.00000000000E+00 -0.00000000000E+00  0.11368683772E-12  0.17120000000E+03  0.17120000000E+03 0.  0.
         13    1    1    2    0    0 -0.49025301129E+01 -0.10932451682E+02  0.66552346756E+02  0.67622328591E+02  0.10566000000E+00 0.  1.
        994    1    1    2    0    0  0.23576251526E+01  0.12410051249E+02  0.15805922316E+01  0.17167267121E+03  0.17120000000E+03 0.  0.
        998    1    1    2    0    0  0.25449049603E+01 -0.14775995668E+01  0.14318670573E+04  0.14319050002E+04  0.10000000000E+02 0.  1.
</event>
<event>
 5    1  0.1159665E-008  0.3857022E+03  0.7957747E-01  0.3426700E+00
         13   -1    0    0    0    0  0.00000000000E+00  0.00000000000E+00  0.14999999963E+04  0.15000000000E+04  0.10566000000E+00 0. -1.
        994   -1    0    0    0    0 -0.00000000000E+00 -0.00000000000E+00  0.11368683772E-12  0.17120000000E+03  0.17120000000E+03 0.  0.
         13    1    1    2    0    0  0.11199353424E+01  0.13158416383E+02  0.67824671329E+02  0.69098447029E+02  0.10566000000E+00 0. -1.
        994    1    1    2    0    0  0.43008827106E+01 -0.10618777080E+02  0.17127113386E+01  0.17159146074E+03  0.17120000000E+03 0.  0.
        998    1    1    2    0    0 -0.54208180531E+01 -0.25396393028E+01  0.14304626136E+04  0.14305100922E+04  0.10000000000E+02 0. -1.
</event>
<event>
 5    1  0.7732857E-009  0.3763844E+03  0.7957747E-01  0.3467054E+00
         13   -1    0    0    0    0  0.00000000000E+00  0.00000000000E+00  0.14999999963E+04  0.15000000000E+04  0.10566000000E+00 0. -1.
        994   -1    0    0    0    0 -0.00000000000E+00 -0.00000000000E+00  0.11368683772E-12  0.17120000000E+03  0.17120000000E+03 0.  0.
         13    1    1    2    0    0 -0.18377623751E+03 -0.17283963233E+03  0.96045319875E+03  0.99303454227E+03  0.10566000000E+00 0. -1.
        994    1    1    2    0    0  0.18225966319E+03  0.17618017987E+03  0.26880571731E+03  0.40721492392E+03  0.17120000000E+03 0.  0.
        998    1    1    2    0    0  0.15165743228E+01 -0.33405475475E+01  0.27074108022E+03  0.27095053382E+03  0.10000000000E+02 0.  0.
</event>
<event>
 5    1  0.7732857E-009  0.3853108E+03  0.7957747E-01  0.3428355E+00
         13   -1    0    0    0    0  0.00000000000E+00  0.00000000000E+00  0.14999999963E+04  0.15000000000E+04  0.10566000000E+00 0.  1.
        994   -1    0    0    0    0 -0.00000000000E+00 -0.00000000000E+00  0.11368683772E-12  0.17120000000E+03  0.17120000000E+03 0.  0.
         13    1    1    2    0    0 -0.53597925768E+01 -0.90163510344E+01  0.37465031277E+02  0.38905805416E+02  0.10566000000E+00 0.  1.
        994    1    1    2    0    0  0.87469684200E+01  0.18561903453E+01  0.17386425030E+01  0.17144217036E+03  0.17120000000E+03 0.  0.
        998    1    1    2    0    0 -0.33871758432E+01  0.71601606891E+01  0.14607963225E+04  0.14608520242E+04  0.10000000000E+02 0.  1.
</event>
<event>
 5    1  0.7732857E-009  0.3742073E+03  0.7957747E-01  0.3476775E+00
         13   -1    0    0    0    0  0.00000000000E+00  0.00000000000E+00  0.14999999963E+04  0.15000000000E+04  0.10566000000E+00 0.  1.
        994   -1    0    0    0    0 -0.00000000000E+00 -0.00000000000E+00  0.11368683772E-12  0.17120000000E+03  0.17120000000E+03 0.  0.
         13    1    1    2    0    0 -0.38921162575E+01 -0.34833649685E+02  0.81208050419E+02  0.88449365946E+02  0.10566000000E+00 0.  1.
        994    1    1    2    0    0  0.95761483733E+01  0.30400948167E+02  0.10556734946E+02  0.17446147116E+03  0.17120000000E+03 0.  0.
        998    1    1    2    0    0 -0.56840321157E+01  0.44327015178E+01  0.14082352109E+04  0.14082891629E+04  0.10000000000E+02 0.  1.
</event>
<event>
 5    1  0.7732857E-009  0.3815396E+03  0.7957747E-01  0.3444482E+00
         13   -1    0    0    0    0  0.00000000000E+00  0.00000000000E+00  0.14999999963E+04  0.15000000000E+04  0.10566000000E+00 0.  1.
        994   -1    0    0    0    0 -0.00000000000E+00 -0.00000000000E+00  0.11368683772E-12  0.17120000000E+03  0.17120000000E+03 0.  0.
         13    1    1    2    0    0 -0.32522088432E+01 -0.23821686573E+02  0.88926130944E+02  0.92119040064E+02  0.10566000000E+00 0.  1.
        994    1    1    2    0    0  0.12785554032E+02  0.48402903010E+01  0.39798366001E+01  0.17179108796E+03  0.17120000000E+03 0.  0.
        998    1    1    2    0    0 -0.95333451886E+01  0.18981396272E+02  0.14070940287E+04  0.14072898720E+04  0.10000000000E+02 0.  1.
</event>
<event>
 5    1  0.7732857E-009  0.3904431E+03  0.7957747E-01  0.3406910E+00
         13   -1    0    0    0    0  0.00000000000E+00  0.00000000000E+00  0.14999999963E+04  0.15000000000E+04  0.10566000000E+00 0.  1.
        994   -1    0    0    0    0 -0.00000000000E+00 -0.00000000000E+00  0.11368683772E-12  0.17120000000E+03  0.17120000000E+03 0.  0.
         13    1    1    2    0    0  0.45617029375E+02 -0.35583880884E+02  0.62852836381E+02  0.85426085904E+02  0.10566000000E+00 0.  1.
        994    1    1    2    0    0 -0.64046721744E+02  0.31056222390E+02  0.41542555768E+02  0.19000446167E+03  0.17120000000E+03 0.  0.
        998    1    1    2    0    0  0.18429692369E+02  0.45276584947E+01  0.13956046041E+04  0.13957694524E+04  0.10000000000E+02 0.  1.
</event>
<event>
 5    1  0.7732857E-009  0.3795677E+03  0.7957747E-01  0.3453043E+00
         13   -1    0    0    0    0  0.00000000000E+00  0.00000000000E+00  0.14999999963E+04  0.15000000000E+04  0.10566000000E+00 0. -1.
        994   -1    0    0    0    0 -0.00000000000E+00 -0.00000000000E+00  0.11368683772E-12  0.17120000000E+03  0.17120000000E+03 0.  0.
         13    1    1    2    0    0 -0.97414412740E+01 -0.16775716750E+02  0.39483656654E+02  0.43991938550E+02  0.10566000000E+00 0. -1.
        994    1    1    2    0    0  0.15407189115E+02  0.23653623448E+02  0.70238128135E+01  0.17365382036E+03  0.17120000000E+03 0.  0.
        998    1    1    2    0    0 -0.56657478409E+01 -0.68779066975E+01  0.14534925268E+04  0.14535542411E+04  0.10000000000E+02 0. -1.
</event>
<event>
 5    1  0.7732857E-009  0.3848304E+03  0.7957747E-01  0.3430392E+00
         13   -1    0    0    0    0  0.00000000000E+00  0.00000000000E+00  0.14999999963E+04  0.15000000000E+04  0.10566000000E+00 0.  1.
        994   -1    0    0    0    0 -0.00000000000E+00 -0.00000000000E+00  0.11368683772E-12  0.17120000000E+03  0.17120000000E+03 0.  0.
         13    1    1    2    0    0  0.11424408179E+02  0.16020371188E+01  0.37787187697E+02  0.39509066596E+02  0.10566000000E+00 0.  1.
        994    1    1    2    0    0 -0.12943443150E+02  0.40219845114E+01  0.23190997970E+01  0.17175135314E+03  0.17120000000E+03 0.  0.
        998    1    1    2    0    0  0.15190349703E+01 -0.56240216302E+01  0.14598937088E+04  0.14599395803E+04  0.10000000000E+02 0.  1.
</event>
<event>
 5    1  0.7732857E-009  0.3843558E+03  0.7957747E-01  0.3432409E+00
         13   -1    0    0    0    0  0.00000000000E+00  0.00000000000E+00  0.14999999963E+04  0.15000000000E+04  0.10566000000E+00 0.  1.
        994   -1    0    0    0    0 -0.00000000000E+00 -0.00000000000E+00  0.11368683772E-12  0.17120000000E+03  0.17120000000E+03 0.  0.
         13    1    1    2    0    0  0.15811376896E+02 -0.49666237037E+01  0.67389950034E+02  0.69398008040E+02  0.10566000000E+00 0.  1.
        994    1    1    2    0    0 -0.15635743072E+02  0.88722947012E+01  0.30161156086E+01  0.17216774096E+03  0.17120000000E+03 0.  0.
        998    1    1    2    0    0 -0.17563382355E+00 -0.39056709974E+01  0.14295939306E+04  0.14296342510E+04  0.10000000000E+02 0.  1.
</event>
<event>
 5    1  0.7732857E-009  0.3840126E+03  0.7957747E-01  0.3433871E+00
         13   -1    0    0    0    0  0.00000000000E+00  0.00000000000E+00  0.14999999963E+04  0.15000000000E+04  0.10566000000E+00 0.  1.
        994   -1    0    0    0    0 -0.00000000000E+00 -0.00000000000E+00  0.11368683772E-12  0.17120000000E+03  0.17120000000E+03 0.  0.
         13    1    1    2    0    0 -0.19716469010E+02  0.42791009120E+01  0.96173591359E+02  0.98267088559E+02  0.10566000000E+00 0.  1.
        994    1    1    2    0    0  0.11071219719E+02 -0.43438023835E+01  0.25879463928E+01  0.17163210070E+03  0.17120000000E+03 0.  0.
        998    1    1    2    0    0  0.86452492904E+01  0.64701471492E-01  0.14012384585E+04  0.14013008107E+04  0.10000000000E+02 0.  1.
</event>
<event>
 5    1  0.7732857E-009  0.4243711E+03  0.7957747E-01  0.3278129E+00
         13   -1    0    0    0    0  0.00000000000E+00  0.00000000000E+00  0.14999999963E+04  0.15000000000E+04  0.10566000000E+00 0. -1.
        994   -1    0    0    0    0 -0.00000000000E+00 -0.00000000000E+00  0.11368683772E-12  0.17120000000E+03  0.17120000000E+03 0.  0.
         13    1    1    2    0    0  0.57169596584E+02  0.53947562558E+02  0.53314282074E+02  0.94979608952E+02  0.10566000000E+00 0. -1.
        994    1    1    2    0    0 -0.70151256574E+02 -0.59844129520E+02  0.81366480930E+02  0.21079009193E+03  0.17120000000E+03 0.  0.
        998    1    1    2    0    0  0.12981659990E+02  0.58965669620E+01  0.13653192333E+04  0.13654302991E+04  0.10000000000E+02 0. -1.
</event>
<event>
 5    1  0.7732857E-009  0.3850072E+03  0.7957747E-01  0.3429642E+00
         13   -1    0    0    0    0  0.00000000000E+00  0.00000000000E+00  0.14999999963E+04  0.15000000000E+04  0.10566000000E+00 0. -1.
        994   -1    0    0    0    0 -0.00000000000E+00 -0.00000000000E+00  0.11368683772E-12  0.17120000000E+03  0.17120000000E+03 0.  0.
         13    1    1    2    0    0 -0.33391693626E+01  0.26586280648E+02  0.14484631490E+03  0.14730392552E+03  0.10566000000E+00 0. -1.
        994    1    1    2    0    0  0.16287178572E+01 -0.64411779403E+02  0.15400401973E+02  0.18357053802E+03  0.17120000000E+03 0.  0.
        998    1    1    2    0    0  0.17104515054E+01  0.37825498754E+02  0.13397532794E+04  0.13403255365E+04  0.10000000000E+02 0. -1.
</event>
<event>
 5    1  0.7732857E-009  0.3837344E+03  0.7957747E-01  0.3435058E+00
         13   -1    0    0    0    0  0.00000000000E+00  0.00000000000E+00  0.14999999963E+04  0.15000000000E+04  0.10566000000E+00 0.  1.
        994   -1    0    0    0    0 -0.00000000000E+00 -0.00000000000E+00  0.11368683772E-12  0.17120000000E+03  0.17120000000E+03 0.  0.
         13    1    1    2    0    0  0.16474218781E+02 -0.25262310697E+02  0.17867558437E+03  0.18120309004E+03  0.10566000000E+00 0.  1.
        994    1    1    2    0    0 -0.12113838009E+02  0.28899217650E+02  0.55090211301E+01  0.17413126993E+03  0.17120000000E+03 0.  0.
        998    1    1    2    0    0 -0.43603807716E+01 -0.36369069531E+01  0.13158153908E+04  0.13158656400E+04  0.10000000000E+02 0.  1.
</event>
<event>
 5    1  0.7732857E-009  0.3818491E+03  0.7957747E-01  0.3443146E+00
         13   -1    0    0    0    0  0.00000000000E+00  0.00000000000E+00  0.14999999963E+04  0.15000000000E+04  0.10566000000E+00 0.  1.
        994   -1    0    0    0    0 -0.00000000000E+00 -0.00000000000E+00  0.11368683772E-12  0.17120000000E+03  0.17120000000E+03 0.  0.
         13    1    1    2    0    0  0.44989982929E+01 -0.92764297989E+01  0.15234953285E+02  0.18395871849E+02  0.10566000000E+00 0.  1.
        994    1    1    2    0    0 -0.44292710251E+01  0.70596531583E+01  0.34334469517E+01  0.17143711880E+03  0.17120000000E+03 0.  0.
        998    1    1    2    0    0 -0.69727267857E-01  0.22167766406E+01  0.14813315960E+04  0.14813670094E+04  0.10000000000E+02 0.  1.
</event>
<event>
 5    1  0.7732857E-009  0.3852101E+03  0.7957747E-01  0.3428782E+00
         13   -1    0    0    0    0  0.00000000000E+00  0.00000000000E+00  0.14999999963E+04  0.15000000000E+04  0.10566000000E+00 0.  1.
        994   -1    0    0    0    0 -0.00000000000E+00 -0.00000000000E+00  0.11368683772E-12  0.17120000000E+03  0.17120000000E+03 0.  0.
         13    1    1    2    0    0  0.13318322954E+02 -0.37185458841E+01  0.59861123173E+02  0.61437533653E+02  0.10566000000E+00 0.  1.
        994    1    1    2    0    0 -0.14055524001E+02  0.12476924339E+02  0.26875727957E+01  0.17224951217E+03  0.17120000000E+03 0.  0.
        998    1    1    2    0    0  0.73720104647E+00 -0.87583784547E+01  0.14374513003E+04  0.14375129542E+04  0.10000000000E+02 0.  1.
</event>
<event>
 5    1  0.7732857E-009  0.3810779E+03  0.7957747E-01  0.3446478E+00
         13   -1    0    0    0    0  0.00000000000E+00  0.00000000000E+00  0.14999999963E+04  0.15000000000E+04  0.10566000000E+00 0. -1.
        994   -1    0    0    0    0 -0.00000000000E+00 -0.00000000000E+00  0.11368683772E-12  0.17120000000E+03  0.17120000000E+03 0.  0.
         13    1    1    2    0    0  0.13405644834E+02  0.37328181596E+00  0.23177343929E+02  0.26777809626E+02  0.10566000000E+00 0. -1.
        994    1    1    2    0    0 -0.15452363104E+02 -0.74475898127E+01  0.45707485072E+01  0.17211790686E+03  0.17120000000E+03 0.  0.
        998    1    1    2    0    0  0.20467182700E+01  0.70743079968E+01  0.14722519038E+04  0.14723042835E+04  0.10000000000E+02 0. -1.
</event>
<event>
 5    1  0.7732857E-009  0.3746212E+03  0.7957747E-01  0.3474918E+00
         13   -1    0    0    0    0  0.00000000000E+00  0.00000000000E+00  0.14999999963E+04  0.15000000000E+04  0.10566000000E+00 0. -1.
        994   -1    0    0    0    0 -0.00000000000E+00 -0.00000000000E+00  0.11368683772E-12  0.17120000000E+03  0.17120000000E+03 0.  0.
         13    1    1    2    0    0  0.50838337032E+02 -0.15963630950E+02  0.26639539112E+03  0.27167239388E+03  0.10566000000E+00 0. -1.
        994    1    1    2    0    0  0.48644984769E+01 -0.43790694045E+01  0.70191795297E+01  0.17146879738E+03  0.17120000000E+03 0.  0.
        998    1    1    2    0    0 -0.55702835509E+02  0.20342700355E+02  0.12265854256E+04  0.12280588087E+04  0.10000000000E+02 0. -1.
</event>
<event>
 5    1  0.7732857E-009  0.3853225E+03  0.7957747E-01  0.3428306E+00
         13   -1    0    0    0    0  0.00000000000E+00  0.00000000000E+00  0.14999999963E+04  0.15000000000E+04  0.10566000000E+00 0.  1.
        994   -1    0    0    0    0 -0.00000000000E+00 -0.00000000000E+00  0.11368683772E-12  0.17120000000E+03  0.17120000000E+03 0.  0.
         13    1    1    2    0    0 -0.34570556295E+01  0.15126859292E+02  0.83349587890E+02  0.84781708352E+02  0.10566000000E+00 0.  1.
        994    1    1    2    0    0 -0.16255169924E+02 -0.12685261570E+02  0.28680483542E+01  0.17246104520E+03  0.17120000000E+03 0.  0.
        998    1    1    2    0    0  0.19712225553E+02 -0.24415977217E+01  0.14137823600E+04  0.14139572464E+04  0.10000000000E+02 0.  1.
</event>
<event>
 5    1  0.9552196E-009  0.3855918E+03  0.7957747E-01  0.3427166E+00
         13   -1    0    0    0    0  0.00000000000E+00  0.00000000000E+00  0.14999999963E+04  0.15000000000E+04  0.10566000000E+00 0. -1.
        994   -1    0    0    0    0 -0.00000000000E+00 -0.00000000000E+00  0.11368683772E-12  0.17120000000E+03  0.17120000000E+03 0.  0.
         13    1    1    2    0    0  0.10845858756E+02  0.38068092651E+01  0.48169531414E+02  0.49522109906E+02  0.10566000000E+00 0. -1.
        994    1    1    2    0    0 -0.11699279738E+02 -0.57704768349E+01  0.18953778797E+01  0.17170673838E+03  0.17120000000E+03 0.  0.
        998    1    1    2    0    0  0.85342098199E+00  0.19636675698E+01  0.14499350870E+04  0.14499711517E+04  0.10000000000E+02 0. -1.
</event>
<event>
 5    1  0.7732857E-009  0.3800556E+03  0.7957747E-01  0.3450917E+00
         13   -1    0    0    0    0  0.00000000000E+00  0.00000000000E+00  0.14999999963E+04  0.15000000000E+04  0.10566000000E+00 0. -1.
        994   -1    0    0    0    0 -0.00000000000E+00 -0.00000000000E+00  0.11368683772E-12  0.17120000000E+03  0.17120000000E+03 0.  0.
         13    1    1    2    0    0  0.69373347431E+01 -0.20141930726E+02  0.53927180884E+02  0.57982549002E+02  0.10566000000E+00 0. -1.
        994    1    1    2    0    0 -0.28237943363E+01  0.12791435705E+02  0.46788218786E+01  0.17176415812E+03  0.17120000000E+03 0.  0.
        998    1    1    2    0    0 -0.41135404068E+01  0.73504950207E+01  0.14413939935E+04  0.14414532929E+04  0.10000000000E+02 0. -1.
</event>
<event>
 5    1  0.7732857E-009  0.3753884E+03  0.7957747E-01  0.3471487E+00
         13   -1    0    0    0    0  0.00000000000E+00  0.00000000000E+00  0.14999999963E+04  0.15000000000E+04  0.10566000000E+00 0.  1.
        994   -1    0    0    0    0 -0.00000000000E+00 -0.00000000000E+00  0.11368683772E-12  0.17120000000E+03  0.17120000000E+03 0.  0.
         13    1    1    2    0    0 -0.29895588712E+01  0.26434188856E+02  0.50537863348E+02  0.57112088025E+02  0.10566000000E+00 0.  1.
        994    1    1    2    0    0  0.52696109232E+01 -0.26479497359E+02  0.89578949076E+01  0.17354715918E+03  0.17120000000E+03 0.  0.
        998    1    1    2    0    0 -0.22800520520E+01  0.45308502442E-01  0.14405042380E+04  0.14405407528E+04  0.10000000000E+02 0.  1.
</event>
<event>
 5    1  0.7732857E-009  0.3800316E+03  0.7957747E-01  0.3451021E+00
         13   -1    0    0    0    0  0.00000000000E+00  0.00000000000E+00  0.14999999963E+04  0.15000000000E+04  0.10566000000E+00 0. -1.
        994   -1    0    0    0    0 -0.00000000000E+00 -0.00000000000E+00  0.11368683772E-12  0.17120000000E+03  0.17120000000E+03 0.  0.
         13    1    1    2    0    0  0.23141878353E+01 -0.41142276530E+02  0.17899015305E+03  0.18367233988E+03  0.10566000000E+00 0. -1.
        994    1    1    2    0    0 -0.12188546106E+02  0.43149077017E+02  0.10866522595E+02  0.17730743024E+03  0.17120000000E+03 0.  0.
        998    1    1    2    0    0  0.98743582706E+01 -0.20068004871E+01  0.13101433206E+04  0.13102202299E+04  0.10000000000E+02 0. -1.
</event>
<event>
 5    1  0.7732857E-009  0.3822803E+03  0.7957747E-01  0.3441289E+00
         13   -1    0    0    0    0  0.00000000000E+00  0.00000000000E+00  0.14999999963E+04  0.15000000000E+04  0.10566000000E+00 0. -1.
        994   -1    0    0    0    0 -0.00000000000E+00 -0.00000000000E+00  0.11368683772E-12  0.17120000000E+03  0.17120000000E+03 0.  0.
         13    1    1    2    0    0 -0.13095159939E+02  0.14505917614E+02  0.56469478970E+02  0.59755485763E+02  0.10566000000E+00 0. -1.
        994    1    1    2    0    0  0.19259445472E+02 -0.32478893590E+02  0.77316491628E+01  0.17548510811E+03  0.17120000000E+03 0.  0.
        998    1    1    2    0    0 -0.61642855329E+01  0.17972975976E+02  0.14357988681E+04  0.14359594061E+04  0.10000000000E+02 0. -1.
</event>
<event>
 5    1  0.7732857E-009  0.3820664E+03  0.7957747E-01  0.3442210E+00
         13   -1    0    0    0    0  0.00000000000E+00  0.00000000000E+00  0.14999999963E+04  0.15000000000E+04  0.10566000000E+00 0. -1.
        994   -1    0    0    0    0 -0.00000000000E+00 -0.00000000000E+00  0.11368683772E-12  0.17120000000E+03  0.17120000000E+03 0.  0.
         13    1    1    2    0    0  0.19544930406E+02 -0.13627534549E+02  0.87485492330E+02  0.90672137588E+02  0.10566000000E+00 0. -1.
        994    1    1    2    0    0 -0.18144886497E+02  0.11675278803E+02  0.46409110104E+01  0.17261670573E+03  0.17120000000E+03 0.  0.
        998    1    1    2    0    0 -0.14000439095E+01  0.19522557457E+01  0.14078735929E+04  0.14079111567E+04  0.10000000000E+02 0.  0.
</event>
<event>
 5    1  0.7732857E-009  0.3798492E+03  0.7957747E-01  0.3451815E+00
         13   -1    0    0    0    0  0.00000000000E+00  0.00000000000E+00  0.14999999963E+04  0.15000000000E+04  0.10566000000E+00 0.  1.
        994   -1    0    0    0    0 -0.00000000000E+00 -0.00000000000E+00  0.11368683772E-12  0.17120000000E+03  0.17120000000E+03 0.  0.
         13    1    1    2    0    0 -0.65316374179E+02 -0.10827932248E+02  0.37567564104E+03  0.38146516393E+03  0.10566000000E+00 0.  1.
        994    1    1    2    0    0  0.69921532859E+02  0.50308522290E+01  0.20824753167E+02  0.18616508957E+03  0.17120000000E+03 0.  0.
        998    1    1    2    0    0 -0.46051586803E+01  0.57970800192E+01  0.11034996021E+04  0.11035697465E+04  0.10000000000E+02 0.  1.
</event>
<event>
 5    1  0.7732857E-009  0.3840951E+03  0.7957747E-01  0.3433519E+00
         13   -1    0    0    0    0  0.00000000000E+00  0.00000000000E+00  0.14999999963E+04  0.15000000000E+04  0.10566000000E+00 0.  1.
        994   -1    0    0    0    0 -0.00000000000E+00 -0.00000000000E+00  0.11368683772E-12  0.17120000000E+03  0.17120000000E+03 0.  0.
         13    1    1    2    0    0  0.18776557915E+02  0.15261222367E+02  0.14312020098E+03  0.14515118714E+03  0.10566000000E+00 0.  1.
        994    1    1    2    0    0 -0.94179717727E+01 -0.80611449900E+01  0.25871154687E+01  0.17166774134E+03  0.17120000000E+03 0.  0.
        998    1    1    2    0    0 -0.93585861427E+01 -0.72000773774E+01  0.13542926798E+04  0.13543810715E+04  0.10000000000E+02 0.  1.
</event>
<event>
 5    1  0.7732857E-009  0.3800492E+03  0.7957747E-01  0.3450944E+00
         13   -1    0    0    0    0  0.00000000000E+00  0.00000000000E+00  0.14999999963E+04  0.15000000000E+04  0.10566000000E+00 0. -1.
        994   -1    0    0    0    0 -0.00000000000E+00 -0.00000000000E+00  0.11368683772E-12  0.17120000000E+03  0.17120000000E+03 0.  0.
         13    1    1    2    0    0 -0.37986826222E+02  0.37514273121E+02  0.77751140610E+02  0.94316333073E+02  0.10566000000E+00 0. -1.
        994    1    1    2    0    0  0.33796748843E+02 -0.40329437214E+02  0.26457421716E+02  0.18104728361E+03  0.17120000000E+03 0.  0.
        998    1    1    2    0    0  0.41900773788E+01  0.28151640927E+01  0.13957914340E+04  0.13958363833E+04  0.10000000000E+02 0.  0.
</event>
<event>
 5    1  0.7732857E-009  0.3819727E+03  0.7957747E-01  0.3442614E+00
         13   -1    0    0    0    0  0.00000000000E+00  0.00000000000E+00  0.14999999963E+04  0.15000000000E+04  0.10566000000E+00 0. -1.
        994   -1    0    0    0    0 -0.00000000000E+00 -0.00000000000E+00  0.11368683772E-12  0.17120000000E+03  0.17120000000E+03 0.  0.
         13    1    1    2    0    0  0.52962977173E+01 -0.13780915389E+02  0.33324633766E+02  0.36448686919E+02  0.10566000000E+00 0. -1.
        994    1    1    2    0    0  0.42863210597E+02  0.29706776193E+02  0.12226830926E+02  0.17938417647E+03  0.17120000000E+03 0.  0.
        998    1    1    2    0    0 -0.48159508314E+02 -0.15925860803E+02  0.14544485316E+04  0.14553671366E+04  0.10000000000E+02 0. -1.
</event>
<event>
 5    1  0.7732857E-009  0.3776767E+03  0.7957747E-01  0.3461338E+00
         13   -1    0    0    0    0  0.00000000000E+00  0.00000000000E+00  0.14999999963E+04  0.15000000000E+04  0.10566000000E+00 0. -1.
        994   -1    0    0    0    0 -0.00000000000E+00 -0.00000000000E+00  0.11368683772E-12  0.17120000000E+03  0.17120000000E+03 0.  0.
         13    1    1    2    0    0  0.15706315852E+02  0.16418877409E+02  0.45579081362E+02  0.50928692452E+02  0.10566000000E+00 0. -1.
        994    1    1    2    0    0 -0.14093835905E+02 -0.15984456015E+02  0.68419715415E+01  0.17265686091E+03  0.17120000000E+03 0.  0.
        998    1    1    2    0    0 -0.16124799465E+01 -0.43442139359E+00  0.14475789434E+04  0.14476144466E+04  0.10000000000E+02 0. -1.
</event>
<event>
 5    1  0.7732857E-009  0.3855435E+03  0.7957747E-01  0.3427371E+00
         13   -1    0    0    0    0  0.00000000000E+00  0.00000000000E+00  0.14999999963E+04  0.15000000000E+04  0.10566000000E+00 0.  1.
        994   -1    0    0    0    0 -0.00000000000E+00 -0.00000000000E+00  0.11368683772E-12  0.17120000000E+03  0.17120000000E+03 0.  0.
         13    1    1    2    0    0 -0.74577900579E+01 -0.10820826469E+02  0.62679673041E+02  0.64042653713E+02  0.10566000000E+00 0.  1.
        994    1    1    2    0    0  0.13512156232E+02  0.46483495879E+01  0.20311617357E+01  0.17180730816E+03  0.17120000000E+03 0.  0.
        998    1    1    2    0    0 -0.60543661740E+01  0.61724768807E+01  0.14352891615E+04  0.14353500381E+04  0.10000000000E+02 0.  1.
</event>
<event>
 5    1  0.7732857E-009  0.3836211E+03  0.7957747E-01  0.3435541E+00
         13   -1    0    0    0    0  0.00000000000E+00  0.00000000000E+00  0.14999999963E+04  0.15000000000E+04  0.10566000000E+00 0. -1.
        994   -1    0    0    0    0 -0.00000000000E+00 -0.00000000000E+00  0.11368683772E-12  0.17120000000E+03  0.17120000000E+03 0.  0.
         13    1    1    2    0    0  0.18382605463E+02 -0.87502367233E+01  0.86269231535E+02  0.88639033727E+02  0.10566000000E+00 0. -1.
        994    1    1    2    0    0 -0.15408724679E+02  0.89951990220E+01  0.33685929685E+01  0.17216018651E+03  0.17120000000E+03 0.  0.
        998    1    1    2    0    0 -0.29738807845E+01 -0.24496229870E+00  0.14103621718E+04  0.14104007798E+04  0.10000000000E+02 0. -1.
</event>
<event>
 5    1  0.7732857E-009  0.3851726E+03  0.7957747E-01  0.3428941E+00
         13   -1    0    0    0    0  0.00000000000E+00  0.00000000000E+00  0.14999999963E+04  0.15000000000E+04  0.10566000000E+00 0.  1.
        994   -1    0    0    0    0 -0.00000000000E+00 -0.00000000000E+00  0.11368683772E-12  0.17120000000E+03  0.17120000000E+03 0.  0.
         13    1    1    2    0    0 -0.92906732091E+01 -0.85263518726E+01  0.53894322253E+02  0.55350017345E+02  0.10566000000E+00 0.  1.
        994    1    1    2    0    0 -0.61563924977E+01  0.82041069352E+01  0.18903631782E+01  0.17151741023E+03  0.17120000000E+03 0.  0.
        998    1    1    2    0    0  0.15447065707E+02  0.32224493744E+00  0.14442153108E+04  0.14443325724E+04  0.10000000000E+02 0.  1.
</event>
<event>
 5    1  0.7732857E-009  0.3856940E+03  0.7957747E-01  0.3426734E+00
         13   -1    0    0    0    0  0.00000000000E+00  0.00000000000E+00  0.14999999963E+04  0.15000000000E+04  0.10566000000E+00 0.  1.
        994   -1    0    0    0    0 -0.00000000000E+00 -0.00000000000E+00  0.11368683772E-12  0.17120000000E+03  0.17120000000E+03 0.  0.
         13    1    1    2    0    0  0.11735737828E+02 -0.43064753755E+00  0.53883282064E+02  0.55148275129E+02  0.10566000000E+00 0.  1.
        994    1    1    2    0    0 -0.81922163967E+01  0.10474057487E+01  0.15098218391E+01  0.17140574387E+03  0.17120000000E+03 0.  0.
        998    1    1    2    0    0 -0.35435214315E+01 -0.61675821111E+00  0.14446068924E+04  0.14446459810E+04  0.10000000000E+02 0.  0.
</event>
<event>
 5    1  0.7732857E-009  0.3836332E+03  0.7957747E-01  0.3435490E+00
         13   -1    0    0    0    0  0.00000000000E+00  0.00000000000E+00  0.14999999963E+04  0.15000000000E+04  0.10566000000E+00 0.  1.
        994   -1    0    0    0    0 -0.00000000000E+00 -0.00000000000E+00  0.11368683772E-12  0.17120000000E+03  0.17120000000E+03 0.  0.
         13    1    1    2    0    0 -0.43465050857E+01  0.18361105033E+02  0.73431341859E+02  0.75816854430E+02  0.10566000000E+00 0.  1.
        994    1    1    2    0    0  0.29031818499E+01 -0.19139911820E+02  0.35491891850E+01  0.17232759916E+03  0.17120000000E+03 0.  0.
        998    1    1    2    0    0  0.14433232358E+01  0.77880678649E+00  0.14230194652E+04  0.14230555464E+04  0.10000000000E+02 0.  1.
</event>
<event>
 5    1  0.8987993E-009  0.3849637E+03  0.7957747E-01  0.3429826E+00
         13   -1    0    0    0    0  0.00000000000E+00  0.00000000000E+00  0.14999999963E+04  0.15000000000E+04  0.10566000000E+00 0.  1.
        994   -1    0    0    0    0 -0.00000000000E+00 -0.00000000000E+00  0.11368683772E-12  0.17120000000E+03  0.17120000000E+03 0.  0.
         13    1    1    2    0    0  0.11377964358E+02 -0.11992723937E+02  0.83315268461E+02  0.84939558647E+02  0.10566000000E+00 0.  1.
        994    1    1    2    0    0 -0.11079344604E+02  0.34335474381E+01  0.20907794441E+01  0.17160522277E+03  0.17120000000E+03 0.  0.
        998    1    1    2    0    0 -0.29861975438E+00  0.85591764992E+01  0.14145939484E+04  0.14146552186E+04  0.10000000000E+02 0.  1.
</event>
<event>
 5    1  0.7732857E-009  0.3740250E+03  0.7957747E-01  0.3477595E+00
         13   -1    0    0    0    0  0.00000000000E+00  0.00000000000E+00  0.14999999963E+04  0.15000000000E+04  0.10566000000E+00 0. -1.
        994   -1    0    0    0    0 -0.00000000000E+00 -0.00000000000E+00  0.11368683772E-12  0.17120000000E+03  0.17120000000E+03 0.  0.
         13    1    1    2    0    0 -0.20573963376E+02  0.28112991006E+02  0.83723520604E+02  0.90682232541E+02  0.10566000000E+00 0. -1.
        994    1    1    2    0    0  0.73267975511E+01 -0.14515563914E+02  0.80824041808E+01  0.17216024168E+03  0.17120000000E+03 0.  0.
        998    1    1    2    0    0  0.13247165825E+02 -0.13597427092E+02  0.14081940715E+04  0.14083575258E+04  0.10000000000E+02 0. -1.
</event>
<event>
 5    1  0.7732857E-009  0.3835570E+03  0.7957747E-01  0.3435815E+00
         13   -1    0    0    0    0  0.00000000000E+00  0.00000000000E+00  0.14999999963E+04  0.15000000000E+04  0.10566000000E+00 0.  1.
        994   -1    0    0    0    0 -0.00000000000E+00 -0.00000000000E+00  0.11368683772E-12  0.17120000000E+03  0.17120000000E+03 0.  0.
         13    1    1    2    0    0  0.25677516996E+01  0.97421516684E+01  0.20057087387E+02  0.22445507043E+02  0.10566000000E+00 0.  1.
        994    1    1    2    0    0 -0.29604689504E+01 -0.18080603783E+02  0.34581631303E+01  0.17221228615E+03  0.17120000000E+03 0.  0.
        998    1    1    2    0    0  0.39271725076E+00  0.83384521145E+01  0.14764847458E+04  0.14765422068E+04  0.10000000000E+02 0.  1.
</event>
<event>
 5    1  0.7732857E-009  0.3801758E+03  0.7957747E-01  0.3450394E+00
         13   -1    0    0    0    0  0.00000000000E+00  0.00000000000E+00  0.14999999963E+04  0.15000000000E+04  0.10566000000E+00 0. -1.
        994   -1    0    0    0    0 -0.00000000000E+00 -0.00000000000E+00  0.11368683772E-12  0.17120000000E+03  0.17120000000E+03 0.  0.
         13    1    1    2    0    0  0.11050158533E+02  0.14476068998E+02  0.41955961090E+02  0.45738128648E+02  0.10566000000E+00 0. -1.
        994    1    1    2    0    0  0.66021723903E+01  0.15897215777E+01  0.41985367230E+01  0.17138606596E+03  0.17120000000E+03 0.  0.
        998    1    1    2    0    0 -0.17652330923E+02 -0.16065790575E+02  0.14538454985E+04  0.14540758054E+04  0.10000000000E+02 0. -1.
</event>
<event>
 5    1  0.7732857E-009  0.3850276E+03  0.7957747E-01  0.3429555E+00
         13   -1    0    0    0    0  0.00000000000E+00  0.00000000000E+00  0.14999999963E+04  0.15000000000E+04  0.10566000000E+00 0. -1.
        994   -1    0    0    0    0 -0.00000000000E+00 -0.00000000000E+00  0.11368683772E-12  0.17120000000E+03  0.17120000000E+03 0.  0.
         13    1    1    2    0    0 -0.23295634103E+01 -0.14768910654E+02  0.68250763918E+02  0.69869346119E+02  0.10566000000E+00 0. -1.
        994    1    1    2    0    0  0.34493967078E+01  0.11535933364E+02  0.20933002566E+01  0.17163565481E+03  0.17120000000E+03 0.  0.
        998    1    1    2    0    0 -0.11198332975E+01  0.32329772902E+01  0.14296559321E+04  0.14296949991E+04  0.10000000000E+02 0. -1.
</event>
<event>
 5    1  0.7732857E-009  0.3845645E+03  0.7957747E-01  0.3431521E+00
         13   -1    0    0    0    0  0.00000000000E+00  0.00000000000E+00  0.14999999963E+04  0.15000000000E+04  0.10566000000E+00 0. -1.
        994   -1    0    0    0    0 -0.00000000000E+00 -0.00000000000E+00  0.11368683772E-12  0.17120000000E+03  0.17120000000E+03 0.  0.
         13    1    1    2    0    0 -0.83709715029E+01  0.80952081598E+01  0.35981058922E+02  0.37818690144E+02  0.10566000000E+00 0. -1.
        994    1    1    2    0    0  0.86673204621E+01 -0.58705625536E+01  0.22075129339E+01  0.17153395892E+03  0.17120000000E+03 0.  0.
        998    1    1    2    0    0 -0.29634895919E+00 -0.22246456062E+01  0.14618114244E+04  0.14618473509E+04  0.10000000000E+02 0. -1.
</event>
<event>
 5    1  0.7732857E-009  0.3841384E+03  0.7957747E-01  0.3433335E+00
         13   -1    0    0    0    0  0.00000000000E+00  0.00000000000E+00  0.14999999963E+04  0.15000000000E+04  0.10566000000E+00 0.  1.
        994   -1    0    0    0    0 -0.00000000000E+00 -0.00000000000E+00  0.11368683772E-12  0.17120000000E+03  0.17120000000E+03 0.  0.
         13    1    1    2    0    0  0.93035721974E+01  0.20290156049E+02  0.11654082610E+03  0.11865926934E+03  0.10566000000E+00 0.  1.
        994    1    1    2    0    0 -0.15039337366E+01 -0.19605494522E+02  0.33346349791E+01  0.17235775881E+03  0.17120000000E+03 0.  0.
        998    1    1    2    0    0 -0.77996384607E+01 -0.68466152710E+00  0.13801245352E+04  0.13801829718E+04  0.10000000000E+02 0.  1.
</event>
<event>
 5    1  0.7732857E-009  0.3838020E+03  0.7957747E-01  0.3434769E+00
         13   -1    0    0    0    0  0.00000000000E+00  0.00000000000E+00  0.14999999963E+04  0.15000000000E+04  0.10566000000E+00 0. -1.
        994   -1    0    0    0    0 -0.00000000000E+00 -0.00000000000E+00  0.11368683772E-12  0.17120000000E+03  0.17120000000E+03 0.  0.
         13    1    1    2    0    0  0.80932357511E+01 -0.69517522486E+01  0.24870425046E+02  0.27062456102E+02  0.10566000000E+00 0. -1.
        994    1    1    2    0    0 -0.48690864294E+01  0.55720767399E+01  0.24068994429E+01  0.17137674640E+03  0.17120000000E+03 0.  0.
        998    1    1    2    0    0 -0.32241493218E+01  0.13796755087E+01  0.14727226718E+04  0.14727607975E+04  0.10000000000E+02 0. -1.
</event>
<event>
 5    1  0.7732857E-009  0.3801518E+03  0.7957747E-01  0.3450498E+00
         13   -1    0    0    0    0  0.00000000000E+00  0.00000000000E+00  0.14999999963E+04  0.15000000000E+04  0.10566000000E+00 0. -1.
        994   -1    0    0    0    0 -0.00000000000E+00 -0.00000000000E+00  0.11368683772E-12  0.17120000000E+03  0.17120000000E+03 0.  0.
         13    1    1    2    0    0  0.18662150642E+02  0.34823894813E+02  0.19142030764E+03  0.19545517353E+03  0.10566000000E+00 0. -1.
        994    1    1    2    0    0 -0.50173640666E-01 -0.25833556858E+02  0.62896145411E+01  0.17325234321E+03  0.17120000000E+03 0.  0.
        998    1    1    2    0    0 -0.18611977002E+02 -0.89903379549E+01  0.13022900741E+04  0.13024924833E+04  0.10000000000E+02 0. -1.
</event>
<event>
 5    1  0.7732857E-009  0.3861099E+03  0.7957747E-01  0.3424979E+00
         13   -1    0    0    0    0  0.00000000000E+00  0.00000000000E+00  0.14999999963E+04  0.15000000000E+04  0.10566000000E+00 0. -1.
        994   -1    0    0    0    0 -0.00000000000E+00 -0.00000000000E+00  0.11368683772E-12  0.17120000000E+03  0.17120000000E+03 0.  0.
         13    1    1    2    0    0  0.10237153416E+02 -0.38204962618E+01  0.55308343923E+02  0.56377473988E+02  0.10566000000E+00 0. -1.
        994    1    1    2    0    0 -0.85387638522E+01  0.33207102550E+01  0.13551791495E+01  0.17145032550E+03  0.17120000000E+03 0.  0.
        998    1    1    2    0    0 -0.16983895633E+01  0.49978600678E+00  0.14433364732E+04  0.14433722005E+04  0.10000000000E+02 0. -1.
</event>
<event>
 5    1  0.7732857E-009  0.3842886E+03  0.7957747E-01  0.3432695E+00
         13   -1    0    0    0    0  0.00000000000E+00  0.00000000000E+00  0.14999999963E+04  0.15000000000E+04  0.10566000000E+00 0. -1.
        994   -1    0    0    0    0 -0.00000000000E+00 -0.00000000000E+00  0.11368683772E-12  0.17120000000E+03  0.17120000000E+03 0.  0.
         13    1    1    2    0    0 -0.10729116528E+02 -0.98400235030E+01  0.52764101181E+02  0.54735742815E+02  0.10566000000E+00 0. -1.
        994    1    1    2    0    0  0.10438590355E+02  0.45322429287E+01  0.24107691797E+01  0.17159474701E+03  0.17120000000E+03 0.  0.
        998    1    1    2    0    0  0.29052617289E+00  0.53077805743E+01  0.14448251259E+04  0.14448695102E+04  0.10000000000E+02 0. -1.
</event>
<event>
 5    1  0.8923216E-009  0.3852487E+03  0.7957747E-01  0.3428618E+00
         13   -1    0    0    0    0  0.00000000000E+00  0.00000000000E+00  0.14999999963E+04  0.15000000000E+04  0.10566000000E+00 0.  1.
        994   -1    0    0    0    0 -0.00000000000E+00 -0.00000000000E+00  0.11368683772E-12  0.17120000000E+03  0.17120000000E+03 0.  0.
         13    1    1    2    0    0  0.12512106265E+01 -0.11349862167E+02  0.37826994609E+02  0.39513005257E+02  0.10566000000E+00 0.  1.
        994    1    1    2    0    0  0.15322612787E+01  0.35086293116E+02  0.55702094200E+01  0.17485383331E+03  0.17120000000E+03 0.  0.
        998    1    1    2    0    0 -0.27834719052E+01 -0.23736430948E+02  0.14566027922E+04  0.14568331614E+04  0.10000000000E+02 0.  1.
</event>
<event>
 5    1  0.7732857E-009  0.3726090E+03  0.7957747E-01  0.3483986E+00
         13   -1    0    0    0    0  0.00000000000E+00  0.00000000000E+00  0.14999999963E+04  0.15000000000E+04  0.10566000000E+00 0. -1.
        994   -1    0    0    0    0 -0.00000000000E+00 -0.00000000000E+00  0.11368683772E-12  0.17120000000E+03  0.17120000000E+03 0.  0.
         13    1    1    2    0    0  0.92865329376E+02  0.26866261637E+02  0.46717620638E+03  0.47707377248E+03  0.10566000000E+00 0. -1.
        994    1    1    2    0    0 -0.79627139236E+02 -0.16594963351E+02  0.30935214676E+02  0.19204765455E+03  0.17120000000E+03 0.  0.
        998    1    1    2    0    0 -0.13238190140E+02 -0.10271298285E+02  0.10018885752E+04  0.10020785730E+04  0.10000000000E+02 0. -1.
</event>
<event>
 5    1  0.7732857E-009  0.3851827E+03  0.7957747E-01  0.3428898E+00
         13   -1    0    0    0    0  0.00000000000E+00  0.00000000000E+00  0.14999999963E+04  0.15000000000E+04  0.10566000000E+00 0. -1.
        994   -1    0    0    0    0 -0.00000000000E+00 -0.00000000000E+00  0.11368683772E-12  0.17120000000E+03  0.17120000000E+03 0.  0.
         13    1    1    2    0    0 -0.11084973727E+02 -0.23121548971E+00  0.40210548990E+02  0.41711263673E+02  0.10566000000E+00 0. -1.
        994    1    1    2    0    0  0.62856787554E+01 -0.12411282453E+02  0.21758627794E+01  0.17177812453E+03  0.17120000000E+03 0.  0.
        998    1    1    2    0    0  0.47992949720E+01  0.12642497942E+02  0.14576135845E+04  0.14577106118E+04  0.10000000000E+02 0. -1.
</event>
<event>
 5    1  0.7732857E-009  0.3799672E+03  0.7957747E-01  0.3451301E+00
         13   -1    0    0    0    0  0.00000000000E+00  0.00000000000E+00  0.14999999963E+04  0.15000000000E+04  0.10566000000E+00 0.  1.
        994   -1    0    0    0    0 -0.00000000000E+00 -0.00000000000E+00  0.11368683772E-12  0.17120000000E+03  0.17120000000E+03 0.  0.
         13    1    1    2    0    0 -0.21553499343E+02  0.23505696092E+02  0.15289309636E+03  0.15618380569E+03  0.10566000000E+00 0.  1.
        994    1    1    2    0    0  0.44142165702E+01  0.25309516885E+02  0.63595793494E+01  0.17323377616E+03  0.17120000000E+03 0.  0.
        998    1    1    2    0    0  0.17139282773E+02 -0.48815212978E+02  0.13407473206E+04  0.13417824181E+04  0.10000000000E+02 0.  1.
</event>
<event>
 5    1  0.7732857E-009  0.3696473E+03  0.7957747E-01  0.3497513E+00
         13   -1    0    0    0    0  0.00000000000E+00  0.00000000000E+00  0.14999999963E+04  0.15000000000E+04  0.10566000000E+00 0. -1.
        994   -1    0    0    0    0 -0.00000000000E+00 -0.00000000000E+00  0.11368683772E-12  0.17120000000E+03  0.17120000000E+03 0.  0.
         13    1    1    2    0    0 -0.29223406616E+02 -0.76708278558E-01  0.37396941308E+02  0.47461097349E+02  0.10566000000E+00 0. -1.
        994    1    1    2    0    0 -0.11603080293E+01 -0.10715786143E+02  0.11158171121E+02  0.17190148100E+03  0.17120000000E+03 0.  0.
        998    1    1    2    0    0  0.30383714645E+02  0.10792494421E+02  0.14514448838E+04  0.14518374217E+04  0.10000000000E+02 0. -1.
</event>
<event>
 5    1  0.9261497E-009  0.3855063E+03  0.7957747E-01  0.3427528E+00
         13   -1    0    0    0    0  0.00000000000E+00  0.00000000000E+00  0.14999999963E+04  0.15000000000E+04  0.10566000000E+00 0. -1.
        994   -1    0    0    0    0 -0.00000000000E+00 -0.00000000000E+00  0.11368683772E-12  0.17120000000E+03  0.17120000000E+03 0.  0.
         13    1    1    2    0    0  0.54218129371E+01 -0.10513843945E+02  0.62867621641E+02  0.63970977676E+02  0.10566000000E+00 0. -1.
        994    1    1    2    0    0  0.26122858317E+02 -0.10643996084E+02  0.39958118353E+01  0.17355432836E+03  0.17120000000E+03 0.  0.
        998    1    1    2    0    0 -0.31544671254E+02  0.21157840029E+02  0.14331365628E+04  0.14336746940E+04  0.10000000000E+02 0. -1.
</event>
<event>
 5    1  0.7732857E-009  0.3796453E+03  0.7957747E-01  0.3452704E+00
         13   -1    0    0    0    0  0.00000000000E+00  0.00000000000E+00  0.14999999963E+04  0.15000000000E+04  0.10566000000E+00 0. -1.
        994   -1    0    0    0    0 -0.00000000000E+00 -0.00000000000E+00  0.11368683772E-12  0.17120000000E+03  0.17120000000E+03 0.  0.
         13    1    1    2    0    0  0.33029458514E+02 -0.62868436835E+01  0.11840306633E+03  0.12308438899E+03  0.10566000000E+00 0. -1.
        994    1    1    2    0    0 -0.37802830965E+02 -0.19541775472E+01  0.91228229878E+01  0.17557203290E+03  0.17120000000E+03 0.  0.
        998    1    1    2    0    0  0.47733724509E+01  0.82410212306E+01  0.13724741070E+04  0.13725435781E+04  0.10000000000E+02 0. -1.
</event>
<event>
 5    1  0.7732857E-009  0.3513293E+03  0.7957747E-01  0.3586360E+00
         13   -1    0    0    0    0  0.00000000000E+00  0.00000000000E+00  0.14999999963E+04  0.15000000000E+04  0.10566000000E+00 0.  1.
        994   -1    0    0    0    0 -0.00000000000E+00 -0.00000000000E+00  0.11368683772E-12  0.17120000000E+03  0.17120000000E+03 0.  0.
         13    1    1    2    0    0  0.27673876896E+03 -0.39555846398E+02  0.84803765874E+03  0.89292602887E+03  0.10566000000E+00 0.  1.
        994    1    1    2    0    0 -0.27458962626E+03 -0.39469225382E+01  0.36478294391E+03  0.48763826471E+03  0.17120000000E+03 0.  0.
        998    1    1    2    0    0 -0.21491427009E+01  0.43502768936E+02  0.28717939363E+03  0.29063570642E+03  0.10000000000E+02 0.  1.
</event>
<event>
 5    1  0.7732857E-009  0.3824419E+03  0.7957747E-01  0.3440594E+00
         13   -1    0    0    0    0  0.00000000000E+00  0.00000000000E+00  0.14999999963E+04  0.15000000000E+04  0.10566000000E+00 0.  1.
        994   -1    0    0    0    0 -0.00000000000E+00 -0.00000000000E+00  0.11368683772E-12  0.17120000000E+03  0.17120000000E+03 0.  0.
         13    1    1    2    0    0  0.65836099704E+01 -0.12156088144E+02  0.32177335328E+02  0.35021514417E+02  0.10566000000E+00 0.  1.
        994    1    1    2    0    0  0.42032444156E+01  0.98502071729E+01  0.32859676370E+01  0.17156611387E+03  0.17120000000E+03 0.  0.
        998    1    1    2    0    0 -0.10786854386E+02  0.23058809708E+01  0.14645366933E+04  0.14646123717E+04  0.10000000000E+02 0.  1.
</event>
<event>
 5    1  0.7732857E-009  0.3848720E+03  0.7957747E-01  0.3430215E+00
         13   -1    0    0    0    0  0.00000000000E+00  0.00000000000E+00  0.14999999963E+04  0.15000000000E+04  0.10566000000E+00 0.  1.
        994   -1    0    0    0    0 -0.00000000000E+00 -0.00000000000E+00  0.11368683772E-12  0.17120000000E+03  0.17120000000E+03 0.  0.
         13    1    1    2    0    0 -0.20934355077E+02  0.11943256625E+02  0.14031614119E+03  0.14237106182E+03  0.10566000000E+00 0.  1.
        994    1    1    2    0    0  0.32491795324E+02 -0.18399560273E+02  0.62943343196E+01  0.17533772904E+03  0.17120000000E+03 0.  0.
        998    1    1    2    0    0 -0.11557440248E+02  0.64563036486E+01  0.13533895208E+04  0.13534912091E+04  0.10000000000E+02 0.  1.
</event>
<event>
 5    1  0.7732857E-009  0.3768041E+03  0.7957747E-01  0.3465193E+00
         13   -1    0    0    0    0  0.00000000000E+00  0.00000000000E+00  0.14999999963E+04  0.15000000000E+04  0.10566000000E+00 0.  1.
        994   -1    0    0    0    0 -0.00000000000E+00 -0.00000000000E+00  0.11368683772E-12  0.17120000000E+03  0.17120000000E+03 0.  0.
         13    1    1    2    0    0  0.98150308827E+02  0.45525901374E+02  0.65306447519E+03  0.66196624592E+03  0.10566000000E+00 0.  1.
        994    1    1    2    0    0 -0.15899610862E+02 -0.38095533306E+01  0.15540713839E+02  0.17267965748E+03  0.17120000000E+03 0.  0.
        998    1    1    2    0    0 -0.82250697965E+02 -0.41716348043E+02  0.83139480725E+03  0.83655409659E+03  0.10000000000E+02 0.  1.
</event>
<event>
 5    1  0.7732857E-009  0.3740300E+03  0.7957747E-01  0.3477572E+00
         13   -1    0    0    0    0  0.00000000000E+00  0.00000000000E+00  0.14999999963E+04  0.15000000000E+04  0.10566000000E+00 0.  1.
        994   -1    0    0    0    0 -0.00000000000E+00 -0.00000000000E+00  0.11368683772E-12  0.17120000000E+03  0.17120000000E+03 0.  0.
         13    1    1    2    0    0 -0.25072557935E+02  0.28135083953E+02  0.87959600281E+02  0.95692834403E+02  0.10566000000E+00 0.  1.
        994    1    1    2    0    0  0.27776768329E+02 -0.38062560142E+02  0.14787776226E+02  0.17818087908E+03  0.17120000000E+03 0.  0.
        998    1    1    2    0    0 -0.27042103945E+01  0.99274761890E+01  0.13972526198E+04  0.13973262865E+04  0.10000000000E+02 0.  1.
</event>
<event>
 5    1  0.7732857E-009  0.3791249E+03  0.7957747E-01  0.3454978E+00
         13   -1    0    0    0    0  0.00000000000E+00  0.00000000000E+00  0.14999999963E+04  0.15000000000E+04  0.10566000000E+00 0. -1.
        994   -1    0    0    0    0 -0.00000000000E+00 -0.00000000000E+00  0.11368683772E-12  0.17120000000E+03  0.17120000000E+03 0.  0.
         13    1    1    2    0    0  0.91935046473E+01  0.41050602445E+02  0.22034323400E+03  0.22432303587E+03  0.10566000000E+00 0. -1.
        994    1    1    2    0    0  0.11301278529E+02 -0.90188071389E+01  0.52767452634E+01  0.17189049368E+03  0.17120000000E+03 0.  0.
        998    1    1    2    0    0 -0.20494783176E+02 -0.32031795306E+02  0.12743800170E+04  0.12749864704E+04  0.10000000000E+02 0. -1.
</event>
<event>
 5    1  0.7732857E-009  0.3757201E+03  0.7957747E-01  0.3470009E+00
         13   -1    0    0    0    0  0.00000000000E+00  0.00000000000E+00  0.14999999963E+04  0.15000000000E+04  0.10566000000E+00 0.  1.
        994   -1    0    0    0    0 -0.00000000000E+00 -0.00000000000E+00  0.11368683772E-12  0.17120000000E+03  0.17120000000E+03 0.  0.
         13    1    1    2    0    0 -0.16116743265E+03  0.12372690060E+03  0.10382808211E+04  0.10579746509E+04  0.10566000000E+00 0.  1.
        994    1    1    2    0    0  0.14914098666E+03 -0.11927841849E+03  0.14213388979E+03  0.29322663189E+03  0.17120000000E+03 0.  0.
        998    1    1    2    0    0  0.12026445988E+02 -0.44484821032E+01  0.31958528536E+03  0.31999871721E+03  0.10000000000E+02 0.  0.
</event>
<event>
 5    1  0.7732857E-009  0.3796786E+03  0.7957747E-01  0.3452559E+00
         13   -1    0    0    0    0  0.00000000000E+00  0.00000000000E+00  0.14999999963E+04  0.15000000000E+04  0.10566000000E+00 0. -1.
        994   -1    0    0    0    0 -0.00000000000E+00 -0.00000000000E+00  0.11368683772E-12  0.17120000000E+03  0.17120000000E+03 0.  0.
         13    1    1    2    0    0  0.10300653589E+02  0.52495223919E+00  0.10495845181E+02  0.14715738830E+02  0.10566000000E+00 0. -1.
        994    1    1    2    0    0 -0.67593274194E+01 -0.16847286847E+01  0.44578822945E+01  0.17139964858E+03  0.17120000000E+03 0.  0.
        998    1    1    2    0    0 -0.35413261698E+01  0.11597764455E+01  0.14850462688E+04  0.14850846126E+04  0.10000000000E+02 0. -1.
</event>
<event>
 5    1  0.7732857E-009  0.3794770E+03  0.7957747E-01  0.3453439E+00
         13   -1    0    0    0    0  0.00000000000E+00  0.00000000000E+00  0.14999999963E+04  0.15000000000E+04  0.10566000000E+00 0. -1.
        994   -1    0    0    0    0 -0.00000000000E+00 -0.00000000000E+00  0.11368683772E-12  0.17120000000E+03  0.17120000000E+03 0.  0.
         13    1    1    2    0    0 -0.18217461494E+03  0.15182169942E+03  0.10318523358E+04  0.10587524133E+04  0.10566000000E+00 0. -1.
        994    1    1    2    0    0  0.18365857228E+03 -0.15180484870E+03  0.22667737658E+03  0.37076577015E+03  0.17120000000E+03 0.  0.
        998    1    1    2    0    0 -0.14839573413E+01 -0.16850718798E-01  0.24147028393E+03  0.24168181651E+03  0.10000000000E+02 0.  0.
</event>
<event>
 5    1  0.7732857E-009  0.3820018E+03  0.7957747E-01  0.3442488E+00
         13   -1    0    0    0    0  0.00000000000E+00  0.00000000000E+00  0.14999999963E+04  0.15000000000E+04  0.10566000000E+00 0. -1.
        994   -1    0    0    0    0 -0.00000000000E+00 -0.00000000000E+00  0.11368683772E-12  0.17120000000E+03  0.17120000000E+03 0.  0.
         13    1    1    2    0    0  0.23029416245E+02 -0.10939821971E+02  0.10786999763E+03  0.11084214573E+03  0.10566000000E+00 0. -1.
        994    1    1    2    0    0 -0.39232962781E+01  0.10417115022E+02  0.35376548595E+01  0.17159797068E+03  0.17120000000E+03 0.  0.
        998    1    1    2    0    0 -0.19106119967E+02  0.52270694973E+00  0.13885923438E+04  0.13887598836E+04  0.10000000000E+02 0. -1.
</event>
<event>
 5    1  0.7732857E-009  0.3725053E+03  0.7957747E-01  0.3484455E+00
         13   -1    0    0    0    0  0.00000000000E+00  0.00000000000E+00  0.14999999963E+04  0.15000000000E+04  0.10566000000E+00 0.  1.
        994   -1    0    0    0    0 -0.00000000000E+00 -0.00000000000E+00  0.11368683772E-12  0.17120000000E+03  0.17120000000E+03 0.  0.
         13    1    1    2    0    0  0.35500083414E+02  0.13321914307E+02  0.86743481014E+02  0.94668748728E+02  0.10566000000E+00 0.  1.
        994    1    1    2    0    0 -0.25482910991E+02 -0.54189133468E+01  0.10295674673E+02  0.17347675433E+03  0.17120000000E+03 0.  0.
        998    1    1    2    0    0 -0.10017172423E+02 -0.79030009606E+01  0.14029608406E+04  0.14030544969E+04  0.10000000000E+02 0.  1.
</event>
<event>
 5    1  0.7732857E-009  0.3849098E+03  0.7957747E-01  0.3430055E+00
         13   -1    0    0    0    0  0.00000000000E+00  0.00000000000E+00  0.14999999963E+04  0.15000000000E+04  0.10566000000E+00 0. -1.
        994   -1    0    0    0    0 -0.00000000000E+00 -0.00000000000E+00  0.11368683772E-12  0.17120000000E+03  0.17120000000E+03 0.  0.
         13    1    1    2    0    0  0.16621011864E+02 -0.35938957327E+01  0.76801200780E+02  0.78661361081E+02  0.10566000000E+00 0. -1.
        994    1    1    2    0    0 -0.29970931842E+02 -0.28147583941E+01  0.46615961309E+01  0.17388890160E+03  0.17120000000E+03 0.  0.
        998    1    1    2    0    0  0.13349919978E+02  0.64086541268E+01  0.14185371994E+04  0.14186497373E+04  0.10000000000E+02 0. -1.
</event>
<event>
 5    1  0.7732857E-009  0.3809100E+03  0.7957747E-01  0.3447206E+00
         13   -1    0    0    0    0  0.00000000000E+00  0.00000000000E+00  0.14999999963E+04  0.15000000000E+04  0.10566000000E+00 0.  1.
        994   -1    0    0    0    0 -0.00000000000E+00 -0.00000000000E+00  0.11368683772E-12  0.17120000000E+03  0.17120000000E+03 0.  0.
         13    1    1    2    0    0  0.47122741875E+02 -0.79643736024E+02  0.51512614627E+03  0.52337236766E+03  0.10566000000E+00 0.  1.
        994    1    1    2    0    0 -0.51668776146E+02  0.10908395680E+03  0.53862132732E+02  0.21628578641E+03  0.17120000000E+03 0.  0.
        998    1    1    2    0    0  0.45460342713E+01 -0.29440220774E+02  0.93101171727E+03  0.93154184594E+03  0.10000000000E+02 0.  1.
</event>
<event>
 5    1  0.7732857E-009  0.3754286E+03  0.7957747E-01  0.3471308E+00
         13   -1    0    0    0    0  0.00000000000E+00  0.00000000000E+00  0.14999999963E+04  0.15000000000E+04  0.10566000000E+00 0. -1.
        994   -1    0    0    0    0 -0.00000000000E+00 -0.00000000000E+00  0.11368683772E-12  0.17120000000E+03  0.17120000000E+03 0.  0.
         13    1    1    2    0    0  0.46010563742E+02  0.29561591503E+02  0.96393787351E+02  0.11082704125E+03  0.10566000000E+00 0. -1.
        994    1    1    2    0    0 -0.51816443707E+02 -0.24581182729E+02  0.25655267234E+02  0.18236450071E+03  0.17120000000E+03 0.  0.
        998    1    1    2    0    0  0.58058799652E+01 -0.49804087739E+01  0.13779509417E+04  0.13780084580E+04  0.10000000000E+02 0. -1.
</event>
<event>
 5    1  0.7732857E-009  0.3686846E+03  0.7957747E-01  0.3501958E+00
         13   -1    0    0    0    0  0.00000000000E+00  0.00000000000E+00  0.14999999963E+04  0.15000000000E+04  0.10566000000E+00 0. -1.
        994   -1    0    0    0    0 -0.00000000000E+00 -0.00000000000E+00  0.11368683772E-12  0.17120000000E+03  0.17120000000E+03 0.  0.
         13    1    1    2    0    0  0.75257965635E+02  0.32998522141E+02  0.40214452248E+03  0.41045449441E+03  0.10566000000E+00 0. -1.
        994    1    1    2    0    0 -0.13229666031E+02 -0.22341004323E+02  0.12594487100E+02  0.17361510776E+03  0.17120000000E+03 0.  0.
        998    1    1    2    0    0 -0.62028299604E+02 -0.10657517818E+02  0.10852609867E+04  0.10871303978E+04  0.10000000000E+02 0. -1.
</event>
<event>
 5    1  0.7732857E-009  0.3847676E+03  0.7957747E-01  0.3430658E+00
         13   -1    0    0    0    0  0.00000000000E+00  0.00000000000E+00  0.14999999963E+04  0.15000000000E+04  0.10566000000E+00 0.  1.
        994   -1    0    0    0    0 -0.00000000000E+00 -0.00000000000E+00  0.11368683772E-12  0.17120000000E+03  0.17120000000E+03 0.  0.
         13    1    1    2    0    0  0.41742720322E+01 -0.12925481528E+02  0.49861066765E+02  0.51678136216E+02  0.10566000000E+00 0.  1.
        994    1    1    2    0    0 -0.19314270614E+02  0.14287356288E+02  0.36474154256E+01  0.17291591378E+03  0.17120000000E+03 0.  0.
        998    1    1    2    0    0  0.15139998581E+02 -0.13618747601E+01  0.14464915141E+04  0.14466059500E+04  0.10000000000E+02 0.  1.
</event>
<event>
 5    1  0.7732857E-009  0.3765324E+03  0.7957747E-01  0.3466398E+00
         13   -1    0    0    0    0  0.00000000000E+00  0.00000000000E+00  0.14999999963E+04  0.15000000000E+04  0.10566000000E+00 0. -1.
        994   -1    0    0    0    0 -0.00000000000E+00 -0.00000000000E+00  0.11368683772E-12  0.17120000000E+03  0.17120000000E+03 0.  0.
         13    1    1    2    0    0  0.54641478084E+02  0.89681232250E+01  0.24321536990E+03  0.24943906206E+03  0.10566000000E+00 0. -1.
        994    1    1    2    0    0 -0.37537549491E+02 -0.21700997323E+02  0.12278133165E+02  0.17703161712E+03  0.17120000000E+03 0.  0.
        998    1    1    2    0    0 -0.17103928593E+02  0.12732874098E+02  0.12445064932E+04  0.12447293208E+04  0.10000000000E+02 0. -1.
</event>
<event>
 5    1  0.7732857E-009  0.3710950E+03  0.7957747E-01  0.3490873E+00
         13   -1    0    0    0    0  0.00000000000E+00  0.00000000000E+00  0.14999999963E+04  0.15000000000E+04  0.10566000000E+00 0.  1.
        994   -1    0    0    0    0 -0.00000000000E+00 -0.00000000000E+00  0.11368683772E-12  0.17120000000E+03  0.17120000000E+03 0.  0.
         13    1    1    2    0    0  0.16781743289E+03 -0.55155886354E+02  0.89378780267E+03  0.91107711525E+03  0.10566000000E+00 0.  1.
        994    1    1    2    0    0 -0.14429107542E+03  0.69674085122E+02  0.10309783260E+03  0.25615033803E+03  0.17120000000E+03 0.  0.
        998    1    1    2    0    0 -0.23526357470E+02 -0.14518198768E+02  0.50311436101E+03  0.50397254672E+03  0.10000000000E+02 0.  1.
</event>
<event>
 5    1  0.7732857E-009  0.3840117E+03  0.7957747E-01  0.3433874E+00
         13   -1    0    0    0    0  0.00000000000E+00  0.00000000000E+00  0.14999999963E+04  0.15000000000E+04  0.10566000000E+00 0. -1.
        994   -1    0    0    0    0 -0.00000000000E+00 -0.00000000000E+00  0.11368683772E-12  0.17120000000E+03  0.17120000000E+03 0.  0.
         13    1    1    2    0    0 -0.21744503732E+02 -0.45141293986E+01  0.12596199478E+03  0.12790479310E+03  0.10566000000E+00 0. -1.
        994    1    1    2    0    0  0.43475899827E+01 -0.52092097560E+01  0.22734930792E+01  0.17134948548E+03  0.17120000000E+03 0.  0.
        998    1    1    2    0    0  0.17396913749E+02  0.97233391545E+01  0.13717645084E+04  0.13719457214E+04  0.10000000000E+02 0. -1.
</event>
<event>
 5    1  0.7732857E-009  0.3706597E+03  0.7957747E-01  0.3492865E+00
         13   -1    0    0    0    0  0.00000000000E+00  0.00000000000E+00  0.14999999963E+04  0.15000000000E+04  0.10566000000E+00 0.  1.
        994   -1    0    0    0    0 -0.00000000000E+00 -0.00000000000E+00  0.11368683772E-12  0.17120000000E+03  0.17120000000E+03 0.  0.
         13    1    1    2    0    0  0.12078793710E+03 -0.93266482338E+02  0.81026097311E+03  0.82450665139E+03  0.10566000000E+00 0.  1.
        994    1    1    2    0    0 -0.10862432239E+03  0.70444284393E+02  0.69179529480E+02  0.22551471774E+03  0.17120000000E+03 0.  0.
        998    1    1    2    0    0 -0.12163614705E+02  0.22822197945E+02  0.62055949369E+03  0.62117863087E+03  0.10000000000E+02 0.  1.
</event>
<event>
 5    1  0.7732857E-009  0.3800069E+03  0.7957747E-01  0.3451128E+00
         13   -1    0    0    0    0  0.00000000000E+00  0.00000000000E+00  0.14999999963E+04  0.15000000000E+04  0.10566000000E+00 0. -1.
        994   -1    0    0    0    0 -0.00000000000E+00 -0.00000000000E+00  0.11368683772E-12  0.17120000000E+03  0.17120000000E+03 0.  0.
         13    1    1    2    0    0 -0.76321045464E+01  0.31242870356E+02  0.14121185279E+03  0.14482805150E+03  0.10566000000E+00 0. -1.
        994    1    1    2    0    0  0.17358122869E+02  0.57912875524E+01  0.52497709336E+01  0.17225516984E+03  0.17120000000E+03 0.  0.
        998    1    1    2    0    0 -0.97260183223E+01 -0.37034157909E+02  0.13535383726E+04  0.13541167787E+04  0.10000000000E+02 0. -1.
</event>
<event>
 5    1  0.7732857E-009  0.3718981E+03  0.7957747E-01  0.3487213E+00
         13   -1    0    0    0    0  0.00000000000E+00  0.00000000000E+00  0.14999999963E+04  0.15000000000E+04  0.10566000000E+00 0. -1.
        994   -1    0    0    0    0 -0.00000000000E+00 -0.00000000000E+00  0.11368683772E-12  0.17120000000E+03  0.17120000000E+03 0.  0.
         13    1    1    2    0    0 -0.14450756195E+02 -0.22425440981E+01  0.92549780813E+01  0.17306621333E+02  0.10566000000E+00 0. -1.
        994    1    1    2    0    0  0.11449753871E+02 -0.37520668954E+02  0.13585170248E+02  0.17616155742E+03  0.17120000000E+03 0.  0.
        998    1    1    2    0    0  0.30010023239E+01  0.39763213052E+02  0.14771598479E+04  0.14777318212E+04  0.10000000000E+02 0. -1.
</event>
<event>
 5    1  0.7732857E-009  0.3760360E+03  0.7957747E-01  0.3468602E+00
         13   -1    0    0    0    0  0.00000000000E+00  0.00000000000E+00  0.14999999963E+04  0.15000000000E+04  0.10566000000E+00 0.  1.
        994   -1    0    0    0    0 -0.00000000000E+00 -0.00000000000E+00  0.11368683772E-12  0.17120000000E+03  0.17120000000E+03 0.  0.
         13    1    1    2    0    0 -0.59007118068E+01 -0.10412312865E+02  0.89615910443E+01  0.14951787087E+02  0.10566000000E+00 0.  1.
        994    1    1    2    0    0  0.52502332078E+01  0.19374731819E+01  0.62537615648E+01  0.17140556667E+03  0.17120000000E+03 0.  0.
        998    1    1    2    0    0  0.65047859899E+00  0.84748396829E+01  0.14847846437E+04  0.14848426462E+04  0.10000000000E+02 0.  1.
</event>
<event>
 5    1  0.7732857E-009  0.3845224E+03  0.7957747E-01  0.3431700E+00
         13   -1    0    0    0    0  0.00000000000E+00  0.00000000000E+00  0.14999999963E+04  0.15000000000E+04  0.10566000000E+00 0. -1.
        994   -1    0    0    0    0 -0.00000000000E+00 -0.00000000000E+00  0.11368683772E-12  0.17120000000E+03  0.17120000000E+03 0.  0.
         13    1    1    2    0    0  0.35790146509E+01 -0.18545627550E+02  0.93439666185E+02  0.95329596809E+02  0.10566000000E+00 0. -1.
        994    1    1    2    0    0 -0.23951776404E+01  0.14634707749E+02  0.25920995634E+01  0.17186061366E+03  0.17120000000E+03 0.  0.
        998    1    1    2    0    0 -0.11838370105E+01  0.39109198008E+01  0.14039682305E+04  0.14040097895E+04  0.10000000000E+02 0. -1.
</event>
<event>
 5    1  0.7732857E-009  0.3817728E+03  0.7957747E-01  0.3443476E+00
         13   -1    0    0    0    0  0.00000000000E+00  0.00000000000E+00  0.14999999963E+04  0.15000000000E+04  0.10566000000E+00 0.  1.
        994   -1    0    0    0    0 -0.00000000000E+00 -0.00000000000E+00  0.11368683772E-12  0.17120000000E+03  0.17120000000E+03 0.  0.
         13    1    1    2    0    0 -0.19382916615E+02 -0.21160028699E+02  0.15197454406E+03  0.15466000607E+03  0.10566000000E+00 0.  1.
        994    1    1    2    0    0 -0.62857295194E+01 -0.56339240528E+01  0.34777707765E+01  0.17144324538E+03  0.17120000000E+03 0.  0.
        998    1    1    2    0    0  0.25668646134E+02  0.26793952752E+02  0.13445476814E+04  0.13450967486E+04  0.10000000000E+02 0.  1.
</event>
<event>
 5    1  0.7732857E-009  0.3785948E+03  0.7957747E-01  0.3457300E+00
         13   -1    0    0    0    0  0.00000000000E+00  0.00000000000E+00  0.14999999963E+04  0.15000000000E+04  0.10566000000E+00 0. -1.
        994   -1    0    0    0    0 -0.00000000000E+00 -0.00000000000E+00  0.11368683772E-12  0.17120000000E+03  0.17120000000E+03 0.  0.
         13    1    1    2    0    0 -0.10903271981E+02 -0.26336391084E+02  0.11243571935E+03  0.11599262470E+03  0.10566000000E+00 0. -1.
        994    1    1    2    0    0 -0.41235595672E+02 -0.27026046337E+02  0.13051755521E+02  0.17863529845E+03  0.17120000000E+03 0.  0.
        998    1    1    2    0    0  0.52138867653E+02  0.53362437421E+02  0.13745125214E+04  0.13765720768E+04  0.10000000000E+02 0. -1.
</event>
<event>
 5    1  0.7732857E-009  0.3756710E+03  0.7957747E-01  0.3470227E+00
         13   -1    0    0    0    0  0.00000000000E+00  0.00000000000E+00  0.14999999963E+04  0.15000000000E+04  0.10566000000E+00 0.  1.
        994   -1    0    0    0    0 -0.00000000000E+00 -0.00000000000E+00  0.11368683772E-12  0.17120000000E+03  0.17120000000E+03 0.  0.
         13    1    1    2    0    0  0.32204238652E+02  0.25915297458E+02  0.14521902916E+03  0.15098772541E+03  0.10566000000E+00 0.  1.
        994    1    1    2    0    0 -0.44897389382E+01 -0.60357354673E+01  0.65265288908E+01  0.17148942661E+03  0.17120000000E+03 0.  0.
        998    1    1    2    0    0 -0.27714499714E+02 -0.19879561990E+02  0.13482544382E+04  0.13487228480E+04  0.10000000000E+02 0.  1.
</event>
<event>
 5    1  0.7732857E-009  0.3730000E+03  0.7957747E-01  0.3482216E+00
         13   -1    0    0    0    0  0.00000000000E+00  0.00000000000E+00  0.14999999963E+04  0.15000000000E+04  0.10566000000E+00 0. -1.
        994   -1    0    0    0    0 -0.00000000000E+00 -0.00000000000E+00  0.11368683772E-12  0.17120000000E+03  0.17120000000E+03 0.  0.
         13    1    1    2    0    0  0.15573804593E+02  0.38272083407E+02  0.10679419780E+03  0.11450898482E+03  0.10566000000E+00 0. -1.
        994    1    1    2    0    0 -0.11246288822E+02 -0.25794896287E+02  0.10424123416E+02  0.17381012064E+03  0.17120000000E+03 0.  0.
        998    1    1    2    0    0 -0.43275157714E+01 -0.12477187120E+02  0.13827816751E+04  0.13828808945E+04  0.10000000000E+02 0. -1.
</event>
<event>
 5    1  0.7732857E-009  0.3911487E+03  0.7957747E-01  0.3404006E+00
         13   -1    0    0    0    0  0.00000000000E+00  0.00000000000E+00  0.14999999963E+04  0.15000000000E+04  0.10566000000E+00 0. -1.
        994   -1    0    0    0    0 -0.00000000000E+00 -0.00000000000E+00  0.11368683772E-12  0.17120000000E+03  0.17120000000E+03 0.  0.
         13    1    1    2    0    0  0.67197207430E+02  0.96396983526E+01  0.90603249458E+02  0.11321372906E+03  0.10566000000E+00 0. -1.
        994    1    1    2    0    0 -0.59088385707E+02 -0.29362637242E+02  0.39236261928E+02  0.18762336219E+03  0.17120000000E+03 0.  0.
        998    1    1    2    0    0 -0.81088217232E+01  0.19722938889E+02  0.13701604849E+04  0.13703629087E+04  0.10000000000E+02 0. -1.
</event>
<event>
 5    1  0.7732857E-009  0.3848139E+03  0.7957747E-01  0.3430462E+00
         13   -1    0    0    0    0  0.00000000000E+00  0.00000000000E+00  0.14999999963E+04  0.15000000000E+04  0.10566000000E+00 0. -1.
        994   -1    0    0    0    0 -0.00000000000E+00 -0.00000000000E+00  0.11368683772E-12  0.17120000000E+03  0.17120000000E+03 0.  0.
         13    1    1    2    0    0  0.84128853935E+01 -0.17291453446E+02  0.10812016814E+03  0.10981690637E+03  0.10566000000E+00 0. -1.
        994    1    1    2    0    0 -0.47779986055E+01  0.10107833056E+02  0.21339763050E+01  0.17157794560E+03  0.17120000000E+03 0.  0.
        998    1    1    2    0    0 -0.36348867880E+01  0.71836203901E+01  0.13897458518E+04  0.13898051480E+04  0.10000000000E+02 0. -1.
</event>
<event>
 5    1  0.7732857E-009  0.3834548E+03  0.7957747E-01  0.3436252E+00
         13   -1    0    0    0    0  0.00000000000E+00  0.00000000000E+00  0.14999999963E+04  0.15000000000E+04  0.10566000000E+00 0.  1.
        994   -1    0    0    0    0 -0.00000000000E+00 -0.00000000000E+00  0.11368683772E-12  0.17120000000E+03  0.17120000000E+03 0.  0.
         13    1    1    2    0    0 -0.14169160031E+02 -0.84733657488E+01  0.57245956575E+02  0.59579138390E+02  0.10566000000E+00 0.  1.
        994    1    1    2    0    0  0.62117639446E+01  0.32971753061E+01  0.25627254230E+01  0.17136354612E+03  0.17120000000E+03 0.  0.
        998    1    1    2    0    0  0.79573960867E+01  0.51761904428E+01  0.14401913143E+04  0.14402573155E+04  0.10000000000E+02 0.  1.
</event>
<event>
 5    1  0.7732857E-009  0.3813351E+03  0.7957747E-01  0.3445366E+00
         13   -1    0    0    0    0  0.00000000000E+00  0.00000000000E+00  0.14999999963E+04  0.15000000000E+04  0.10566000000E+00 0.  1.
        994   -1    0    0    0    0 -0.00000000000E+00 -0.00000000000E+00  0.11368683772E-12  0.17120000000E+03  0.17120000000E+03 0.  0.
         13    1    1    2    0    0 -0.22216988645E+02 -0.45549148198E+02  0.29051272409E+03  0.29489993813E+03  0.10566000000E+00 0.  1.
        994    1    1    2    0    0  0.20348879237E+02  0.50428346951E+02  0.13365882811E+02  0.18012546151E+03  0.17120000000E+03 0.  0.
        998    1    1    2    0    0  0.18681094079E+01 -0.48791987533E+01  0.11961213894E+04  0.11961746004E+04  0.10000000000E+02 0.  1.
</event>
<event>
 5    1  0.7732857E-009  0.3843978E+03  0.7957747E-01  0.3432230E+00
         13   -1    0    0    0    0  0.00000000000E+00  0.00000000000E+00  0.14999999963E+04  0.15000000000E+04  0.10566000000E+00 0. -1.
        994   -1    0    0    0    0 -0.00000000000E+00 -0.00000000000E+00  0.11368683772E-12  0.17120000000E+03  0.17120000000E+03 0.  0.
         13    1    1    2    0    0 -0.65241749645E+02 -0.10705646102E+02  0.99722564242E+02  0.11964822497E+03  0.10566000000E+00 0. -1.
        994    1    1    2    0    0  0.74980137723E+02  0.17867880620E+02  0.40990429156E+02  0.19217423733E+03  0.17120000000E+03 0.  0.
        998    1    1    2    0    0 -0.97383880782E+01 -0.71622345177E+01  0.13592870029E+04  0.13593775377E+04  0.10000000000E+02 0. -1.
</event>
<event>
 5    1  0.7732857E-009  0.3821570E+03  0.7957747E-01  0.3441820E+00
         13   -1    0    0    0    0  0.00000000000E+00  0.00000000000E+00  0.14999999963E+04  0.15000000000E+04  0.10566000000E+00 0. -1.
        994   -1    0    0    0    0 -0.00000000000E+00 -0.00000000000E+00  0.11368683772E-12  0.17120000000E+03  0.17120000000E+03 0.  0.
         13    1    1    2    0    0  0.29726917721E+02 -0.71707146938E+01  0.15012053349E+03  0.15320344163E+03  0.10566000000E+00 0. -1.
        994    1    1    2    0    0 -0.23254230717E+02 -0.89850065246E+01  0.51138400263E+01  0.17308113978E+03  0.17120000000E+03 0.  0.
        998    1    1    2    0    0 -0.64726870034E+01  0.16155721218E+02  0.13447656228E+04  0.13449154186E+04  0.10000000000E+02 0. -1.
</event>
<event>
 5    1  0.7732857E-009  0.3783251E+03  0.7957747E-01  0.3458484E+00
         13   -1    0    0    0    0  0.00000000000E+00  0.00000000000E+00  0.14999999963E+04  0.15000000000E+04  0.10566000000E+00 0.  1.
        994   -1    0    0    0    0 -0.00000000000E+00 -0.00000000000E+00  0.11368683772E-12  0.17120000000E+03  0.17120000000E+03 0.  0.
         13    1    1    2    0    0  0.48718046585E+02 -0.36239538984E+02  0.11275080922E+03  0.12806056533E+03  0.10566000000E+00 0.  1.
        994    1    1    2    0    0 -0.36088388016E+02  0.25685929099E+02  0.22510296468E+02  0.17826466882E+03  0.17120000000E+03 0.  0.
        998    1    1    2    0    0 -0.12629658570E+02  0.10553609885E+02  0.13647388906E+04  0.13648747658E+04  0.10000000000E+02 0.  1.
</event>
<event>
 5    1  0.7732857E-009  0.3832876E+03  0.7957747E-01  0.3436967E+00
         13   -1    0    0    0    0  0.00000000000E+00  0.00000000000E+00  0.14999999963E+04  0.15000000000E+04  0.10566000000E+00 0.  1.
        994   -1    0    0    0    0 -0.00000000000E+00 -0.00000000000E+00  0.11368683772E-12  0.17120000000E+03  0.17120000000E+03 0.  0.
         13    1    1    2    0    0  0.10626183020E+02  0.13128400764E+02  0.55589744573E+02  0.58099066584E+02  0.10566000000E+00 0.  1.
        994    1    1    2    0    0 -0.11042037523E+02 -0.10845207766E+02  0.32752635697E+01  0.17192938223E+03  0.17120000000E+03 0.  0.
        998    1    1    2    0    0  0.41585450314E+00 -0.22831929978E+01  0.14411349881E+04  0.14411715512E+04  0.10000000000E+02 0.  1.
</event>
<event>
 5    1  0.7732857E-009  0.3840014E+03  0.7957747E-01  0.3433919E+00
         13   -1    0    0    0    0  0.00000000000E+00  0.00000000000E+00  0.14999999963E+04  0.15000000000E+04  0.10566000000E+00 0. -1.
        994   -1    0    0    0    0 -0.00000000000E+00 -0.00000000000E+00  0.11368683772E-12  0.17120000000E+03  0.17120000000E+03 0.  0.
         13    1    1    2    0    0 -0.11138915355E+02 -0.13045144953E+01  0.27367745577E+02  0.29576711368E+02  0.10566000000E+00 0. -1.
        994    1    1    2    0    0  0.22515241738E+02  0.29197450333E+01  0.38292679207E+01  0.17274132197E+03  0.17120000000E+03 0.  0.
        998    1    1    2    0    0 -0.11376326384E+02 -0.16152305380E+01  0.14688029828E+04  0.14688819667E+04  0.10000000000E+02 0. -1.
</event>
<event>
 5    1  0.7732857E-009  0.3830466E+03  0.7957747E-01  0.3437999E+00
         13   -1    0    0    0    0  0.00000000000E+00  0.00000000000E+00  0.14999999963E+04  0.15000000000E+04  0.10566000000E+00 0.  1.
        994   -1    0    0    0    0 -0.00000000000E+00 -0.00000000000E+00  0.11368683772E-12  0.17120000000E+03  0.17120000000E+03 0.  0.
         13    1    1    2    0    0  0.68753438029E+01 -0.19541244717E+02  0.77021416435E+02  0.79758638097E+02  0.10566000000E+00 0.  1.
        994    1    1    2    0    0 -0.26593079091E+01  0.24341701025E+02  0.45900331771E+01  0.17300317550E+03  0.17120000000E+03 0.  0.
        998    1    1    2    0    0 -0.42160358939E+01 -0.48004563076E+01  0.14183885467E+04  0.14184381864E+04  0.10000000000E+02 0.  1.
</event>
<event>
 5    1  0.7732857E-009  0.4036880E+03  0.7957747E-01  0.3354085E+00
         13   -1    0    0    0    0  0.00000000000E+00  0.00000000000E+00  0.14999999963E+04  0.15000000000E+04  0.10566000000E+00 0.  1.
        994   -1    0    0    0    0 -0.00000000000E+00 -0.00000000000E+00  0.11368683772E-12  0.17120000000E+03  0.17120000000E+03 0.  0.
         13    1    1    2    0    0  0.16287763963E+02  0.44511926347E+01 -0.86195796412E+01  0.18958182614E+02  0.10566000000E+00 0.  1.
        994    1    1    2    0    0 -0.20647752907E+02 -0.13937877042E+02  0.32472733131E+02  0.17602418162E+03  0.17120000000E+03 0.  0.
        998    1    1    2    0    0  0.43599889435E+01  0.94866844074E+01  0.14761468428E+04  0.14762176358E+04  0.10000000000E+02 0.  1.
</event>
<event>
 5    1  0.7732857E-009  0.3838225E+03  0.7957747E-01  0.3434681E+00
         13   -1    0    0    0    0  0.00000000000E+00  0.00000000000E+00  0.14999999963E+04  0.15000000000E+04  0.10566000000E+00 0.  1.
        994   -1    0    0    0    0 -0.00000000000E+00 -0.00000000000E+00  0.11368683772E-12  0.17120000000E+03  0.17120000000E+03 0.  0.
         13    1    1    2    0    0  0.12794434305E+02 -0.92328366613E+01  0.59928050513E+02  0.61970357626E+02  0.10566000000E+00 0.  1.
        994    1    1    2    0    0 -0.15076115100E+01 -0.78890432723E+01  0.24288462057E+01  0.17140551097E+03  0.17120000000E+03 0.  0.
        998    1    1    2    0    0 -0.11286822795E+02  0.17121879934E+02  0.14376430996E+04  0.14378241314E+04  0.10000000000E+02 0.  1.
</event>
<event>
 5    1  0.7732857E-009  0.3815072E+03  0.7957747E-01  0.3444622E+00
         13   -1    0    0    0    0  0.00000000000E+00  0.00000000000E+00  0.14999999963E+04  0.15000000000E+04  0.10566000000E+00 0.  1.
        994   -1    0    0    0    0 -0.00000000000E+00 -0.00000000000E+00  0.11368683772E-12  0.17120000000E+03  0.17120000000E+03 0.  0.
         13    1    1    2    0    0  0.15651514900E+00 -0.13232254275E+02  0.24398700615E+02  0.27756527267E+02  0.10566000000E+00 0.  1.
        994    1    1    2    0    0 -0.17614824921E+02  0.11999809287E+02  0.48867909393E+01  0.17259084045E+03  0.17120000000E+03 0.  0.
        998    1    1    2    0    0  0.17458309772E+02  0.12324449881E+01  0.14707145047E+04  0.14708526323E+04  0.10000000000E+02 0.  1.
</event>
<event>
 5    1  0.7732857E-009  0.3712566E+03  0.7957747E-01  0.3490135E+00
         13   -1    0    0    0    0  0.00000000000E+00  0.00000000000E+00  0.14999999963E+04  0.15000000000E+04  0.10566000000E+00 0. -1.
        994   -1    0    0    0    0 -0.00000000000E+00 -0.00000000000E+00  0.11368683772E-12  0.17120000000E+03  0.17120000000E+03 0.  0.
         13    1    1    2    0    0  0.21269362062E+02  0.66022324008E+02  0.28310038138E+03  0.29147413287E+03  0.10566000000E+00 0. -1.
        994    1    1    2    0    0 -0.41548226075E+02 -0.26092651583E+02  0.16946604286E+02  0.17889580474E+03  0.17120000000E+03 0.  0.
        998    1    1    2    0    0  0.20278864012E+02 -0.39929672425E+02  0.11999530106E+04  0.12008300624E+04  0.10000000000E+02 0. -1.
</event>
<event>
 5    1  0.7732857E-009  0.4015920E+03  0.7957747E-01  0.3362214E+00
         13   -1    0    0    0    0  0.00000000000E+00  0.00000000000E+00  0.14999999963E+04  0.15000000000E+04  0.10566000000E+00 0.  1.
        994   -1    0    0    0    0 -0.00000000000E+00 -0.00000000000E+00  0.11368683772E-12  0.17120000000E+03  0.17120000000E+03 0.  0.
         13    1    1    2    0    0 -0.48908278143E+02 -0.50373909364E+02  0.74228694710E+02  0.10217367909E+03  0.10566000000E+00 0.  1.
        994    1    1    2    0    0  0.43381028123E+02  0.46633708737E+02  0.44898067947E+02  0.18810075198E+03  0.17120000000E+03 0.  0.
        998    1    1    2    0    0  0.55272500206E+01  0.37402006264E+01  0.13808732336E+04  0.13809255689E+04  0.10000000000E+02 0.  1.
</event>
<event>
 5    1  0.7732857E-009  0.3777376E+03  0.7957747E-01  0.3461069E+00
         13   -1    0    0    0    0  0.00000000000E+00  0.00000000000E+00  0.14999999963E+04  0.15000000000E+04  0.10566000000E+00 0. -1.
        994   -1    0    0    0    0 -0.00000000000E+00 -0.00000000000E+00  0.11368683772E-12  0.17120000000E+03  0.17120000000E+03 0.  0.
         13    1    1    2    0    0  0.93995566844E+02  0.10614063581E+03  0.81844167653E+03  0.83063095909E+03  0.10566000000E+00 0. -1.
        994    1    1    2    0    0 -0.92092720984E+02 -0.10536873314E+03  0.74362013141E+02  0.23328692244E+03  0.17120000000E+03 0.  0.
        998    1    1    2    0    0 -0.19028458596E+01 -0.77190266514E+00  0.60719630661E+03  0.60728211847E+03  0.10000000000E+02 0.  0.
</event>
<event>
 5    1  0.7732857E-009  0.3774723E+03  0.7957747E-01  0.3462239E+00
         13   -1    0    0    0    0  0.00000000000E+00  0.00000000000E+00  0.14999999963E+04  0.15000000000E+04  0.10566000000E+00 0. -1.
        994   -1    0    0    0    0 -0.00000000000E+00 -0.00000000000E+00  0.11368683772E-12  0.17120000000E+03  0.17120000000E+03 0.  0.
         13    1    1    2    0    0 -0.20038900811E+02 -0.10884071071E+02  0.56779547260E+02  0.61187814962E+02  0.10566000000E+00 0. -1.
        994    1    1    2    0    0 -0.63635064525E+02  0.26747314171E+02  0.21649558677E+02  0.18585742827E+03  0.17120000000E+03 0.  0.
        998    1    1    2    0    0  0.83673965335E+02 -0.15863243100E+02  0.14215708903E+04  0.14241547568E+04  0.10000000000E+02 0. -1.
</event>
<event>
 5    1  0.7732857E-009  0.3751875E+03  0.7957747E-01  0.3472385E+00
         13   -1    0    0    0    0  0.00000000000E+00  0.00000000000E+00  0.14999999963E+04  0.15000000000E+04  0.10566000000E+00 0.  1.
        994   -1    0    0    0    0 -0.00000000000E+00 -0.00000000000E+00  0.11368683772E-12  0.17120000000E+03  0.17120000000E+03 0.  0.
         13    1    1    2    0    0 -0.22810759220E+02  0.45676582550E+01  0.40891654060E+02  0.47046070760E+02  0.10566000000E+00 0.  1.
        994    1    1    2    0    0 -0.14731034178E+01  0.18721377667E+02  0.77814012667E+01  0.17240258183E+03  0.17120000000E+03 0.  0.
        998    1    1    2    0    0  0.24283862638E+02 -0.23289035922E+02  0.14513269410E+04  0.14517513474E+04  0.10000000000E+02 0.  1.
</event>
<event>
 5    1  0.7732857E-009  0.3735845E+03  0.7957747E-01  0.3479578E+00
         13   -1    0    0    0    0  0.00000000000E+00  0.00000000000E+00  0.14999999963E+04  0.15000000000E+04  0.10566000000E+00 0.  1.
        994   -1    0    0    0    0 -0.00000000000E+00 -0.00000000000E+00  0.11368683772E-12  0.17120000000E+03  0.17120000000E+03 0.  0.
         13    1    1    2    0    0  0.13824209247E+01 -0.16673970778E+02  0.15329085773E+02  0.22691946232E+02  0.10566000000E+00 0.  1.
        994    1    1    2    0    0 -0.60876659283E+00  0.21121878579E+02  0.89339530367E+01  0.17273030964E+03  0.17120000000E+03 0.  0.
        998    1    1    2    0    0 -0.77365433183E+00 -0.44479078009E+01  0.14757369575E+04  0.14757777441E+04  0.10000000000E+02 0.  1.
</event>
<event>
 5    1  0.7732857E-009  0.3792684E+03  0.7957747E-01  0.3454350E+00
         13   -1    0    0    0    0  0.00000000000E+00  0.00000000000E+00  0.14999999963E+04  0.15000000000E+04  0.10566000000E+00 0. -1.
        994   -1    0    0    0    0 -0.00000000000E+00 -0.00000000000E+00  0.11368683772E-12  0.17120000000E+03  0.17120000000E+03 0.  0.
         13    1    1    2    0    0 -0.15398393942E+02 -0.38390066033E+02  0.23060512209E+03  0.23428538411E+03  0.10566000000E+00 0. -1.
        994    1    1    2    0    0  0.74260509176E+01 -0.44224999218E+01  0.47532865802E+01  0.17148393065E+03  0.17120000000E+03 0.  0.
        998    1    1    2    0    0  0.79723430249E+01  0.42812565955E+02  0.12646415876E+04  0.12654306852E+04  0.10000000000E+02 0. -1.
</event>
<event>
 5    1  0.7732857E-009  0.3850201E+03  0.7957747E-01  0.3429587E+00
         13   -1    0    0    0    0  0.00000000000E+00  0.00000000000E+00  0.14999999963E+04  0.15000000000E+04  0.10566000000E+00 0. -1.
        994   -1    0    0    0    0 -0.00000000000E+00 -0.00000000000E+00  0.11368683772E-12  0.17120000000E+03  0.17120000000E+03 0.  0.
         13    1    1    2    0    0 -0.53356262500E+02 -0.96726495176E+02  0.26426621909E+03  0.28642547257E+03  0.10566000000E+00 0. -1.
        994    1    1    2    0    0  0.49456293790E+02  0.90946429481E+02  0.59848965561E+02  0.20882652300E+03  0.17120000000E+03 0.  0.
        998    1    1    2    0    0  0.38999687100E+01  0.57800656946E+01  0.11758848116E+04  0.11759480044E+04  0.10000000000E+02 0.  0.
</event>
<event>
 5    1  0.7732857E-009  0.3814401E+03  0.7957747E-01  0.3444912E+00
         13   -1    0    0    0    0  0.00000000000E+00  0.00000000000E+00  0.14999999963E+04  0.15000000000E+04  0.10566000000E+00 0.  1.
        994   -1    0    0    0    0 -0.00000000000E+00 -0.00000000000E+00  0.11368683772E-12  0.17120000000E+03  0.17120000000E+03 0.  0.
         13    1    1    2    0    0 -0.44854013884E+01 -0.15590174199E+02  0.36688496204E+02  0.40115200049E+02  0.10566000000E+00 0.  1.
        994    1    1    2    0    0  0.46472094594E+01  0.15278441131E+02  0.42569077530E+01  0.17199589699E+03  0.17120000000E+03 0.  0.
        998    1    1    2    0    0 -0.16180807099E+00  0.31173306847E+00  0.14590545923E+04  0.14590889030E+04  0.10000000000E+02 0.  0.
</event>
<event>
 5    1  0.7732857E-009  0.3690329E+03  0.7957747E-01  0.3500347E+00
         13   -1    0    0    0    0  0.00000000000E+00  0.00000000000E+00  0.14999999963E+04  0.15000000000E+04  0.10566000000E+00 0. -1.
        994   -1    0    0    0    0 -0.00000000000E+00 -0.00000000000E+00  0.11368683772E-12  0.17120000000E+03  0.17120000000E+03 0.  0.
         13    1    1    2    0    0 -0.36308046871E+02 -0.19907461235E+03  0.70560569424E+03  0.73404930519E+03  0.10566000000E+00 0. -1.
        994    1    1    2    0    0  0.38395948575E+02  0.20989642282E+03  0.19117658881E+03  0.33374943489E+03  0.17120000000E+03 0.  0.
        998    1    1    2    0    0 -0.20879017039E+01 -0.10821810468E+02  0.60321771323E+03  0.60340125992E+03  0.10000000000E+02 0. -1.
</event>
<event>
 5    1  0.7732857E-009  0.3773232E+03  0.7957747E-01  0.3462897E+00
         13   -1    0    0    0    0  0.00000000000E+00  0.00000000000E+00  0.14999999963E+04  0.15000000000E+04  0.10566000000E+00 0. -1.
        994   -1    0    0    0    0 -0.00000000000E+00 -0.00000000000E+00  0.11368683772E-12  0.17120000000E+03  0.17120000000E+03 0.  0.
         13    1    1    2    0    0  0.20250204497E+02 -0.18748067556E+02  0.80873579924E+02  0.85452372191E+02  0.10566000000E+00 0. -1.
        994    1    1    2    0    0  0.25827288445E+02 -0.10665229863E+02  0.81284391168E+01  0.17365571536E+03  0.17120000000E+03 0.  0.
        998    1    1    2    0    0 -0.46077492942E+02  0.29413297419E+02  0.14109979772E+04  0.14120919124E+04  0.10000000000E+02 0. -1.
</event>
<event>
 5    1  0.7732857E-009  0.3729233E+03  0.7957747E-01  0.3482563E+00
         13   -1    0    0    0    0  0.00000000000E+00  0.00000000000E+00  0.14999999963E+04  0.15000000000E+04  0.10566000000E+00 0. -1.
        994   -1    0    0    0    0 -0.00000000000E+00 -0.00000000000E+00  0.11368683772E-12  0.17120000000E+03  0.17120000000E+03 0.  0.
         13    1    1    2    0    0 -0.39890743200E+02 -0.42812010319E+02  0.25487969080E+03  0.26151062610E+03  0.10566000000E+00 0. -1.
        994    1    1    2    0    0  0.19371731053E+02 -0.35271936013E+01  0.90773576087E+01  0.17256750412E+03  0.17120000000E+03 0.  0.
        998    1    1    2    0    0  0.20519012146E+02  0.46339203920E+02  0.12360429479E+04  0.12371218698E+04  0.10000000000E+02 0. -1.
</event>
<event>
 5    1  0.7732857E-009  0.3825817E+03  0.7957747E-01  0.3439994E+00
         13   -1    0    0    0    0  0.00000000000E+00  0.00000000000E+00  0.14999999963E+04  0.15000000000E+04  0.10566000000E+00 0. -1.
        994   -1    0    0    0    0 -0.00000000000E+00 -0.00000000000E+00  0.11368683772E-12  0.17120000000E+03  0.17120000000E+03 0.  0.
         13    1    1    2    0    0  0.20041726623E+02 -0.48686924972E+01  0.86305980355E+02  0.88736172905E+02  0.10566000000E+00 0. -1.
        994    1    1    2    0    0  0.13658777518E+02  0.34770863543E+00  0.34545852379E+01  0.17177909437E+03  0.17120000000E+03 0.  0.
        998    1    1    2    0    0 -0.33700504141E+02  0.45209838618E+01  0.14102394307E+04  0.14106847327E+04  0.10000000000E+02 0. -1.
</event>
<event>
 5    1  0.7732857E-009  0.3854414E+03  0.7957747E-01  0.3427802E+00
         13   -1    0    0    0    0  0.00000000000E+00  0.00000000000E+00  0.14999999963E+04  0.15000000000E+04  0.10566000000E+00 0.  1.
        994   -1    0    0    0    0 -0.00000000000E+00 -0.00000000000E+00  0.11368683772E-12  0.17120000000E+03  0.17120000000E+03 0.  0.
         13    1    1    2    0    0 -0.11326741115E+02 -0.20609548469E+01  0.46652361779E+02  0.48052019965E+02  0.10566000000E+00 0.  1.
        994    1    1    2    0    0  0.74482482387E+01  0.12695005473E+02  0.21229074712E+01  0.17184465747E+03  0.17120000000E+03 0.  0.
        998    1    1    2    0    0  0.38784928767E+01 -0.10634050627E+02  0.14512247270E+04  0.14513033226E+04  0.10000000000E+02 0.  1.
</event>
<event>
 5    1  0.7732857E-009  0.3825035E+03  0.7957747E-01  0.3440330E+00
         13   -1    0    0    0    0  0.00000000000E+00  0.00000000000E+00  0.14999999963E+04  0.15000000000E+04  0.10566000000E+00 0.  1.
        994   -1    0    0    0    0 -0.00000000000E+00 -0.00000000000E+00  0.11368683772E-12  0.17120000000E+03  0.17120000000E+03 0.  0.
         13    1    1    2    0    0 -0.27680741400E+02 -0.14315552973E+01  0.13287696295E+03  0.13573714025E+03  0.10566000000E+00 0.  1.
        994    1    1    2    0    0  0.16053890279E+02  0.12739016457E+02  0.42684873588E+01  0.17247512840E+03  0.17120000000E+03 0.  0.
        998    1    1    2    0    0  0.11626851121E+02 -0.11307461160E+02  0.13628545460E+04  0.13629877313E+04  0.10000000000E+02 0.  1.
</event>
<event>
 5    1  0.7732857E-009  0.3799009E+03  0.7957747E-01  0.3451590E+00
         13   -1    0    0    0    0  0.00000000000E+00  0.00000000000E+00  0.14999999963E+04  0.15000000000E+04  0.10566000000E+00 0.  1.
        994   -1    0    0    0    0 -0.00000000000E+00 -0.00000000000E+00  0.11368683772E-12  0.17120000000E+03  0.17120000000E+03 0.  0.
         13    1    1    2    0    0 -0.68327509023E+02 -0.29973193924E+02  0.43940813909E+03  0.44569784014E+03  0.10566000000E+00 0.  1.
        994    1    1    2    0    0  0.76257906129E+02  0.25461904294E+02  0.26109453817E+02  0.19093119283E+03  0.17120000000E+03 0.  0.
        998    1    1    2    0    0 -0.79303971058E+01  0.45112896298E+01  0.10344824034E+04  0.10345709670E+04  0.10000000000E+02 0.  1.
</event>
<event>
 5    1  0.7732857E-009  0.3754169E+03  0.7957747E-01  0.3471360E+00
         13   -1    0    0    0    0  0.00000000000E+00  0.00000000000E+00  0.14999999963E+04  0.15000000000E+04  0.10566000000E+00 0.  1.
        994   -1    0    0    0    0 -0.00000000000E+00 -0.00000000000E+00  0.11368683772E-12  0.17120000000E+03  0.17120000000E+03 0.  0.
         13    1    1    2    0    0  0.17681797648E+03 -0.11636719037E+03  0.12434197988E+04  0.12613083394E+04  0.10566000000E+00 0.  1.
        994    1    1    2    0    0 -0.16877535386E+03  0.10783383982E+03  0.15199990314E+03  0.30418196468E+03  0.17120000000E+03 0.  0.
        998    1    1    2    0    0 -0.80426226151E+01  0.85333505476E+01  0.10458029435E+03  0.10570969595E+03  0.10000000000E+02 0.  0.
</event>
<event>
 5    1  0.7732857E-009  0.3806068E+03  0.7957747E-01  0.3448521E+00
         13   -1    0    0    0    0  0.00000000000E+00  0.00000000000E+00  0.14999999963E+04  0.15000000000E+04  0.10566000000E+00 0.  1.
        994   -1    0    0    0    0 -0.00000000000E+00 -0.00000000000E+00  0.11368683772E-12  0.17120000000E+03  0.17120000000E+03 0.  0.
         13    1    1    2    0    0 -0.11686298542E+02  0.22523460669E+02  0.81761503505E+02  0.85608588784E+02  0.10566000000E+00 0.  1.
        994    1    1    2    0    0 -0.53370842722E+01 -0.23647389496E+02  0.57902788480E+01  0.17300477111E+03  0.17120000000E+03 0.  0.
        998    1    1    2    0    0  0.17023382814E+02  0.11239288274E+01  0.14124482139E+04  0.14125866401E+04  0.10000000000E+02 0.  1.
</event>
<event>
 5    1  0.7732857E-009  0.3803442E+03  0.7957747E-01  0.3449661E+00
         13   -1    0    0    0    0  0.00000000000E+00  0.00000000000E+00  0.14999999963E+04  0.15000000000E+04  0.10566000000E+00 0.  1.
        994   -1    0    0    0    0 -0.00000000000E+00 -0.00000000000E+00  0.11368683772E-12  0.17120000000E+03  0.17120000000E+03 0.  0.
         13    1    1    2    0    0  0.13490328658E+02  0.27385925420E+02  0.12315777594E+03  0.12688509297E+03  0.10566000000E+00 0.  1.
        994    1    1    2    0    0 -0.12891640689E+02 -0.33448679236E+01  0.45520432592E+01  0.17177759935E+03  0.17120000000E+03 0.  0.
        998    1    1    2    0    0 -0.59868796905E+00 -0.24041057496E+02  0.13722901771E+04  0.13725373077E+04  0.10000000000E+02 0.  1.
</event>
<event>
 5    1  0.7732857E-009  0.3751086E+03  0.7957747E-01  0.3472737E+00
         13   -1    0    0    0    0  0.00000000000E+00  0.00000000000E+00  0.14999999963E+04  0.15000000000E+04  0.10566000000E+00 0. -1.
        994   -1    0    0    0    0 -0.00000000000E+00 -0.00000000000E+00  0.11368683772E-12  0.17120000000E+03  0.17120000000E+03 0.  0.
         13    1    1    2    0    0  0.19041031515E+02  0.22709065365E+02  0.61832749511E+02  0.68567941540E+02  0.10566000000E+00 0. -1.
        994    1    1    2    0    0 -0.21668732068E+02 -0.18551538631E+02  0.93927962334E+01  0.17381414832E+03  0.17120000000E+03 0.  0.
        998    1    1    2    0    0  0.26277005534E+01 -0.41575267341E+01  0.14287744505E+04  0.14288179101E+04  0.10000000000E+02 0. -1.
</event>
<event>
 5    1  0.7732857E-009  0.3740292E+03  0.7957747E-01  0.3477576E+00
         13   -1    0    0    0    0  0.00000000000E+00  0.00000000000E+00  0.14999999963E+04  0.15000000000E+04  0.10566000000E+00 0. -1.
        994   -1    0    0    0    0 -0.00000000000E+00 -0.00000000000E+00  0.11368683772E-12  0.17120000000E+03  0.17120000000E+03 0.  0.
         13    1    1    2    0    0  0.13760973317E+02  0.84330794995E+02  0.27633667946E+03  0.28924560316E+03  0.10566000000E+00 0. -1.
        994    1    1    2    0    0  0.23659280053E+02 -0.54910801936E+02  0.25873089630E+02  0.18317700311E+03  0.17120000000E+03 0.  0.
        998    1    1    2    0    0 -0.37420253370E+02 -0.29419993059E+02  0.11977902272E+04  0.11987773937E+04  0.10000000000E+02 0. -1.
</event>
<event>
 5    1  0.7732857E-009  0.3736082E+03  0.7957747E-01  0.3479471E+00
         13   -1    0    0    0    0  0.00000000000E+00  0.00000000000E+00  0.14999999963E+04  0.15000000000E+04  0.10566000000E+00 0. -1.
        994   -1    0    0    0    0 -0.00000000000E+00 -0.00000000000E+00  0.11368683772E-12  0.17120000000E+03  0.17120000000E+03 0.  0.
         13    1    1    2    0    0  0.18510211312E+02 -0.13479481268E+02  0.32127845523E+02  0.39452933478E+02  0.10566000000E+00 0. -1.
        994    1    1    2    0    0 -0.17618339162E+02  0.83508952229E+01  0.86945106283E+01  0.17252587586E+03  0.17120000000E+03 0.  0.
        998    1    1    2    0    0 -0.89187214940E+00  0.51285860455E+01  0.14591776401E+04  0.14592211907E+04  0.10000000000E+02 0. -1.
</event>
<event>
 5    1  0.7732857E-009  0.3807157E+03  0.7957747E-01  0.3448048E+00
         13   -1    0    0    0    0  0.00000000000E+00  0.00000000000E+00  0.14999999963E+04  0.15000000000E+04  0.10566000000E+00 0.  1.
        994   -1    0    0    0    0 -0.00000000000E+00 -0.00000000000E+00  0.11368683772E-12  0.17120000000E+03  0.17120000000E+03 0.  0.
         13    1    1    2    0    0  0.36545945789E+02 -0.20644920498E+02  0.22555758431E+03  0.22942984527E+03  0.10566000000E+00 0.  1.
        994    1    1    2    0    0 -0.23995164383E+02  0.13752974834E+02  0.63274975629E+01  0.17353498050E+03  0.17120000000E+03 0.  0.
        998    1    1    2    0    0 -0.12550781405E+02  0.68919456648E+01  0.12681149144E+04  0.12682351742E+04  0.10000000000E+02 0.  1.
</event>
<event>
 5    1  0.7732857E-009  0.3849474E+03  0.7957747E-01  0.3429895E+00
         13   -1    0    0    0    0  0.00000000000E+00  0.00000000000E+00  0.14999999963E+04  0.15000000000E+04  0.10566000000E+00 0. -1.
        994   -1    0    0    0    0 -0.00000000000E+00 -0.00000000000E+00  0.11368683772E-12  0.17120000000E+03  0.17120000000E+03 0.  0.
         13    1    1    2    0    0 -0.16547954372E+02  0.67443768409E+00  0.87669978435E+02  0.89220658723E+02  0.10566000000E+00 0. -1.
        994    1    1    2    0    0  0.27441885818E+01 -0.10390488800E+02  0.20362040499E+01  0.17154905699E+03  0.17120000000E+03 0.  0.
        998    1    1    2    0    0  0.13803765791E+02  0.97160511161E+01  0.14102938138E+04  0.14104302843E+04  0.10000000000E+02 0. -1.
</event>
<event>
 5    1  0.7732857E-009  0.3807995E+03  0.7957747E-01  0.3447684E+00
         13   -1    0    0    0    0  0.00000000000E+00  0.00000000000E+00  0.14999999963E+04  0.15000000000E+04  0.10566000000E+00 0. -1.
        994   -1    0    0    0    0 -0.00000000000E+00 -0.00000000000E+00  0.11368683772E-12  0.17120000000E+03  0.17120000000E+03 0.  0.
         13    1    1    2    0    0  0.32966672470E+02 -0.21591425972E+01  0.12902056434E+03  0.13318325937E+03  0.10566000000E+00 0. -1.
        994    1    1    2    0    0 -0.39596677782E+02 -0.55637810102E+01  0.90792671984E+01  0.17604182924E+03  0.17120000000E+03 0.  0.
        998    1    1    2    0    0  0.66300053126E+01  0.77229236074E+01  0.13619001647E+04  0.13619749114E+04  0.10000000000E+02 0. -1.
</event>
<event>
 5    1  0.7732857E-009  0.3881160E+03  0.7957747E-01  0.3416563E+00
         13   -1    0    0    0    0  0.00000000000E+00  0.00000000000E+00  0.14999999963E+04  0.15000000000E+04  0.10566000000E+00 0. -1.
        994   -1    0    0    0    0 -0.00000000000E+00 -0.00000000000E+00  0.11368683772E-12  0.17120000000E+03  0.17120000000E+03 0.  0.
         13    1    1    2    0    0  0.40169733067E+02  0.23315939648E+02  0.42083476460E+02  0.62675917635E+02  0.10566000000E+00 0. -1.
        994    1    1    2    0    0 -0.44924777936E+02 -0.26365516017E+02  0.31064081096E+02  0.18162542014E+03  0.17120000000E+03 0.  0.
        998    1    1    2    0    0  0.47550448693E+01  0.30495763687E+01  0.14268524387E+04  0.14268986622E+04  0.10000000000E+02 0. -1.
</event>
<event>
 5    1  0.7732857E-009  0.3752431E+03  0.7957747E-01  0.3472136E+00
         13   -1    0    0    0    0  0.00000000000E+00  0.00000000000E+00  0.14999999963E+04  0.15000000000E+04  0.10566000000E+00 0.  1.
        994   -1    0    0    0    0 -0.00000000000E+00 -0.00000000000E+00  0.11368683772E-12  0.17120000000E+03  0.17120000000E+03 0.  0.
         13    1    1    2    0    0  0.14334866560E+02 -0.10406637373E+02  0.20523821048E+02  0.27111342556E+02  0.10566000000E+00 0.  1.
        994    1    1    2    0    0 -0.20015763175E+02  0.14061235029E+02  0.85888543669E+01  0.17315183373E+03  0.17120000000E+03 0.  0.
        998    1    1    2    0    0  0.56808966149E+01 -0.36545976557E+01  0.14708873209E+04  0.14709368237E+04  0.10000000000E+02 0.  1.
</event>
<event>
 5    1  0.7732857E-009  0.3845617E+03  0.7957747E-01  0.3431533E+00
         13   -1    0    0    0    0  0.00000000000E+00  0.00000000000E+00  0.14999999963E+04  0.15000000000E+04  0.10566000000E+00 0.  1.
        994   -1    0    0    0    0 -0.00000000000E+00 -0.00000000000E+00  0.11368683772E-12  0.17120000000E+03  0.17120000000E+03 0.  0.
         13    1    1    2    0    0 -0.12995750849E+02 -0.16042737657E+02  0.11554980149E+03  0.11737983967E+03  0.10566000000E+00 0.  1.
        994    1    1    2    0    0  0.16484754993E+02  0.29559150758E+01  0.27721586712E+01  0.17203955779E+03  0.17120000000E+03 0.  0.
        998    1    1    2    0    0 -0.34890041443E+01  0.13086822581E+02  0.13816780361E+04  0.13817806025E+04  0.10000000000E+02 0.  1.
</event>
<event>
 5    1  0.7732857E-009  0.3832699E+03  0.7957747E-01  0.3437043E+00
         13   -1    0    0    0    0  0.00000000000E+00  0.00000000000E+00  0.14999999963E+04  0.15000000000E+04  0.10566000000E+00 0. -1.
        994   -1    0    0    0    0 -0.00000000000E+00 -0.00000000000E+00  0.11368683772E-12  0.17120000000E+03  0.17120000000E+03 0.  0.
         13    1    1    2    0    0  0.75347738394E+01  0.92617339577E+01  0.26528921306E+02  0.29092049815E+02  0.10566000000E+00 0. -1.
        994    1    1    2    0    0 -0.96525744752E+01 -0.19561416379E+02  0.40667515773E+01  0.17263197755E+03  0.17120000000E+03 0.  0.
        998    1    1    2    0    0  0.21178006359E+01  0.10299682421E+02  0.14694043234E+04  0.14694759726E+04  0.10000000000E+02 0. -1.
</event>
<event>
 5    1  0.7732857E-009  0.3857858E+03  0.7957747E-01  0.3426346E+00
         13   -1    0    0    0    0  0.00000000000E+00  0.00000000000E+00  0.14999999963E+04  0.15000000000E+04  0.10566000000E+00 0. -1.
        994   -1    0    0    0    0 -0.00000000000E+00 -0.00000000000E+00  0.11368683772E-12  0.17120000000E+03  0.17120000000E+03 0.  0.
         13    1    1    2    0    0  0.10014184102E+02  0.10545645322E+02  0.85023684405E+02  0.86258521853E+02  0.10566000000E+00 0. -1.
        994    1    1    2    0    0 -0.52444334008E+01 -0.99295631549E+01  0.16542568869E+01  0.17157586331E+03  0.17120000000E+03 0.  0.
        998    1    1    2    0    0 -0.47697507016E+01 -0.61608216664E+00  0.14133220550E+04  0.14133656148E+04  0.10000000000E+02 0. -1.
</event>
<event>
 5    1  0.7732857E-009  0.3862363E+03  0.7957747E-01  0.3424446E+00
         13   -1    0    0    0    0  0.00000000000E+00  0.00000000000E+00  0.14999999963E+04  0.15000000000E+04  0.10566000000E+00 0.  1.
        994   -1    0    0    0    0 -0.00000000000E+00 -0.00000000000E+00  0.11368683772E-12  0.17120000000E+03  0.17120000000E+03 0.  0.
         13    1    1    2    0    0  0.11681558166E+02  0.23099712354E+01  0.70995832247E+02  0.71987597049E+02  0.10566000000E+00 0.  1.
        994    1    1    2    0    0 -0.40189994124E+01 -0.22788874923E+02  0.27735143350E+01  0.17277910047E+03  0.17120000000E+03 0.  0.
        998    1    1    2    0    0 -0.76625587532E+01  0.20478903687E+02  0.14262306497E+04  0.14264333025E+04  0.10000000000E+02 0.  1.
</event>
<event>
 5    1  0.7732857E-009  0.3703156E+03  0.7957747E-01  0.3494442E+00
         13   -1    0    0    0    0  0.00000000000E+00  0.00000000000E+00  0.14999999963E+04  0.15000000000E+04  0.10566000000E+00 0. -1.
        994   -1    0    0    0    0 -0.00000000000E+00 -0.00000000000E+00  0.11368683772E-12  0.17120000000E+03  0.17120000000E+03 0.  0.
         13    1    1    2    0    0  0.64269542776E+02  0.24144521148E+02  0.23592301506E+03  0.24570960956E+03  0.10566000000E+00 0. -1.
        994    1    1    2    0    0 -0.20470638325E+02  0.36492961300E+01  0.12620416857E+02  0.17291928556E+03  0.17120000000E+03 0.  0.
        998    1    1    2    0    0 -0.43798904452E+02 -0.27793817278E+02  0.12514565644E+04  0.12525711049E+04  0.10000000000E+02 0. -1.
</event>
<event>
 5    1  0.7732857E-009  0.3838853E+03  0.7957747E-01  0.3434413E+00
         13   -1    0    0    0    0  0.00000000000E+00  0.00000000000E+00  0.14999999963E+04  0.15000000000E+04  0.10566000000E+00 0.  1.
        994   -1    0    0    0    0 -0.00000000000E+00 -0.00000000000E+00  0.11368683772E-12  0.17120000000E+03  0.17120000000E+03 0.  0.
         13    1    1    2    0    0  0.66743689423E+01 -0.13398498824E+02  0.49873436508E+02  0.52071468240E+02  0.10566000000E+00 0.  1.
        994    1    1    2    0    0 -0.19029038107E+01  0.14267040806E+02  0.28686346200E+01  0.17182793301E+03  0.17120000000E+03 0.  0.
        998    1    1    2    0    0 -0.47714651315E+01 -0.86854198200E+00  0.14472579252E+04  0.14473005988E+04  0.10000000000E+02 0.  1.
</event>
<event>
 5    1  0.7732857E-009  0.3780907E+03  0.7957747E-01  0.3459514E+00
         13   -1    0    0    0    0  0.00000000000E+00  0.00000000000E+00  0.14999999963E+04  0.15000000000E+04  0.10566000000E+00 0.  1.
        994   -1    0    0    0    0 -0.00000000000E+00 -0.00000000000E+00  0.11368683772E-12  0.17120000000E+03  0.17120000000E+03 0.  0.
         13    1    1    2    0    0 -0.68379935529E+00  0.21632127121E+02  0.49583147771E+02  0.54100981620E+02  0.10566000000E+00 0.  1.
        994    1    1    2    0    0  0.10273724349E+02  0.20931471391E+02  0.69311984807E+01  0.17291951139E+03  0.17120000000E+03 0.  0.
        998    1    1    2    0    0 -0.95899249933E+01 -0.42563598512E+02  0.14434856500E+04  0.14441795070E+04  0.10000000000E+02 0.  1.
</event>
<event>
 5    1  0.7732857E-009  0.3839944E+03  0.7957747E-01  0.3433948E+00
         13   -1    0    0    0    0  0.00000000000E+00  0.00000000000E+00  0.14999999963E+04  0.15000000000E+04  0.10566000000E+00 0. -1.
        994   -1    0    0    0    0 -0.00000000000E+00 -0.00000000000E+00  0.11368683772E-12  0.17120000000E+03  0.17120000000E+03 0.  0.
         13    1    1    2    0    0  0.14538140703E+01 -0.13015188586E+02  0.44526529397E+02  0.46412624289E+02  0.10566000000E+00 0. -1.
        994    1    1    2    0    0 -0.16050245962E+02 -0.16753696573E+02  0.39082949470E+01  0.17280917659E+03  0.17120000000E+03 0.  0.
        998    1    1    2    0    0  0.14596431892E+02  0.29768885159E+02  0.14515651719E+04  0.14519781991E+04  0.10000000000E+02 0. -1.
</event>
<event>
 5    1  0.7732857E-009  0.3770274E+03  0.7957747E-01  0.3464205E+00
         13   -1    0    0    0    0  0.00000000000E+00  0.00000000000E+00  0.14999999963E+04  0.15000000000E+04  0.10566000000E+00 0.  1.
        994   -1    0    0    0    0 -0.00000000000E+00 -0.00000000000E+00  0.11368683772E-12  0.17120000000E+03  0.17120000000E+03 0.  0.
         13    1    1    2    0    0 -0.87958510995E+01  0.10542585499E+02  0.14139411148E+02  0.19709064341E+02  0.10566000000E+00 0.  1.
        994    1    1    2    0    0  0.93246773479E+01 -0.87095261701E+01  0.61910932006E+01  0.17178642289E+03  0.17120000000E+03 0.  0.
        998    1    1    2    0    0 -0.52882624840E+00 -0.18330593290E+01  0.14796694919E+04  0.14797045128E+04  0.10000000000E+02 0.  1.
</event>
<event>
 5    1  0.7732857E-009  0.3834922E+03  0.7957747E-01  0.3436092E+00
         13   -1    0    0    0    0  0.00000000000E+00  0.00000000000E+00  0.14999999963E+04  0.15000000000E+04  0.10566000000E+00 0.  1.
        994   -1    0    0    0    0 -0.00000000000E+00 -0.00000000000E+00  0.11368683772E-12  0.17120000000E+03  0.17120000000E+03 0.  0.
         13    1    1    2    0    0 -0.22661028266E+03 -0.79074611652E+02  0.11781567911E+04  0.12023553759E+04  0.10566000000E+00 0.  1.
        994    1    1    2    0    0  0.22600685489E+03  0.75847436196E+02  0.22086222735E+03  0.36731661480E+03  0.17120000000E+03 0.  0.
        998    1    1    2    0    0  0.60342776839E+00  0.32271754552E+01  0.10098097784E+03  0.10152800930E+03  0.10000000000E+02 0.  0.
</event>
<event>
 5    1  0.7732857E-009  0.3851846E+03  0.7957747E-01  0.3428890E+00
         13   -1    0    0    0    0  0.00000000000E+00  0.00000000000E+00  0.14999999963E+04  0.15000000000E+04  0.10566000000E+00 0. -1.
        994   -1    0    0    0    0 -0.00000000000E+00 -0.00000000000E+00  0.11368683772E-12  0.17120000000E+03  0.17120000000E+03 0.  0.
         13    1    1    2    0    0  0.13213589364E+02 -0.48079847662E+00  0.56064537759E+02  0.57602722759E+02  0.10566000000E+00 0. -1.
        994    1    1    2    0    0 -0.11358227878E+02 -0.26074787379E+01  0.19850156294E+01  0.17160765884E+03  0.17120000000E+03 0.  0.
        998    1    1    2    0    0 -0.18553614857E+01  0.30882772146E+01  0.14419504429E+04  0.14419896184E+04  0.10000000000E+02 0. -1.
</event>
<event>
 5    1  0.7732857E-009  0.3842966E+03  0.7957747E-01  0.3432661E+00
         13   -1    0    0    0    0  0.00000000000E+00  0.00000000000E+00  0.14999999963E+04  0.15000000000E+04  0.10566000000E+00 0. -1.
        994   -1    0    0    0    0 -0.00000000000E+00 -0.00000000000E+00  0.11368683772E-12  0.17120000000E+03  0.17120000000E+03 0.  0.
         13    1    1    2    0    0 -0.15870520455E+02 -0.15879917487E+01  0.62647891705E+02  0.64646458808E+02  0.10566000000E+00 0. -1.
        994    1    1    2    0    0  0.13855192796E+02  0.23445925155E+01  0.26309101227E+01  0.17179588228E+03  0.17120000000E+03 0.  0.
        998    1    1    2    0    0  0.20153276590E+01 -0.75660076675E+00  0.14347211945E+04  0.14347576589E+04  0.10000000000E+02 0.  0.
</event>
<event>
 5    1  0.7732857E-009  0.3809099E+03  0.7957747E-01  0.3447206E+00
         13   -1    0    0    0    0  0.00000000000E+00  0.00000000000E+00  0.14999999963E+04  0.15000000000E+04  0.10566000000E+00 0.  1.
        994   -1    0    0    0    0 -0.00000000000E+00 -0.00000000000E+00  0.11368683772E-12  0.17120000000E+03  0.17120000000E+03 0.  0.
         13    1    1    2    0    0  0.19662913911E+02 -0.15554756087E+02  0.83030784769E+02  0.86733517188E+02  0.10566000000E+00 0.  1.
        994    1    1    2    0    0 -0.97729646018E+00  0.29281291215E+02  0.65406078155E+01  0.17381187725E+03  0.17120000000E+03 0.  0.
        998    1    1    2    0    0 -0.18685617451E+02 -0.13726535128E+02  0.14104286037E+04  0.14106546056E+04  0.10000000000E+02 0.  1.
</event>
<event>
 5    1  0.7732857E-009  0.3784310E+03  0.7957747E-01  0.3458019E+00
         13   -1    0    0    0    0  0.00000000000E+00  0.00000000000E+00  0.14999999963E+04  0.15000000000E+04  0.10566000000E+00 0.  1.
        994   -1    0    0    0    0 -0.00000000000E+00 -0.00000000000E+00  0.11368683772E-12  0.17120000000E+03  0.17120000000E+03 0.  0.
         13    1    1    2    0    0 -0.11765355353E+02  0.73593124371E+02  0.14989109647E+03  0.16739690411E+03  0.10566000000E+00 0.  1.
        994    1    1    2    0    0  0.54190219653E+02 -0.79135553519E+02  0.49407756828E+02  0.20236003106E+03  0.17120000000E+03 0.  0.
        998    1    1    2    0    0 -0.42424864300E+02  0.55424291478E+01  0.13007011430E+04  0.13014430648E+04  0.10000000000E+02 0.  1.
</event>
<event>
 5    1  0.7732857E-009  0.3762623E+03  0.7957747E-01  0.3467597E+00
         13   -1    0    0    0    0  0.00000000000E+00  0.00000000000E+00  0.14999999963E+04  0.15000000000E+04  0.10566000000E+00 0. -1.
        994   -1    0    0    0    0 -0.00000000000E+00 -0.00000000000E+00  0.11368683772E-12  0.17120000000E+03  0.17120000000E+03 0.  0.
         13    1    1    2    0    0  0.10399000417E+03 -0.47010110854E+02  0.58210208430E+03  0.59318354596E+03  0.10566000000E+00 0. -1.
        994    1    1    2    0    0 -0.11353114289E+03  0.42623438037E+02  0.57553461613E+02  0.21754980768E+03  0.17120000000E+03 0.  0.
        998    1    1    2    0    0  0.95411387146E+01  0.43866728169E+01  0.86034445037E+03  0.86046664636E+03  0.10000000000E+02 0. -1.
</event>
<event>
 5    1  0.7732857E-009  0.3852331E+03  0.7957747E-01  0.3428684E+00
         13   -1    0    0    0    0  0.00000000000E+00  0.00000000000E+00  0.14999999963E+04  0.15000000000E+04  0.10566000000E+00 0.  1.
        994   -1    0    0    0    0 -0.00000000000E+00 -0.00000000000E+00  0.11368683772E-12  0.17120000000E+03  0.17120000000E+03 0.  0.
         13    1    1    2    0    0 -0.33690854712E+01 -0.14204284037E+02  0.71191171102E+02  0.72672597510E+02  0.10566000000E+00 0.  1.
        994    1    1    2    0    0 -0.24011601690E+01  0.90661679964E+01  0.18035650839E+01  0.17146618856E+03  0.17120000000E+03 0.  0.
        998    1    1    2    0    0  0.57702456402E+01  0.51381160408E+01  0.14270052601E+04  0.14270612139E+04  0.10000000000E+02 0.  1.
</event>
<event>
 5    1  0.7732857E-009  0.3850177E+03  0.7957747E-01  0.3429597E+00
         13   -1    0    0    0    0  0.00000000000E+00  0.00000000000E+00  0.14999999963E+04  0.15000000000E+04  0.10566000000E+00 0. -1.
        994   -1    0    0    0    0 -0.00000000000E+00 -0.00000000000E+00  0.11368683772E-12  0.17120000000E+03  0.17120000000E+03 0.  0.
         13    1    1    2    0    0  0.14587560985E+02  0.10862568109E+02  0.10902049488E+03  0.11052724455E+03  0.10566000000E+00 0. -1.
        994    1    1    2    0    0 -0.80605130295E+01  0.44216224085E+01  0.18993521608E+01  0.17145719627E+03  0.17120000000E+03 0.  0.
        998    1    1    2    0    0 -0.65270479556E+01 -0.15284190518E+02  0.13890801492E+04  0.13892155592E+04  0.10000000000E+02 0. -1.
</event>
<event>
 5    1  0.7732857E-009  0.3835632E+03  0.7957747E-01  0.3435789E+00
         13   -1    0    0    0    0  0.00000000000E+00  0.00000000000E+00  0.14999999963E+04  0.15000000000E+04  0.10566000000E+00 0.  1.
        994   -1    0    0    0    0 -0.00000000000E+00 -0.00000000000E+00  0.11368683772E-12  0.17120000000E+03  0.17120000000E+03 0.  0.
         13    1    1    2    0    0 -0.15160701344E+02  0.97050508060E+01  0.65536916001E+02  0.67964206751E+02  0.10566000000E+00 0.  1.
        994    1    1    2    0    0  0.21497035036E+02 -0.34841106884E+01  0.39137191924E+01  0.17262392285E+03  0.17120000000E+03 0.  0.
        998    1    1    2    0    0 -0.63363336923E+01 -0.62209401176E+01  0.14305493611E+04  0.14306118704E+04  0.10000000000E+02 0.  1.
</event>
<event>
 5    1  0.7732857E-009  0.3724303E+03  0.7957747E-01  0.3484796E+00
         13   -1    0    0    0    0  0.00000000000E+00  0.00000000000E+00  0.14999999963E+04  0.15000000000E+04  0.10566000000E+00 0. -1.
        994   -1    0    0    0    0 -0.00000000000E+00 -0.00000000000E+00  0.11368683772E-12  0.17120000000E+03  0.17120000000E+03 0.  0.
         13    1    1    2    0    0 -0.16630193425E+02  0.25070394733E+01  0.14178455220E+02  0.21997462052E+02  0.10566000000E+00 0. -1.
        994    1    1    2    0    0  0.11919735791E+02  0.28432151828E+01  0.85193498575E+01  0.17184930403E+03  0.17120000000E+03 0.  0.
        998    1    1    2    0    0  0.47104576341E+01 -0.53502546562E+01  0.14773021912E+04  0.14773532339E+04  0.10000000000E+02 0. -1.
</event>
