<event>
 5    1  0.1294251E-008  0.3842987E+03  0.7957747E-01  0.3432652E+00
         13   -1    0    0    0    0  0.00000000000E+00  0.00000000000E+00  0.14999999963E+04  0.15000000000E+04  0.10566000000E+00 0. -1.
        994   -1    0    0    0    0 -0.00000000000E+00 -0.00000000000E+00  0.11368683772E-12  0.17120000000E+03  0.17120000000E+03 0.  0.
         13    1    1    2    0    0 -0.33955578683E+02  0.24135349641E+02  0.38950067108E+02  0.57031704496E+02  0.10566000000E+00 0. -1.
        994    1    1    2    0    0  0.27759714800E+02 -0.20169326602E+02  0.23055652680E+02  0.17612043215E+03  0.17120000000E+03 0.  0.
        998    1    1    2    0    0  0.61958638823E+01 -0.39660230384E+01  0.14379942765E+04  0.14380478634E+04  0.10000000000E+02 0. -1.
</event>
<event>
 5    1  0.1294251E-008  0.3836282E+03  0.7957747E-01  0.3435511E+00
         13   -1    0    0    0    0  0.00000000000E+00  0.00000000000E+00  0.14999999963E+04  0.15000000000E+04  0.10566000000E+00 0.  1.
        994   -1    0    0    0    0 -0.00000000000E+00 -0.00000000000E+00  0.11368683772E-12  0.17120000000E+03  0.17120000000E+03 0.  0.
         13    1    1    2    0    0 -0.13076224364E+03  0.12763311494E+03  0.94859058368E+03  0.96602954561E+03  0.10566000000E+00 0.  1.
        994    1    1    2    0    0  0.14271238539E+03 -0.14927989809E+03  0.15895992834E+03  0.31181566948E+03  0.17120000000E+03 0.  0.
        998    1    1    2    0    0 -0.11950141757E+02  0.21646783152E+02  0.39244948426E+03  0.39335478491E+03  0.10000000000E+02 0. -1.
</event>
<event>
 5    1  0.1294251E-008  0.3861458E+03  0.7957747E-01  0.3424827E+00
         13   -1    0    0    0    0  0.00000000000E+00  0.00000000000E+00  0.14999999963E+04  0.15000000000E+04  0.10566000000E+00 0.  1.
        994   -1    0    0    0    0 -0.00000000000E+00 -0.00000000000E+00  0.11368683772E-12  0.17120000000E+03  0.17120000000E+03 0.  0.
         13    1    1    2    0    0  0.12131193561E+02 -0.34443392654E+01  0.74533728633E+02  0.75593102848E+02  0.10566000000E+00 0.  1.
        994    1    1    2    0    0 -0.11138932365E+02 -0.69577967942E+00  0.14705479369E+01  0.17156970139E+03  0.17120000000E+03 0.  0.
        998    1    1    2    0    0 -0.99226119640E+00  0.41401189449E+01  0.14239957197E+04  0.14240371958E+04  0.10000000000E+02 0.  1.
</event>
<event>
 5    1  0.1294251E-008  0.3814753E+03  0.7957747E-01  0.3444760E+00
         13   -1    0    0    0    0  0.00000000000E+00  0.00000000000E+00  0.14999999963E+04  0.15000000000E+04  0.10566000000E+00 0. -1.
        994   -1    0    0    0    0 -0.00000000000E+00 -0.00000000000E+00  0.11368683772E-12  0.17120000000E+03  0.17120000000E+03 0.  0.
         13    1    1    2    0    0  0.34647827133E+02 -0.67530169996E+01  0.16325514146E+03  0.16702792443E+03  0.10566000000E+00 0. -1.
        994    1    1    2    0    0 -0.34200904011E+02  0.15651525064E+02  0.81107857141E+01  0.17547050156E+03  0.17120000000E+03 0.  0.
        998    1    1    2    0    0 -0.44692312261E+00 -0.88985080648E+01  0.13286340691E+04  0.13287015740E+04  0.10000000000E+02 0. -1.
</event>
<event>
 5    1  0.1294251E-008  0.3919112E+03  0.7957747E-01  0.3400880E+00
         13   -1    0    0    0    0  0.00000000000E+00  0.00000000000E+00  0.14999999963E+04  0.15000000000E+04  0.10566000000E+00 0. -1.
        994   -1    0    0    0    0 -0.00000000000E+00 -0.00000000000E+00  0.11368683772E-12  0.17120000000E+03  0.17120000000E+03 0.  0.
         13    1    1    2    0    0  0.99188971025E+02  0.24545824721E+02  0.18969976525E+03  0.21546916620E+03  0.10566000000E+00 0. -1.
        994    1    1    2    0    0 -0.99893342755E+02 -0.28796346003E+02  0.65279769685E+02  0.21066275846E+03  0.17120000000E+03 0.  0.
        998    1    1    2    0    0  0.70437172982E+00  0.42505212814E+01  0.12450204613E+04  0.12450680753E+04  0.10000000000E+02 0. -1.
</event>
<event>
 5    1  0.1294251E-008  0.3801313E+03  0.7957747E-01  0.3450587E+00
         13   -1    0    0    0    0  0.00000000000E+00  0.00000000000E+00  0.14999999963E+04  0.15000000000E+04  0.10566000000E+00 0. -1.
        994   -1    0    0    0    0 -0.00000000000E+00 -0.00000000000E+00  0.11368683772E-12  0.17120000000E+03  0.17120000000E+03 0.  0.
         13    1    1    2    0    0 -0.45202883125E+01  0.28927708620E+02  0.19378759477E+02  0.35111149445E+02  0.10566000000E+00 0. -1.
        994    1    1    2    0    0 -0.26775281263E+02 -0.24604048572E+02  0.21207997136E+02  0.17629944423E+03  0.17120000000E+03 0.  0.
        998    1    1    2    0    0  0.31295569575E+02 -0.43236600485E+01  0.14594132397E+04  0.14597894063E+04  0.10000000000E+02 0. -1.
</event>
<event>
 5    1  0.1294251E-008  0.3823112E+03  0.7957747E-01  0.3441156E+00
         13   -1    0    0    0    0  0.00000000000E+00  0.00000000000E+00  0.14999999963E+04  0.15000000000E+04  0.10566000000E+00 0.  1.
        994   -1    0    0    0    0 -0.00000000000E+00 -0.00000000000E+00  0.11368683772E-12  0.17120000000E+03  0.17120000000E+03 0.  0.
         13    1    1    2    0    0 -0.96210835029E+02  0.39622572191E+02  0.62194850276E+03  0.63059212194E+03  0.10566000000E+00 0.  1.
        994    1    1    2    0    0  0.12490839031E+03 -0.46841873957E+02  0.64448073913E+02  0.22640508244E+03  0.17120000000E+03 0.  0.
        998    1    1    2    0    0 -0.28697555277E+02  0.72193017652E+01  0.81360341961E+03  0.81420279562E+03  0.10000000000E+02 0.  1.
</event>
<event>
 5    1  0.2988709E-008  0.3864382E+03  0.7957747E-01  0.3423595E+00
         13   -1    0    0    0    0  0.00000000000E+00  0.00000000000E+00  0.14999999963E+04  0.15000000000E+04  0.10566000000E+00 0.  1.
        994   -1    0    0    0    0 -0.00000000000E+00 -0.00000000000E+00  0.11368683772E-12  0.17120000000E+03  0.17120000000E+03 0.  0.
         13    1    1    2    0    0  0.80150860871E+00  0.10138356627E+02  0.57121112927E+02  0.58019491529E+02  0.10566000000E+00 0.  1.
        994    1    1    2    0    0  0.86476430732E+00 -0.77963285277E+01  0.11191831773E+01  0.17138326385E+03  0.17120000000E+03 0.  0.
        998    1    1    2    0    0 -0.16662729160E+01 -0.23420280990E+01  0.14417597002E+04  0.14417972446E+04  0.10000000000E+02 0.  1.
</event>
<event>
 5    1  0.1294251E-008  0.3837088E+03  0.7957747E-01  0.3435167E+00
         13   -1    0    0    0    0  0.00000000000E+00  0.00000000000E+00  0.14999999963E+04  0.15000000000E+04  0.10566000000E+00 0. -1.
        994   -1    0    0    0    0 -0.00000000000E+00 -0.00000000000E+00  0.11368683772E-12  0.17120000000E+03  0.17120000000E+03 0.  0.
         13    1    1    2    0    0  0.25514087986E+02 -0.65357926767E+01  0.14671908726E+03  0.14906437201E+03  0.10566000000E+00 0. -1.
        994    1    1    2    0    0 -0.21928896795E+02 -0.35072957327E+01  0.39029295699E+01  0.17267845985E+03  0.17120000000E+03 0.  0.
        998    1    1    2    0    0 -0.35851911911E+01  0.10043088409E+02  0.13493779794E+04  0.13494571681E+04  0.10000000000E+02 0. -1.
</event>
<event>
 5    1  0.1294251E-008  0.3724165E+03  0.7957747E-01  0.3484858E+00
         13   -1    0    0    0    0  0.00000000000E+00  0.00000000000E+00  0.14999999963E+04  0.15000000000E+04  0.10566000000E+00 0. -1.
        994   -1    0    0    0    0 -0.00000000000E+00 -0.00000000000E+00  0.11368683772E-12  0.17120000000E+03  0.17120000000E+03 0.  0.
         13    1    1    2    0    0  0.45315516280E+02  0.18751509959E+02  0.10130232379E+03  0.11254904313E+03  0.10566000000E+00 0. -1.
        994    1    1    2    0    0 -0.78076793836E+01 -0.80057760637E+01  0.12663373570E+02  0.17203154751E+03  0.17120000000E+03 0.  0.
        998    1    1    2    0    0 -0.37507836896E+02 -0.10745733895E+02  0.13860342989E+04  0.13866194094E+04  0.10000000000E+02 0. -1.
</event>
<event>
 5    1  0.1294251E-008  0.3745287E+03  0.7957747E-01  0.3475333E+00
         13   -1    0    0    0    0  0.00000000000E+00  0.00000000000E+00  0.14999999963E+04  0.15000000000E+04  0.10566000000E+00 0. -1.
        994   -1    0    0    0    0 -0.00000000000E+00 -0.00000000000E+00  0.11368683772E-12  0.17120000000E+03  0.17120000000E+03 0.  0.
         13    1    1    2    0    0  0.84440772886E+01  0.13583416509E+02  0.15296271025E+02  0.22131396626E+02  0.10566000000E+00 0. -1.
        994    1    1    2    0    0 -0.64994836333E+01 -0.14638339774E+02  0.77947825999E+01  0.17212414971E+03  0.17120000000E+03 0.  0.
        998    1    1    2    0    0 -0.19445936552E+01  0.10549232654E+01  0.14769089427E+04  0.14769444537E+04  0.10000000000E+02 0. -1.
</event>
<event>
 5    1  0.1294251E-008  0.3821648E+03  0.7957747E-01  0.3441786E+00
         13   -1    0    0    0    0  0.00000000000E+00  0.00000000000E+00  0.14999999963E+04  0.15000000000E+04  0.10566000000E+00 0. -1.
        994   -1    0    0    0    0 -0.00000000000E+00 -0.00000000000E+00  0.11368683772E-12  0.17120000000E+03  0.17120000000E+03 0.  0.
         13    1    1    2    0    0 -0.11422418447E+02 -0.91564248201E+00  0.21035329739E+02  0.23954254436E+02  0.10566000000E+00 0. -1.
        994    1    1    2    0    0 -0.19049063629E+01 -0.86188558904E+01  0.33030003336E+01  0.17145921718E+03  0.17120000000E+03 0.  0.
        998    1    1    2    0    0  0.13327324810E+02  0.95344983724E+01  0.14756616662E+04  0.14757865284E+04  0.10000000000E+02 0. -1.
</event>
<event>
 5    1  0.1294251E-008  0.3844904E+03  0.7957747E-01  0.3431836E+00
         13   -1    0    0    0    0  0.00000000000E+00  0.00000000000E+00  0.14999999963E+04  0.15000000000E+04  0.10566000000E+00 0.  1.
        994   -1    0    0    0    0 -0.00000000000E+00 -0.00000000000E+00  0.11368683772E-12  0.17120000000E+03  0.17120000000E+03 0.  0.
         13    1    1    2    0    0  0.15216588283E+02 -0.12735671233E+02  0.11101910158E+03  0.11277851728E+03  0.10566000000E+00 0.  1.
        994    1    1    2    0    0 -0.53956245609E+01  0.64149047845E+00  0.19806102813E+01  0.17129765641E+03  0.17120000000E+03 0.  0.
        998    1    1    2    0    0 -0.98209637226E+01  0.12094180754E+02  0.13870002844E+04  0.13871238263E+04  0.10000000000E+02 0.  1.
</event>
<event>
 5    1  0.1294251E-008  0.3850613E+03  0.7957747E-01  0.3429412E+00
         13   -1    0    0    0    0  0.00000000000E+00  0.00000000000E+00  0.14999999963E+04  0.15000000000E+04  0.10566000000E+00 0. -1.
        994   -1    0    0    0    0 -0.00000000000E+00 -0.00000000000E+00  0.11368683772E-12  0.17120000000E+03  0.17120000000E+03 0.  0.
         13    1    1    2    0    0 -0.38680280683E+02 -0.21597772572E+01  0.36021272987E+02  0.52899641050E+02  0.10566000000E+00 0. -1.
        994    1    1    2    0    0 -0.23767192221E+02 -0.29981765875E+02  0.24559302432E+02  0.17713380549E+03  0.17120000000E+03 0.  0.
        998    1    1    2    0    0  0.62447472904E+02  0.32141543133E+02  0.14394194209E+04  0.14411665535E+04  0.10000000000E+02 0. -1.
</event>
<event>
 5    1  0.1294251E-008  0.3777985E+03  0.7957747E-01  0.3460800E+00
         13   -1    0    0    0    0  0.00000000000E+00  0.00000000000E+00  0.14999999963E+04  0.15000000000E+04  0.10566000000E+00 0.  1.
        994   -1    0    0    0    0 -0.00000000000E+00 -0.00000000000E+00  0.11368683772E-12  0.17120000000E+03  0.17120000000E+03 0.  0.
         13    1    1    2    0    0 -0.40899986896E+02 -0.21617471723E+02  0.19688935703E+03  0.20225121529E+03  0.10566000000E+00 0.  1.
        994    1    1    2    0    0  0.39445560538E+02 -0.73244638827E+01  0.10687998391E+02  0.17616263317E+03  0.17120000000E+03 0.  0.
        998    1    1    2    0    0  0.14544263580E+01  0.28941935606E+02  0.12924226409E+04  0.12927861515E+04  0.10000000000E+02 0.  1.
</event>
<event>
 5    1  0.1294251E-008  0.3856511E+03  0.7957747E-01  0.3426915E+00
         13   -1    0    0    0    0  0.00000000000E+00  0.00000000000E+00  0.14999999963E+04  0.15000000000E+04  0.10566000000E+00 0. -1.
        994   -1    0    0    0    0 -0.00000000000E+00 -0.00000000000E+00  0.11368683772E-12  0.17120000000E+03  0.17120000000E+03 0.  0.
         13    1    1    2    0    0  0.10390131745E+02  0.21202719372E+01  0.42210103740E+02  0.43521884295E+02  0.10566000000E+00 0. -1.
        994    1    1    2    0    0 -0.10867415086E+02 -0.40657745678E+01  0.17491571868E+01  0.17160166312E+03  0.17120000000E+03 0.  0.
        998    1    1    2    0    0  0.47728334029E+00  0.19455026306E+01  0.14560407354E+04  0.14560764526E+04  0.10000000000E+02 0. -1.
</event>
<event>
 5    1  0.1294251E-008  0.3839438E+03  0.7957747E-01  0.3434164E+00
         13   -1    0    0    0    0  0.00000000000E+00  0.00000000000E+00  0.14999999963E+04  0.15000000000E+04  0.10566000000E+00 0. -1.
        994   -1    0    0    0    0 -0.00000000000E+00 -0.00000000000E+00  0.11368683772E-12  0.17120000000E+03  0.17120000000E+03 0.  0.
         13    1    1    2    0    0 -0.63554336874E+02 -0.66361301031E+02  0.22803605769E+03  0.24585245734E+03  0.10566000000E+00 0. -1.
        994    1    1    2    0    0  0.27226670594E+02  0.45161513491E+02  0.28807010962E+02  0.18143907455E+03  0.17120000000E+03 0.  0.
        998    1    1    2    0    0  0.36327666280E+02  0.21199787539E+02  0.12431569276E+04  0.12439084681E+04  0.10000000000E+02 0. -1.
</event>
<event>
 5    1  0.1294251E-008  0.3827384E+03  0.7957747E-01  0.3439321E+00
         13   -1    0    0    0    0  0.00000000000E+00  0.00000000000E+00  0.14999999963E+04  0.15000000000E+04  0.10566000000E+00 0. -1.
        994   -1    0    0    0    0 -0.00000000000E+00 -0.00000000000E+00  0.11368683772E-12  0.17120000000E+03  0.17120000000E+03 0.  0.
         13    1    1    2    0    0 -0.13164208844E+02 -0.96478241197E+01  0.50061736472E+02  0.52655156703E+02  0.10566000000E+00 0. -1.
        994    1    1    2    0    0  0.12955040421E+01 -0.39939469162E+01  0.28155560932E+01  0.17127462538E+03  0.17120000000E+03 0.  0.
        998    1    1    2    0    0  0.11868704802E+02  0.13641771036E+02  0.14471227037E+04  0.14472702179E+04  0.10000000000E+02 0. -1.
</event>
<event>
 5    1  0.1294251E-008  0.3857338E+03  0.7957747E-01  0.3426566E+00
         13   -1    0    0    0    0  0.00000000000E+00  0.00000000000E+00  0.14999999963E+04  0.15000000000E+04  0.10566000000E+00 0. -1.
        994   -1    0    0    0    0 -0.00000000000E+00 -0.00000000000E+00  0.11368683772E-12  0.17120000000E+03  0.17120000000E+03 0.  0.
         13    1    1    2    0    0 -0.44349494358E+01  0.13934668710E+02  0.80269897523E+02  0.81591123175E+02  0.10566000000E+00 0. -1.
        994    1    1    2    0    0  0.26537126049E+01 -0.16977170114E+02  0.22355849257E+01  0.17207470568E+03  0.17120000000E+03 0.  0.
        998    1    1    2    0    0  0.17812368310E+01  0.30425014040E+01  0.14174945138E+04  0.14175341711E+04  0.10000000000E+02 0. -1.
</event>
<event>
 5    1  0.1294251E-008  0.3858889E+03  0.7957747E-01  0.3425911E+00
         13   -1    0    0    0    0  0.00000000000E+00  0.00000000000E+00  0.14999999963E+04  0.15000000000E+04  0.10566000000E+00 0. -1.
        994   -1    0    0    0    0 -0.00000000000E+00 -0.00000000000E+00  0.11368683772E-12  0.17120000000E+03  0.17120000000E+03 0.  0.
         13    1    1    2    0    0  0.80244130633E+01  0.84694406068E+01  0.49555693585E+02  0.50910711642E+02  0.10566000000E+00 0. -1.
        994    1    1    2    0    0 -0.23066743507E+02 -0.22685569578E+02  0.46293814342E+01  0.17429165469E+03  0.17120000000E+03 0.  0.
        998    1    1    2    0    0  0.15042330443E+02  0.14216128971E+02  0.14458149213E+04  0.14459976337E+04  0.10000000000E+02 0. -1.
</event>
<event>
 5    1  0.1294251E-008  0.3767392E+03  0.7957747E-01  0.3465481E+00
         13   -1    0    0    0    0  0.00000000000E+00  0.00000000000E+00  0.14999999963E+04  0.15000000000E+04  0.10566000000E+00 0. -1.
        994   -1    0    0    0    0 -0.00000000000E+00 -0.00000000000E+00  0.11368683772E-12  0.17120000000E+03  0.17120000000E+03 0.  0.
         13    1    1    2    0    0 -0.70969600792E+02 -0.42837585426E+00  0.42250932685E+03  0.42842853568E+03  0.10566000000E+00 0. -1.
        994    1    1    2    0    0  0.43012568708E+02 -0.11932196596E+01  0.12070950744E+02  0.17693686075E+03  0.17120000000E+03 0.  0.
        998    1    1    2    0    0  0.27957032084E+02  0.16215955139E+01  0.10654197187E+04  0.10658346036E+04  0.10000000000E+02 0. -1.
</event>
<event>
 5    1  0.1294251E-008  0.3771964E+03  0.7957747E-01  0.3463458E+00
         13   -1    0    0    0    0  0.00000000000E+00  0.00000000000E+00  0.14999999963E+04  0.15000000000E+04  0.10566000000E+00 0.  1.
        994   -1    0    0    0    0 -0.00000000000E+00 -0.00000000000E+00  0.11368683772E-12  0.17120000000E+03  0.17120000000E+03 0.  0.
         13    1    1    2    0    0  0.32934536117E+02  0.91895271493E+01  0.10449129818E+03  0.10994350203E+03  0.10566000000E+00 0.  1.
        994    1    1    2    0    0 -0.21246528200E+02  0.79350933803E+01  0.72926869157E+01  0.17284965707E+03  0.17120000000E+03 0.  0.
        998    1    1    2    0    0 -0.11688007917E+02 -0.17124620530E+02  0.13882160112E+04  0.13884068409E+04  0.10000000000E+02 0.  1.
</event>
<event>
 5    1  0.1294251E-008  0.3720288E+03  0.7957747E-01  0.3486619E+00
         13   -1    0    0    0    0  0.00000000000E+00  0.00000000000E+00  0.14999999963E+04  0.15000000000E+04  0.10566000000E+00 0.  1.
        994   -1    0    0    0    0 -0.00000000000E+00 -0.00000000000E+00  0.11368683772E-12  0.17120000000E+03  0.17120000000E+03 0.  0.
         13    1    1    2    0    0 -0.22486909763E+02 -0.32163644781E+02  0.59575276955E+02  0.71339932328E+02  0.10566000000E+00 0.  1.
        994    1    1    2    0    0  0.17174005948E+02  0.20691835952E+02  0.14565799286E+02  0.17391003727E+03  0.17120000000E+03 0.  0.
        998    1    1    2    0    0  0.53129038150E+01  0.11471808829E+02  0.14258589200E+04  0.14259500304E+04  0.10000000000E+02 0.  1.
</event>
<event>
 5    1  0.1294251E-008  0.3750804E+03  0.7957747E-01  0.3472863E+00
         13   -1    0    0    0    0  0.00000000000E+00  0.00000000000E+00  0.14999999963E+04  0.15000000000E+04  0.10566000000E+00 0. -1.
        994   -1    0    0    0    0 -0.00000000000E+00 -0.00000000000E+00  0.11368683772E-12  0.17120000000E+03  0.17120000000E+03 0.  0.
         13    1    1    2    0    0 -0.64782225518E+01 -0.10157844064E+02 -0.10224969881E+01  0.12091560180E+02  0.10566000000E+00 0. -1.
        994    1    1    2    0    0  0.71752662346E+01  0.79762070224E+01  0.14060581772E+02  0.17211113934E+03  0.17120000000E+03 0.  0.
        998    1    1    2    0    0 -0.69704368274E+00  0.21816370413E+01  0.14869619115E+04  0.14869973005E+04  0.10000000000E+02 0. -1.
</event>
<event>
 5    1  0.1496446E-008  0.3858241E+03  0.7957747E-01  0.3426185E+00
         13   -1    0    0    0    0  0.00000000000E+00  0.00000000000E+00  0.14999999963E+04  0.15000000000E+04  0.10566000000E+00 0. -1.
        994   -1    0    0    0    0 -0.00000000000E+00 -0.00000000000E+00  0.11368683772E-12  0.17120000000E+03  0.17120000000E+03 0.  0.
         13    1    1    2    0    0 -0.10753839188E+01 -0.10412269093E+02  0.44938277796E+02  0.46141432288E+02  0.10566000000E+00 0. -1.
        994    1    1    2    0    0  0.44942189260E+00  0.81298556166E+01  0.14390284392E+01  0.17139955465E+03  0.17120000000E+03 0.  0.
        998    1    1    2    0    0  0.62596202623E+00  0.22824134769E+01  0.14536226900E+04  0.14536590131E+04  0.10000000000E+02 0. -1.
</event>
<event>
 5    1  0.2202591E-008  0.3863146E+03  0.7957747E-01  0.3424116E+00
         13   -1    0    0    0    0  0.00000000000E+00  0.00000000000E+00  0.14999999963E+04  0.15000000000E+04  0.10566000000E+00 0.  1.
        994   -1    0    0    0    0 -0.00000000000E+00 -0.00000000000E+00  0.11368683772E-12  0.17120000000E+03  0.17120000000E+03 0.  0.
         13    1    1    2    0    0 -0.95911954755E+01  0.41076857205E+01  0.55922943669E+02  0.56888055911E+02  0.10566000000E+00 0.  1.
        994    1    1    2    0    0  0.92751127453E+01 -0.24719818966E+00  0.12608410103E+01  0.17145587929E+03  0.17120000000E+03 0.  0.
        998    1    1    2    0    0  0.31608273012E+00 -0.38604875309E+01  0.14428162116E+04  0.14428560648E+04  0.10000000000E+02 0.  1.
</event>
<event>
 5    1  0.2203745E-008  0.3858837E+03  0.7957747E-01  0.3425933E+00
         13   -1    0    0    0    0  0.00000000000E+00  0.00000000000E+00  0.14999999963E+04  0.15000000000E+04  0.10566000000E+00 0. -1.
        994   -1    0    0    0    0 -0.00000000000E+00 -0.00000000000E+00  0.11368683772E-12  0.17120000000E+03  0.17120000000E+03 0.  0.
         13    1    1    2    0    0 -0.36442379070E+01  0.11363160381E+02  0.61748548659E+02  0.62891146510E+02  0.10566000000E+00 0. -1.
        994    1    1    2    0    0 -0.27543243327E+00 -0.50686323175E+01  0.12765147282E+01  0.17127999412E+03  0.17120000000E+03 0.  0.
        998    1    1    2    0    0  0.39196703403E+01 -0.62945280631E+01  0.14369749329E+04  0.14370288594E+04  0.10000000000E+02 0. -1.
</event>
<event>
 5    1  0.1294251E-008  0.3856157E+03  0.7957747E-01  0.3427065E+00
         13   -1    0    0    0    0  0.00000000000E+00  0.00000000000E+00  0.14999999963E+04  0.15000000000E+04  0.10566000000E+00 0. -1.
        994   -1    0    0    0    0 -0.00000000000E+00 -0.00000000000E+00  0.11368683772E-12  0.17120000000E+03  0.17120000000E+03 0.  0.
         13    1    1    2    0    0  0.12100767443E+02  0.12555448468E+02  0.10407771266E+03  0.10552842885E+03  0.10566000000E+00 0. -1.
        994    1    1    2    0    0 -0.17579831027E+02 -0.15016569322E+02  0.30811606077E+01  0.17278160019E+03  0.17120000000E+03 0.  0.
        998    1    1    2    0    0  0.54790635837E+01  0.24611208541E+01  0.13928411230E+04  0.13928899710E+04  0.10000000000E+02 0.  1.
</event>
<event>
 5    1  0.1294251E-008  0.3829381E+03  0.7957747E-01  0.3438464E+00
         13   -1    0    0    0    0  0.00000000000E+00  0.00000000000E+00  0.14999999963E+04  0.15000000000E+04  0.10566000000E+00 0. -1.
        994   -1    0    0    0    0 -0.00000000000E+00 -0.00000000000E+00  0.11368683772E-12  0.17120000000E+03  0.17120000000E+03 0.  0.
         13    1    1    2    0    0  0.26267594604E+00 -0.35130880954E+02  0.20792589589E+03  0.21087303559E+03  0.10566000000E+00 0. -1.
        994    1    1    2    0    0 -0.21348650718E+01  0.32201088964E+02  0.61130540508E+01  0.17432233709E+03  0.17120000000E+03 0.  0.
        998    1    1    2    0    0  0.18721891257E+01  0.29297919904E+01  0.12859610463E+04  0.12860046273E+04  0.10000000000E+02 0. -1.
</event>
<event>
 5    1  0.1294251E-008  0.3928466E+03  0.7957747E-01  0.3397060E+00
         13   -1    0    0    0    0  0.00000000000E+00  0.00000000000E+00  0.14999999963E+04  0.15000000000E+04  0.10566000000E+00 0.  1.
        994   -1    0    0    0    0 -0.00000000000E+00 -0.00000000000E+00  0.11368683772E-12  0.17120000000E+03  0.17120000000E+03 0.  0.
         13    1    1    2    0    0 -0.67115579641E+02 -0.26274510280E+02  0.11414059432E+03  0.13499236036E+03  0.10566000000E+00 0.  1.
        994    1    1    2    0    0  0.36821313942E+02 -0.55139533096E+02  0.40494056820E+02  0.18800368589E+03  0.17120000000E+03 0.  0.
        998    1    1    2    0    0  0.30294265698E+02  0.81414043377E+02  0.13453653451E+04  0.13482039537E+04  0.10000000000E+02 0.  1.
</event>
<event>
 5    1  0.1294251E-008  0.3750145E+03  0.7957747E-01  0.3473158E+00
         13   -1    0    0    0    0  0.00000000000E+00  0.00000000000E+00  0.14999999963E+04  0.15000000000E+04  0.10566000000E+00 0. -1.
        994   -1    0    0    0    0 -0.00000000000E+00 -0.00000000000E+00  0.11368683772E-12  0.17120000000E+03  0.17120000000E+03 0.  0.
         13    1    1    2    0    0  0.59418638630E+01 -0.16313110559E+02  0.19653644772E+02  0.26224039337E+02  0.10566000000E+00 0. -1.
        994    1    1    2    0    0 -0.56647421241E+00  0.14546665075E+02  0.73919677577E+01  0.17197676455E+03  0.17120000000E+03 0.  0.
        998    1    1    2    0    0 -0.53753896506E+01  0.17664454842E+01  0.14729543837E+04  0.14729991961E+04  0.10000000000E+02 0. -1.
</event>
<event>
 5    1  0.1294251E-008  0.3829470E+03  0.7957747E-01  0.3438426E+00
         13   -1    0    0    0    0  0.00000000000E+00  0.00000000000E+00  0.14999999963E+04  0.15000000000E+04  0.10566000000E+00 0.  1.
        994   -1    0    0    0    0 -0.00000000000E+00 -0.00000000000E+00  0.11368683772E-12  0.17120000000E+03  0.17120000000E+03 0.  0.
         13    1    1    2    0    0  0.23788636196E+01  0.13683697613E+02  0.36768109150E+02  0.39304040339E+02  0.10566000000E+00 0.  1.
        994    1    1    2    0    0 -0.37442865081E+01  0.22989505230E+00  0.26994398025E+01  0.17126237038E+03  0.17120000000E+03 0.  0.
        998    1    1    2    0    0  0.13654228885E+01 -0.13913592665E+02  0.14605324473E+04  0.14606335893E+04  0.10000000000E+02 0.  1.
</event>
<event>
 5    1  0.1294251E-008  0.3854144E+03  0.7957747E-01  0.3427916E+00
         13   -1    0    0    0    0  0.00000000000E+00  0.00000000000E+00  0.14999999963E+04  0.15000000000E+04  0.10566000000E+00 0.  1.
        994   -1    0    0    0    0 -0.00000000000E+00 -0.00000000000E+00  0.11368683772E-12  0.17120000000E+03  0.17120000000E+03 0.  0.
         13    1    1    2    0    0 -0.13016194822E+02 -0.82821778484E+01  0.86973836013E+02  0.88331620116E+02  0.10566000000E+00 0.  1.
        994    1    1    2    0    0  0.36092540681E+01  0.44703097962E+01  0.15329363172E+01  0.17130324071E+03  0.17120000000E+03 0.  0.
        998    1    1    2    0    0  0.94069407542E+01  0.38118680522E+01  0.14114932239E+04  0.14115651392E+04  0.10000000000E+02 0.  1.
</event>
<event>
 5    1  0.1294251E-008  0.3851919E+03  0.7957747E-01  0.3428859E+00
         13   -1    0    0    0    0  0.00000000000E+00  0.00000000000E+00  0.14999999963E+04  0.15000000000E+04  0.10566000000E+00 0.  1.
        994   -1    0    0    0    0 -0.00000000000E+00 -0.00000000000E+00  0.11368683772E-12  0.17120000000E+03  0.17120000000E+03 0.  0.
         13    1    1    2    0    0 -0.69039667498E+01  0.16277763955E+02  0.10059032528E+03  0.10213253673E+03  0.10566000000E+00 0.  1.
        994    1    1    2    0    0  0.24017254537E+01 -0.13200028886E+02  0.21267250312E+01  0.17173809131E+03  0.17120000000E+03 0.  0.
        998    1    1    2    0    0  0.45022412962E+01 -0.30777350691E+01  0.13972829460E+04  0.13973293720E+04  0.10000000000E+02 0.  1.
</event>
<event>
 5    1  0.1294251E-008  0.3691725E+03  0.7957747E-01  0.3499703E+00
         13   -1    0    0    0    0  0.00000000000E+00  0.00000000000E+00  0.14999999963E+04  0.15000000000E+04  0.10566000000E+00 0. -1.
        994   -1    0    0    0    0 -0.00000000000E+00 -0.00000000000E+00  0.11368683772E-12  0.17120000000E+03  0.17120000000E+03 0.  0.
         13    1    1    2    0    0  0.12959271254E+03  0.70325631423E+02  0.60798858859E+03  0.62561178105E+03  0.10566000000E+00 0. -1.
        994    1    1    2    0    0 -0.13105824498E+03 -0.55915831366E+02  0.85032363426E+02  0.23841725316E+03  0.17120000000E+03 0.  0.
        998    1    1    2    0    0  0.14655324445E+01 -0.14409800058E+02  0.80697904427E+03  0.80717096579E+03  0.10000000000E+02 0. -1.
</event>
<event>
 5    1  0.1294251E-008  0.3824093E+03  0.7957747E-01  0.3440735E+00
         13   -1    0    0    0    0  0.00000000000E+00  0.00000000000E+00  0.14999999963E+04  0.15000000000E+04  0.10566000000E+00 0. -1.
        994   -1    0    0    0    0 -0.00000000000E+00 -0.00000000000E+00  0.11368683772E-12  0.17120000000E+03  0.17120000000E+03 0.  0.
         13    1    1    2    0    0 -0.68547281715E+01 -0.34653927924E+02  0.19312227719E+03  0.19632653191E+03  0.10566000000E+00 0. -1.
        994    1    1    2    0    0  0.17183914090E+02  0.29501024866E+02  0.67972427500E+01  0.17470329098E+03  0.17120000000E+03 0.  0.
        998    1    1    2    0    0 -0.10329185918E+02  0.51529030585E+01  0.13000804763E+04  0.13001701771E+04  0.10000000000E+02 0. -1.
</event>
<event>
 5    1  0.1294251E-008  0.3761475E+03  0.7957747E-01  0.3468107E+00
         13   -1    0    0    0    0  0.00000000000E+00  0.00000000000E+00  0.14999999963E+04  0.15000000000E+04  0.10566000000E+00 0.  1.
        994   -1    0    0    0    0 -0.00000000000E+00 -0.00000000000E+00  0.11368683772E-12  0.17120000000E+03  0.17120000000E+03 0.  0.
         13    1    1    2    0    0 -0.14189753144E+02  0.12987395620E+03  0.53481366950E+03  0.55053997661E+03  0.10566000000E+00 0.  1.
        994    1    1    2    0    0  0.47136566841E+01 -0.90178483474E+02  0.43971657699E+02  0.19848759186E+03  0.17120000000E+03 0.  0.
        998    1    1    2    0    0  0.94760964599E+01 -0.39695472721E+02  0.92121466908E+03  0.92217243154E+03  0.10000000000E+02 0. -1.
</event>
<event>
 5    1  0.1294251E-008  0.3823012E+03  0.7957747E-01  0.3441199E+00
         13   -1    0    0    0    0  0.00000000000E+00  0.00000000000E+00  0.14999999963E+04  0.15000000000E+04  0.10566000000E+00 0.  1.
        994   -1    0    0    0    0 -0.00000000000E+00 -0.00000000000E+00  0.11368683772E-12  0.17120000000E+03  0.17120000000E+03 0.  0.
         13    1    1    2    0    0  0.24083224392E+02  0.31556332529E+01  0.10330468556E+03  0.10612176469E+03  0.10566000000E+00 0.  1.
        994    1    1    2    0    0 -0.58353366564E+01 -0.66805927040E+01  0.32370883990E+01  0.17146020009E+03  0.17120000000E+03 0.  0.
        998    1    1    2    0    0 -0.18247887735E+02  0.35249594511E+01  0.13934582223E+04  0.13936180352E+04  0.10000000000E+02 0.  1.
</event>
<event>
 5    1  0.1294251E-008  0.3562092E+03  0.7957747E-01  0.3561775E+00
         13   -1    0    0    0    0  0.00000000000E+00  0.00000000000E+00  0.14999999963E+04  0.15000000000E+04  0.10566000000E+00 0. -1.
        994   -1    0    0    0    0 -0.00000000000E+00 -0.00000000000E+00  0.11368683772E-12  0.17120000000E+03  0.17120000000E+03 0.  0.
         13    1    1    2    0    0 -0.63275388965E+02  0.24955821053E+03  0.94681264573E+03  0.98119176136E+03  0.10566000000E+00 0. -1.
        994    1    1    2    0    0  0.86416566637E+02 -0.24271363264E+03  0.28518127095E+03  0.42073213302E+03  0.17120000000E+03 0.  0.
        998    1    1    2    0    0 -0.23141177672E+02 -0.68445778894E+01  0.26800607961E+03  0.26927610562E+03  0.10000000000E+02 0.  1.
</event>
<event>
 5    1  0.1294251E-008  0.3784201E+03  0.7957747E-01  0.3458067E+00
         13   -1    0    0    0    0  0.00000000000E+00  0.00000000000E+00  0.14999999963E+04  0.15000000000E+04  0.10566000000E+00 0. -1.
        994   -1    0    0    0    0 -0.00000000000E+00 -0.00000000000E+00  0.11368683772E-12  0.17120000000E+03  0.17120000000E+03 0.  0.
         13    1    1    2    0    0  0.44587915157E+02  0.39652686410E+02  0.27864273511E+03  0.28496000195E+03  0.10566000000E+00 0. -1.
        994    1    1    2    0    0 -0.53026028731E+02 -0.39752284108E+02  0.19836651501E+02  0.18464814258E+03  0.17120000000E+03 0.  0.
        998    1    1    2    0    0  0.84381135738E+01  0.99597697593E-01  0.12015206097E+04  0.12015918555E+04  0.10000000000E+02 0. -1.
</event>
<event>
 5    1  0.1294251E-008  0.3731009E+03  0.7957747E-01  0.3481760E+00
         13   -1    0    0    0    0  0.00000000000E+00  0.00000000000E+00  0.14999999963E+04  0.15000000000E+04  0.10566000000E+00 0. -1.
        994   -1    0    0    0    0 -0.00000000000E+00 -0.00000000000E+00  0.11368683772E-12  0.17120000000E+03  0.17120000000E+03 0.  0.
         13    1    1    2    0    0 -0.45075634731E+02 -0.28103488941E+02  0.24260880653E+03  0.24835592022E+03  0.10566000000E+00 0. -1.
        994    1    1    2    0    0 -0.22962575644E+02  0.13105997397E+02  0.10052410254E+02  0.17352100161E+03  0.17120000000E+03 0.  0.
        998    1    1    2    0    0  0.68038210374E+02  0.14997491544E+02  0.12473387795E+04  0.12493230782E+04  0.10000000000E+02 0. -1.
</event>
<event>
 5    1  0.1294251E-008  0.3744156E+03  0.7957747E-01  0.3475841E+00
         13   -1    0    0    0    0  0.00000000000E+00  0.00000000000E+00  0.14999999963E+04  0.15000000000E+04  0.10566000000E+00 0. -1.
        994   -1    0    0    0    0 -0.00000000000E+00 -0.00000000000E+00  0.11368683772E-12  0.17120000000E+03  0.17120000000E+03 0.  0.
         13    1    1    2    0    0 -0.11120046142E+02 -0.20489164221E+02  0.15545381445E+02  0.28020194949E+02  0.10566000000E+00 0. -1.
        994    1    1    2    0    0 -0.32347573109E+02  0.96085610655E+01  0.17347065704E+02  0.17535407215E+03  0.17120000000E+03 0.  0.
        998    1    1    2    0    0  0.43467619251E+02  0.10880603155E+02  0.14671075491E+04  0.14678257329E+04  0.10000000000E+02 0. -1.
</event>
<event>
 5    1  0.1294251E-008  0.3804106E+03  0.7957747E-01  0.3449373E+00
         13   -1    0    0    0    0  0.00000000000E+00  0.00000000000E+00  0.14999999963E+04  0.15000000000E+04  0.10566000000E+00 0.  1.
        994   -1    0    0    0    0 -0.00000000000E+00 -0.00000000000E+00  0.11368683772E-12  0.17120000000E+03  0.17120000000E+03 0.  0.
         13    1    1    2    0    0  0.28168237853E+02 -0.18296499345E+02  0.13675199987E+03  0.14081666146E+03  0.10566000000E+00 0.  1.
        994    1    1    2    0    0 -0.20728554689E+02  0.16631760768E+02  0.62874498734E+01  0.17336453060E+03  0.17120000000E+03 0.  0.
        998    1    1    2    0    0 -0.74396831644E+01  0.16647385768E+01  0.13569605465E+04  0.13570188079E+04  0.10000000000E+02 0.  1.
</event>
<event>
 5    1  0.1294251E-008  0.3858869E+03  0.7957747E-01  0.3425919E+00
         13   -1    0    0    0    0  0.00000000000E+00  0.00000000000E+00  0.14999999963E+04  0.15000000000E+04  0.10566000000E+00 0. -1.
        994   -1    0    0    0    0 -0.00000000000E+00 -0.00000000000E+00  0.11368683772E-12  0.17120000000E+03  0.17120000000E+03 0.  0.
         13    1    1    2    0    0  0.12469737591E+00  0.11428052237E+02  0.57229757918E+02  0.58359851634E+02  0.10566000000E+00 0. -1.
        994    1    1    2    0    0  0.98658526835E+01 -0.32584876868E+01  0.15445083800E+01  0.17152194698E+03  0.17120000000E+03 0.  0.
        998    1    1    2    0    0 -0.99905500594E+01 -0.81695645500E+01  0.14412257300E+04  0.14413182014E+04  0.10000000000E+02 0. -1.
</event>
<event>
 5    1  0.1294251E-008  0.3742100E+03  0.7957747E-01  0.3476763E+00
         13   -1    0    0    0    0  0.00000000000E+00  0.00000000000E+00  0.14999999963E+04  0.15000000000E+04  0.10566000000E+00 0. -1.
        994   -1    0    0    0    0 -0.00000000000E+00 -0.00000000000E+00  0.11368683772E-12  0.17120000000E+03  0.17120000000E+03 0.  0.
         13    1    1    2    0    0  0.50710453141E+01 -0.18391010785E+02  0.21966694359E+02  0.29094528753E+02  0.10566000000E+00 0. -1.
        994    1    1    2    0    0 -0.19087526537E+01  0.26682967022E+02  0.95278650396E+01  0.17353917217E+03  0.17120000000E+03 0.  0.
        998    1    1    2    0    0 -0.31622926604E+01 -0.82919562371E+01  0.14685054369E+04  0.14685662991E+04  0.10000000000E+02 0. -1.
</event>
<event>
 5    1  0.1294251E-008  0.3840026E+03  0.7957747E-01  0.3433913E+00
         13   -1    0    0    0    0  0.00000000000E+00  0.00000000000E+00  0.14999999963E+04  0.15000000000E+04  0.10566000000E+00 0. -1.
        994   -1    0    0    0    0 -0.00000000000E+00 -0.00000000000E+00  0.11368683772E-12  0.17120000000E+03  0.17120000000E+03 0.  0.
         13    1    1    2    0    0 -0.45609017894E+01 -0.10002303229E+02  0.27012416780E+02  0.29163842672E+02  0.10566000000E+00 0. -1.
        994    1    1    2    0    0  0.35822531362E+01  0.15135632619E+02  0.29246894902E+01  0.17192996749E+03  0.17120000000E+03 0.  0.
        998    1    1    2    0    0  0.97864865327E+00 -0.51333293901E+01  0.14700628900E+04  0.14701061898E+04  0.10000000000E+02 0. -1.
</event>
<event>
 5    1  0.1294251E-008  0.3816197E+03  0.7957747E-01  0.3444136E+00
         13   -1    0    0    0    0  0.00000000000E+00  0.00000000000E+00  0.14999999963E+04  0.15000000000E+04  0.10566000000E+00 0. -1.
        994   -1    0    0    0    0 -0.00000000000E+00 -0.00000000000E+00  0.11368683772E-12  0.17120000000E+03  0.17120000000E+03 0.  0.
         13    1    1    2    0    0 -0.14742517974E+02  0.95921724217E+00  0.31243615207E+02  0.34560621944E+02  0.10566000000E+00 0. -1.
        994    1    1    2    0    0  0.14263511950E+02  0.51902976940E+01  0.40841890215E+01  0.17192006155E+03  0.17120000000E+03 0.  0.
        998    1    1    2    0    0  0.47900602446E+00 -0.61495149362E+01  0.14646721921E+04  0.14647193165E+04  0.10000000000E+02 0. -1.
</event>
<event>
 5    1  0.1294251E-008  0.3740866E+03  0.7957747E-01  0.3477318E+00
         13   -1    0    0    0    0  0.00000000000E+00  0.00000000000E+00  0.14999999963E+04  0.15000000000E+04  0.10566000000E+00 0. -1.
        994   -1    0    0    0    0 -0.00000000000E+00 -0.00000000000E+00  0.11368683772E-12  0.17120000000E+03  0.17120000000E+03 0.  0.
         13    1    1    2    0    0 -0.35398291655E+02 -0.52098775220E+02  0.22824167470E+03  0.23677329804E+03  0.10566000000E+00 0. -1.
        994    1    1    2    0    0  0.42252162776E+02  0.52184976961E+02  0.22680381064E+02  0.18528992624E+03  0.17120000000E+03 0.  0.
        998    1    1    2    0    0 -0.68538711209E+01 -0.86201741123E-01  0.12490779405E+04  0.12491367757E+04  0.10000000000E+02 0. -1.
</event>
<event>
 5    1  0.1294251E-008  0.3808354E+03  0.7957747E-01  0.3447529E+00
         13   -1    0    0    0    0  0.00000000000E+00  0.00000000000E+00  0.14999999963E+04  0.15000000000E+04  0.10566000000E+00 0.  1.
        994   -1    0    0    0    0 -0.00000000000E+00 -0.00000000000E+00  0.11368683772E-12  0.17120000000E+03  0.17120000000E+03 0.  0.
         13    1    1    2    0    0 -0.44202262338E+01  0.18630225115E+02  0.45801056343E+02  0.49642437631E+02  0.10566000000E+00 0.  1.
        994    1    1    2    0    0 -0.30811470170E+02 -0.33500406034E+02  0.10649255664E+02  0.17746681533E+03  0.17120000000E+03 0.  0.
        998    1    1    2    0    0  0.35231696403E+02  0.14870180918E+02  0.14435496843E+04  0.14440907470E+04  0.10000000000E+02 0.  1.
</event>
<event>
 5    1  0.1294251E-008  0.3818608E+03  0.7957747E-01  0.3443096E+00
         13   -1    0    0    0    0  0.00000000000E+00  0.00000000000E+00  0.14999999963E+04  0.15000000000E+04  0.10566000000E+00 0. -1.
        994   -1    0    0    0    0 -0.00000000000E+00 -0.00000000000E+00  0.11368683772E-12  0.17120000000E+03  0.17120000000E+03 0.  0.
         13    1    1    2    0    0 -0.14912019251E+03 -0.72902049434E+02  0.87415529435E+03  0.88977470768E+03  0.10566000000E+00 0. -1.
        994    1    1    2    0    0  0.17271450521E+03  0.74324654148E+02  0.13124993197E+03  0.28616505581E+03  0.17120000000E+03 0.  0.
        998    1    1    2    0    0 -0.23594312702E+02 -0.14226047136E+01  0.49459476995E+03  0.49526023650E+03  0.10000000000E+02 0. -1.
</event>
<event>
 5    1  0.1294251E-008  0.3772633E+03  0.7957747E-01  0.3463162E+00
         13   -1    0    0    0    0  0.00000000000E+00  0.00000000000E+00  0.14999999963E+04  0.15000000000E+04  0.10566000000E+00 0.  1.
        994   -1    0    0    0    0 -0.00000000000E+00 -0.00000000000E+00  0.11368683772E-12  0.17120000000E+03  0.17120000000E+03 0.  0.
         13    1    1    2    0    0 -0.20373042840E+02  0.14683235487E+02  0.54453244317E+02  0.59965200405E+02  0.10566000000E+00 0.  1.
        994    1    1    2    0    0  0.18645168033E+02 -0.69039193875E+01  0.68557231813E+01  0.17248694830E+03  0.17120000000E+03 0.  0.
        998    1    1    2    0    0  0.17278748062E+01 -0.77793160990E+01  0.14386910288E+04  0.14387478513E+04  0.10000000000E+02 0.  1.
</event>
<event>
 5    1  0.1294251E-008  0.3751101E+03  0.7957747E-01  0.3472731E+00
         13   -1    0    0    0    0  0.00000000000E+00  0.00000000000E+00  0.14999999963E+04  0.15000000000E+04  0.10566000000E+00 0.  1.
        994   -1    0    0    0    0 -0.00000000000E+00 -0.00000000000E+00  0.11368683772E-12  0.17120000000E+03  0.17120000000E+03 0.  0.
         13    1    1    2    0    0  0.26651670456E+02  0.10726859795E+02  0.57641536899E+02  0.64404464125E+02  0.10566000000E+00 0.  1.
        994    1    1    2    0    0 -0.16028039471E+02 -0.39180484099E+02  0.12735774651E+02  0.17681529442E+03  0.17120000000E+03 0.  0.
        998    1    1    2    0    0 -0.10623630985E+02  0.28453624304E+02  0.14296226847E+04  0.14299802415E+04  0.10000000000E+02 0.  1.
</event>
<event>
 5    1  0.1294251E-008  0.3904278E+03  0.7957747E-01  0.3406973E+00
         13   -1    0    0    0    0  0.00000000000E+00  0.00000000000E+00  0.14999999963E+04  0.15000000000E+04  0.10566000000E+00 0. -1.
        994   -1    0    0    0    0 -0.00000000000E+00 -0.00000000000E+00  0.11368683772E-12  0.17120000000E+03  0.17120000000E+03 0.  0.
         13    1    1    2    0    0 -0.55268051040E+01 -0.11154214855E+03  0.33447102296E+03  0.35262313146E+03  0.10566000000E+00 0. -1.
        994    1    1    2    0    0  0.13706341410E+02  0.29692650635E+02  0.26217912626E+02  0.17625645021E+03  0.17120000000E+03 0.  0.
        998    1    1    2    0    0 -0.81795363059E+01  0.81849497916E+02  0.11393110607E+04  0.11423204183E+04  0.10000000000E+02 0. -1.
</event>
<event>
 5    1  0.1294251E-008  0.3792259E+03  0.7957747E-01  0.3454536E+00
         13   -1    0    0    0    0  0.00000000000E+00  0.00000000000E+00  0.14999999963E+04  0.15000000000E+04  0.10566000000E+00 0.  1.
        994   -1    0    0    0    0 -0.00000000000E+00 -0.00000000000E+00  0.11368683772E-12  0.17120000000E+03  0.17120000000E+03 0.  0.
         13    1    1    2    0    0 -0.17314408015E+03  0.73198468526E+02  0.10033094473E+04  0.10207677241E+04  0.10566000000E+00 0.  1.
        994    1    1    2    0    0  0.16966385567E+03 -0.80553486567E+02  0.13359758619E+03  0.28711050687E+03  0.17120000000E+03 0.  0.
        998    1    1    2    0    0  0.34802244861E+01  0.73550180410E+01  0.36309296278E+03  0.36332176906E+03  0.10000000000E+02 0.  0.
</event>
<event>
 5    1  0.1294251E-008  0.3736871E+03  0.7957747E-01  0.3479115E+00
         13   -1    0    0    0    0  0.00000000000E+00  0.00000000000E+00  0.14999999963E+04  0.15000000000E+04  0.10566000000E+00 0.  1.
        994   -1    0    0    0    0 -0.00000000000E+00 -0.00000000000E+00  0.11368683772E-12  0.17120000000E+03  0.17120000000E+03 0.  0.
         13    1    1    2    0    0  0.81638180336E+02  0.13225421592E+02  0.35628100048E+03  0.36575383351E+03  0.10566000000E+00 0.  1.
        994    1    1    2    0    0  0.23247129724E+01 -0.32841611004E+02  0.16750678538E+02  0.17513994671E+03  0.17120000000E+03 0.  0.
        998    1    1    2    0    0 -0.83962893308E+02  0.19616189412E+02  0.11269683173E+04  0.11303062198E+04  0.10000000000E+02 0.  1.
</event>
<event>
 5    1  0.1294251E-008  0.3850356E+03  0.7957747E-01  0.3429521E+00
         13   -1    0    0    0    0  0.00000000000E+00  0.00000000000E+00  0.14999999963E+04  0.15000000000E+04  0.10566000000E+00 0. -1.
        994   -1    0    0    0    0 -0.00000000000E+00 -0.00000000000E+00  0.11368683772E-12  0.17120000000E+03  0.17120000000E+03 0.  0.
         13    1    1    2    0    0 -0.13731330236E+02 -0.89062802700E+00  0.58157436155E+02  0.59763209356E+02  0.10566000000E+00 0. -1.
        994    1    1    2    0    0  0.10424735712E+02  0.54875703492E+01  0.20689655281E+01  0.17161733351E+03  0.17120000000E+03 0.  0.
        998    1    1    2    0    0  0.33065945235E+01 -0.45969423222E+01  0.14397735946E+04  0.14398194571E+04  0.10000000000E+02 0. -1.
</event>
<event>
 5    1  0.1294251E-008  0.3718493E+03  0.7957747E-01  0.3487435E+00
         13   -1    0    0    0    0  0.00000000000E+00  0.00000000000E+00  0.14999999963E+04  0.15000000000E+04  0.10566000000E+00 0.  1.
        994   -1    0    0    0    0 -0.00000000000E+00 -0.00000000000E+00  0.11368683772E-12  0.17120000000E+03  0.17120000000E+03 0.  0.
         13    1    1    2    0    0  0.67546910774E+02 -0.41707343492E+02  0.45783706415E+03  0.46466856590E+03  0.10566000000E+00 0.  1.
        994    1    1    2    0    0 -0.19234205198E+02  0.16150446137E+02  0.10475930994E+02  0.17334929100E+03  0.17120000000E+03 0.  0.
        998    1    1    2    0    0 -0.48312705576E+02  0.25556897355E+02  0.10316870011E+04  0.10331821431E+04  0.10000000000E+02 0.  1.
</event>
<event>
 5    1  0.1294251E-008  0.3692368E+03  0.7957747E-01  0.3499406E+00
         13   -1    0    0    0    0  0.00000000000E+00  0.00000000000E+00  0.14999999963E+04  0.15000000000E+04  0.10566000000E+00 0.  1.
        994   -1    0    0    0    0 -0.00000000000E+00 -0.00000000000E+00  0.11368683772E-12  0.17120000000E+03  0.17120000000E+03 0.  0.
         13    1    1    2    0    0 -0.20078338077E+02 -0.45859242896E+02  0.10686765236E+03  0.11801235573E+03  0.10566000000E+00 0.  1.
        994    1    1    2    0    0  0.25663107355E+02  0.45487712355E+02  0.20107730254E+02  0.18011520722E+03  0.17120000000E+03 0.  0.
        998    1    1    2    0    0 -0.55847692785E+01  0.37153054109E+00  0.13730246137E+04  0.13730724371E+04  0.10000000000E+02 0.  1.
</event>
<event>
 5    1  0.1294251E-008  0.3853130E+03  0.7957747E-01  0.3428346E+00
         13   -1    0    0    0    0  0.00000000000E+00  0.00000000000E+00  0.14999999963E+04  0.15000000000E+04  0.10566000000E+00 0. -1.
        994   -1    0    0    0    0 -0.00000000000E+00 -0.00000000000E+00  0.11368683772E-12  0.17120000000E+03  0.17120000000E+03 0.  0.
         13    1    1    2    0    0  0.12648763062E+02 -0.34077033058E+01  0.62212797265E+02  0.63577094589E+02  0.10566000000E+00 0. -1.
        994    1    1    2    0    0  0.25395769528E+01  0.55544175525E+01  0.15973716752E+01  0.17131635241E+03  0.17120000000E+03 0.  0.
        998    1    1    2    0    0 -0.15188340014E+02 -0.21467142467E+01  0.14361898273E+04  0.14363065530E+04  0.10000000000E+02 0. -1.
</event>
<event>
 5    1  0.1294251E-008  0.3768021E+03  0.7957747E-01  0.3465202E+00
         13   -1    0    0    0    0  0.00000000000E+00  0.00000000000E+00  0.14999999963E+04  0.15000000000E+04  0.10566000000E+00 0.  1.
        994   -1    0    0    0    0 -0.00000000000E+00 -0.00000000000E+00  0.11368683772E-12  0.17120000000E+03  0.17120000000E+03 0.  0.
         13    1    1    2    0    0 -0.21049932267E+02  0.98935889998E+01  0.44992609664E+02  0.50649075412E+02  0.10566000000E+00 0.  1.
        994    1    1    2    0    0  0.13083493029E+02 -0.40838502055E+01  0.63911735895E+01  0.17186664226E+03  0.17120000000E+03 0.  0.
        998    1    1    2    0    0  0.79664392384E+01 -0.58097387943E+01  0.14486162130E+04  0.14486842823E+04  0.10000000000E+02 0.  1.
</event>
<event>
 5    1  0.1294251E-008  0.3851881E+03  0.7957747E-01  0.3428875E+00
         13   -1    0    0    0    0  0.00000000000E+00  0.00000000000E+00  0.14999999963E+04  0.15000000000E+04  0.10566000000E+00 0.  1.
        994   -1    0    0    0    0 -0.00000000000E+00 -0.00000000000E+00  0.11368683772E-12  0.17120000000E+03  0.17120000000E+03 0.  0.
         13    1    1    2    0    0  0.11404401560E+01  0.11364081048E+02  0.48186473651E+02  0.49521614965E+02  0.10566000000E+00 0.  1.
        994    1    1    2    0    0  0.44223768154E+01  0.14037468705E+02  0.22490124065E+01  0.17184616959E+03  0.17120000000E+03 0.  0.
        998    1    1    2    0    0 -0.55628169715E+01 -0.25401549753E+02  0.14495645102E+04  0.14498322154E+04  0.10000000000E+02 0.  1.
</event>
<event>
 5    1  0.1294251E-008  0.3848964E+03  0.7957747E-01  0.3430112E+00
         13   -1    0    0    0    0  0.00000000000E+00  0.00000000000E+00  0.14999999963E+04  0.15000000000E+04  0.10566000000E+00 0.  1.
        994   -1    0    0    0    0 -0.00000000000E+00 -0.00000000000E+00  0.11368683772E-12  0.17120000000E+03  0.17120000000E+03 0.  0.
         13    1    1    2    0    0 -0.87842232316E+00 -0.17818868870E+02  0.90538765892E+02  0.92279808229E+02  0.10566000000E+00 0.  1.
        994    1    1    2    0    0 -0.69171427775E+01  0.17954986878E+02  0.29004905403E+01  0.17230229616E+03  0.17120000000E+03 0.  0.
        998    1    1    2    0    0  0.77955651007E+01 -0.13611800779E+00  0.14065607398E+04  0.14066178956E+04  0.10000000000E+02 0.  1.
</event>
<event>
 5    1  0.1294251E-008  0.3825812E+03  0.7957747E-01  0.3439996E+00
         13   -1    0    0    0    0  0.00000000000E+00  0.00000000000E+00  0.14999999963E+04  0.15000000000E+04  0.10566000000E+00 0.  1.
        994   -1    0    0    0    0 -0.00000000000E+00 -0.00000000000E+00  0.11368683772E-12  0.17120000000E+03  0.17120000000E+03 0.  0.
         13    1    1    2    0    0 -0.20245340237E+02  0.91874015047E+01  0.91903911259E+02  0.94554863526E+02  0.10566000000E+00 0.  1.
        994    1    1    2    0    0  0.67184080962E+01  0.69148453451E+01  0.31439951830E+01  0.17150007813E+03  0.17120000000E+03 0.  0.
        998    1    1    2    0    0  0.13526932141E+02 -0.16102246850E+02  0.14049520898E+04  0.14051450583E+04  0.10000000000E+02 0.  1.
</event>
<event>
 5    1  0.1294251E-008  0.3833187E+03  0.7957747E-01  0.3436834E+00
         13   -1    0    0    0    0  0.00000000000E+00  0.00000000000E+00  0.14999999963E+04  0.15000000000E+04  0.10566000000E+00 0. -1.
        994   -1    0    0    0    0 -0.00000000000E+00 -0.00000000000E+00  0.11368683772E-12  0.17120000000E+03  0.17120000000E+03 0.  0.
         13    1    1    2    0    0  0.94625316965E+01  0.88581562835E+01  0.33259622025E+02  0.35696219130E+02  0.10566000000E+00 0. -1.
        994    1    1    2    0    0 -0.74177486479E+01 -0.51238326497E+01  0.27359758730E+01  0.17145903948E+03  0.17120000000E+03 0.  0.
        998    1    1    2    0    0 -0.20447830486E+01 -0.37343236338E+01  0.14640043984E+04  0.14640447414E+04  0.10000000000E+02 0. -1.
</event>
<event>
 5    1  0.1294251E-008  0.3825422E+03  0.7957747E-01  0.3440163E+00
         13   -1    0    0    0    0  0.00000000000E+00  0.00000000000E+00  0.14999999963E+04  0.15000000000E+04  0.10566000000E+00 0.  1.
        994   -1    0    0    0    0 -0.00000000000E+00 -0.00000000000E+00  0.11368683772E-12  0.17120000000E+03  0.17120000000E+03 0.  0.
         13    1    1    2    0    0 -0.54168536116E+01 -0.11059189505E+02  0.25217274747E+02  0.28063679111E+02  0.10566000000E+00 0.  1.
        994    1    1    2    0    0  0.60927136981E+01  0.10377141954E+02  0.33354978142E+01  0.17165480413E+03  0.17120000000E+03 0.  0.
        998    1    1    2    0    0 -0.67586008656E+00  0.68204755139E+00  0.14714472237E+04  0.14714815168E+04  0.10000000000E+02 0.  1.
</event>
<event>
 5    1  0.1294251E-008  0.3841586E+03  0.7957747E-01  0.3433249E+00
         13   -1    0    0    0    0  0.00000000000E+00  0.00000000000E+00  0.14999999963E+04  0.15000000000E+04  0.10566000000E+00 0. -1.
        994   -1    0    0    0    0 -0.00000000000E+00 -0.00000000000E+00  0.11368683772E-12  0.17120000000E+03  0.17120000000E+03 0.  0.
         13    1    1    2    0    0 -0.13932538670E+03 -0.12218725826E+03  0.10980102261E+04  0.11135383950E+04  0.10566000000E+00 0. -1.
        994    1    1    2    0    0  0.13948307764E+03  0.13578776454E+03  0.13903723169E+03  0.29416770343E+03  0.17120000000E+03 0.  0.
        998    1    1    2    0    0 -0.15769094224E+00 -0.13600506280E+02  0.26295253850E+03  0.26349390152E+03  0.10000000000E+02 0.  1.
</event>
<event>
 5    1  0.1294251E-008  0.3819241E+03  0.7957747E-01  0.3442823E+00
         13   -1    0    0    0    0  0.00000000000E+00  0.00000000000E+00  0.14999999963E+04  0.15000000000E+04  0.10566000000E+00 0. -1.
        994   -1    0    0    0    0 -0.00000000000E+00 -0.00000000000E+00  0.11368683772E-12  0.17120000000E+03  0.17120000000E+03 0.  0.
         13    1    1    2    0    0 -0.57500835839E+00  0.32604440952E+02  0.15509446121E+03  0.15848559324E+03  0.10566000000E+00 0. -1.
        994    1    1    2    0    0 -0.79660033292E+01 -0.29731251727E+02  0.63184785369E+01  0.17405966710E+03  0.17120000000E+03 0.  0.
        998    1    1    2    0    0  0.85410116876E+01 -0.28731892251E+01  0.13385870565E+04  0.13386547397E+04  0.10000000000E+02 0. -1.
</event>
<event>
 5    1  0.1294251E-008  0.3798957E+03  0.7957747E-01  0.3451613E+00
         13   -1    0    0    0    0  0.00000000000E+00  0.00000000000E+00  0.14999999963E+04  0.15000000000E+04  0.10566000000E+00 0. -1.
        994   -1    0    0    0    0 -0.00000000000E+00 -0.00000000000E+00  0.11368683772E-12  0.17120000000E+03  0.17120000000E+03 0.  0.
         13    1    1    2    0    0  0.10825388432E+02  0.27017367426E+02  0.10842851056E+03  0.11226700425E+03  0.10566000000E+00 0. -1.
        994    1    1    2    0    0 -0.30019451371E+01 -0.11247757152E+01  0.42201866122E+01  0.17128200948E+03  0.17120000000E+03 0.  0.
        998    1    1    2    0    0 -0.78234432944E+01 -0.25892591711E+02  0.13873512991E+04  0.13876509863E+04  0.10000000000E+02 0. -1.
</event>
<event>
 5    1  0.1294251E-008  0.3836999E+03  0.7957747E-01  0.3435205E+00
         13   -1    0    0    0    0  0.00000000000E+00  0.00000000000E+00  0.14999999963E+04  0.15000000000E+04  0.10566000000E+00 0. -1.
        994   -1    0    0    0    0 -0.00000000000E+00 -0.00000000000E+00  0.11368683772E-12  0.17120000000E+03  0.17120000000E+03 0.  0.
         13    1    1    2    0    0 -0.12070310997E+02  0.14536182697E+02  0.74539623481E+02  0.76897071775E+02  0.10566000000E+00 0. -1.
        994    1    1    2    0    0  0.12361811631E+02 -0.15300470079E+02  0.35558406373E+01  0.17236299711E+03  0.17120000000E+03 0.  0.
        998    1    1    2    0    0 -0.29150063368E+00  0.76428738135E+00  0.14219045322E+04  0.14219399311E+04  0.10000000000E+02 0. -1.
</event>
<event>
 5    1  0.1294251E-008  0.3746136E+03  0.7957747E-01  0.3474952E+00
         13   -1    0    0    0    0  0.00000000000E+00  0.00000000000E+00  0.14999999963E+04  0.15000000000E+04  0.10566000000E+00 0.  1.
        994   -1    0    0    0    0 -0.00000000000E+00 -0.00000000000E+00  0.11368683772E-12  0.17120000000E+03  0.17120000000E+03 0.  0.
         13    1    1    2    0    0 -0.29195216955E+02  0.20970739832E+02  0.86448864757E+02  0.93624516041E+02  0.10566000000E+00 0.  1.
        994    1    1    2    0    0  0.30558255014E+02 -0.20452723944E+02  0.11493280936E+02  0.17548121373E+03  0.17120000000E+03 0.  0.
        998    1    1    2    0    0 -0.13630380595E+01 -0.51801588792E+00  0.14020578506E+04  0.14020942702E+04  0.10000000000E+02 0.  1.
</event>
<event>
 5    1  0.1294251E-008  0.3849984E+03  0.7957747E-01  0.3429679E+00
         13   -1    0    0    0    0  0.00000000000E+00  0.00000000000E+00  0.14999999963E+04  0.15000000000E+04  0.10566000000E+00 0.  1.
        994   -1    0    0    0    0 -0.00000000000E+00 -0.00000000000E+00  0.11368683772E-12  0.17120000000E+03  0.17120000000E+03 0.  0.
         13    1    1    2    0    0 -0.84219630069E+01  0.14107946918E+02  0.82817845806E+02  0.84432045901E+02  0.10566000000E+00 0.  1.
        994    1    1    2    0    0  0.21565734813E+01 -0.11134744555E+02  0.20540865229E+01  0.17158756545E+03  0.17120000000E+03 0.  0.
        998    1    1    2    0    0  0.62653895255E+01 -0.29732023626E+01  0.14151280639E+04  0.14151803886E+04  0.10000000000E+02 0.  1.
</event>
<event>
 5    1  0.1294251E-008  0.3692367E+03  0.7957747E-01  0.3499406E+00
         13   -1    0    0    0    0  0.00000000000E+00  0.00000000000E+00  0.14999999963E+04  0.15000000000E+04  0.10566000000E+00 0.  1.
        994   -1    0    0    0    0 -0.00000000000E+00 -0.00000000000E+00  0.11368683772E-12  0.17120000000E+03  0.17120000000E+03 0.  0.
         13    1    1    2    0    0  0.58469153943E+02 -0.66024923624E+02  0.35441399184E+03  0.36522215333E+03  0.10566000000E+00 0.  1.
        994    1    1    2    0    0 -0.55664477605E+02  0.41453547337E+02  0.26558696065E+02  0.18663262038E+03  0.17120000000E+03 0.  0.
        998    1    1    2    0    0 -0.28046763380E+01  0.24571376286E+02  0.11190273084E+04  0.11193452263E+04  0.10000000000E+02 0.  1.
</event>
<event>
 5    1  0.1294251E-008  0.3723846E+03  0.7957747E-01  0.3485003E+00
         13   -1    0    0    0    0  0.00000000000E+00  0.00000000000E+00  0.14999999963E+04  0.15000000000E+04  0.10566000000E+00 0.  1.
        994   -1    0    0    0    0 -0.00000000000E+00 -0.00000000000E+00  0.11368683772E-12  0.17120000000E+03  0.17120000000E+03 0.  0.
         13    1    1    2    0    0 -0.55096921320E+02  0.36269679047E+02  0.22106154748E+03  0.23069325802E+03  0.10566000000E+00 0.  1.
        994    1    1    2    0    0 -0.16531387344E+02 -0.12278504932E+02  0.13701662264E+02  0.17297752455E+03  0.17120000000E+03 0.  0.
        998    1    1    2    0    0  0.71628308664E+02 -0.23991174115E+02  0.12652367865E+04  0.12675292174E+04  0.10000000000E+02 0.  1.
</event>
<event>
 5    1  0.1294251E-008  0.3741753E+03  0.7957747E-01  0.3476919E+00
         13   -1    0    0    0    0  0.00000000000E+00  0.00000000000E+00  0.14999999963E+04  0.15000000000E+04  0.10566000000E+00 0. -1.
        994   -1    0    0    0    0 -0.00000000000E+00 -0.00000000000E+00  0.11368683772E-12  0.17120000000E+03  0.17120000000E+03 0.  0.
         13    1    1    2    0    0  0.17877219895E+03  0.10485089988E+03  0.86928369815E+03  0.89364834770E+03  0.10566000000E+00 0. -1.
        994    1    1    2    0    0 -0.18113673731E+03 -0.10826193218E+03  0.17830925037E+03  0.32501506478E+03  0.17120000000E+03 0.  0.
        998    1    1    2    0    0  0.23645383672E+01  0.34110322915E+01  0.45240704776E+03  0.45253658752E+03  0.10000000000E+02 0. -1.
</event>
<event>
 5    1  0.1294251E-008  0.3840558E+03  0.7957747E-01  0.3433687E+00
         13   -1    0    0    0    0  0.00000000000E+00  0.00000000000E+00  0.14999999963E+04  0.15000000000E+04  0.10566000000E+00 0. -1.
        994   -1    0    0    0    0 -0.00000000000E+00 -0.00000000000E+00  0.11368683772E-12  0.17120000000E+03  0.17120000000E+03 0.  0.
         13    1    1    2    0    0 -0.16914110646E+02  0.28080552407E+01  0.72558549137E+02  0.74556867759E+02  0.10566000000E+00 0. -1.
        994    1    1    2    0    0  0.22750970314E+01 -0.12635607097E+02  0.26435836871E+01  0.17170108668E+03  0.17120000000E+03 0.  0.
        998    1    1    2    0    0  0.14639013614E+02  0.98275518563E+01  0.14247978635E+04  0.14249420456E+04  0.10000000000E+02 0. -1.
</event>
<event>
 5    1  0.1294251E-008  0.3844688E+03  0.7957747E-01  0.3431928E+00
         13   -1    0    0    0    0  0.00000000000E+00  0.00000000000E+00  0.14999999963E+04  0.15000000000E+04  0.10566000000E+00 0.  1.
        994   -1    0    0    0    0 -0.00000000000E+00 -0.00000000000E+00  0.11368683772E-12  0.17120000000E+03  0.17120000000E+03 0.  0.
         13    1    1    2    0    0  0.81960969963E+01 -0.80954973676E+01  0.34726442434E+02  0.36587566901E+02  0.10566000000E+00 0.  1.
        994    1    1    2    0    0 -0.26290658987E+01  0.76915892621E+01  0.21118090886E+01  0.17140587000E+03  0.17120000000E+03 0.  0.
        998    1    1    2    0    0 -0.55670310976E+01  0.40390810553E+00  0.14631617448E+04  0.14632065631E+04  0.10000000000E+02 0.  1.
</event>
<event>
 5    1  0.1294251E-008  0.3811825E+03  0.7957747E-01  0.3446026E+00
         13   -1    0    0    0    0  0.00000000000E+00  0.00000000000E+00  0.14999999963E+04  0.15000000000E+04  0.10566000000E+00 0. -1.
        994   -1    0    0    0    0 -0.00000000000E+00 -0.00000000000E+00  0.11368683772E-12  0.17120000000E+03  0.17120000000E+03 0.  0.
         13    1    1    2    0    0  0.49095118708E+02 -0.69494913440E+01  0.29907782980E+03  0.30316032978E+03  0.10566000000E+00 0. -1.
        994    1    1    2    0    0 -0.41216942124E+02  0.20737749253E+02  0.10659107561E+02  0.17762867768E+03  0.17120000000E+03 0.  0.
        998    1    1    2    0    0 -0.78781765844E+01 -0.13788257909E+02  0.11902630589E+04  0.11904109925E+04  0.10000000000E+02 0. -1.
</event>
<event>
 5    1  0.1294251E-008  0.3814734E+03  0.7957747E-01  0.3444768E+00
         13   -1    0    0    0    0  0.00000000000E+00  0.00000000000E+00  0.14999999963E+04  0.15000000000E+04  0.10566000000E+00 0. -1.
        994   -1    0    0    0    0 -0.00000000000E+00 -0.00000000000E+00  0.11368683772E-12  0.17120000000E+03  0.17120000000E+03 0.  0.
         13    1    1    2    0    0 -0.21154469014E+01 -0.34982850967E+02  0.20521109811E+03  0.20818232617E+03  0.10566000000E+00 0. -1.
        994    1    1    2    0    0  0.82097559911E+01  0.43712609691E+01  0.36790948864E+01  0.17149193496E+03  0.17120000000E+03 0.  0.
        998    1    1    2    0    0 -0.60943090896E+01  0.30611589998E+02  0.12911098033E+04  0.12915257389E+04  0.10000000000E+02 0. -1.
</event>
<event>
 5    1  0.1294251E-008  0.3949907E+03  0.7957747E-01  0.3388375E+00
         13   -1    0    0    0    0  0.00000000000E+00  0.00000000000E+00  0.14999999963E+04  0.15000000000E+04  0.10566000000E+00 0. -1.
        994   -1    0    0    0    0 -0.00000000000E+00 -0.00000000000E+00  0.11368683772E-12  0.17120000000E+03  0.17120000000E+03 0.  0.
         13    1    1    2    0    0 -0.26761989725E+02 -0.48011474817E+02  0.47906253578E+02  0.72913140819E+02  0.10566000000E+00 0. -1.
        994    1    1    2    0    0  0.47434746318E+02  0.56973631069E+02  0.46227151483E+02  0.19220416054E+03  0.17120000000E+03 0.  0.
        998    1    1    2    0    0 -0.20672756593E+02 -0.89621562522E+01  0.14058665912E+04  0.14060826986E+04  0.10000000000E+02 0. -1.
</event>
<event>
 5    1  0.1294251E-008  0.3842273E+03  0.7957747E-01  0.3432956E+00
         13   -1    0    0    0    0  0.00000000000E+00  0.00000000000E+00  0.14999999963E+04  0.15000000000E+04  0.10566000000E+00 0.  1.
        994   -1    0    0    0    0 -0.00000000000E+00 -0.00000000000E+00  0.11368683772E-12  0.17120000000E+03  0.17120000000E+03 0.  0.
         13    1    1    2    0    0  0.71102805159E+01 -0.18222361715E+02  0.10363715365E+03  0.10546696798E+03  0.10566000000E+00 0.  1.
        994    1    1    2    0    0 -0.85803738836E+01 -0.31760213775E+01  0.22902675563E+01  0.17145960239E+03  0.17120000000E+03 0.  0.
        998    1    1    2    0    0  0.14700933676E+01  0.21398383093E+02  0.13940725751E+04  0.13942734296E+04  0.10000000000E+02 0.  1.
</event>
<event>
 5    1  0.1294251E-008  0.3710501E+03  0.7957747E-01  0.3491078E+00
         13   -1    0    0    0    0  0.00000000000E+00  0.00000000000E+00  0.14999999963E+04  0.15000000000E+04  0.10566000000E+00 0.  1.
        994   -1    0    0    0    0 -0.00000000000E+00 -0.00000000000E+00  0.11368683772E-12  0.17120000000E+03  0.17120000000E+03 0.  0.
         13    1    1    2    0    0 -0.17309926213E+02  0.48354085457E+02  0.16496980670E+03  0.17277962673E+03  0.10566000000E+00 0.  1.
        994    1    1    2    0    0  0.17397834295E+02 -0.33881781742E+01  0.98042777640E+01  0.17239410736E+03  0.17120000000E+03 0.  0.
        998    1    1    2    0    0 -0.87908082370E-01 -0.44965907282E+02  0.13252259118E+04  0.13260262659E+04  0.10000000000E+02 0.  1.
</event>
<event>
 5    1  0.1294251E-008  0.3819141E+03  0.7957747E-01  0.3442866E+00
         13   -1    0    0    0    0  0.00000000000E+00  0.00000000000E+00  0.14999999963E+04  0.15000000000E+04  0.10566000000E+00 0. -1.
        994   -1    0    0    0    0 -0.00000000000E+00 -0.00000000000E+00  0.11368683772E-12  0.17120000000E+03  0.17120000000E+03 0.  0.
         13    1    1    2    0    0 -0.16012557063E+02 -0.48751845592E+01  0.45557699870E+02  0.48535395225E+02  0.10566000000E+00 0. -1.
        994    1    1    2    0    0 -0.40243012153E+01  0.37321959532E+01  0.32700835869E+01  0.17131916919E+03  0.17120000000E+03 0.  0.
        998    1    1    2    0    0  0.20036858279E+02  0.11429886060E+01  0.14511722128E+04  0.14513454356E+04  0.10000000000E+02 0. -1.
</event>
<event>
 5    1  0.1294251E-008  0.3841188E+03  0.7957747E-01  0.3433418E+00
         13   -1    0    0    0    0  0.00000000000E+00  0.00000000000E+00  0.14999999963E+04  0.15000000000E+04  0.10566000000E+00 0. -1.
        994   -1    0    0    0    0 -0.00000000000E+00 -0.00000000000E+00  0.11368683772E-12  0.17120000000E+03  0.17120000000E+03 0.  0.
         13    1    1    2    0    0 -0.92852512127E+01  0.14665746304E+02  0.71859819728E+02  0.73926618075E+02  0.10566000000E+00 0. -1.
        994    1    1    2    0    0 -0.85510199673E+00 -0.15595245384E+02  0.28732327809E+01  0.17193498290E+03  0.17120000000E+03 0.  0.
        998    1    1    2    0    0  0.10140353209E+02  0.92949907977E+00  0.14252669438E+04  0.14253383990E+04  0.10000000000E+02 0. -1.
</event>
<event>
 5    1  0.1294251E-008  0.3726460E+03  0.7957747E-01  0.3483818E+00
         13   -1    0    0    0    0  0.00000000000E+00  0.00000000000E+00  0.14999999963E+04  0.15000000000E+04  0.10566000000E+00 0.  1.
        994   -1    0    0    0    0 -0.00000000000E+00 -0.00000000000E+00  0.11368683772E-12  0.17120000000E+03  0.17120000000E+03 0.  0.
         13    1    1    2    0    0 -0.62858238084E+02  0.31300450028E+02  0.25741165915E+03  0.26681763379E+03  0.10566000000E+00 0.  1.
        994    1    1    2    0    0  0.60934655817E+02 -0.34561107703E+02  0.24899439267E+02  0.18664652293E+03  0.17120000000E+03 0.  0.
        998    1    1    2    0    0  0.19235822668E+01  0.32606576747E+01  0.12176888979E+04  0.12177358433E+04  0.10000000000E+02 0.  1.
</event>
<event>
 5    1  0.1294251E-008  0.3841926E+03  0.7957747E-01  0.3433104E+00
         13   -1    0    0    0    0  0.00000000000E+00  0.00000000000E+00  0.14999999963E+04  0.15000000000E+04  0.10566000000E+00 0.  1.
        994   -1    0    0    0    0 -0.00000000000E+00 -0.00000000000E+00  0.11368683772E-12  0.17120000000E+03  0.17120000000E+03 0.  0.
         13    1    1    2    0    0  0.24694312237E+02 -0.60957575077E+01  0.15309970288E+03  0.15519825225E+03  0.10566000000E+00 0.  1.
        994    1    1    2    0    0 -0.17158464199E+02  0.12589425040E+02  0.35263003238E+01  0.17255370558E+03  0.17120000000E+03 0.  0.
        998    1    1    2    0    0 -0.75358480379E+01 -0.64936675324E+01  0.13433739931E+04  0.13434480422E+04  0.10000000000E+02 0.  1.
</event>
<event>
 5    1  0.1294251E-008  0.3814885E+03  0.7957747E-01  0.3444703E+00
         13   -1    0    0    0    0  0.00000000000E+00  0.00000000000E+00  0.14999999963E+04  0.15000000000E+04  0.10566000000E+00 0.  1.
        994   -1    0    0    0    0 -0.00000000000E+00 -0.00000000000E+00  0.11368683772E-12  0.17120000000E+03  0.17120000000E+03 0.  0.
         13    1    1    2    0    0 -0.74890723916E+01 -0.97562507996E+01  0.21144103083E+02  0.24461293796E+02  0.10566000000E+00 0.  1.
        994    1    1    2    0    0 -0.62846651095E+01  0.12654554679E+02  0.40479973420E+01  0.17182974438E+03  0.17120000000E+03 0.  0.
        998    1    1    2    0    0  0.13773737501E+02 -0.28983038791E+01  0.14748078959E+04  0.14749089618E+04  0.10000000000E+02 0.  1.
</event>
<event>
 5    1  0.1294251E-008  0.3811284E+03  0.7957747E-01  0.3446260E+00
         13   -1    0    0    0    0  0.00000000000E+00  0.00000000000E+00  0.14999999963E+04  0.15000000000E+04  0.10566000000E+00 0. -1.
        994   -1    0    0    0    0 -0.00000000000E+00 -0.00000000000E+00  0.11368683772E-12  0.17120000000E+03  0.17120000000E+03 0.  0.
         13    1    1    2    0    0 -0.53597666936E+01  0.10122230857E+02  0.16945952024E+02  0.20453926531E+02  0.10566000000E+00 0. -1.
        994    1    1    2    0    0  0.22265428285E+01 -0.73557984651E+01  0.37613651575E+01  0.17141369004E+03  0.17120000000E+03 0.  0.
        998    1    1    2    0    0  0.31332238652E+01 -0.27664323917E+01  0.14792926791E+04  0.14793323834E+04  0.10000000000E+02 0. -1.
</event>
<event>
 5    1  0.1294251E-008  0.3840487E+03  0.7957747E-01  0.3433717E+00
         13   -1    0    0    0    0  0.00000000000E+00  0.00000000000E+00  0.14999999963E+04  0.15000000000E+04  0.10566000000E+00 0. -1.
        994   -1    0    0    0    0 -0.00000000000E+00 -0.00000000000E+00  0.11368683772E-12  0.17120000000E+03  0.17120000000E+03 0.  0.
         13    1    1    2    0    0  0.48570919210E+01  0.13666673110E+03  0.43465439374E+03  0.45565978525E+03  0.10566000000E+00 0. -1.
        994    1    1    2    0    0 -0.26345118205E+02 -0.10206631594E+03  0.60690936369E+02  0.21001054226E+03  0.17120000000E+03 0.  0.
        998    1    1    2    0    0  0.21488026284E+02 -0.34600415165E+02  0.10046546662E+04  0.10055296725E+04  0.10000000000E+02 0. -1.
</event>
<event>
 5    1  0.1294251E-008  0.3810317E+03  0.7957747E-01  0.3446679E+00
         13   -1    0    0    0    0  0.00000000000E+00  0.00000000000E+00  0.14999999963E+04  0.15000000000E+04  0.10566000000E+00 0.  1.
        994   -1    0    0    0    0 -0.00000000000E+00 -0.00000000000E+00  0.11368683772E-12  0.17120000000E+03  0.17120000000E+03 0.  0.
         13    1    1    2    0    0 -0.26522086274E+01 -0.42664208572E+02  0.23175846250E+03  0.23566770039E+03  0.10566000000E+00 0.  1.
        994    1    1    2    0    0  0.74712664735E+01  0.33936114071E+02  0.76465190870E+01  0.17485819659E+03  0.17120000000E+03 0.  0.
        998    1    1    2    0    0 -0.48190578461E+01  0.87280945010E+01  0.12605950147E+04  0.12606741030E+04  0.10000000000E+02 0.  1.
</event>
<event>
 5    1  0.1294251E-008  0.3849103E+03  0.7957747E-01  0.3430053E+00
         13   -1    0    0    0    0  0.00000000000E+00  0.00000000000E+00  0.14999999963E+04  0.15000000000E+04  0.10566000000E+00 0. -1.
        994   -1    0    0    0    0 -0.00000000000E+00 -0.00000000000E+00  0.11368683772E-12  0.17120000000E+03  0.17120000000E+03 0.  0.
         13    1    1    2    0    0  0.19785239908E+02 -0.48906847798E+01  0.12066719716E+03  0.12237629734E+03  0.10566000000E+00 0. -1.
        994    1    1    2    0    0 -0.19123584266E+02 -0.93657535804E+01  0.31676920913E+01  0.17254826307E+03  0.17120000000E+03 0.  0.
        998    1    1    2    0    0 -0.66165564173E+00  0.14256438360E+02  0.13761651070E+04  0.13762754396E+04  0.10000000000E+02 0. -1.
</event>
<event>
 5    1  0.1294251E-008  0.3299868E+03  0.7957747E-01  0.3702760E+00
         13   -1    0    0    0    0  0.00000000000E+00  0.00000000000E+00  0.14999999963E+04  0.15000000000E+04  0.10566000000E+00 0.  1.
        994   -1    0    0    0    0 -0.00000000000E+00 -0.00000000000E+00  0.11368683772E-12  0.17120000000E+03  0.17120000000E+03 0.  0.
         13    1    1    2    0    0 -0.11958677107E+03  0.21513199490E+03  0.68468940455E+03  0.72758667038E+03  0.10566000000E+00 0.  1.
        994    1    1    2    0    0  0.12380823318E+03 -0.23618336335E+03  0.32924601924E+03  0.45697203515E+03  0.17120000000E+03 0.  0.
        998    1    1    2    0    0 -0.42214621033E+01  0.21051368445E+02  0.48606457249E+03  0.48664129447E+03  0.10000000000E+02 0.  1.
</event>
<event>
 5    1  0.1294251E-008  0.3819780E+03  0.7957747E-01  0.3442591E+00
         13   -1    0    0    0    0  0.00000000000E+00  0.00000000000E+00  0.14999999963E+04  0.15000000000E+04  0.10566000000E+00 0.  1.
        994   -1    0    0    0    0 -0.00000000000E+00 -0.00000000000E+00  0.11368683772E-12  0.17120000000E+03  0.17120000000E+03 0.  0.
         13    1    1    2    0    0 -0.43964586303E+01  0.33873805739E+02  0.14097800939E+03  0.14505713998E+03  0.10566000000E+00 0.  1.
        994    1    1    2    0    0  0.73274893267E+02 -0.57320838211E+02  0.32436433999E+02  0.19752582294E+03  0.17120000000E+03 0.  0.
        998    1    1    2    0    0 -0.68878434636E+02  0.23447032472E+02  0.13265855529E+04  0.13286170371E+04  0.10000000000E+02 0.  1.
</event>
<event>
 5    1  0.1294251E-008  0.3783365E+03  0.7957747E-01  0.3458434E+00
         13   -1    0    0    0    0  0.00000000000E+00  0.00000000000E+00  0.14999999963E+04  0.15000000000E+04  0.10566000000E+00 0.  1.
        994   -1    0    0    0    0 -0.00000000000E+00 -0.00000000000E+00  0.11368683772E-12  0.17120000000E+03  0.17120000000E+03 0.  0.
         13    1    1    2    0    0 -0.69871734643E+02 -0.56429491960E+02  0.37241427040E+03  0.38309104248E+03  0.10566000000E+00 0.  1.
        994    1    1    2    0    0  0.23979028283E+02 -0.34066151033E+02  0.21693041415E+02  0.17752612340E+03  0.17120000000E+03 0.  0.
        998    1    1    2    0    0  0.45892706360E+02  0.90495642994E+02  0.11058926845E+04  0.11105828341E+04  0.10000000000E+02 0.  1.
</event>
<event>
 5    1  0.1294251E-008  0.3775887E+03  0.7957747E-01  0.3461725E+00
         13   -1    0    0    0    0  0.00000000000E+00  0.00000000000E+00  0.14999999963E+04  0.15000000000E+04  0.10566000000E+00 0.  1.
        994   -1    0    0    0    0 -0.00000000000E+00 -0.00000000000E+00  0.11368683772E-12  0.17120000000E+03  0.17120000000E+03 0.  0.
         13    1    1    2    0    0 -0.59122449218E+02 -0.25991492791E+01  0.29971194349E+03  0.30549873946E+03  0.10566000000E+00 0.  1.
        994    1    1    2    0    0  0.44126566134E+02  0.37323302019E+02  0.16694908199E+02  0.18146168376E+03  0.17120000000E+03 0.  0.
        998    1    1    2    0    0  0.14995883084E+02 -0.34724152740E+02  0.11835931446E+04  0.11842395768E+04  0.10000000000E+02 0.  1.
</event>
<event>
 5    1  0.1294251E-008  0.3821425E+03  0.7957747E-01  0.3441882E+00
         13   -1    0    0    0    0  0.00000000000E+00  0.00000000000E+00  0.14999999963E+04  0.15000000000E+04  0.10566000000E+00 0. -1.
        994   -1    0    0    0    0 -0.00000000000E+00 -0.00000000000E+00  0.11368683772E-12  0.17120000000E+03  0.17120000000E+03 0.  0.
         13    1    1    2    0    0 -0.68646336274E+02  0.19604844435E+03  0.11600264122E+04  0.11784772378E+04  0.10566000000E+00 0. -1.
        994    1    1    2    0    0  0.67392673385E+02 -0.19270112724E+03  0.15660520468E+03  0.30904712747E+03  0.17120000000E+03 0.  0.
        998    1    1    2    0    0  0.12536628895E+01 -0.33473171069E+01  0.18336837944E+03  0.18367563470E+03  0.10000000000E+02 0.  0.
</event>
<event>
 5    1  0.1294251E-008  0.3945066E+03  0.7957747E-01  0.3390328E+00
         13   -1    0    0    0    0  0.00000000000E+00  0.00000000000E+00  0.14999999963E+04  0.15000000000E+04  0.10566000000E+00 0.  1.
        994   -1    0    0    0    0 -0.00000000000E+00 -0.00000000000E+00  0.11368683772E-12  0.17120000000E+03  0.17120000000E+03 0.  0.
         13    1    1    2    0    0  0.10349451813E+03  0.67413960666E+02  0.33376724543E+03  0.35588810413E+03  0.10566000000E+00 0.  1.
        994    1    1    2    0    0 -0.69791342358E+02  0.52797987676E+00  0.43438074986E+02  0.18991423483E+03  0.17120000000E+03 0.  0.
        998    1    1    2    0    0 -0.33703175767E+02 -0.67941940543E+02  0.11227946759E+04  0.11253976610E+04  0.10000000000E+02 0.  1.
</event>
<event>
 5    1  0.1294251E-008  0.3814115E+03  0.7957747E-01  0.3445035E+00
         13   -1    0    0    0    0  0.00000000000E+00  0.00000000000E+00  0.14999999963E+04  0.15000000000E+04  0.10566000000E+00 0.  1.
        994   -1    0    0    0    0 -0.00000000000E+00 -0.00000000000E+00  0.11368683772E-12  0.17120000000E+03  0.17120000000E+03 0.  0.
         13    1    1    2    0    0  0.21512904120E+02 -0.29602696953E+02  0.17635095130E+03  0.18010772860E+03  0.10566000000E+00 0.  1.
        994    1    1    2    0    0 -0.32487261390E+02  0.19516202712E+02  0.82162640217E+01  0.17553703688E+03  0.17120000000E+03 0.  0.
        998    1    1    2    0    0  0.10974357270E+02  0.10086494241E+02  0.13154327810E+04  0.13155552345E+04  0.10000000000E+02 0.  1.
</event>
<event>
 5    1  0.1294251E-008  0.3818180E+03  0.7957747E-01  0.3443281E+00
         13   -1    0    0    0    0  0.00000000000E+00  0.00000000000E+00  0.14999999963E+04  0.15000000000E+04  0.10566000000E+00 0.  1.
        994   -1    0    0    0    0 -0.00000000000E+00 -0.00000000000E+00  0.11368683772E-12  0.17120000000E+03  0.17120000000E+03 0.  0.
         13    1    1    2    0    0 -0.19005221878E+02 -0.35452007721E+02  0.24268260606E+03  0.24599370268E+03  0.10566000000E+00 0.  1.
        994    1    1    2    0    0  0.12601737912E+02  0.23267227497E+02  0.55483563107E+01  0.17332164300E+03  0.17120000000E+03 0.  0.
        998    1    1    2    0    0  0.64034839658E+01  0.12184780225E+02  0.12517690339E+04  0.12518846543E+04  0.10000000000E+02 0.  1.
</event>
<event>
 5    1  0.1294251E-008  0.3816986E+03  0.7957747E-01  0.3443795E+00
         13   -1    0    0    0    0  0.00000000000E+00  0.00000000000E+00  0.14999999963E+04  0.15000000000E+04  0.10566000000E+00 0. -1.
        994   -1    0    0    0    0 -0.00000000000E+00 -0.00000000000E+00  0.11368683772E-12  0.17120000000E+03  0.17120000000E+03 0.  0.
         13    1    1    2    0    0 -0.13294458886E+01 -0.19893977726E+02  0.54704201753E+02  0.58224553494E+02  0.10566000000E+00 0. -1.
        994    1    1    2    0    0 -0.60720670183E+01  0.33206234121E+02  0.70754673342E+01  0.17463970402E+03  0.17120000000E+03 0.  0.
        998    1    1    2    0    0  0.74015129069E+01 -0.13312256394E+02  0.14382203272E+04  0.14383357425E+04  0.10000000000E+02 0. -1.
</event>
<event>
 5    1  0.1294251E-008  0.3460822E+03  0.7957747E-01  0.3613593E+00
         13   -1    0    0    0    0  0.00000000000E+00  0.00000000000E+00  0.14999999963E+04  0.15000000000E+04  0.10566000000E+00 0. -1.
        994   -1    0    0    0    0 -0.00000000000E+00 -0.00000000000E+00  0.11368683772E-12  0.17120000000E+03  0.17120000000E+03 0.  0.
         13    1    1    2    0    0 -0.22145478061E+03 -0.15351355811E+03  0.82996524840E+03  0.87261157286E+03  0.10566000000E+00 0. -1.
        994    1    1    2    0    0  0.21209563679E+03  0.14656956578E+03  0.30935190973E+03  0.43757883954E+03  0.17120000000E+03 0.  0.
        998    1    1    2    0    0  0.93591438194E+01  0.69439923278E+01  0.36068283815E+03  0.36100958760E+03  0.10000000000E+02 0.  0.
</event>
<event>
 5    1  0.1294251E-008  0.3857605E+03  0.7957747E-01  0.3426453E+00
         13   -1    0    0    0    0  0.00000000000E+00  0.00000000000E+00  0.14999999963E+04  0.15000000000E+04  0.10566000000E+00 0.  1.
        994   -1    0    0    0    0 -0.00000000000E+00 -0.00000000000E+00  0.11368683772E-12  0.17120000000E+03  0.17120000000E+03 0.  0.
         13    1    1    2    0    0 -0.14726300544E+02  0.97253993797E+01  0.10568289468E+03  0.10714631451E+03  0.10566000000E+00 0.  1.
        994    1    1    2    0    0  0.26117878941E+02 -0.15343670145E+02  0.42689898472E+01  0.17391157549E+03  0.17120000000E+03 0.  0.
        998    1    1    2    0    0 -0.11391578397E+02  0.56182707657E+01  0.13900481118E+04  0.13901421100E+04  0.10000000000E+02 0.  1.
</event>
<event>
 5    1  0.1294251E-008  0.3862459E+03  0.7957747E-01  0.3424405E+00
         13   -1    0    0    0    0  0.00000000000E+00  0.00000000000E+00  0.14999999963E+04  0.15000000000E+04  0.10566000000E+00 0. -1.
        994   -1    0    0    0    0 -0.00000000000E+00 -0.00000000000E+00  0.11368683772E-12  0.17120000000E+03  0.17120000000E+03 0.  0.
         13    1    1    2    0    0  0.11629914157E+03  0.76527018895E+02  0.52477655876E+03  0.54292939019E+03  0.10566000000E+00 0. -1.
        994    1    1    2    0    0 -0.26885885267E+02 -0.10023067954E+03  0.60940701368E+02  0.20926597676E+03  0.17120000000E+03 0.  0.
        998    1    1    2    0    0 -0.89413256299E+02  0.23703660642E+02  0.91428273615E+03  0.91900463304E+03  0.10000000000E+02 0. -1.
</event>
<event>
 5    1  0.1294251E-008  0.3837129E+03  0.7957747E-01  0.3435149E+00
         13   -1    0    0    0    0  0.00000000000E+00  0.00000000000E+00  0.14999999963E+04  0.15000000000E+04  0.10566000000E+00 0. -1.
        994   -1    0    0    0    0 -0.00000000000E+00 -0.00000000000E+00  0.11368683772E-12  0.17120000000E+03  0.17120000000E+03 0.  0.
         13    1    1    2    0    0 -0.26784767278E+01  0.12001869057E+02  0.35394150469E+02  0.37469669733E+02  0.10566000000E+00 0. -1.
        994    1    1    2    0    0  0.42362431409E+01  0.12324623050E+02  0.28316147352E+01  0.17171866565E+03  0.17120000000E+03 0.  0.
        998    1    1    2    0    0 -0.15577664130E+01 -0.24326492106E+02  0.14617742311E+04  0.14620116646E+04  0.10000000000E+02 0. -1.
</event>
<event>
 5    1  0.1294251E-008  0.3833652E+03  0.7957747E-01  0.3436635E+00
         13   -1    0    0    0    0  0.00000000000E+00  0.00000000000E+00  0.14999999963E+04  0.15000000000E+04  0.10566000000E+00 0. -1.
        994   -1    0    0    0    0 -0.00000000000E+00 -0.00000000000E+00  0.11368683772E-12  0.17120000000E+03  0.17120000000E+03 0.  0.
         13    1    1    2    0    0  0.11681586818E+02 -0.27302114514E+01  0.27255931615E+02  0.29779363617E+02  0.10566000000E+00 0. -1.
        994    1    1    2    0    0 -0.19545388064E+02  0.13596201219E+02  0.43203965282E+01  0.17290166196E+03  0.17120000000E+03 0.  0.
        998    1    1    2    0    0  0.78638012461E+01 -0.10865989767E+02  0.14684236681E+04  0.14685189744E+04  0.10000000000E+02 0. -1.
</event>
<event>
 5    1  0.1294251E-008  0.3711880E+03  0.7957747E-01  0.3490449E+00
         13   -1    0    0    0    0  0.00000000000E+00  0.00000000000E+00  0.14999999963E+04  0.15000000000E+04  0.10566000000E+00 0. -1.
        994   -1    0    0    0    0 -0.00000000000E+00 -0.00000000000E+00  0.11368683772E-12  0.17120000000E+03  0.17120000000E+03 0.  0.
         13    1    1    2    0    0  0.87747009817E+02 -0.16200903480E+03  0.79061921355E+03  0.81180368137E+03  0.10566000000E+00 0. -1.
        994    1    1    2    0    0 -0.87682524474E+02  0.16020637686E+03  0.13401961227E+03  0.28394542567E+03  0.17120000000E+03 0.  0.
        998    1    1    2    0    0 -0.64485342611E-01  0.18026579405E+01  0.57536117046E+03  0.57545089296E+03  0.10000000000E+02 0.  0.
</event>
<event>
 5    1  0.1294251E-008  0.3829681E+03  0.7957747E-01  0.3438336E+00
         13   -1    0    0    0    0  0.00000000000E+00  0.00000000000E+00  0.14999999963E+04  0.15000000000E+04  0.10566000000E+00 0.  1.
        994   -1    0    0    0    0 -0.00000000000E+00 -0.00000000000E+00  0.11368683772E-12  0.17120000000E+03  0.17120000000E+03 0.  0.
         13    1    1    2    0    0  0.48684971454E+01  0.12250228825E+02  0.32411256182E+02  0.34989585051E+02  0.10566000000E+00 0.  1.
        994    1    1    2    0    0 -0.77312470754E+01 -0.29065142311E+01  0.28681811867E+01  0.17142312116E+03  0.17120000000E+03 0.  0.
        998    1    1    2    0    0  0.28627499300E+01 -0.93437145940E+01  0.14647205589E+04  0.14647872938E+04  0.10000000000E+02 0.  1.
</event>
<event>
 5    1  0.1294251E-008  0.3779067E+03  0.7957747E-01  0.3460324E+00
         13   -1    0    0    0    0  0.00000000000E+00  0.00000000000E+00  0.14999999963E+04  0.15000000000E+04  0.10566000000E+00 0. -1.
        994   -1    0    0    0    0 -0.00000000000E+00 -0.00000000000E+00  0.11368683772E-12  0.17120000000E+03  0.17120000000E+03 0.  0.
         13    1    1    2    0    0 -0.10569459009E+02 -0.90460516540E+01  0.16194371924E+02  0.21349785955E+02  0.10566000000E+00 0. -1.
        994    1    1    2    0    0  0.13179964092E+02  0.72112189560E+01  0.59537295538E+01  0.17196104218E+03  0.17120000000E+03 0.  0.
        998    1    1    2    0    0 -0.26105050828E+01  0.18348326980E+01  0.14778518948E+04  0.14778891719E+04  0.10000000000E+02 0. -1.
</event>
<event>
 5    1  0.1294251E-008  0.3708215E+03  0.7957747E-01  0.3492124E+00
         13   -1    0    0    0    0  0.00000000000E+00  0.00000000000E+00  0.14999999963E+04  0.15000000000E+04  0.10566000000E+00 0.  1.
        994   -1    0    0    0    0 -0.00000000000E+00 -0.00000000000E+00  0.11368683772E-12  0.17120000000E+03  0.17120000000E+03 0.  0.
         13    1    1    2    0    0 -0.41692074768E+01  0.51007578316E+02  0.11257026351E+03  0.12365771600E+03  0.10566000000E+00 0.  1.
        994    1    1    2    0    0  0.15873495458E+02 -0.27922852209E+02  0.14999475953E+02  0.17483156984E+03  0.17120000000E+03 0.  0.
        998    1    1    2    0    0 -0.11704287981E+02 -0.23084726107E+02  0.13724302568E+04  0.13727107142E+04  0.10000000000E+02 0.  1.
</event>
<event>
 5    1  0.1294251E-008  0.3829200E+03  0.7957747E-01  0.3438542E+00
         13   -1    0    0    0    0  0.00000000000E+00  0.00000000000E+00  0.14999999963E+04  0.15000000000E+04  0.10566000000E+00 0.  1.
        994   -1    0    0    0    0 -0.00000000000E+00 -0.00000000000E+00  0.11368683772E-12  0.17120000000E+03  0.17120000000E+03 0.  0.
         13    1    1    2    0    0 -0.77387510372E+01 -0.13193672482E+02  0.43612595109E+02  0.46217214081E+02  0.10566000000E+00 0.  1.
        994    1    1    2    0    0 -0.26372911040E+00  0.83328119374E+01  0.28965178648E+01  0.17142734649E+03  0.17120000000E+03 0.  0.
        998    1    1    2    0    0  0.80024801476E+01  0.48608605447E+01  0.14534908833E+04  0.14535554394E+04  0.10000000000E+02 0.  1.
</event>
<event>
 5    1  0.1294251E-008  0.3844040E+03  0.7957747E-01  0.3432204E+00
         13   -1    0    0    0    0  0.00000000000E+00  0.00000000000E+00  0.14999999963E+04  0.15000000000E+04  0.10566000000E+00 0. -1.
        994   -1    0    0    0    0 -0.00000000000E+00 -0.00000000000E+00  0.11368683772E-12  0.17120000000E+03  0.17120000000E+03 0.  0.
         13    1    1    2    0    0 -0.19979361727E+02 -0.80823278518E+01  0.11794902271E+03  0.11990196846E+03  0.10566000000E+00 0. -1.
        994    1    1    2    0    0  0.12634643462E+02  0.11296874822E+02  0.28733875691E+01  0.17206089025E+03  0.17120000000E+03 0.  0.
        998    1    1    2    0    0  0.73447182651E+01 -0.32145469704E+01  0.13791775860E+04  0.13792371413E+04  0.10000000000E+02 0. -1.
</event>
<event>
 5    1  0.1294251E-008  0.3795553E+03  0.7957747E-01  0.3453097E+00
         13   -1    0    0    0    0  0.00000000000E+00  0.00000000000E+00  0.14999999963E+04  0.15000000000E+04  0.10566000000E+00 0. -1.
        994   -1    0    0    0    0 -0.00000000000E+00 -0.00000000000E+00  0.11368683772E-12  0.17120000000E+03  0.17120000000E+03 0.  0.
         13    1    1    2    0    0 -0.24471377486E+02  0.52852464108E+01  0.76841571031E+02  0.80817203294E+02  0.10566000000E+00 0. -1.
        994    1    1    2    0    0 -0.32363082660E+01  0.39079296413E+01  0.44440037905E+01  0.17133281873E+03  0.17120000000E+03 0.  0.
        998    1    1    2    0    0  0.27707685752E+02 -0.91931760522E+01  0.14187144215E+04  0.14190499780E+04  0.10000000000E+02 0. -1.
</event>
<event>
 5    1  0.1294251E-008  0.3689462E+03  0.7957747E-01  0.3500748E+00
         13   -1    0    0    0    0  0.00000000000E+00  0.00000000000E+00  0.14999999963E+04  0.15000000000E+04  0.10566000000E+00 0.  1.
        994   -1    0    0    0    0 -0.00000000000E+00 -0.00000000000E+00  0.11368683772E-12  0.17120000000E+03  0.17120000000E+03 0.  0.
         13    1    1    2    0    0  0.11695152365E+02  0.12343849036E+02  0.92877006463E+01  0.19375751474E+02  0.10566000000E+00 0.  1.
        994    1    1    2    0    0 -0.84096585201E+01 -0.97985323133E+01  0.10963642838E+02  0.17203597024E+03  0.17120000000E+03 0.  0.
        998    1    1    2    0    0 -0.32854938447E+01 -0.25453167226E+01  0.14797486528E+04  0.14797882783E+04  0.10000000000E+02 0.  1.
</event>
<event>
 5    1  0.1294251E-008  0.3692710E+03  0.7957747E-01  0.3499248E+00
         13   -1    0    0    0    0  0.00000000000E+00  0.00000000000E+00  0.14999999963E+04  0.15000000000E+04  0.10566000000E+00 0. -1.
        994   -1    0    0    0    0 -0.00000000000E+00 -0.00000000000E+00  0.11368683772E-12  0.17120000000E+03  0.17120000000E+03 0.  0.
         13    1    1    2    0    0  0.25109575452E+02 -0.10196611854E+02  0.30817741577E+02  0.41039079334E+02  0.10566000000E+00 0. -1.
        994    1    1    2    0    0 -0.16123459246E+02 -0.39909420848E+00  0.11461411712E+02  0.17233957518E+03  0.17120000000E+03 0.  0.
        998    1    1    2    0    0 -0.89861162058E+01  0.10595706063E+02  0.14577208430E+04  0.14578213455E+04  0.10000000000E+02 0. -1.
</event>
<event>
 5    1  0.1294251E-008  0.3765151E+03  0.7957747E-01  0.3466474E+00
         13   -1    0    0    0    0  0.00000000000E+00  0.00000000000E+00  0.14999999963E+04  0.15000000000E+04  0.10566000000E+00 0.  1.
        994   -1    0    0    0    0 -0.00000000000E+00 -0.00000000000E+00  0.11368683772E-12  0.17120000000E+03  0.17120000000E+03 0.  0.
         13    1    1    2    0    0  0.97809344815E+01 -0.13059879312E+02  0.19932962018E+02  0.25759682953E+02  0.10566000000E+00 0.  1.
        994    1    1    2    0    0 -0.39639272864E+00  0.16404350724E+02  0.68138579515E+01  0.17211951810E+03  0.17120000000E+03 0.  0.
        998    1    1    2    0    0 -0.93845417529E+01 -0.33444714117E+01  0.14732531763E+04  0.14733207989E+04  0.10000000000E+02 0.  1.
</event>
<event>
 5    1  0.1294251E-008  0.3796850E+03  0.7957747E-01  0.3452531E+00
         13   -1    0    0    0    0  0.00000000000E+00  0.00000000000E+00  0.14999999963E+04  0.15000000000E+04  0.10566000000E+00 0. -1.
        994   -1    0    0    0    0 -0.00000000000E+00 -0.00000000000E+00  0.11368683772E-12  0.17120000000E+03  0.17120000000E+03 0.  0.
         13    1    1    2    0    0  0.80017701766E+02  0.16747739513E+02  0.44359303287E+03  0.45106330969E+03  0.10566000000E+00 0. -1.
        994    1    1    2    0    0 -0.96941937667E+02 -0.19389592851E+02  0.37725184210E+02  0.20126183223E+03  0.17120000000E+03 0.  0.
        998    1    1    2    0    0  0.16924235901E+02  0.26418533384E+01  0.10186817792E+04  0.10188748581E+04  0.10000000000E+02 0. -1.
</event>
<event>
 5    1  0.1294251E-008  0.3837921E+03  0.7957747E-01  0.3434811E+00
         13   -1    0    0    0    0  0.00000000000E+00  0.00000000000E+00  0.14999999963E+04  0.15000000000E+04  0.10566000000E+00 0. -1.
        994   -1    0    0    0    0 -0.00000000000E+00 -0.00000000000E+00  0.11368683772E-12  0.17120000000E+03  0.17120000000E+03 0.  0.
         13    1    1    2    0    0 -0.12206731242E+02 -0.58184327683E+01  0.39443469180E+02  0.41697204613E+02  0.10566000000E+00 0. -1.
        994    1    1    2    0    0  0.12845882329E+02  0.69384481515E+01  0.29350865129E+01  0.17184648233E+03  0.17120000000E+03 0.  0.
        998    1    1    2    0    0 -0.63915108710E+00 -0.11200153832E+01  0.14576214406E+04  0.14576563131E+04  0.10000000000E+02 0. -1.
</event>
<event>
 5    1  0.1294251E-008  0.3794785E+03  0.7957747E-01  0.3453432E+00
         13   -1    0    0    0    0  0.00000000000E+00  0.00000000000E+00  0.14999999963E+04  0.15000000000E+04  0.10566000000E+00 0. -1.
        994   -1    0    0    0    0 -0.00000000000E+00 -0.00000000000E+00  0.11368683772E-12  0.17120000000E+03  0.17120000000E+03 0.  0.
         13    1    1    2    0    0 -0.20571621837E+02  0.15577202627E+02  0.78403529003E+02  0.82540689304E+02  0.10566000000E+00 0. -1.
        994    1    1    2    0    0  0.77121406568E+01  0.40032037897E+01  0.46494778419E+01  0.17148341144E+03  0.17120000000E+03 0.  0.
        998    1    1    2    0    0  0.12859481181E+02 -0.19580406417E+02  0.14169469894E+04  0.14171758993E+04  0.10000000000E+02 0. -1.
</event>
<event>
 5    1  0.1294251E-008  0.3826096E+03  0.7957747E-01  0.3439874E+00
         13   -1    0    0    0    0  0.00000000000E+00  0.00000000000E+00  0.14999999963E+04  0.15000000000E+04  0.10566000000E+00 0.  1.
        994   -1    0    0    0    0 -0.00000000000E+00 -0.00000000000E+00  0.11368683772E-12  0.17120000000E+03  0.17120000000E+03 0.  0.
         13    1    1    2    0    0  0.15957362012E+02  0.15765092943E+02  0.98906684298E+02  0.10141853342E+03  0.10566000000E+00 0.  1.
        994    1    1    2    0    0  0.11636231010E+02 -0.57747283156E+01  0.33810790769E+01  0.17172542344E+03  0.17120000000E+03 0.  0.
        998    1    1    2    0    0 -0.27593593022E+02 -0.99903646274E+01  0.13977122329E+04  0.13980560431E+04  0.10000000000E+02 0.  1.
</event>
<event>
 5    1  0.1294251E-008  0.3791845E+03  0.7957747E-01  0.3454717E+00
         13   -1    0    0    0    0  0.00000000000E+00  0.00000000000E+00  0.14999999963E+04  0.15000000000E+04  0.10566000000E+00 0.  1.
        994   -1    0    0    0    0 -0.00000000000E+00 -0.00000000000E+00  0.11368683772E-12  0.17120000000E+03  0.17120000000E+03 0.  0.
         13    1    1    2    0    0 -0.62316326273E+01  0.45551827464E+02  0.20605045209E+03  0.21111750804E+03  0.10566000000E+00 0.  1.
        994    1    1    2    0    0  0.58338719781E+00 -0.42948544688E+02  0.10754384080E+02  0.17683329610E+03  0.17120000000E+03 0.  0.
        998    1    1    2    0    0  0.56482454295E+01 -0.26032827756E+01  0.12831951601E+04  0.12832491959E+04  0.10000000000E+02 0.  1.
</event>
<event>
 5    1  0.1294251E-008  0.3783006E+03  0.7957747E-01  0.3458592E+00
         13   -1    0    0    0    0  0.00000000000E+00  0.00000000000E+00  0.14999999963E+04  0.15000000000E+04  0.10566000000E+00 0.  1.
        994   -1    0    0    0    0 -0.00000000000E+00 -0.00000000000E+00  0.11368683772E-12  0.17120000000E+03  0.17120000000E+03 0.  0.
         13    1    1    2    0    0  0.39663916616E+02  0.71987658647E+01  0.14937437972E+03  0.15471834084E+03  0.10566000000E+00 0.  1.
        994    1    1    2    0    0 -0.36913784461E+02 -0.22670033820E+01  0.96054182573E+01  0.17541228819E+03  0.17120000000E+03 0.  0.
        998    1    1    2    0    0 -0.27501321549E+01 -0.49317624827E+01  0.13410201983E+04  0.13410693710E+04  0.10000000000E+02 0.  1.
</event>
<event>
 5    1  0.1294251E-008  0.3813692E+03  0.7957747E-01  0.3445218E+00
         13   -1    0    0    0    0  0.00000000000E+00  0.00000000000E+00  0.14999999963E+04  0.15000000000E+04  0.10566000000E+00 0. -1.
        994   -1    0    0    0    0 -0.00000000000E+00 -0.00000000000E+00  0.11368683772E-12  0.17120000000E+03  0.17120000000E+03 0.  0.
         13    1    1    2    0    0  0.14252175369E+02 -0.58416412513E+01  0.32804627598E+02  0.36240916533E+02  0.10566000000E+00 0. -1.
        994    1    1    2    0    0 -0.11804261974E+02  0.69454442580E+01  0.40680586790E+01  0.17179513642E+03  0.17120000000E+03 0.  0.
        998    1    1    2    0    0 -0.24479133947E+01 -0.11038030067E+01  0.14631273100E+04  0.14631639470E+04  0.10000000000E+02 0. -1.
</event>
<event>
 5    1  0.1294251E-008  0.3725987E+03  0.7957747E-01  0.3484032E+00
         13   -1    0    0    0    0  0.00000000000E+00  0.00000000000E+00  0.14999999963E+04  0.15000000000E+04  0.10566000000E+00 0.  1.
        994   -1    0    0    0    0 -0.00000000000E+00 -0.00000000000E+00  0.11368683772E-12  0.17120000000E+03  0.17120000000E+03 0.  0.
         13    1    1    2    0    0  0.20440078895E+02  0.69757837168E+02  0.28162144495E+03  0.29085151210E+03  0.10566000000E+00 0.  1.
        994    1    1    2    0    0 -0.55091074288E+02 -0.54548136973E+02  0.28804477119E+02  0.19013064881E+03  0.17120000000E+03 0.  0.
        998    1    1    2    0    0  0.34650995393E+02 -0.15209700195E+02  0.11895740742E+04  0.11902178391E+04  0.10000000000E+02 0. -1.
</event>
<event>
 5    1  0.1294251E-008  0.3825243E+03  0.7957747E-01  0.3440240E+00
         13   -1    0    0    0    0  0.00000000000E+00  0.00000000000E+00  0.14999999963E+04  0.15000000000E+04  0.10566000000E+00 0.  1.
        994   -1    0    0    0    0 -0.00000000000E+00 -0.00000000000E+00  0.11368683772E-12  0.17120000000E+03  0.17120000000E+03 0.  0.
         13    1    1    2    0    0  0.11807319138E+02  0.27970327084E+02  0.13719661691E+03  0.14051574587E+03  0.10566000000E+00 0.  1.
        994    1    1    2    0    0 -0.17590063199E+02 -0.36252679988E+02  0.82659388916E+01  0.17607223766E+03  0.17120000000E+03 0.  0.
        998    1    1    2    0    0  0.57827440612E+01  0.82823529035E+01  0.13545374405E+04  0.13546120165E+04  0.10000000000E+02 0.  1.
</event>
<event>
 5    1  0.1294251E-008  0.3776607E+03  0.7957747E-01  0.3461408E+00
         13   -1    0    0    0    0  0.00000000000E+00  0.00000000000E+00  0.14999999963E+04  0.15000000000E+04  0.10566000000E+00 0. -1.
        994   -1    0    0    0    0 -0.00000000000E+00 -0.00000000000E+00  0.11368683772E-12  0.17120000000E+03  0.17120000000E+03 0.  0.
         13    1    1    2    0    0 -0.13083407124E+02 -0.92097093827E+02  0.23955412957E+03  0.25698101563E+03  0.10566000000E+00 0. -1.
        994    1    1    2    0    0  0.58264283673E+01  0.90658682161E+02  0.45331595368E+02  0.19904104466E+03  0.17120000000E+03 0.  0.
        998    1    1    2    0    0  0.72569787566E+01  0.14384116659E+01  0.12151142713E+04  0.12151779397E+04  0.10000000000E+02 0. -1.
</event>
<event>
 5    1  0.1294251E-008  0.3891717E+03  0.7957747E-01  0.3412170E+00
         13   -1    0    0    0    0  0.00000000000E+00  0.00000000000E+00  0.14999999963E+04  0.15000000000E+04  0.10566000000E+00 0.  1.
        994   -1    0    0    0    0 -0.00000000000E+00 -0.00000000000E+00  0.11368683772E-12  0.17120000000E+03  0.17120000000E+03 0.  0.
         13    1    1    2    0    0  0.20234415381E+02 -0.45878847857E+02  0.49742360699E+02  0.70630120051E+02  0.10566000000E+00 0.  1.
        994    1    1    2    0    0 -0.14874380294E+02  0.43460238468E+02  0.29414535091E+02  0.17967942117E+03  0.17120000000E+03 0.  0.
        998    1    1    2    0    0 -0.53600350863E+01  0.24186093890E+01  0.14208431005E+04  0.14208904588E+04  0.10000000000E+02 0.  1.
</event>
<event>
 5    1  0.1294251E-008  0.3748865E+03  0.7957747E-01  0.3473731E+00
         13   -1    0    0    0    0  0.00000000000E+00  0.00000000000E+00  0.14999999963E+04  0.15000000000E+04  0.10566000000E+00 0.  1.
        994   -1    0    0    0    0 -0.00000000000E+00 -0.00000000000E+00  0.11368683772E-12  0.17120000000E+03  0.17120000000E+03 0.  0.
         13    1    1    2    0    0 -0.23239484828E+02 -0.14815428429E+02  0.54360953727E+02  0.60948297998E+02  0.10566000000E+00 0.  1.
        994    1    1    2    0    0  0.12685146632E+02  0.74227799385E+01  0.74719258100E+01  0.17199209366E+03  0.17120000000E+03 0.  0.
        998    1    1    2    0    0  0.10554338196E+02  0.73926484909E+01  0.14381671167E+04  0.14382596083E+04  0.10000000000E+02 0.  1.
</event>
<event>
 5    1  0.1294251E-008  0.3833501E+03  0.7957747E-01  0.3436700E+00
         13   -1    0    0    0    0  0.00000000000E+00  0.00000000000E+00  0.14999999963E+04  0.15000000000E+04  0.10566000000E+00 0.  1.
        994   -1    0    0    0    0 -0.00000000000E+00 -0.00000000000E+00  0.11368683772E-12  0.17120000000E+03  0.17120000000E+03 0.  0.
         13    1    1    2    0    0 -0.10792215344E+02 -0.12303581737E+01  0.23581777010E+02  0.25963379292E+02  0.10566000000E+00 0.  1.
        994    1    1    2    0    0  0.32402544845E+01 -0.25224153056E+01  0.25072374988E+01  0.17126759200E+03  0.17120000000E+03 0.  0.
        998    1    1    2    0    0  0.75519608599E+01  0.37527734793E+01  0.14739109818E+04  0.14739690287E+04  0.10000000000E+02 0.  1.
</event>
<event>
 5    1  0.1294251E-008  0.3857744E+03  0.7957747E-01  0.3426394E+00
         13   -1    0    0    0    0  0.00000000000E+00  0.00000000000E+00  0.14999999963E+04  0.15000000000E+04  0.10566000000E+00 0.  1.
        994   -1    0    0    0    0 -0.00000000000E+00 -0.00000000000E+00  0.11368683772E-12  0.17120000000E+03  0.17120000000E+03 0.  0.
         13    1    1    2    0    0  0.51208292394E+01 -0.10070610468E+02  0.46170296306E+02  0.47532594210E+02  0.10566000000E+00 0.  1.
        994    1    1    2    0    0 -0.47094333155E+01  0.27184836937E+02  0.37471653892E+01  0.17344934526E+03  0.17120000000E+03 0.  0.
        998    1    1    2    0    0 -0.41139592389E+00 -0.17114226469E+02  0.14500825346E+04  0.14502180605E+04  0.10000000000E+02 0.  1.
</event>
<event>
 5    1  0.1294251E-008  0.3796636E+03  0.7957747E-01  0.3452624E+00
         13   -1    0    0    0    0  0.00000000000E+00  0.00000000000E+00  0.14999999963E+04  0.15000000000E+04  0.10566000000E+00 0. -1.
        994   -1    0    0    0    0 -0.00000000000E+00 -0.00000000000E+00  0.11368683772E-12  0.17120000000E+03  0.17120000000E+03 0.  0.
         13    1    1    2    0    0 -0.12107752413E+02 -0.12375289338E+02  0.32912231773E+02  0.37188326381E+02  0.10566000000E+00 0. -1.
        994    1    1    2    0    0  0.96946106874E+01  0.98474213335E+01  0.49423540018E+01  0.17182789077E+03  0.17120000000E+03 0.  0.
        998    1    1    2    0    0  0.24131417258E+01  0.25278680048E+01  0.14621454105E+04  0.14621837828E+04  0.10000000000E+02 0. -1.
</event>
<event>
 5    1  0.1294251E-008  0.3850178E+03  0.7957747E-01  0.3429597E+00
         13   -1    0    0    0    0  0.00000000000E+00  0.00000000000E+00  0.14999999963E+04  0.15000000000E+04  0.10566000000E+00 0. -1.
        994   -1    0    0    0    0 -0.00000000000E+00 -0.00000000000E+00  0.11368683772E-12  0.17120000000E+03  0.17120000000E+03 0.  0.
         13    1    1    2    0    0  0.22860423950E+01 -0.99792970790E+01  0.34490277050E+02  0.35977808925E+02  0.10566000000E+00 0. -1.
        994    1    1    2    0    0 -0.62195959822E+01 -0.95704838170E+01  0.20498550603E+01  0.17159230589E+03  0.17120000000E+03 0.  0.
        998    1    1    2    0    0  0.39335535872E+01  0.19549780896E+02  0.14634598642E+04  0.14636298852E+04  0.10000000000E+02 0. -1.
</event>
<event>
 5    1  0.1294251E-008  0.3834799E+03  0.7957747E-01  0.3436145E+00
         13   -1    0    0    0    0  0.00000000000E+00  0.00000000000E+00  0.14999999963E+04  0.15000000000E+04  0.10566000000E+00 0.  1.
        994   -1    0    0    0    0 -0.00000000000E+00 -0.00000000000E+00  0.11368683772E-12  0.17120000000E+03  0.17120000000E+03 0.  0.
         13    1    1    2    0    0  0.22880781722E+02  0.49110293836E+01  0.13283651741E+03  0.13488217044E+03  0.10566000000E+00 0.  1.
        994    1    1    2    0    0  0.36577951479E+01  0.67341214889E+01  0.25808642654E+01  0.17139086533E+03  0.17120000000E+03 0.  0.
        998    1    1    2    0    0 -0.26538576870E+02 -0.11645150873E+02  0.13645826146E+04  0.13649269642E+04  0.10000000000E+02 0.  1.
</event>
<event>
 5    1  0.1294251E-008  0.3809250E+03  0.7957747E-01  0.3447141E+00
         13   -1    0    0    0    0  0.00000000000E+00  0.00000000000E+00  0.14999999963E+04  0.15000000000E+04  0.10566000000E+00 0.  1.
        994   -1    0    0    0    0 -0.00000000000E+00 -0.00000000000E+00  0.11368683772E-12  0.17120000000E+03  0.17120000000E+03 0.  0.
         13    1    1    2    0    0  0.69341788313E+01  0.22284043504E+02  0.71138206649E+02  0.74868665276E+02  0.10566000000E+00 0.  1.
        994    1    1    2    0    0 -0.79947222110E+01 -0.18796717281E+02  0.50586786398E+01  0.17248844133E+03  0.17120000000E+03 0.  0.
        998    1    1    2    0    0  0.10605433797E+01 -0.34873262236E+01  0.14238031110E+04  0.14238428934E+04  0.10000000000E+02 0.  1.
</event>
<event>
 5    1  0.1294251E-008  0.3827030E+03  0.7957747E-01  0.3439473E+00
         13   -1    0    0    0    0  0.00000000000E+00  0.00000000000E+00  0.14999999963E+04  0.15000000000E+04  0.10566000000E+00 0.  1.
        994   -1    0    0    0    0 -0.00000000000E+00 -0.00000000000E+00  0.11368683772E-12  0.17120000000E+03  0.17120000000E+03 0.  0.
         13    1    1    2    0    0  0.75963404280E+01 -0.25642893276E+02  0.11818026751E+03  0.12116868059E+03  0.10566000000E+00 0.  1.
        994    1    1    2    0    0 -0.77422415297E+01  0.27275611941E+02  0.54430147316E+01  0.17361730248E+03  0.17120000000E+03 0.  0.
        998    1    1    2    0    0  0.14590110166E+00 -0.16327186651E+01  0.13763767140E+04  0.13764140169E+04  0.10000000000E+02 0.  1.
</event>
<event>
 5    1  0.1294251E-008  0.3796729E+03  0.7957747E-01  0.3452584E+00
         13   -1    0    0    0    0  0.00000000000E+00  0.00000000000E+00  0.14999999963E+04  0.15000000000E+04  0.10566000000E+00 0. -1.
        994   -1    0    0    0    0 -0.00000000000E+00 -0.00000000000E+00  0.11368683772E-12  0.17120000000E+03  0.17120000000E+03 0.  0.
         13    1    1    2    0    0 -0.35533535651E+02 -0.40540481147E+02  0.26144706983E+03  0.26694708138E+03  0.10566000000E+00 0. -1.
        994    1    1    2    0    0  0.47982682246E+02  0.40381023387E+02  0.17574480523E+02  0.18317004998E+03  0.17120000000E+03 0.  0.
        998    1    1    2    0    0 -0.12449146595E+02  0.15945775949E+00  0.12209784459E+04  0.12210828686E+04  0.10000000000E+02 0. -1.
</event>
<event>
 5    1  0.1294251E-008  0.3826949E+03  0.7957747E-01  0.3439508E+00
         13   -1    0    0    0    0  0.00000000000E+00  0.00000000000E+00  0.14999999963E+04  0.15000000000E+04  0.10566000000E+00 0.  1.
        994   -1    0    0    0    0 -0.00000000000E+00 -0.00000000000E+00  0.11368683772E-12  0.17120000000E+03  0.17120000000E+03 0.  0.
         13    1    1    2    0    0 -0.85113721612E+01 -0.23910050429E+02  0.11671728609E+03  0.11944484084E+03  0.10566000000E+00 0.  1.
        994    1    1    2    0    0 -0.82170415788E+00  0.14465692642E+02  0.34748293796E+01  0.17184715855E+03  0.17120000000E+03 0.  0.
        998    1    1    2    0    0  0.93330763191E+01  0.94443577865E+01  0.13798078808E+04  0.13799080006E+04  0.10000000000E+02 0.  1.
</event>
<event>
 5    1  0.1294251E-008  0.3687582E+03  0.7957747E-01  0.3501618E+00
         13   -1    0    0    0    0  0.00000000000E+00  0.00000000000E+00  0.14999999963E+04  0.15000000000E+04  0.10566000000E+00 0.  1.
        994   -1    0    0    0    0 -0.00000000000E+00 -0.00000000000E+00  0.11368683772E-12  0.17120000000E+03  0.17120000000E+03 0.  0.
         13    1    1    2    0    0  0.20104718092E+03 -0.26337970985E+02  0.82988546480E+03  0.85429711080E+03  0.10566000000E+00 0.  1.
        994    1    1    2    0    0 -0.24943012442E+03 -0.66941442623E+02  0.29721483775E+03  0.42935142190E+03  0.17120000000E+03 0.  0.
        998    1    1    2    0    0  0.48382943497E+02  0.93279413608E+02  0.37289969373E+03  0.38755146730E+03  0.10000000000E+02 0.  1.
</event>
<event>
 5    1  0.1294251E-008  0.3851065E+03  0.7957747E-01  0.3429221E+00
         13   -1    0    0    0    0  0.00000000000E+00  0.00000000000E+00  0.14999999963E+04  0.15000000000E+04  0.10566000000E+00 0. -1.
        994   -1    0    0    0    0 -0.00000000000E+00 -0.00000000000E+00  0.11368683772E-12  0.17120000000E+03  0.17120000000E+03 0.  0.
         13    1    1    2    0    0 -0.33890349976E+01  0.21119759971E+02  0.12650315553E+03  0.12829882830E+03  0.10566000000E+00 0. -1.
        994    1    1    2    0    0 -0.33673452565E+00 -0.29444092118E+02  0.44329869449E+01  0.17377042132E+03  0.17120000000E+03 0.  0.
        998    1    1    2    0    0  0.37257695232E+01  0.83243321475E+01  0.13690638538E+04  0.13691307504E+04  0.10000000000E+02 0. -1.
</event>
<event>
 5    1  0.1294251E-008  0.3854381E+03  0.7957747E-01  0.3427816E+00
         13   -1    0    0    0    0  0.00000000000E+00  0.00000000000E+00  0.14999999963E+04  0.15000000000E+04  0.10566000000E+00 0. -1.
        994   -1    0    0    0    0 -0.00000000000E+00 -0.00000000000E+00  0.11368683772E-12  0.17120000000E+03  0.17120000000E+03 0.  0.
         13    1    1    2    0    0  0.16940608225E+02  0.88198524996E-01  0.98392979503E+02  0.99840781075E+02  0.10566000000E+00 0. -1.
        994    1    1    2    0    0 -0.15762497817E+02 -0.19425465059E+02  0.34706241097E+01  0.17305285395E+03  0.17120000000E+03 0.  0.
        998    1    1    2    0    0 -0.11781104080E+01  0.19337266534E+02  0.13981363927E+04  0.13983063650E+04  0.10000000000E+02 0. -1.
</event>
<event>
 5    1  0.1294251E-008  0.3811172E+03  0.7957747E-01  0.3446308E+00
         13   -1    0    0    0    0  0.00000000000E+00  0.00000000000E+00  0.14999999963E+04  0.15000000000E+04  0.10566000000E+00 0.  1.
        994   -1    0    0    0    0 -0.00000000000E+00 -0.00000000000E+00  0.11368683772E-12  0.17120000000E+03  0.17120000000E+03 0.  0.
         13    1    1    2    0    0  0.25528038883E+02 -0.24012157484E+02  0.15866153642E+03  0.16248618028E+03  0.10566000000E+00 0.  1.
        994    1    1    2    0    0 -0.26001255618E+02  0.18043995275E+02  0.69135607800E+01  0.17423802220E+03  0.17120000000E+03 0.  0.
        998    1    1    2    0    0  0.47321673502E+00  0.59681622085E+01  0.13344248991E+04  0.13344757975E+04  0.10000000000E+02 0.  1.
</event>
<event>
 5    1  0.1294251E-008  0.3783299E+03  0.7957747E-01  0.3458463E+00
         13   -1    0    0    0    0  0.00000000000E+00  0.00000000000E+00  0.14999999963E+04  0.15000000000E+04  0.10566000000E+00 0. -1.
        994   -1    0    0    0    0 -0.00000000000E+00 -0.00000000000E+00  0.11368683772E-12  0.17120000000E+03  0.17120000000E+03 0.  0.
         13    1    1    2    0    0  0.27631711465E+02  0.76152717881E+02  0.43421951908E+03  0.44171184027E+03  0.10566000000E+00 0. -1.
        994    1    1    2    0    0  0.19868763567E+02 -0.10734752737E+03  0.46147887602E+02  0.20822422272E+03  0.17120000000E+03 0.  0.
        998    1    1    2    0    0 -0.47500475032E+02  0.31194809490E+02  0.10196325896E+04  0.10212639370E+04  0.10000000000E+02 0. -1.
</event>
<event>
 5    1  0.1294251E-008  0.3845473E+03  0.7957747E-01  0.3431595E+00
         13   -1    0    0    0    0  0.00000000000E+00  0.00000000000E+00  0.14999999963E+04  0.15000000000E+04  0.10566000000E+00 0. -1.
        994   -1    0    0    0    0 -0.00000000000E+00 -0.00000000000E+00  0.11368683772E-12  0.17120000000E+03  0.17120000000E+03 0.  0.
         13    1    1    2    0    0  0.10625733760E+03  0.35341222790E+02  0.58007243689E+03  0.59078225009E+03  0.10566000000E+00 0. -1.
        994    1    1    2    0    0 -0.16828828482E+03 -0.65642331320E+02  0.11794887369E+03  0.27541103695E+03  0.17120000000E+03 0.  0.
        998    1    1    2    0    0  0.62030947217E+02  0.30301108530E+02  0.80197868570E+03  0.80500671296E+03  0.10000000000E+02 0. -1.
</event>
<event>
 5    1  0.1294251E-008  0.3846442E+03  0.7957747E-01  0.3431183E+00
         13   -1    0    0    0    0  0.00000000000E+00  0.00000000000E+00  0.14999999963E+04  0.15000000000E+04  0.10566000000E+00 0. -1.
        994   -1    0    0    0    0 -0.00000000000E+00 -0.00000000000E+00  0.11368683772E-12  0.17120000000E+03  0.17120000000E+03 0.  0.
         13    1    1    2    0    0  0.96148785902E+01  0.25600301299E+02  0.16003117224E+03  0.16235088103E+03  0.10566000000E+00 0. -1.
        994    1    1    2    0    0  0.19251943724E+01 -0.49035205183E+02  0.97762279073E+01  0.17836247462E+03  0.17120000000E+03 0.  0.
        998    1    1    2    0    0 -0.11540072963E+02  0.23434903885E+02  0.13301925961E+04  0.13304866444E+04  0.10000000000E+02 0. -1.
</event>
<event>
 5    1  0.1294251E-008  0.3846804E+03  0.7957747E-01  0.3431029E+00
         13   -1    0    0    0    0  0.00000000000E+00  0.00000000000E+00  0.14999999963E+04  0.15000000000E+04  0.10566000000E+00 0.  1.
        994   -1    0    0    0    0 -0.00000000000E+00 -0.00000000000E+00  0.11368683772E-12  0.17120000000E+03  0.17120000000E+03 0.  0.
         13    1    1    2    0    0 -0.15632531069E+02  0.21826402441E+01  0.67577183718E+02  0.69396158895E+02  0.10566000000E+00 0.  1.
        994    1    1    2    0    0  0.15436689194E+02  0.27794613096E+01  0.25992170458E+01  0.17193665318E+03  0.17120000000E+03 0.  0.
        998    1    1    2    0    0  0.19584187516E+00 -0.49621015537E+01  0.14298235955E+04  0.14298671879E+04  0.10000000000E+02 0.  1.
</event>
<event>
 5    1  0.1294251E-008  0.3847063E+03  0.7957747E-01  0.3430919E+00
         13   -1    0    0    0    0  0.00000000000E+00  0.00000000000E+00  0.14999999963E+04  0.15000000000E+04  0.10566000000E+00 0.  1.
        994   -1    0    0    0    0 -0.00000000000E+00 -0.00000000000E+00  0.11368683772E-12  0.17120000000E+03  0.17120000000E+03 0.  0.
         13    1    1    2    0    0  0.19097668973E+01  0.13288404369E+02  0.54570458715E+02  0.56197642554E+02  0.10566000000E+00 0.  1.
        994    1    1    2    0    0 -0.24682424718E+01  0.49495810535E+01  0.18767265297E+01  0.17129959917E+03  0.17120000000E+03 0.  0.
        998    1    1    2    0    0  0.55847557448E+00 -0.18237985422E+02  0.14435528110E+04  0.14437027583E+04  0.10000000000E+02 0.  1.
</event>
<event>
 5    1  0.1294251E-008  0.3781801E+03  0.7957747E-01  0.3459121E+00
         13   -1    0    0    0    0  0.00000000000E+00  0.00000000000E+00  0.14999999963E+04  0.15000000000E+04  0.10566000000E+00 0. -1.
        994   -1    0    0    0    0 -0.00000000000E+00 -0.00000000000E+00  0.11368683772E-12  0.17120000000E+03  0.17120000000E+03 0.  0.
         13    1    1    2    0    0  0.15996733848E+00  0.24034156195E+02  0.50754490130E+02  0.56157774937E+02  0.10566000000E+00 0. -1.
        994    1    1    2    0    0  0.25249553124E+01 -0.39619826060E+02  0.10373682657E+02  0.17604874129E+03  0.17120000000E+03 0.  0.
        998    1    1    2    0    0 -0.26849226509E+01  0.15585669865E+02  0.14388718235E+04  0.14389934838E+04  0.10000000000E+02 0. -1.
</event>
<event>
 5    1  0.1294251E-008  0.3827022E+03  0.7957747E-01  0.3439476E+00
         13   -1    0    0    0    0  0.00000000000E+00  0.00000000000E+00  0.14999999963E+04  0.15000000000E+04  0.10566000000E+00 0. -1.
        994   -1    0    0    0    0 -0.00000000000E+00 -0.00000000000E+00  0.11368683772E-12  0.17120000000E+03  0.17120000000E+03 0.  0.
         13    1    1    2    0    0  0.27385297317E+02 -0.39844574307E+01  0.14449751160E+03  0.14712366374E+03  0.10566000000E+00 0. -1.
        994    1    1    2    0    0 -0.11201014399E+02 -0.91621754533E+01  0.34694240466E+01  0.17184552681E+03  0.17120000000E+03 0.  0.
        998    1    1    2    0    0 -0.16184282918E+02  0.13146632884E+02  0.13520330606E+04  0.13522308094E+04  0.10000000000E+02 0. -1.
</event>
<event>
 5    1  0.1294251E-008  0.3847495E+03  0.7957747E-01  0.3430735E+00
         13   -1    0    0    0    0  0.00000000000E+00  0.00000000000E+00  0.14999999963E+04  0.15000000000E+04  0.10566000000E+00 0.  1.
        994   -1    0    0    0    0 -0.00000000000E+00 -0.00000000000E+00  0.11368683772E-12  0.17120000000E+03  0.17120000000E+03 0.  0.
         13    1    1    2    0    0  0.49014159824E+00  0.15414116835E+02  0.69913441668E+02  0.71594243669E+02  0.10566000000E+00 0.  1.
        994    1    1    2    0    0 -0.98612180523E+00 -0.49538087736E+01  0.18385582673E+01  0.17128436284E+03  0.17120000000E+03 0.  0.
        998    1    1    2    0    0  0.49598020699E+00 -0.10460308062E+02  0.14282479963E+04  0.14283213935E+04  0.10000000000E+02 0.  1.
</event>
<event>
 5    1  0.1294251E-008  0.3771117E+03  0.7957747E-01  0.3463832E+00
         13   -1    0    0    0    0  0.00000000000E+00  0.00000000000E+00  0.14999999963E+04  0.15000000000E+04  0.10566000000E+00 0.  1.
        994   -1    0    0    0    0 -0.00000000000E+00 -0.00000000000E+00  0.11368683772E-12  0.17120000000E+03  0.17120000000E+03 0.  0.
         13    1    1    2    0    0 -0.91444247094E+02  0.62006509496E+02  0.34293897138E+03  0.36029710907E+03  0.10566000000E+00 0.  1.
        994    1    1    2    0    0  0.57869006872E+02 -0.86043710843E+02  0.54388776834E+02  0.20741244220E+03  0.17120000000E+03 0.  0.
        998    1    1    2    0    0  0.33575240222E+02  0.24037201347E+02  0.11026722481E+04  0.11034904487E+04  0.10000000000E+02 0.  1.
</event>
<event>
 5    1  0.1294251E-008  0.4054823E+03  0.7957747E-01  0.3347193E+00
         13   -1    0    0    0    0  0.00000000000E+00  0.00000000000E+00  0.14999999963E+04  0.15000000000E+04  0.10566000000E+00 0.  1.
        994   -1    0    0    0    0 -0.00000000000E+00 -0.00000000000E+00  0.11368683772E-12  0.17120000000E+03  0.17120000000E+03 0.  0.
         13    1    1    2    0    0 -0.64694666574E+02  0.55556882248E+01  0.61052574185E+02  0.89127400576E+02  0.10566000000E+00 0.  1.
        994    1    1    2    0    0  0.26760677542E+02 -0.90701665111E+01  0.34300874158E+02  0.17687394311E+03  0.17120000000E+03 0.  0.
        998    1    1    2    0    0  0.37933989032E+02  0.35144782864E+01  0.14046465479E+04  0.14051986563E+04  0.10000000000E+02 0.  1.
</event>
<event>
 5    1  0.1294251E-008  0.3720660E+03  0.7957747E-01  0.3486450E+00
         13   -1    0    0    0    0  0.00000000000E+00  0.00000000000E+00  0.14999999963E+04  0.15000000000E+04  0.10566000000E+00 0. -1.
        994   -1    0    0    0    0 -0.00000000000E+00 -0.00000000000E+00  0.11368683772E-12  0.17120000000E+03  0.17120000000E+03 0.  0.
         13    1    1    2    0    0 -0.14334826352E+02  0.17998496974E+02  0.27959969961E+02  0.36210554043E+02  0.10566000000E+00 0. -1.
        994    1    1    2    0    0  0.16812900481E+02 -0.23953819732E+02  0.11139216463E+02  0.17404017136E+03  0.17120000000E+03 0.  0.
        998    1    1    2    0    0 -0.24780741292E+01  0.59553227576E+01  0.14609008099E+04  0.14609492746E+04  0.10000000000E+02 0. -1.
</event>
<event>
 5    1  0.1294251E-008  0.3824266E+03  0.7957747E-01  0.3440660E+00
         13   -1    0    0    0    0  0.00000000000E+00  0.00000000000E+00  0.14999999963E+04  0.15000000000E+04  0.10566000000E+00 0.  1.
        994   -1    0    0    0    0 -0.00000000000E+00 -0.00000000000E+00  0.11368683772E-12  0.17120000000E+03  0.17120000000E+03 0.  0.
         13    1    1    2    0    0 -0.88421160037E-01 -0.22103303590E+02  0.88326265152E+02  0.91050008938E+02  0.10566000000E+00 0.  1.
        994    1    1    2    0    0  0.30998802657E+01  0.28223068523E+01  0.29714907649E+01  0.17127709838E+03  0.17120000000E+03 0.  0.
        998    1    1    2    0    0 -0.30114591056E+01  0.19280996738E+02  0.14087022404E+04  0.14088728927E+04  0.10000000000E+02 0.  1.
</event>
<event>
 5    1  0.1294251E-008  0.3962655E+03  0.7957747E-01  0.3383255E+00
         13   -1    0    0    0    0  0.00000000000E+00  0.00000000000E+00  0.14999999963E+04  0.15000000000E+04  0.10566000000E+00 0. -1.
        994   -1    0    0    0    0 -0.00000000000E+00 -0.00000000000E+00  0.11368683772E-12  0.17120000000E+03  0.17120000000E+03 0.  0.
         13    1    1    2    0    0 -0.67418279907E+02 -0.10891929785E+00  0.75399442641E+02  0.10114506139E+03  0.10566000000E+00 0. -1.
        994    1    1    2    0    0  0.72787666868E+02  0.65400057438E+00  0.46299381729E+02  0.19170692453E+03  0.17120000000E+03 0.  0.
        998    1    1    2    0    0 -0.53693869605E+01 -0.54508127653E+00  0.13783011719E+04  0.13783480141E+04  0.10000000000E+02 0. -1.
</event>
<event>
 5    1  0.1294251E-008  0.3788684E+03  0.7957747E-01  0.3456100E+00
         13   -1    0    0    0    0  0.00000000000E+00  0.00000000000E+00  0.14999999963E+04  0.15000000000E+04  0.10566000000E+00 0. -1.
        994   -1    0    0    0    0 -0.00000000000E+00 -0.00000000000E+00  0.11368683772E-12  0.17120000000E+03  0.17120000000E+03 0.  0.
         13    1    1    2    0    0  0.51732569912E+02  0.14589297302E+02  0.82346988038E+02  0.98336890272E+02  0.10566000000E+00 0. -1.
        994    1    1    2    0    0 -0.50792248332E+02 -0.14444420101E+02  0.25838790350E+02  0.18101264279E+03  0.17120000000E+03 0.  0.
        998    1    1    2    0    0 -0.94032158055E+00 -0.14487720042E+00  0.13918142179E+04  0.13918504669E+04  0.10000000000E+02 0.  0.
</event>
<event>
 5    1  0.1294251E-008  0.3851037E+03  0.7957747E-01  0.3429233E+00
         13   -1    0    0    0    0  0.00000000000E+00  0.00000000000E+00  0.14999999963E+04  0.15000000000E+04  0.10566000000E+00 0.  1.
        994   -1    0    0    0    0 -0.00000000000E+00 -0.00000000000E+00  0.11368683772E-12  0.17120000000E+03  0.17120000000E+03 0.  0.
         13    1    1    2    0    0  0.89888450938E+00 -0.14644313870E+02  0.63666338320E+02  0.65335118591E+02  0.10566000000E+00 0.  1.
        994    1    1    2    0    0 -0.66564065136E+01  0.20417480842E+02  0.30962833695E+01  0.17256943021E+03  0.17120000000E+03 0.  0.
        998    1    1    2    0    0  0.57575220042E+01 -0.57731669715E+01  0.14332373746E+04  0.14332954512E+04  0.10000000000E+02 0.  1.
</event>
<event>
 5    1  0.1294251E-008  0.3795288E+03  0.7957747E-01  0.3453213E+00
         13   -1    0    0    0    0  0.00000000000E+00  0.00000000000E+00  0.14999999963E+04  0.15000000000E+04  0.10566000000E+00 0.  1.
        994   -1    0    0    0    0 -0.00000000000E+00 -0.00000000000E+00  0.11368683772E-12  0.17120000000E+03  0.17120000000E+03 0.  0.
         13    1    1    2    0    0 -0.22193268308E+02 -0.68249243809E+02  0.42683214311E+03  0.43282350906E+03  0.10566000000E+00 0.  1.
        994    1    1    2    0    0  0.23352538507E+02  0.66561283756E+02  0.21214851440E+02  0.18637396672E+03  0.17120000000E+03 0.  0.
        998    1    1    2    0    0 -0.11592701990E+01  0.16879600532E+01  0.10519530017E+04  0.10520025242E+04  0.10000000000E+02 0.  0.
</event>
<event>
 5    1  0.1294251E-008  0.3854990E+03  0.7957747E-01  0.3427559E+00
         13   -1    0    0    0    0  0.00000000000E+00  0.00000000000E+00  0.14999999963E+04  0.15000000000E+04  0.10566000000E+00 0. -1.
        994   -1    0    0    0    0 -0.00000000000E+00 -0.00000000000E+00  0.11368683772E-12  0.17120000000E+03  0.17120000000E+03 0.  0.
         13    1    1    2    0    0  0.15607717325E+02 -0.25366306350E+01  0.92836124010E+02  0.94173204365E+02  0.10566000000E+00 0. -1.
        994    1    1    2    0    0 -0.71973406851E+01  0.32382079640E+01  0.15871526220E+01  0.17138916756E+03  0.17120000000E+03 0.  0.
        998    1    1    2    0    0 -0.84103766403E+01 -0.70157732901E+00  0.14055767196E+04  0.14056376281E+04  0.10000000000E+02 0. -1.
</event>
<event>
 5    1  0.1294251E-008  0.3716404E+03  0.7957747E-01  0.3488386E+00
         13   -1    0    0    0    0  0.00000000000E+00  0.00000000000E+00  0.14999999963E+04  0.15000000000E+04  0.10566000000E+00 0.  1.
        994   -1    0    0    0    0 -0.00000000000E+00 -0.00000000000E+00  0.11368683772E-12  0.17120000000E+03  0.17120000000E+03 0.  0.
         13    1    1    2    0    0  0.90718431088E+02  0.28759334456E+02  0.54017113011E+03  0.54849046849E+03  0.10566000000E+00 0.  1.
        994    1    1    2    0    0 -0.46554886961E+02 -0.36042585827E+02  0.20428192473E+02  0.18218994632E+03  0.17120000000E+03 0.  0.
        998    1    1    2    0    0 -0.44163544128E+02  0.72832513707E+01  0.93940067370E+03  0.94051958519E+03  0.10000000000E+02 0.  1.
</event>
<event>
 5    1  0.1294251E-008  0.3705388E+03  0.7957747E-01  0.3493418E+00
         13   -1    0    0    0    0  0.00000000000E+00  0.00000000000E+00  0.14999999963E+04  0.15000000000E+04  0.10566000000E+00 0.  1.
        994   -1    0    0    0    0 -0.00000000000E+00 -0.00000000000E+00  0.11368683772E-12  0.17120000000E+03  0.17120000000E+03 0.  0.
         13    1    1    2    0    0 -0.29450264069E+02 -0.18968874701E+02  0.64673174437E+02  0.73551117714E+02  0.10566000000E+00 0.  1.
        994    1    1    2    0    0  0.15237201680E+02  0.20636591352E+02  0.11262083690E+02  0.17347713321E+03  0.17120000000E+03 0.  0.
        998    1    1    2    0    0  0.14213062388E+02 -0.16677166514E+01  0.14240647382E+04  0.14241717491E+04  0.10000000000E+02 0.  1.
</event>
<event>
 5    1  0.1294251E-008  0.3757467E+03  0.7957747E-01  0.3469890E+00
         13   -1    0    0    0    0  0.00000000000E+00  0.00000000000E+00  0.14999999963E+04  0.15000000000E+04  0.10566000000E+00 0. -1.
        994   -1    0    0    0    0 -0.00000000000E+00 -0.00000000000E+00  0.11368683772E-12  0.17120000000E+03  0.17120000000E+03 0.  0.
         13    1    1    2    0    0 -0.81731367533E+02  0.10418096785E+01  0.37370709391E+03  0.38254163827E+03  0.10566000000E+00 0. -1.
        994    1    1    2    0    0  0.87625543815E+02 -0.50616629826E+01  0.32881667837E+02  0.19517812490E+03  0.17120000000E+03 0.  0.
        998    1    1    2    0    0 -0.58941762818E+01  0.40198533041E+01  0.10934112345E+04  0.10934802368E+04  0.10000000000E+02 0.  1.
</event>
<event>
 5    1  0.1294251E-008  0.3777556E+03  0.7957747E-01  0.3460990E+00
         13   -1    0    0    0    0  0.00000000000E+00  0.00000000000E+00  0.14999999963E+04  0.15000000000E+04  0.10566000000E+00 0. -1.
        994   -1    0    0    0    0 -0.00000000000E+00 -0.00000000000E+00  0.11368683772E-12  0.17120000000E+03  0.17120000000E+03 0.  0.
         13    1    1    2    0    0 -0.10649059864E+03 -0.45771097078E+02  0.65521531310E+03  0.66538887774E+03  0.10566000000E+00 0. -1.
        994    1    1    2    0    0  0.10567905898E+03  0.56460437801E+02  0.55253724913E+02  0.21614406922E+03  0.17120000000E+03 0.  0.
        998    1    1    2    0    0  0.81153966343E+00 -0.10689340723E+02  0.78953095826E+03  0.78966705304E+03  0.10000000000E+02 0. -1.
</event>
<event>
 5    1  0.1294251E-008  0.3779766E+03  0.7957747E-01  0.3460016E+00
         13   -1    0    0    0    0  0.00000000000E+00  0.00000000000E+00  0.14999999963E+04  0.15000000000E+04  0.10566000000E+00 0.  1.
        994   -1    0    0    0    0 -0.00000000000E+00 -0.00000000000E+00  0.11368683772E-12  0.17120000000E+03  0.17120000000E+03 0.  0.
         13    1    1    2    0    0  0.22409994178E+02  0.48417507184E+02  0.30716201093E+03  0.31176108636E+03  0.10566000000E+00 0.  1.
        994    1    1    2    0    0  0.11052332504E+02 -0.25173538544E+02  0.77060151098E+01  0.17356463858E+03  0.17120000000E+03 0.  0.
        998    1    1    2    0    0 -0.33462326681E+02 -0.23243968640E+02  0.11851319702E+04  0.11858742751E+04  0.10000000000E+02 0.  1.
</event>
<event>
 5    1  0.1294251E-008  0.3798471E+03  0.7957747E-01  0.3451824E+00
         13   -1    0    0    0    0  0.00000000000E+00  0.00000000000E+00  0.14999999963E+04  0.15000000000E+04  0.10566000000E+00 0.  1.
        994   -1    0    0    0    0 -0.00000000000E+00 -0.00000000000E+00  0.11368683772E-12  0.17120000000E+03  0.17120000000E+03 0.  0.
         13    1    1    2    0    0 -0.27277060989E+02  0.45740586699E+01  0.97468301554E+02  0.10131653883E+03  0.10566000000E+00 0.  1.
        994    1    1    2    0    0 -0.11364662756E+01 -0.66650313832E+01  0.43632374071E+01  0.17138900793E+03  0.17120000000E+03 0.  0.
        998    1    1    2    0    0  0.28413527264E+02  0.20909727132E+01  0.13981684573E+04  0.13984944532E+04  0.10000000000E+02 0.  1.
</event>
<event>
 5    1  0.1294251E-008  0.3721326E+03  0.7957747E-01  0.3486147E+00
         13   -1    0    0    0    0  0.00000000000E+00  0.00000000000E+00  0.14999999963E+04  0.15000000000E+04  0.10566000000E+00 0. -1.
        994   -1    0    0    0    0 -0.00000000000E+00 -0.00000000000E+00  0.11368683772E-12  0.17120000000E+03  0.17120000000E+03 0.  0.
         13    1    1    2    0    0  0.11293716750E+02  0.15053318765E+02  0.92358958240E+01  0.20963381874E+02  0.10566000000E+00 0. -1.
        994    1    1    2    0    0 -0.13145828159E+02 -0.12490914227E+02  0.13230013983E+02  0.17266530921E+03  0.17120000000E+03 0.  0.
        998    1    1    2    0    0  0.18521114090E+01 -0.25624045385E+01  0.14775340865E+04  0.14775713089E+04  0.10000000000E+02 0. -1.
</event>
<event>
 5    1  0.1294251E-008  0.3813793E+03  0.7957747E-01  0.3445175E+00
         13   -1    0    0    0    0  0.00000000000E+00  0.00000000000E+00  0.14999999963E+04  0.15000000000E+04  0.10566000000E+00 0.  1.
        994   -1    0    0    0    0 -0.00000000000E+00 -0.00000000000E+00  0.11368683772E-12  0.17120000000E+03  0.17120000000E+03 0.  0.
         13    1    1    2    0    0  0.71705014118E+01  0.92834207837E+01  0.18808955190E+02  0.22167226965E+02  0.10566000000E+00 0.  1.
        994    1    1    2    0    0 -0.52579035416E+00 -0.51041684291E+01  0.35261250873E+01  0.17131317097E+03  0.17120000000E+03 0.  0.
        998    1    1    2    0    0 -0.66447110577E+01 -0.41792523545E+01  0.14776649160E+04  0.14777196021E+04  0.10000000000E+02 0.  1.
</event>
<event>
 5    1  0.1294251E-008  0.3804892E+03  0.7957747E-01  0.3449031E+00
         13   -1    0    0    0    0  0.00000000000E+00  0.00000000000E+00  0.14999999963E+04  0.15000000000E+04  0.10566000000E+00 0.  1.
        994   -1    0    0    0    0 -0.00000000000E+00 -0.00000000000E+00  0.11368683772E-12  0.17120000000E+03  0.17120000000E+03 0.  0.
         13    1    1    2    0    0  0.46340844132E+01  0.29159736086E+02  0.19300132868E+02  0.35274229116E+02  0.10566000000E+00 0.  1.
        994    1    1    2    0    0 -0.16216042666E+01 -0.24519066536E+02  0.18791053880E+02  0.17397229070E+03  0.17120000000E+03 0.  0.
        998    1    1    2    0    0 -0.30124801466E+01 -0.46406695505E+01  0.14619088095E+04  0.14619534802E+04  0.10000000000E+02 0.  1.
</event>
<event>
 5    1  0.1294251E-008  0.3854536E+03  0.7957747E-01  0.3427751E+00
         13   -1    0    0    0    0  0.00000000000E+00  0.00000000000E+00  0.14999999963E+04  0.15000000000E+04  0.10566000000E+00 0.  1.
        994   -1    0    0    0    0 -0.00000000000E+00 -0.00000000000E+00  0.11368683772E-12  0.17120000000E+03  0.17120000000E+03 0.  0.
         13    1    1    2    0    0  0.14319673244E+02  0.16114751277E+00  0.71899975058E+02  0.73312322210E+02  0.10566000000E+00 0.  1.
        994    1    1    2    0    0 -0.12166007868E+02  0.67830838876E+00  0.18927839779E+01  0.17164350987E+03  0.17120000000E+03 0.  0.
        998    1    1    2    0    0 -0.21536653759E+01 -0.83945590153E+00  0.14262072372E+04  0.14262441679E+04  0.10000000000E+02 0.  1.
</event>
<event>
 5    1  0.1294251E-008  0.3861604E+03  0.7957747E-01  0.3424766E+00
         13   -1    0    0    0    0  0.00000000000E+00  0.00000000000E+00  0.14999999963E+04  0.15000000000E+04  0.10566000000E+00 0.  1.
        994   -1    0    0    0    0 -0.00000000000E+00 -0.00000000000E+00  0.11368683772E-12  0.17120000000E+03  0.17120000000E+03 0.  0.
         13    1    1    2    0    0 -0.17902528981E+01  0.10940526475E+02  0.58530299985E+02  0.59571027399E+02  0.10566000000E+00 0.  1.
        994    1    1    2    0    0  0.68977164605E+01 -0.77577970705E+01  0.14082356730E+01  0.17152021757E+03  0.17120000000E+03 0.  0.
        998    1    1    2    0    0 -0.51074635624E+01 -0.31827294050E+01  0.14400614606E+04  0.14401087550E+04  0.10000000000E+02 0.  1.
</event>
<event>
 5    1  0.1294251E-008  0.3855680E+03  0.7957747E-01  0.3427267E+00
         13   -1    0    0    0    0  0.00000000000E+00  0.00000000000E+00  0.14999999963E+04  0.15000000000E+04  0.10566000000E+00 0. -1.
        994   -1    0    0    0    0 -0.00000000000E+00 -0.00000000000E+00  0.11368683772E-12  0.17120000000E+03  0.17120000000E+03 0.  0.
         13    1    1    2    0    0  0.85739021012E+01 -0.10124995658E+02  0.67092013193E+02  0.68391349838E+02  0.10566000000E+00 0. -1.
        994    1    1    2    0    0 -0.35567872736E+01  0.44946455365E+01  0.14562376055E+01  0.17130211091E+03  0.17120000000E+03 0.  0.
        998    1    1    2    0    0 -0.50171148276E+01  0.56303501218E+01  0.14314517455E+04  0.14315065393E+04  0.10000000000E+02 0. -1.
</event>
<event>
 5    1  0.1294251E-008  0.3858047E+03  0.7957747E-01  0.3426266E+00
         13   -1    0    0    0    0  0.00000000000E+00  0.00000000000E+00  0.14999999963E+04  0.15000000000E+04  0.10566000000E+00 0. -1.
        994   -1    0    0    0    0 -0.00000000000E+00 -0.00000000000E+00  0.11368683772E-12  0.17120000000E+03  0.17120000000E+03 0.  0.
         13    1    1    2    0    0 -0.35548354023E+01  0.11125582174E+02  0.55668751063E+02  0.56880896990E+02  0.10566000000E+00 0. -1.
        994    1    1    2    0    0  0.88460099528E+01 -0.60662978928E+01  0.16086005662E+01  0.17154322912E+03  0.17120000000E+03 0.  0.
        998    1    1    2    0    0 -0.52911745505E+01 -0.50592842811E+01  0.14427226446E+04  0.14427758739E+04  0.10000000000E+02 0. -1.
</event>
<event>
 5    1  0.1294251E-008  0.3859643E+03  0.7957747E-01  0.3425593E+00
         13   -1    0    0    0    0  0.00000000000E+00  0.00000000000E+00  0.14999999963E+04  0.15000000000E+04  0.10566000000E+00 0.  1.
        994   -1    0    0    0    0 -0.00000000000E+00 -0.00000000000E+00  0.11368683772E-12  0.17120000000E+03  0.17120000000E+03 0.  0.
         13    1    1    2    0    0  0.98719012651E+00  0.11492106332E+02  0.55293260737E+02  0.56483616202E+02  0.10566000000E+00 0.  1.
        994    1    1    2    0    0 -0.67800791264E+01 -0.15205070749E+02  0.20613376888E+01  0.17201991967E+03  0.17120000000E+03 0.  0.
        998    1    1    2    0    0  0.57928889999E+01  0.37129644166E+01  0.14426453979E+04  0.14426964641E+04  0.10000000000E+02 0.  1.
</event>
<event>
 5    1  0.1294251E-008  0.3838069E+03  0.7957747E-01  0.3434748E+00
         13   -1    0    0    0    0  0.00000000000E+00  0.00000000000E+00  0.14999999963E+04  0.15000000000E+04  0.10566000000E+00 0.  1.
        994   -1    0    0    0    0 -0.00000000000E+00 -0.00000000000E+00  0.11368683772E-12  0.17120000000E+03  0.17120000000E+03 0.  0.
         13    1    1    2    0    0  0.13494136919E+02  0.37280463372E+01  0.42739720317E+02  0.44974269504E+02  0.10566000000E+00 0.  1.
        994    1    1    2    0    0 -0.13240579497E+02 -0.20382885191E+01  0.28163656089E+01  0.17174643950E+03  0.17120000000E+03 0.  0.
        998    1    1    2    0    0 -0.25355742202E+00 -0.16897578180E+01  0.14544439104E+04  0.14544792910E+04  0.10000000000E+02 0.  1.
</event>
<event>
 5    1  0.1294251E-008  0.3856627E+03  0.7957747E-01  0.3426867E+00
         13   -1    0    0    0    0  0.00000000000E+00  0.00000000000E+00  0.14999999963E+04  0.15000000000E+04  0.10566000000E+00 0.  1.
        994   -1    0    0    0    0 -0.00000000000E+00 -0.00000000000E+00  0.11368683772E-12  0.17120000000E+03  0.17120000000E+03 0.  0.
         13    1    1    2    0    0 -0.10919143023E+02 -0.66828151165E+01  0.61922277937E+02  0.63231854086E+02  0.10566000000E+00 0.  1.
        994    1    1    2    0    0  0.89764167199E+01  0.82553249910E+01  0.17897043739E+01  0.17164314577E+03  0.17120000000E+03 0.  0.
        998    1    1    2    0    0  0.19427263028E+01 -0.15725098745E+01  0.14362880140E+04  0.14363250001E+04  0.10000000000E+02 0.  1.
</event>
<event>
 5    1  0.1294251E-008  0.3835593E+03  0.7957747E-01  0.3435805E+00
         13   -1    0    0    0    0  0.00000000000E+00  0.00000000000E+00  0.14999999963E+04  0.15000000000E+04  0.10566000000E+00 0. -1.
        994   -1    0    0    0    0 -0.00000000000E+00 -0.00000000000E+00  0.11368683772E-12  0.17120000000E+03  0.17120000000E+03 0.  0.
         13    1    1    2    0    0 -0.37088508457E+01  0.12369974180E+02  0.33545090694E+02  0.35945182007E+02  0.10566000000E+00 0. -1.
        994    1    1    2    0    0  0.24121151867E+01 -0.18350938753E+02  0.34798266197E+01  0.17223276241E+03  0.17120000000E+03 0.  0.
        998    1    1    2    0    0  0.12967356590E+01  0.59809645733E+01  0.14629750790E+04  0.14630220556E+04  0.10000000000E+02 0. -1.
</event>
<event>
 5    1  0.1294251E-008  0.3800916E+03  0.7957747E-01  0.3450760E+00
         13   -1    0    0    0    0  0.00000000000E+00  0.00000000000E+00  0.14999999963E+04  0.15000000000E+04  0.10566000000E+00 0. -1.
        994   -1    0    0    0    0 -0.00000000000E+00 -0.00000000000E+00  0.11368683772E-12  0.17120000000E+03  0.17120000000E+03 0.  0.
         13    1    1    2    0    0 -0.17911122261E+02  0.53342464968E+01  0.44989396948E+02  0.48716726985E+02  0.10566000000E+00 0. -1.
        994    1    1    2    0    0 -0.22560239912E+02 -0.34670010137E+02  0.98260905425E+01  0.17640001724E+03  0.17120000000E+03 0.  0.
        998    1    1    2    0    0  0.40471362173E+02  0.29335763641E+02  0.14451845088E+04  0.14460832558E+04  0.10000000000E+02 0. -1.
</event>
<event>
 5    1  0.1294251E-008  0.3836987E+03  0.7957747E-01  0.3435210E+00
         13   -1    0    0    0    0  0.00000000000E+00  0.00000000000E+00  0.14999999963E+04  0.15000000000E+04  0.10566000000E+00 0.  1.
        994   -1    0    0    0    0 -0.00000000000E+00 -0.00000000000E+00  0.11368683772E-12  0.17120000000E+03  0.17120000000E+03 0.  0.
         13    1    1    2    0    0  0.18519494730E+02 -0.12863578006E+02  0.10677204887E+03  0.10912710437E+03  0.10566000000E+00 0.  1.
        994    1    1    2    0    0 -0.18094158045E+02  0.85211881357E+01  0.35997595408E+01  0.17240187781E+03  0.17120000000E+03 0.  0.
        998    1    1    2    0    0 -0.42533668466E+00  0.43423898706E+01  0.13896281879E+04  0.13896710178E+04  0.10000000000E+02 0.  1.
</event>
<event>
 5    1  0.1294251E-008  0.3817398E+03  0.7957747E-01  0.3443618E+00
         13   -1    0    0    0    0  0.00000000000E+00  0.00000000000E+00  0.14999999963E+04  0.15000000000E+04  0.10566000000E+00 0.  1.
        994   -1    0    0    0    0 -0.00000000000E+00 -0.00000000000E+00  0.11368683772E-12  0.17120000000E+03  0.17120000000E+03 0.  0.
         13    1    1    2    0    0  0.49911041617E+01 -0.24307362295E+02  0.10576879303E+03  0.10864072774E+03  0.10566000000E+00 0.  1.
        994    1    1    2    0    0 -0.47535932662E+01 -0.64727433256E+01  0.34718768901E+01  0.17142341434E+03  0.17120000000E+03 0.  0.
        998    1    1    2    0    0 -0.23751089553E+00  0.30780105621E+02  0.13907593264E+04  0.13911358579E+04  0.10000000000E+02 0.  1.
</event>
<event>
 5    1  0.1294251E-008  0.3848191E+03  0.7957747E-01  0.3430440E+00
         13   -1    0    0    0    0  0.00000000000E+00  0.00000000000E+00  0.14999999963E+04  0.15000000000E+04  0.10566000000E+00 0.  1.
        994   -1    0    0    0    0 -0.00000000000E+00 -0.00000000000E+00  0.11368683772E-12  0.17120000000E+03  0.17120000000E+03 0.  0.
         13    1    1    2    0    0 -0.12179325744E+01 -0.18300191019E+02  0.93830433459E+02  0.95606180544E+02  0.10566000000E+00 0.  1.
        994    1    1    2    0    0 -0.56971866023E-01  0.17300839485E+02  0.27055409514E+01  0.17209323707E+03  0.17120000000E+03 0.  0.
        998    1    1    2    0    0  0.12749044404E+01  0.99935153426E+00  0.14034640219E+04  0.14035005824E+04  0.10000000000E+02 0.  1.
</event>
<event>
 5    1  0.1294251E-008  0.3811249E+03  0.7957747E-01  0.3446275E+00
         13   -1    0    0    0    0  0.00000000000E+00  0.00000000000E+00  0.14999999963E+04  0.15000000000E+04  0.10566000000E+00 0. -1.
        994   -1    0    0    0    0 -0.00000000000E+00 -0.00000000000E+00  0.11368683772E-12  0.17120000000E+03  0.17120000000E+03 0.  0.
         13    1    1    2    0    0 -0.23144087024E+01  0.70685410812E+02  0.14824127634E+03  0.16424759044E+03  0.10566000000E+00 0. -1.
        994    1    1    2    0    0 -0.52815772509E+02 -0.36030885872E+02  0.31974664011E+02  0.18552506489E+03  0.17120000000E+03 0.  0.
        998    1    1    2    0    0  0.55130181212E+02 -0.34654524941E+02  0.13197840559E+04  0.13214273447E+04  0.10000000000E+02 0. -1.
</event>
<event>
 5    1  0.1294251E-008  0.3770755E+03  0.7957747E-01  0.3463992E+00
         13   -1    0    0    0    0  0.00000000000E+00  0.00000000000E+00  0.14999999963E+04  0.15000000000E+04  0.10566000000E+00 0. -1.
        994   -1    0    0    0    0 -0.00000000000E+00 -0.00000000000E+00  0.11368683772E-12  0.17120000000E+03  0.17120000000E+03 0.  0.
         13    1    1    2    0    0  0.21641138702E+02 -0.13842299179E+02  0.55336019654E+02  0.61008477821E+02  0.10566000000E+00 0. -1.
        994    1    1    2    0    0 -0.11644197314E+02  0.24715958676E+02  0.81406075974E+01  0.17355741251E+03  0.17120000000E+03 0.  0.
        998    1    1    2    0    0 -0.99969413884E+01 -0.10873659497E+02  0.14365233690E+04  0.14366341097E+04  0.10000000000E+02 0. -1.
</event>
<event>
 5    1  0.1294251E-008  0.3858145E+03  0.7957747E-01  0.3426225E+00
         13   -1    0    0    0    0  0.00000000000E+00  0.00000000000E+00  0.14999999963E+04  0.15000000000E+04  0.10566000000E+00 0. -1.
        994   -1    0    0    0    0 -0.00000000000E+00 -0.00000000000E+00  0.11368683772E-12  0.17120000000E+03  0.17120000000E+03 0.  0.
         13    1    1    2    0    0  0.98741950465E+01  0.14701256853E+02  0.10619594443E+03  0.10766251185E+03  0.10566000000E+00 0. -1.
        994    1    1    2    0    0 -0.25820925599E+02 -0.22395767538E+02  0.50676939843E+01  0.17465226058E+03  0.17120000000E+03 0.  0.
        998    1    1    2    0    0  0.15946730552E+02  0.76945106853E+01  0.13887363579E+04  0.13888852276E+04  0.10000000000E+02 0. -1.
</event>
<event>
 5    1  0.1294251E-008  0.3931785E+03  0.7957747E-01  0.3395710E+00
         13   -1    0    0    0    0  0.00000000000E+00  0.00000000000E+00  0.14999999963E+04  0.15000000000E+04  0.10566000000E+00 0. -1.
        994   -1    0    0    0    0 -0.00000000000E+00 -0.00000000000E+00  0.11368683772E-12  0.17120000000E+03  0.17120000000E+03 0.  0.
         13    1    1    2    0    0  0.10141811981E+03 -0.11575243072E+03  0.44311414118E+03  0.46907825948E+03  0.10566000000E+00 0. -1.
        994    1    1    2    0    0 -0.87740999425E+02  0.69531221156E+02  0.73279371228E+02  0.21728409961E+03  0.17120000000E+03 0.  0.
        998    1    1    2    0    0 -0.13677120382E+02  0.46221209561E+02  0.98360648387E+03  0.98483764091E+03  0.10000000000E+02 0. -1.
</event>
<event>
 5    1  0.1294251E-008  0.3848613E+03  0.7957747E-01  0.3430261E+00
         13   -1    0    0    0    0  0.00000000000E+00  0.00000000000E+00  0.14999999963E+04  0.15000000000E+04  0.10566000000E+00 0. -1.
        994   -1    0    0    0    0 -0.00000000000E+00 -0.00000000000E+00  0.11368683772E-12  0.17120000000E+03  0.17120000000E+03 0.  0.
         13    1    1    2    0    0 -0.13494378891E+02  0.27037156634E+01  0.53858172126E+02  0.55588867670E+02  0.10566000000E+00 0. -1.
        994    1    1    2    0    0  0.15202818870E+02 -0.19006486763E+00  0.24599231733E+01  0.17189139899E+03  0.17120000000E+03 0.  0.
        998    1    1    2    0    0 -0.17084399797E+01 -0.25136507958E+01  0.14436819010E+04  0.14437197333E+04  0.10000000000E+02 0. -1.
</event>
<event>
 5    1  0.1294251E-008  0.3822928E+03  0.7957747E-01  0.3441235E+00
         13   -1    0    0    0    0  0.00000000000E+00  0.00000000000E+00  0.14999999963E+04  0.15000000000E+04  0.10566000000E+00 0. -1.
        994   -1    0    0    0    0 -0.00000000000E+00 -0.00000000000E+00  0.11368683772E-12  0.17120000000E+03  0.17120000000E+03 0.  0.
         13    1    1    2    0    0 -0.54002394088E+01 -0.16714786454E+02  0.53959972206E+02  0.56747127120E+02  0.10566000000E+00 0. -1.
        994    1    1    2    0    0  0.85444397088E+01 -0.49089096185E+01  0.33024296005E+01  0.17151516226E+03  0.17120000000E+03 0.  0.
        998    1    1    2    0    0 -0.31442003000E+01  0.21623696073E+02  0.14427375945E+04  0.14429377106E+04  0.10000000000E+02 0. -1.
</event>
<event>
 5    1  0.1332134E-008  0.3852463E+03  0.7957747E-01  0.3428628E+00
         13   -1    0    0    0    0  0.00000000000E+00  0.00000000000E+00  0.14999999963E+04  0.15000000000E+04  0.10566000000E+00 0. -1.
        994   -1    0    0    0    0 -0.00000000000E+00 -0.00000000000E+00  0.11368683772E-12  0.17120000000E+03  0.17120000000E+03 0.  0.
         13    1    1    2    0    0  0.17502463113E+01  0.10412532728E+02  0.36781347034E+02  0.38266994311E+02  0.10566000000E+00 0. -1.
        994    1    1    2    0    0 -0.28838953983E+01 -0.75257151780E+01  0.17213845423E+01  0.17139823922E+03  0.17120000000E+03 0.  0.
        998    1    1    2    0    0  0.11336490870E+01 -0.28868175495E+01  0.14614972647E+04  0.14615347665E+04  0.10000000000E+02 0. -1.
</event>
<event>
 5    1  0.1294251E-008  0.3757365E+03  0.7957747E-01  0.3469935E+00
         13   -1    0    0    0    0  0.00000000000E+00  0.00000000000E+00  0.14999999963E+04  0.15000000000E+04  0.10566000000E+00 0. -1.
        994   -1    0    0    0    0 -0.00000000000E+00 -0.00000000000E+00  0.11368683772E-12  0.17120000000E+03  0.17120000000E+03 0.  0.
         13    1    1    2    0    0  0.28034477375E+02 -0.22308843054E+02  0.93988030482E+02  0.10058517504E+03  0.10566000000E+00 0. -1.
        994    1    1    2    0    0 -0.32875308753E+02  0.16307818765E+02  0.10881103736E+02  0.17542682035E+03  0.17120000000E+03 0.  0.
        998    1    1    2    0    0  0.48408313777E+01  0.60010242893E+01  0.13951308621E+04  0.13951880046E+04  0.10000000000E+02 0. -1.
</event>
<event>
 5    1  0.1294251E-008  0.3841305E+03  0.7957747E-01  0.3433368E+00
         13   -1    0    0    0    0  0.00000000000E+00  0.00000000000E+00  0.14999999963E+04  0.15000000000E+04  0.10566000000E+00 0. -1.
        994   -1    0    0    0    0 -0.00000000000E+00 -0.00000000000E+00  0.11368683772E-12  0.17120000000E+03  0.17120000000E+03 0.  0.
         13    1    1    2    0    0  0.82098222515E+01  0.10753892326E+02  0.41686256295E+02  0.43826960988E+02  0.10566000000E+00 0. -1.
        994    1    1    2    0    0 -0.83835271675E+01 -0.19356275453E+02  0.35312604037E+01  0.17253074719E+03  0.17120000000E+03 0.  0.
        998    1    1    2    0    0  0.17370491599E+00  0.86023831273E+01  0.14547824796E+04  0.14548422918E+04  0.10000000000E+02 0. -1.
</event>
<event>
 5    1  0.1294251E-008  0.3844861E+03  0.7957747E-01  0.3431855E+00
         13   -1    0    0    0    0  0.00000000000E+00  0.00000000000E+00  0.14999999963E+04  0.15000000000E+04  0.10566000000E+00 0. -1.
        994   -1    0    0    0    0 -0.00000000000E+00 -0.00000000000E+00  0.11368683772E-12  0.17120000000E+03  0.17120000000E+03 0.  0.
         13    1    1    2    0    0  0.13757130450E+02  0.29257008618E+00  0.49709925963E+02  0.51579377068E+02  0.10566000000E+00 0. -1.
        994    1    1    2    0    0 -0.10015534248E+02  0.58715750998E+00  0.22171269073E+01  0.17150805034E+03  0.17120000000E+03 0.  0.
        998    1    1    2    0    0 -0.37415962017E+01 -0.87972759615E+00  0.14480729434E+04  0.14481125726E+04  0.10000000000E+02 0. -1.
</event>
<event>
 5    1  0.1294251E-008  0.3832307E+03  0.7957747E-01  0.3437211E+00
         13   -1    0    0    0    0  0.00000000000E+00  0.00000000000E+00  0.14999999963E+04  0.15000000000E+04  0.10566000000E+00 0. -1.
        994   -1    0    0    0    0 -0.00000000000E+00 -0.00000000000E+00  0.11368683772E-12  0.17120000000E+03  0.17120000000E+03 0.  0.
         13    1    1    2    0    0  0.21297001429E+01  0.11837063076E+02  0.28092332406E+02  0.30558828332E+02  0.10566000000E+00 0. -1.
        994    1    1    2    0    0 -0.33121662477E+01 -0.64927236839E+01  0.26868702637E+01  0.17137615114E+03  0.17120000000E+03 0.  0.
        998    1    1    2    0    0  0.11824661048E+01 -0.53443393917E+01  0.14692207936E+04  0.14692650205E+04  0.10000000000E+02 0. -1.
</event>
<event>
 5    1  0.1294251E-008  0.3830358E+03  0.7957747E-01  0.3438045E+00
         13   -1    0    0    0    0  0.00000000000E+00  0.00000000000E+00  0.14999999963E+04  0.15000000000E+04  0.10566000000E+00 0.  1.
        994   -1    0    0    0    0 -0.00000000000E+00 -0.00000000000E+00  0.11368683772E-12  0.17120000000E+03  0.17120000000E+03 0.  0.
         13    1    1    2    0    0  0.26987975512E+01 -0.99219616246E+01  0.19089752532E+02  0.21683141988E+02  0.10566000000E+00 0.  1.
        994    1    1    2    0    0 -0.18321810664E+01  0.10569378663E+02  0.29893947996E+01  0.17156178227E+03  0.17120000000E+03 0.  0.
        998    1    1    2    0    0 -0.86661648480E+00 -0.64741703847E+00  0.14779208489E+04  0.14779550757E+04  0.10000000000E+02 0.  1.
</event>
<event>
 5    1  0.1294251E-008  0.3844620E+03  0.7957747E-01  0.3431957E+00
         13   -1    0    0    0    0  0.00000000000E+00  0.00000000000E+00  0.14999999963E+04  0.15000000000E+04  0.10566000000E+00 0.  1.
        994   -1    0    0    0    0 -0.00000000000E+00 -0.00000000000E+00  0.11368683772E-12  0.17120000000E+03  0.17120000000E+03 0.  0.
         13    1    1    2    0    0  0.42849913106E+01  0.19168761901E+02  0.99182169074E+02  0.10110843886E+03  0.10566000000E+00 0.  1.
        994    1    1    2    0    0 -0.33136332627E+01 -0.15147761262E+02  0.26899629244E+01  0.17192181577E+03  0.17120000000E+03 0.  0.
        998    1    1    2    0    0 -0.97135804789E+00 -0.40210006391E+01  0.13981278643E+04  0.13981697454E+04  0.10000000000E+02 0.  1.
</event>
<event>
 5    1  0.1294251E-008  0.3857483E+03  0.7957747E-01  0.3426505E+00
         13   -1    0    0    0    0  0.00000000000E+00  0.00000000000E+00  0.14999999963E+04  0.15000000000E+04  0.10566000000E+00 0.  1.
        994   -1    0    0    0    0 -0.00000000000E+00 -0.00000000000E+00  0.11368683772E-12  0.17120000000E+03  0.17120000000E+03 0.  0.
         13    1    1    2    0    0  0.15371953100E+02 -0.84347013523E+00  0.90636804765E+02  0.91935031006E+02  0.10566000000E+00 0.  1.
        994    1    1    2    0    0 -0.14946279685E+02  0.12355614544E+02  0.24937549919E+01  0.17231282976E+03  0.17120000000E+03 0.  0.
        998    1    1    2    0    0 -0.42567341423E+00 -0.11512144408E+02  0.14068694365E+04  0.14069521392E+04  0.10000000000E+02 0.  1.
</event>
<event>
 5    1  0.1294251E-008  0.3856114E+03  0.7957747E-01  0.3427083E+00
         13   -1    0    0    0    0  0.00000000000E+00  0.00000000000E+00  0.14999999963E+04  0.15000000000E+04  0.10566000000E+00 0.  1.
        994   -1    0    0    0    0 -0.00000000000E+00 -0.00000000000E+00  0.11368683772E-12  0.17120000000E+03  0.17120000000E+03 0.  0.
         13    1    1    2    0    0 -0.14047403432E+02 -0.23737279191E+00  0.81315805291E+02  0.82520647375E+02  0.10566000000E+00 0.  1.
        994    1    1    2    0    0 -0.10856936553E+01  0.14950129124E+02  0.20647087347E+01  0.17186735616E+03  0.17120000000E+03 0.  0.
        998    1    1    2    0    0  0.15133097087E+02 -0.14712756332E+02  0.14166194823E+04  0.14168119965E+04  0.10000000000E+02 0.  1.
</event>
<event>
 5    1  0.1294251E-008  0.3829464E+03  0.7957747E-01  0.3438429E+00
         13   -1    0    0    0    0  0.00000000000E+00  0.00000000000E+00  0.14999999963E+04  0.15000000000E+04  0.10566000000E+00 0.  1.
        994   -1    0    0    0    0 -0.00000000000E+00 -0.00000000000E+00  0.11368683772E-12  0.17120000000E+03  0.17120000000E+03 0.  0.
         13    1    1    2    0    0 -0.10978689054E+02 -0.32165153280E+01  0.26405967768E+02  0.28777836645E+02  0.10566000000E+00 0.  1.
        994    1    1    2    0    0 -0.20447334593E+02 -0.13225559415E+02  0.46189202616E+01  0.17298492229E+03  0.17120000000E+03 0.  0.
        998    1    1    2    0    0  0.31426023648E+02  0.16442074743E+02  0.14689751082E+04  0.14694372411E+04  0.10000000000E+02 0.  1.
</event>
<event>
 5    1  0.1294251E-008  0.3722245E+03  0.7957747E-01  0.3485729E+00
         13   -1    0    0    0    0  0.00000000000E+00  0.00000000000E+00  0.14999999963E+04  0.15000000000E+04  0.10566000000E+00 0.  1.
        994   -1    0    0    0    0 -0.00000000000E+00 -0.00000000000E+00  0.11368683772E-12  0.17120000000E+03  0.17120000000E+03 0.  0.
         13    1    1    2    0    0  0.18525538520E+02  0.88951471633E+02  0.27928267860E+03  0.29369096958E+03  0.10566000000E+00 0.  1.
        994    1    1    2    0    0 -0.31285103785E+02 -0.82221609562E+02  0.39913635346E+02  0.19657489434E+03  0.17120000000E+03 0.  0.
        998    1    1    2    0    0  0.12759565265E+02 -0.67298620705E+01  0.11808036823E+04  0.11809341361E+04  0.10000000000E+02 0.  1.
</event>
<event>
 5    1  0.1294251E-008  0.3772433E+03  0.7957747E-01  0.3463250E+00
         13   -1    0    0    0    0  0.00000000000E+00  0.00000000000E+00  0.14999999963E+04  0.15000000000E+04  0.10566000000E+00 0. -1.
        994   -1    0    0    0    0 -0.00000000000E+00 -0.00000000000E+00  0.11368683772E-12  0.17120000000E+03  0.17120000000E+03 0.  0.
         13    1    1    2    0    0 -0.27330275902E+02  0.51269308775E+00  0.63309877844E+02  0.68959108403E+02  0.10566000000E+00 0. -1.
        994    1    1    2    0    0  0.26542928074E+02  0.32877817976E+01  0.79482834757E+01  0.17345878977E+03  0.17120000000E+03 0.  0.
        998    1    1    2    0    0  0.78734782762E+00 -0.38004748853E+01  0.14287418350E+04  0.14287821018E+04  0.10000000000E+02 0. -1.
</event>
<event>
 5    1  0.1294251E-008  0.3781827E+03  0.7957747E-01  0.3459110E+00
         13   -1    0    0    0    0  0.00000000000E+00  0.00000000000E+00  0.14999999963E+04  0.15000000000E+04  0.10566000000E+00 0. -1.
        994   -1    0    0    0    0 -0.00000000000E+00 -0.00000000000E+00  0.11368683772E-12  0.17120000000E+03  0.17120000000E+03 0.  0.
         13    1    1    2    0    0  0.21510828871E+02  0.69842737363E+02  0.41788699890E+03  0.42422904042E+03  0.10566000000E+00 0. -1.
        994    1    1    2    0    0 -0.21844024664E+02 -0.60750525193E+02  0.19200535188E+02  0.18397252044E+03  0.17120000000E+03 0.  0.
        998    1    1    2    0    0  0.33319579318E+00 -0.90922121698E+01  0.10629124622E+04  0.10629984391E+04  0.10000000000E+02 0. -1.
</event>
<event>
 5    1  0.1294251E-008  0.3695721E+03  0.7957747E-01  0.3497860E+00
         13   -1    0    0    0    0  0.00000000000E+00  0.00000000000E+00  0.14999999963E+04  0.15000000000E+04  0.10566000000E+00 0. -1.
        994   -1    0    0    0    0 -0.00000000000E+00 -0.00000000000E+00  0.11368683772E-12  0.17120000000E+03  0.17120000000E+03 0.  0.
         13    1    1    2    0    0  0.35002271321E+02 -0.10080568553E+02  0.64303726258E+02  0.73903702442E+02  0.10566000000E+00 0. -1.
        994    1    1    2    0    0 -0.31310123785E+02  0.13586410980E+02  0.13537406697E+02  0.17509316319E+03  0.17120000000E+03 0.  0.
        998    1    1    2    0    0 -0.36921475363E+01 -0.35058424270E+01  0.14221588633E+04  0.14222031344E+04  0.10000000000E+02 0. -1.
</event>
<event>
 5    1  0.1294251E-008  0.3745082E+03  0.7957747E-01  0.3475425E+00
         13   -1    0    0    0    0  0.00000000000E+00  0.00000000000E+00  0.14999999963E+04  0.15000000000E+04  0.10566000000E+00 0. -1.
        994   -1    0    0    0    0 -0.00000000000E+00 -0.00000000000E+00  0.11368683772E-12  0.17120000000E+03  0.17120000000E+03 0.  0.
         13    1    1    2    0    0 -0.16987189244E+02  0.60674102959E+02  0.24655352081E+03  0.25447703463E+03  0.10566000000E+00 0. -1.
        994    1    1    2    0    0  0.46540251617E+01 -0.59093939011E+02  0.18990981213E+02  0.18216435147E+03  0.17120000000E+03 0.  0.
        998    1    1    2    0    0  0.12333164082E+02 -0.15801639482E+01  0.12344554943E+04  0.12345586139E+04  0.10000000000E+02 0. -1.
</event>
<event>
 5    1  0.1294251E-008  0.3778990E+03  0.7957747E-01  0.3460358E+00
         13   -1    0    0    0    0  0.00000000000E+00  0.00000000000E+00  0.14999999963E+04  0.15000000000E+04  0.10566000000E+00 0. -1.
        994   -1    0    0    0    0 -0.00000000000E+00 -0.00000000000E+00  0.11368683772E-12  0.17120000000E+03  0.17120000000E+03 0.  0.
         13    1    1    2    0    0 -0.25124010238E+02  0.32578066491E+02  0.18145754211E+03  0.18606288469E+03  0.10566000000E+00 0. -1.
        994    1    1    2    0    0  0.10605007145E+02  0.11939016381E+01  0.55809951618E+01  0.17162307270E+03  0.17120000000E+03 0.  0.
        998    1    1    2    0    0  0.14519003092E+02 -0.33771968129E+02  0.13129614590E+04  0.13135140426E+04  0.10000000000E+02 0. -1.
</event>
<event>
 5    1  0.1294251E-008  0.3838883E+03  0.7957747E-01  0.3434401E+00
         13   -1    0    0    0    0  0.00000000000E+00  0.00000000000E+00  0.14999999963E+04  0.15000000000E+04  0.10566000000E+00 0.  1.
        994   -1    0    0    0    0 -0.00000000000E+00 -0.00000000000E+00  0.11368683772E-12  0.17120000000E+03  0.17120000000E+03 0.  0.
         13    1    1    2    0    0  0.11707872661E+02  0.94455715662E+01  0.53251945779E+02  0.55336009955E+02  0.10566000000E+00 0.  1.
        994    1    1    2    0    0 -0.54316615269E+01  0.24349034629E+01  0.23000554119E+01  0.17131888967E+03  0.17120000000E+03 0.  0.
        998    1    1    2    0    0 -0.62762111341E+01 -0.11880475029E+02  0.14444479951E+04  0.14445451004E+04  0.10000000000E+02 0.  1.
</event>
<event>
 5    1  0.1294251E-008  0.3782255E+03  0.7957747E-01  0.3458922E+00
         13   -1    0    0    0    0  0.00000000000E+00  0.00000000000E+00  0.14999999963E+04  0.15000000000E+04  0.10566000000E+00 0. -1.
        994   -1    0    0    0    0 -0.00000000000E+00 -0.00000000000E+00  0.11368683772E-12  0.17120000000E+03  0.17120000000E+03 0.  0.
         13    1    1    2    0    0  0.11875212072E+03 -0.14101826745E+03  0.10048204120E+04  0.10215930156E+04  0.10566000000E+00 0. -1.
        994    1    1    2    0    0 -0.12438311867E+03  0.13054184165E+03  0.12353495264E+03  0.27763763642E+03  0.17120000000E+03 0.  0.
        998    1    1    2    0    0  0.56309979494E+01  0.10476425797E+02  0.37164463165E+03  0.37196934802E+03  0.10000000000E+02 0. -1.
</event>
<event>
 5    1  0.1294251E-008  0.3840339E+03  0.7957747E-01  0.3433780E+00
         13   -1    0    0    0    0  0.00000000000E+00  0.00000000000E+00  0.14999999963E+04  0.15000000000E+04  0.10566000000E+00 0.  1.
        994   -1    0    0    0    0 -0.00000000000E+00 -0.00000000000E+00  0.11368683772E-12  0.17120000000E+03  0.17120000000E+03 0.  0.
         13    1    1    2    0    0  0.14390189240E+02 -0.47213433066E+01  0.50802006961E+02  0.53011543123E+02  0.10566000000E+00 0.  1.
        994    1    1    2    0    0 -0.19409660194E+02  0.11172738066E+02  0.37669606213E+01  0.17269972489E+03  0.17120000000E+03 0.  0.
        998    1    1    2    0    0  0.50194709537E+01 -0.64513947590E+01  0.14454310287E+04  0.14454887320E+04  0.10000000000E+02 0.  1.
</event>
<event>
 5    1  0.1294251E-008  0.3809127E+03  0.7957747E-01  0.3447194E+00
         13   -1    0    0    0    0  0.00000000000E+00  0.00000000000E+00  0.14999999963E+04  0.15000000000E+04  0.10566000000E+00 0.  1.
        994   -1    0    0    0    0 -0.00000000000E+00 -0.00000000000E+00  0.11368683772E-12  0.17120000000E+03  0.17120000000E+03 0.  0.
         13    1    1    2    0    0 -0.10360181852E+02 -0.19224860432E+02  0.64435007456E+02  0.68035358282E+02  0.10566000000E+00 0.  1.
        994    1    1    2    0    0  0.87842778465E+01  0.78663041880E+01  0.41366603083E+01  0.17165545210E+03  0.17120000000E+03 0.  0.
        998    1    1    2    0    0  0.15759040058E+01  0.11358556244E+02  0.14314283285E+04  0.14315091896E+04  0.10000000000E+02 0.  1.
</event>
<event>
 5    1  0.1294251E-008  0.3795880E+03  0.7957747E-01  0.3452954E+00
         13   -1    0    0    0    0  0.00000000000E+00  0.00000000000E+00  0.14999999963E+04  0.15000000000E+04  0.10566000000E+00 0.  1.
        994   -1    0    0    0    0 -0.00000000000E+00 -0.00000000000E+00  0.11368683772E-12  0.17120000000E+03  0.17120000000E+03 0.  0.
         13    1    1    2    0    0 -0.46932310180E+01 -0.14671623468E+02  0.25246755107E+02  0.29575205157E+02  0.10566000000E+00 0.  1.
        994    1    1    2    0    0  0.60568186263E+01  0.13722358006E+02  0.50947433692E+01  0.17193133679E+03  0.17120000000E+03 0.  0.
        998    1    1    2    0    0 -0.13635876083E+01  0.94926546233E+00  0.14696584978E+04  0.14696934581E+04  0.10000000000E+02 0.  1.
</event>
<event>
 5    1  0.1294251E-008  0.3818575E+03  0.7957747E-01  0.3443110E+00
         13   -1    0    0    0    0  0.00000000000E+00  0.00000000000E+00  0.14999999963E+04  0.15000000000E+04  0.10566000000E+00 0.  1.
        994   -1    0    0    0    0 -0.00000000000E+00 -0.00000000000E+00  0.11368683772E-12  0.17120000000E+03  0.17120000000E+03 0.  0.
         13    1    1    2    0    0  0.15227273811E+02 -0.25401755359E+02  0.12738756664E+03  0.13078502339E+03  0.10566000000E+00 0.  1.
        994    1    1    2    0    0 -0.17777972458E+02  0.21961025007E+02  0.58554615721E+01  0.17361471526E+03  0.17120000000E+03 0.  0.
        998    1    1    2    0    0  0.25506986473E+01  0.34407303528E+01  0.13667569681E+04  0.13668002614E+04  0.10000000000E+02 0.  1.
</event>
<event>
 5    1  0.1294251E-008  0.3832530E+03  0.7957747E-01  0.3437116E+00
         13   -1    0    0    0    0  0.00000000000E+00  0.00000000000E+00  0.14999999963E+04  0.15000000000E+04  0.10566000000E+00 0. -1.
        994   -1    0    0    0    0 -0.00000000000E+00 -0.00000000000E+00  0.11368683772E-12  0.17120000000E+03  0.17120000000E+03 0.  0.
         13    1    1    2    0    0  0.14080670978E+02 -0.12898037233E+02  0.72703086751E+02  0.75168973964E+02  0.10566000000E+00 0. -1.
        994    1    1    2    0    0 -0.11213759980E+02  0.42096324788E+01  0.29746488664E+01  0.17164427737E+03  0.17120000000E+03 0.  0.
        998    1    1    2    0    0 -0.28669109979E+01  0.86884047547E+01  0.14243222607E+04  0.14243867487E+04  0.10000000000E+02 0. -1.
</event>
<event>
 5    1  0.1294251E-008  0.3827708E+03  0.7957747E-01  0.3439182E+00
         13   -1    0    0    0    0  0.00000000000E+00  0.00000000000E+00  0.14999999963E+04  0.15000000000E+04  0.10566000000E+00 0.  1.
        994   -1    0    0    0    0 -0.00000000000E+00 -0.00000000000E+00  0.11368683772E-12  0.17120000000E+03  0.17120000000E+03 0.  0.
         13    1    1    2    0    0 -0.29537961295E+01 -0.10587807625E+02  0.20728901577E+02  0.23463271436E+02  0.10566000000E+00 0.  1.
        994    1    1    2    0    0  0.33729385582E+01  0.11616014553E+02  0.32257399802E+01  0.17165708231E+03  0.17120000000E+03 0.  0.
        998    1    1    2    0    0 -0.41914242874E+00 -0.10282069281E+01  0.14760453547E+04  0.14760796463E+04  0.10000000000E+02 0.  1.
</event>
<event>
 5    1  0.1804055E-008  0.3864597E+03  0.7957747E-01  0.3423505E+00
         13   -1    0    0    0    0  0.00000000000E+00  0.00000000000E+00  0.14999999963E+04  0.15000000000E+04  0.10566000000E+00 0. -1.
        994   -1    0    0    0    0 -0.00000000000E+00 -0.00000000000E+00  0.11368683772E-12  0.17120000000E+03  0.17120000000E+03 0.  0.
         13    1    1    2    0    0  0.94937127280E+01 -0.42566499654E+01  0.60803430321E+02  0.61687259245E+02  0.10566000000E+00 0. -1.
        994    1    1    2    0    0 -0.39223881231E+01  0.90618813268E+01  0.12263283868E+01  0.17148891131E+03  0.17120000000E+03 0.  0.
        998    1    1    2    0    0 -0.55713246049E+01 -0.48052313614E+01  0.14379702376E+04  0.14380238294E+04  0.10000000000E+02 0. -1.
</event>
<event>
 5    1  0.1294251E-008  0.3837062E+03  0.7957747E-01  0.3435178E+00
         13   -1    0    0    0    0  0.00000000000E+00  0.00000000000E+00  0.14999999963E+04  0.15000000000E+04  0.10566000000E+00 0.  1.
        994   -1    0    0    0    0 -0.00000000000E+00 -0.00000000000E+00  0.11368683772E-12  0.17120000000E+03  0.17120000000E+03 0.  0.
         13    1    1    2    0    0  0.17688289975E+01  0.18835141009E+02  0.74704717372E+02  0.77062943458E+02  0.10566000000E+00 0.  1.
        994    1    1    2    0    0 -0.53739794104E+01 -0.19566365082E+02  0.36347294535E+01  0.17243657836E+03  0.17120000000E+03 0.  0.
        998    1    1    2    0    0  0.36051504128E+01  0.73122407324E+00  0.14216605495E+04  0.14217004782E+04  0.10000000000E+02 0.  1.
</event>
<event>
 5    1  0.1294251E-008  0.3851718E+03  0.7957747E-01  0.3428944E+00
         13   -1    0    0    0    0  0.00000000000E+00  0.00000000000E+00  0.14999999963E+04  0.15000000000E+04  0.10566000000E+00 0. -1.
        994   -1    0    0    0    0 -0.00000000000E+00 -0.00000000000E+00  0.11368683772E-12  0.17120000000E+03  0.17120000000E+03 0.  0.
         13    1    1    2    0    0 -0.11361480096E+02  0.31501801961E+01  0.47500237711E+02  0.48941706263E+02  0.10566000000E+00 0. -1.
        994    1    1    2    0    0 -0.26838054035E+01 -0.32531785661E+01  0.16033511589E+01  0.17125944271E+03  0.17120000000E+03 0.  0.
        998    1    1    2    0    0  0.14045285499E+02  0.10299836994E+00  0.14508964074E+04  0.14509988510E+04  0.10000000000E+02 0. -1.
</event>
<event>
 5    1  0.1294251E-008  0.3771951E+03  0.7957747E-01  0.3463463E+00
         13   -1    0    0    0    0  0.00000000000E+00  0.00000000000E+00  0.14999999963E+04  0.15000000000E+04  0.10566000000E+00 0.  1.
        994   -1    0    0    0    0 -0.00000000000E+00 -0.00000000000E+00  0.11368683772E-12  0.17120000000E+03  0.17120000000E+03 0.  0.
         13    1    1    2    0    0 -0.22807810347E+02  0.13440230626E+02  0.58448424410E+02  0.64164363101E+02  0.10566000000E+00 0.  1.
        994    1    1    2    0    0  0.25915132045E+02 -0.12732543870E+02  0.83740307930E+01  0.17381966556E+03  0.17120000000E+03 0.  0.
        998    1    1    2    0    0 -0.31073216979E+01 -0.70768675556E+00  0.14331775411E+04  0.14332159713E+04  0.10000000000E+02 0.  1.
</event>
<event>
 5    1  0.1294251E-008  0.3704911E+03  0.7957747E-01  0.3493637E+00
         13   -1    0    0    0    0  0.00000000000E+00  0.00000000000E+00  0.14999999963E+04  0.15000000000E+04  0.10566000000E+00 0. -1.
        994   -1    0    0    0    0 -0.00000000000E+00 -0.00000000000E+00  0.11368683772E-12  0.17120000000E+03  0.17120000000E+03 0.  0.
         13    1    1    2    0    0 -0.54200778242E+02 -0.26661026361E+02  0.18525164439E+03  0.19485050065E+03  0.10566000000E+00 0. -1.
        994    1    1    2    0    0  0.48291063643E+02  0.15924936256E+02  0.17991142046E+02  0.17949582618E+03  0.17120000000E+03 0.  0.
        998    1    1    2    0    0  0.59097145983E+01  0.10736090105E+02  0.12967572098E+04  0.12968536732E+04  0.10000000000E+02 0. -1.
</event>
<event>
 5    1  0.1294251E-008  0.3807082E+03  0.7957747E-01  0.3448081E+00
         13   -1    0    0    0    0  0.00000000000E+00  0.00000000000E+00  0.14999999963E+04  0.15000000000E+04  0.10566000000E+00 0. -1.
        994   -1    0    0    0    0 -0.00000000000E+00 -0.00000000000E+00  0.11368683772E-12  0.17120000000E+03  0.17120000000E+03 0.  0.
         13    1    1    2    0    0 -0.11826226369E+02 -0.75488048487E+01  0.24980095245E+02  0.28650661550E+02  0.10566000000E+00 0. -1.
        994    1    1    2    0    0 -0.32706923305E+00  0.77000199241E+01  0.39742219652E+01  0.17141946133E+03  0.17120000000E+03 0.  0.
        998    1    1    2    0    0  0.12153295602E+02 -0.15121507532E+00  0.14710456791E+04  0.14711298771E+04  0.10000000000E+02 0. -1.
</event>
<event>
 5    1  0.1294251E-008  0.3785397E+03  0.7957747E-01  0.3457542E+00
         13   -1    0    0    0    0  0.00000000000E+00  0.00000000000E+00  0.14999999963E+04  0.15000000000E+04  0.10566000000E+00 0. -1.
        994   -1    0    0    0    0 -0.00000000000E+00 -0.00000000000E+00  0.11368683772E-12  0.17120000000E+03  0.17120000000E+03 0.  0.
         13    1    1    2    0    0  0.90256311619E+01 -0.62668521000E+01  0.10592193816E+02  0.15262410917E+02  0.10566000000E+00 0. -1.
        994    1    1    2    0    0 -0.61498327440E+01 -0.23648060454E+02  0.68802519577E+01  0.17307174545E+03  0.17120000000E+03 0.  0.
        998    1    1    2    0    0 -0.28757984179E+01  0.29914912554E+02  0.14825275505E+04  0.14828658436E+04  0.10000000000E+02 0. -1.
</event>
<event>
 5    1  0.1294251E-008  0.3692707E+03  0.7957747E-01  0.3499249E+00
         13   -1    0    0    0    0  0.00000000000E+00  0.00000000000E+00  0.14999999963E+04  0.15000000000E+04  0.10566000000E+00 0. -1.
        994   -1    0    0    0    0 -0.00000000000E+00 -0.00000000000E+00  0.11368683772E-12  0.17120000000E+03  0.17120000000E+03 0.  0.
         13    1    1    2    0    0  0.42475743834E+02  0.49489803396E+02  0.19929995086E+03  0.20969957327E+03  0.10566000000E+00 0. -1.
        994    1    1    2    0    0 -0.39279116792E+02 -0.39299626431E+02  0.20429927692E+02  0.18114671291E+03  0.17120000000E+03 0.  0.
        998    1    1    2    0    0 -0.31966270418E+01 -0.10190176965E+02  0.12802701177E+04  0.12803537138E+04  0.10000000000E+02 0. -1.
</event>
<event>
 5    1  0.1294251E-008  0.3826996E+03  0.7957747E-01  0.3439488E+00
         13   -1    0    0    0    0  0.00000000000E+00  0.00000000000E+00  0.14999999963E+04  0.15000000000E+04  0.10566000000E+00 0.  1.
        994   -1    0    0    0    0 -0.00000000000E+00 -0.00000000000E+00  0.11368683772E-12  0.17120000000E+03  0.17120000000E+03 0.  0.
         13    1    1    2    0    0 -0.15462401947E+02  0.33543840193E+01  0.41174358022E+02  0.44109825308E+02  0.10566000000E+00 0.  1.
        994    1    1    2    0    0  0.28976022609E+02  0.12998479139E+01  0.55691174341E+01  0.17372896868E+03  0.17120000000E+03 0.  0.
        998    1    1    2    0    0 -0.13513620662E+02 -0.46542319333E+01  0.14532565208E+04  0.14533612060E+04  0.10000000000E+02 0.  1.
</event>
<event>
 5    1  0.1294251E-008  0.3782733E+03  0.7957747E-01  0.3458712E+00
         13   -1    0    0    0    0  0.00000000000E+00  0.00000000000E+00  0.14999999963E+04  0.15000000000E+04  0.10566000000E+00 0.  1.
        994   -1    0    0    0    0 -0.00000000000E+00 -0.00000000000E+00  0.11368683772E-12  0.17120000000E+03  0.17120000000E+03 0.  0.
         13    1    1    2    0    0 -0.78499887702E+01  0.42584998849E+02  0.61175278810E+02  0.74950185805E+02  0.10566000000E+00 0.  1.
        994    1    1    2    0    0 -0.25264172179E+02  0.31707698457E+01  0.17719862895E+02  0.17398783210E+03  0.17120000000E+03 0.  0.
        998    1    1    2    0    0  0.33114160949E+02 -0.45755768695E+02  0.14211048546E+04  0.14222619821E+04  0.10000000000E+02 0.  1.
</event>
<event>
 5    1  0.1294251E-008  0.3711710E+03  0.7957747E-01  0.3490526E+00
         13   -1    0    0    0    0  0.00000000000E+00  0.00000000000E+00  0.14999999963E+04  0.15000000000E+04  0.10566000000E+00 0.  1.
        994   -1    0    0    0    0 -0.00000000000E+00 -0.00000000000E+00  0.11368683772E-12  0.17120000000E+03  0.17120000000E+03 0.  0.
         13    1    1    2    0    0 -0.51325507146E+02 -0.40698502129E+01  0.10694425558E+03  0.11869269704E+03  0.10566000000E+00 0.  1.
        994    1    1    2    0    0  0.42778966573E+02 -0.44347436961E+01  0.18080784941E+02  0.17744312248E+03  0.17120000000E+03 0.  0.
        998    1    1    2    0    0  0.85465405732E+01  0.85045939090E+01  0.13749749558E+04  0.13750641805E+04  0.10000000000E+02 0.  1.
</event>
<event>
 5    1  0.1294251E-008  0.3817223E+03  0.7957747E-01  0.3443693E+00
         13   -1    0    0    0    0  0.00000000000E+00  0.00000000000E+00  0.14999999963E+04  0.15000000000E+04  0.10566000000E+00 0.  1.
        994   -1    0    0    0    0 -0.00000000000E+00 -0.00000000000E+00  0.11368683772E-12  0.17120000000E+03  0.17120000000E+03 0.  0.
         13    1    1    2    0    0  0.77046399844E+02 -0.16817837940E+02  0.44324697181E+03  0.45020759277E+03  0.10566000000E+00 0.  1.
        994    1    1    2    0    0 -0.10543015738E+03  0.37480661479E+02  0.46066743894E+02  0.20964709147E+03  0.17120000000E+03 0.  0.
        998    1    1    2    0    0  0.28383757536E+02 -0.20662823540E+02  0.10106862806E+04  0.10113453158E+04  0.10000000000E+02 0.  1.
</event>
<event>
 5    1  0.1294251E-008  0.3798295E+03  0.7957747E-01  0.3451901E+00
         13   -1    0    0    0    0  0.00000000000E+00  0.00000000000E+00  0.14999999963E+04  0.15000000000E+04  0.10566000000E+00 0. -1.
        994   -1    0    0    0    0 -0.00000000000E+00 -0.00000000000E+00  0.11368683772E-12  0.17120000000E+03  0.17120000000E+03 0.  0.
         13    1    1    2    0    0  0.10818704795E+01 -0.69493016256E+02  0.13530060731E+03  0.15210757790E+03  0.10566000000E+00 0. -1.
        994    1    1    2    0    0  0.28102199294E+02  0.61624004647E+02  0.33039013246E+02  0.18705151149E+03  0.17120000000E+03 0.  0.
        998    1    1    2    0    0 -0.29184069773E+02  0.78690116087E+01  0.13316603757E+04  0.13320409106E+04  0.10000000000E+02 0. -1.
</event>
<event>
 5    1  0.1294251E-008  0.3820435E+03  0.7957747E-01  0.3442309E+00
         13   -1    0    0    0    0  0.00000000000E+00  0.00000000000E+00  0.14999999963E+04  0.15000000000E+04  0.10566000000E+00 0. -1.
        994   -1    0    0    0    0 -0.00000000000E+00 -0.00000000000E+00  0.11368683772E-12  0.17120000000E+03  0.17120000000E+03 0.  0.
         13    1    1    2    0    0 -0.15160814621E+02 -0.16701002902E+02  0.84151882782E+02  0.87122467468E+02  0.10566000000E+00 0. -1.
        994    1    1    2    0    0 -0.14345044554E+02  0.23122737021E+02  0.55676753818E+01  0.17343840486E+03  0.17120000000E+03 0.  0.
        998    1    1    2    0    0  0.29505859175E+02 -0.64217341184E+01  0.14102804381E+04  0.14106391277E+04  0.10000000000E+02 0. -1.
</event>
<event>
 5    1  0.1294251E-008  0.3775135E+03  0.7957747E-01  0.3462057E+00
         13   -1    0    0    0    0  0.00000000000E+00  0.00000000000E+00  0.14999999963E+04  0.15000000000E+04  0.10566000000E+00 0. -1.
        994   -1    0    0    0    0 -0.00000000000E+00 -0.00000000000E+00  0.11368683772E-12  0.17120000000E+03  0.17120000000E+03 0.  0.
         13    1    1    2    0    0 -0.61345595899E+01 -0.25137646621E+02  0.60568250530E+02  0.65863937290E+02  0.10566000000E+00 0. -1.
        994    1    1    2    0    0 -0.25507368334E+01  0.15234726755E+02  0.61982494934E+01  0.17200715524E+03  0.17120000000E+03 0.  0.
        998    1    1    2    0    0  0.86852964232E+01  0.99029198665E+01  0.14332334963E+04  0.14333289075E+04  0.10000000000E+02 0. -1.
</event>
<event>
 5    1  0.1294251E-008  0.3700208E+03  0.7957747E-01  0.3495795E+00
         13   -1    0    0    0    0  0.00000000000E+00  0.00000000000E+00  0.14999999963E+04  0.15000000000E+04  0.10566000000E+00 0. -1.
        994   -1    0    0    0    0 -0.00000000000E+00 -0.00000000000E+00  0.11368683772E-12  0.17120000000E+03  0.17120000000E+03 0.  0.
         13    1    1    2    0    0 -0.78369018819E+02  0.11990352846E+02  0.27748041890E+03  0.28858424369E+03  0.10566000000E+00 0. -1.
        994    1    1    2    0    0  0.76405454959E+02 -0.10925166158E+02  0.30146113487E+02  0.19019826750E+03  0.17120000000E+03 0.  0.
        998    1    1    2    0    0  0.19635638607E+01 -0.10651866881E+01  0.11923734639E+04  0.11924174888E+04  0.10000000000E+02 0. -1.
</event>
<event>
 5    1  0.1294251E-008  0.3780205E+03  0.7957747E-01  0.3459823E+00
         13   -1    0    0    0    0  0.00000000000E+00  0.00000000000E+00  0.14999999963E+04  0.15000000000E+04  0.10566000000E+00 0. -1.
        994   -1    0    0    0    0 -0.00000000000E+00 -0.00000000000E+00  0.11368683772E-12  0.17120000000E+03  0.17120000000E+03 0.  0.
         13    1    1    2    0    0  0.95916175840E+02  0.11145496018E+03  0.79787204009E+03  0.81130877257E+03  0.10566000000E+00 0. -1.
        994    1    1    2    0    0 -0.89498560146E+02 -0.12528637141E+03  0.89567753925E+02  0.24705968848E+03  0.17120000000E+03 0.  0.
        998    1    1    2    0    0 -0.64176156936E+01  0.13831411226E+02  0.61256020227E+03  0.61283153895E+03  0.10000000000E+02 0. -1.
</event>
<event>
 5    1  0.1294251E-008  0.3846663E+03  0.7957747E-01  0.3431089E+00
         13   -1    0    0    0    0  0.00000000000E+00  0.00000000000E+00  0.14999999963E+04  0.15000000000E+04  0.10566000000E+00 0.  1.
        994   -1    0    0    0    0 -0.00000000000E+00 -0.00000000000E+00  0.11368683772E-12  0.17120000000E+03  0.17120000000E+03 0.  0.
         13    1    1    2    0    0 -0.17487424745E+02  0.10866525219E+02  0.12202097488E+03  0.12374579132E+03  0.10566000000E+00 0.  1.
        994    1    1    2    0    0  0.12234985241E+02  0.28721808655E+01  0.23160750979E+01  0.17167628983E+03  0.17120000000E+03 0.  0.
        998    1    1    2    0    0  0.52524395040E+01 -0.13738706085E+02  0.13756629463E+04  0.13757779188E+04  0.10000000000E+02 0.  1.
</event>
<event>
 5    1  0.1294251E-008  0.3726565E+03  0.7957747E-01  0.3483771E+00
         13   -1    0    0    0    0  0.00000000000E+00  0.00000000000E+00  0.14999999963E+04  0.15000000000E+04  0.10566000000E+00 0.  1.
        994   -1    0    0    0    0 -0.00000000000E+00 -0.00000000000E+00  0.11368683772E-12  0.17120000000E+03  0.17120000000E+03 0.  0.
         13    1    1    2    0    0  0.19521615565E+02 -0.79566234453E+02  0.23495857683E+03  0.24883211837E+03  0.10566000000E+00 0.  1.
        994    1    1    2    0    0 -0.21487870885E+02  0.71397085158E+02  0.32236546824E+02  0.18949381867E+03  0.17120000000E+03 0.  0.
        998    1    1    2    0    0  0.19662553196E+01  0.81691492949E+01  0.12328048726E+04  0.12328740630E+04  0.10000000000E+02 0.  1.
</event>
<event>
 5    1  0.1294251E-008  0.3844914E+03  0.7957747E-01  0.3431832E+00
         13   -1    0    0    0    0  0.00000000000E+00  0.00000000000E+00  0.14999999963E+04  0.15000000000E+04  0.10566000000E+00 0.  1.
        994   -1    0    0    0    0 -0.00000000000E+00 -0.00000000000E+00  0.11368683772E-12  0.17120000000E+03  0.17120000000E+03 0.  0.
         13    1    1    2    0    0  0.75228147212E+00 -0.17627454710E+02  0.88114620178E+02  0.89863733175E+02  0.10566000000E+00 0.  1.
        994    1    1    2    0    0 -0.42002731724E+01  0.16435700445E+01  0.19498878143E+01  0.17127050441E+03  0.17120000000E+03 0.  0.
        998    1    1    2    0    0  0.34479917002E+01  0.15983884666E+02  0.14099354883E+04  0.14100657624E+04  0.10000000000E+02 0.  1.
</event>
<event>
 5    1  0.1294251E-008  0.4119552E+03  0.7957747E-01  0.3322823E+00
         13   -1    0    0    0    0  0.00000000000E+00  0.00000000000E+00  0.14999999963E+04  0.15000000000E+04  0.10566000000E+00 0. -1.
        994   -1    0    0    0    0 -0.00000000000E+00 -0.00000000000E+00  0.11368683772E-12  0.17120000000E+03  0.17120000000E+03 0.  0.
         13    1    1    2    0    0  0.11044286007E+03  0.28345310752E+00  0.17118601902E+03  0.20372130462E+03  0.10566000000E+00 0. -1.
        994    1    1    2    0    0 -0.63973346772E+02  0.55543510226E+02  0.65344737314E+02  0.20188374209E+03  0.17120000000E+03 0.  0.
        998    1    1    2    0    0 -0.46469513294E+02 -0.55826963334E+02  0.12634692399E+04  0.12655949533E+04  0.10000000000E+02 0. -1.
</event>
<event>
 5    1  0.1294251E-008  0.3849653E+03  0.7957747E-01  0.3429819E+00
         13   -1    0    0    0    0  0.00000000000E+00  0.00000000000E+00  0.14999999963E+04  0.15000000000E+04  0.10566000000E+00 0.  1.
        994   -1    0    0    0    0 -0.00000000000E+00 -0.00000000000E+00  0.11368683772E-12  0.17120000000E+03  0.17120000000E+03 0.  0.
         13    1    1    2    0    0 -0.10088708819E+03  0.59658822940E+02  0.64007372989E+03  0.65071635186E+03  0.10566000000E+00 0.  1.
        994    1    1    2    0    0  0.16051622702E+03 -0.81260310346E+02  0.11654895798E+03  0.27433883571E+03  0.17120000000E+03 0.  0.
        998    1    1    2    0    0 -0.59629138826E+02  0.21601487406E+02  0.74337730841E+03  0.74614481243E+03  0.10000000000E+02 0.  1.
</event>
<event>
 5    1  0.1294251E-008  0.3698756E+03  0.7957747E-01  0.3496463E+00
         13   -1    0    0    0    0  0.00000000000E+00  0.00000000000E+00  0.14999999963E+04  0.15000000000E+04  0.10566000000E+00 0. -1.
        994   -1    0    0    0    0 -0.00000000000E+00 -0.00000000000E+00  0.11368683772E-12  0.17120000000E+03  0.17120000000E+03 0.  0.
         13    1    1    2    0    0  0.60464353825E+02 -0.13320909238E+02  0.16934315976E+03  0.18030668769E+03  0.10566000000E+00 0. -1.
        994    1    1    2    0    0 -0.72119242573E+02  0.17899539504E+02  0.28684299038E+02  0.18882215886E+03  0.17120000000E+03 0.  0.
        998    1    1    2    0    0  0.11654888748E+02 -0.45786302658E+01  0.13019725375E+04  0.13020711535E+04  0.10000000000E+02 0. -1.
</event>
<event>
 5    1  0.1294251E-008  0.3852040E+03  0.7957747E-01  0.3428807E+00
         13   -1    0    0    0    0  0.00000000000E+00  0.00000000000E+00  0.14999999963E+04  0.15000000000E+04  0.10566000000E+00 0.  1.
        994   -1    0    0    0    0 -0.00000000000E+00 -0.00000000000E+00  0.11368683772E-12  0.17120000000E+03  0.17120000000E+03 0.  0.
         13    1    1    2    0    0 -0.11712345258E+02 -0.19848133915E+01  0.49793597515E+02  0.51191132368E+02  0.10566000000E+00 0.  1.
        994    1    1    2    0    0 -0.55552990903E+01  0.28830306842E+01  0.16576300942E+01  0.17132238894E+03  0.17120000000E+03 0.  0.
        998    1    1    2    0    0  0.17267644348E+02 -0.89821729267E+00  0.14485487687E+04  0.14486864787E+04  0.10000000000E+02 0.  1.
</event>
<event>
 5    1  0.1294251E-008  0.3972615E+03  0.7957747E-01  0.3379278E+00
         13   -1    0    0    0    0  0.00000000000E+00  0.00000000000E+00  0.14999999963E+04  0.15000000000E+04  0.10566000000E+00 0. -1.
        994   -1    0    0    0    0 -0.00000000000E+00 -0.00000000000E+00  0.11368683772E-12  0.17120000000E+03  0.17120000000E+03 0.  0.
         13    1    1    2    0    0  0.49764254394E+01 -0.23832130685E+02 -0.63110129321E-01  0.24346466069E+02  0.10566000000E+00 0. -1.
        994    1    1    2    0    0 -0.78342990456E+01  0.25337947724E+02  0.28879892066E+02  0.17563278738E+03  0.17120000000E+03 0.  0.
        998    1    1    2    0    0  0.28578736063E+01 -0.15058170393E+01  0.14711832143E+04  0.14712207466E+04  0.10000000000E+02 0. -1.
</event>
<event>
 5    1  0.1294251E-008  0.3843106E+03  0.7957747E-01  0.3432601E+00
         13   -1    0    0    0    0  0.00000000000E+00  0.00000000000E+00  0.14999999963E+04  0.15000000000E+04  0.10566000000E+00 0.  1.
        994   -1    0    0    0    0 -0.00000000000E+00 -0.00000000000E+00  0.11368683772E-12  0.17120000000E+03  0.17120000000E+03 0.  0.
         13    1    1    2    0    0  0.96711035283E+01  0.82584607301E+01  0.40328378079E+02  0.42286187575E+02  0.10566000000E+00 0.  1.
        994    1    1    2    0    0 -0.80969940899E+01 -0.58212022468E+01  0.23006302517E+01  0.17150562850E+03  0.17120000000E+03 0.  0.
        998    1    1    2    0    0 -0.15741094383E+01 -0.24372584833E+01  0.14573709879E+04  0.14574081839E+04  0.10000000000E+02 0.  0.
</event>
<event>
 5    1  0.1294251E-008  0.3823898E+03  0.7957747E-01  0.3440818E+00
         13   -1    0    0    0    0  0.00000000000E+00  0.00000000000E+00  0.14999999963E+04  0.15000000000E+04  0.10566000000E+00 0.  1.
        994   -1    0    0    0    0 -0.00000000000E+00 -0.00000000000E+00  0.11368683772E-12  0.17120000000E+03  0.17120000000E+03 0.  0.
         13    1    1    2    0    0 -0.14265547842E+02  0.23278391005E+02  0.12762424793E+03  0.13051187367E+03  0.10566000000E+00 0.  1.
        994    1    1    2    0    0 -0.91088040870E+01 -0.23584102534E+02  0.50544901908E+01  0.17313049435E+03  0.17120000000E+03 0.  0.
        998    1    1    2    0    0  0.23374351929E+02  0.30571152918E+00  0.13673212582E+04  0.13675576320E+04  0.10000000000E+02 0.  1.
</event>
<event>
 5    1  0.1294251E-008  0.3816439E+03  0.7957747E-01  0.3444032E+00
         13   -1    0    0    0    0  0.00000000000E+00  0.00000000000E+00  0.14999999963E+04  0.15000000000E+04  0.10566000000E+00 0.  1.
        994   -1    0    0    0    0 -0.00000000000E+00 -0.00000000000E+00  0.11368683772E-12  0.17120000000E+03  0.17120000000E+03 0.  0.
         13    1    1    2    0    0  0.12928044943E+02 -0.18758879066E+02  0.80487613469E+02  0.83649847435E+02  0.10566000000E+00 0.  1.
        994    1    1    2    0    0  0.64199932577E+01  0.12702364922E+02  0.39793984452E+01  0.17183667245E+03  0.17120000000E+03 0.  0.
        998    1    1    2    0    0 -0.19348038201E+02  0.60565141444E+01  0.14155329844E+04  0.14157134801E+04  0.10000000000E+02 0.  1.
</event>
<event>
 5    1  0.1294251E-008  0.3769233E+03  0.7957747E-01  0.3464665E+00
         13   -1    0    0    0    0  0.00000000000E+00  0.00000000000E+00  0.14999999963E+04  0.15000000000E+04  0.10566000000E+00 0.  1.
        994   -1    0    0    0    0 -0.00000000000E+00 -0.00000000000E+00  0.11368683772E-12  0.17120000000E+03  0.17120000000E+03 0.  0.
         13    1    1    2    0    0 -0.45074917505E+02  0.48422017104E+02  0.30738051341E+03  0.31441887844E+03  0.10566000000E+00 0.  1.
        994    1    1    2    0    0  0.42877838318E+02 -0.49081150379E+02  0.20176492725E+02  0.18429324242E+03  0.17120000000E+03 0.  0.
        998    1    1    2    0    0  0.21970791864E+01  0.65913327492E+00  0.11724429901E+04  0.11724878791E+04  0.10000000000E+02 0.  0.
</event>
<event>
 5    1  0.1294251E-008  0.3839809E+03  0.7957747E-01  0.3434006E+00
         13   -1    0    0    0    0  0.00000000000E+00  0.00000000000E+00  0.14999999963E+04  0.15000000000E+04  0.10566000000E+00 0. -1.
        994   -1    0    0    0    0 -0.00000000000E+00 -0.00000000000E+00  0.11368683772E-12  0.17120000000E+03  0.17120000000E+03 0.  0.
         13    1    1    2    0    0  0.16206011580E+02 -0.51805859091E+01  0.75313360058E+02  0.77211311665E+02  0.10566000000E+00 0. -1.
        994    1    1    2    0    0  0.56385745185E+01 -0.64665177775E+01  0.23798850097E+01  0.17143136594E+03  0.17120000000E+03 0.  0.
        998    1    1    2    0    0 -0.21844586098E+02  0.11647103687E+02  0.14223067512E+04  0.14225573224E+04  0.10000000000E+02 0. -1.
</event>
<event>
 5    1  0.1294251E-008  0.3834633E+03  0.7957747E-01  0.3436216E+00
         13   -1    0    0    0    0  0.00000000000E+00  0.00000000000E+00  0.14999999963E+04  0.15000000000E+04  0.10566000000E+00 0.  1.
        994   -1    0    0    0    0 -0.00000000000E+00 -0.00000000000E+00  0.11368683772E-12  0.17120000000E+03  0.17120000000E+03 0.  0.
         13    1    1    2    0    0  0.91115841331E+01  0.57205395658E+01  0.23225500690E+02  0.25596495555E+02  0.10566000000E+00 0.  1.
        994    1    1    2    0    0 -0.63120186617E+01 -0.69495476924E+01  0.26863424123E+01  0.17147826168E+03  0.17120000000E+03 0.  0.
        998    1    1    2    0    0 -0.27995654713E+01  0.12290081266E+01  0.14740881532E+04  0.14741252428E+04  0.10000000000E+02 0.  1.
</event>
<event>
 5    1  0.1294251E-008  0.3801813E+03  0.7957747E-01  0.3450370E+00
         13   -1    0    0    0    0  0.00000000000E+00  0.00000000000E+00  0.14999999963E+04  0.15000000000E+04  0.10566000000E+00 0. -1.
        994   -1    0    0    0    0 -0.00000000000E+00 -0.00000000000E+00  0.11368683772E-12  0.17120000000E+03  0.17120000000E+03 0.  0.
         13    1    1    2    0    0 -0.22045204071E+02  0.97030658285E+01  0.73388552337E+02  0.77240088602E+02  0.10566000000E+00 0. -1.
        994    1    1    2    0    0  0.98201993088E+01  0.79260229557E+01  0.45739194246E+01  0.17172541714E+03  0.17120000000E+03 0.  0.
        998    1    1    2    0    0  0.12225004763E+02 -0.17629088784E+02  0.14220375245E+04  0.14222344943E+04  0.10000000000E+02 0. -1.
</event>
<event>
 5    1  0.1294251E-008  0.3899784E+03  0.7957747E-01  0.3408829E+00
         13   -1    0    0    0    0  0.00000000000E+00  0.00000000000E+00  0.14999999963E+04  0.15000000000E+04  0.10566000000E+00 0. -1.
        994   -1    0    0    0    0 -0.00000000000E+00 -0.00000000000E+00  0.11368683772E-12  0.17120000000E+03  0.17120000000E+03 0.  0.
         13    1    1    2    0    0 -0.67750600214E+02 -0.19960794393E+02  0.99470833713E+02  0.12199604529E+03  0.10566000000E+00 0. -1.
        994    1    1    2    0    0  0.68936054006E+02  0.21652159022E+02  0.41839170971E+02  0.19047559361E+03  0.17120000000E+03 0.  0.
        998    1    1    2    0    0 -0.11854537920E+01 -0.16913646289E+01  0.13586899916E+04  0.13587283611E+04  0.10000000000E+02 0. -1.
</event>
<event>
 5    1  0.1294251E-008  0.3795494E+03  0.7957747E-01  0.3453123E+00
         13   -1    0    0    0    0  0.00000000000E+00  0.00000000000E+00  0.14999999963E+04  0.15000000000E+04  0.10566000000E+00 0. -1.
        994   -1    0    0    0    0 -0.00000000000E+00 -0.00000000000E+00  0.11368683772E-12  0.17120000000E+03  0.17120000000E+03 0.  0.
         13    1    1    2    0    0 -0.95818093946E+01  0.20354213618E+02  0.53880347022E+02  0.58388423874E+02  0.10566000000E+00 0. -1.
        994    1    1    2    0    0 -0.52920534672E+01 -0.31999998141E+02  0.78908305104E+01  0.17442394021E+03  0.17120000000E+03 0.  0.
        998    1    1    2    0    0  0.14873862862E+02  0.11645784523E+02  0.14382288187E+04  0.14383876359E+04  0.10000000000E+02 0. -1.
</event>
<event>
 5    1  0.1294251E-008  0.3809022E+03  0.7957747E-01  0.3447240E+00
         13   -1    0    0    0    0  0.00000000000E+00  0.00000000000E+00  0.14999999963E+04  0.15000000000E+04  0.10566000000E+00 0. -1.
        994   -1    0    0    0    0 -0.00000000000E+00 -0.00000000000E+00  0.11368683772E-12  0.17120000000E+03  0.17120000000E+03 0.  0.
         13    1    1    2    0    0  0.16421527597E+02 -0.21018881993E+02  0.84294186554E+02  0.88413692490E+02  0.10566000000E+00 0. -1.
        994    1    1    2    0    0 -0.25147723391E+02  0.33303709447E+02  0.95048450209E+01  0.17646905432E+03  0.17120000000E+03 0.  0.
        998    1    1    2    0    0  0.87261957940E+01 -0.12284827454E+02  0.14062009647E+04  0.14063172532E+04  0.10000000000E+02 0. -1.
</event>
<event>
 5    1  0.1294251E-008  0.3711496E+03  0.7957747E-01  0.3490624E+00
         13   -1    0    0    0    0  0.00000000000E+00  0.00000000000E+00  0.14999999963E+04  0.15000000000E+04  0.10566000000E+00 0.  1.
        994   -1    0    0    0    0 -0.00000000000E+00 -0.00000000000E+00  0.11368683772E-12  0.17120000000E+03  0.17120000000E+03 0.  0.
         13    1    1    2    0    0  0.57809490700E+02 -0.12356230258E+02  0.15709000793E+03  0.16784485514E+03  0.10566000000E+00 0.  1.
        994    1    1    2    0    0 -0.18354318721E+02  0.17193550154E+02  0.13771245254E+02  0.17358452229E+03  0.17120000000E+03 0.  0.
        998    1    1    2    0    0 -0.39455171979E+02 -0.48373198961E+01  0.13291387431E+04  0.13297706226E+04  0.10000000000E+02 0.  1.
</event>
<event>
 5    1  0.1294251E-008  0.3822850E+03  0.7957747E-01  0.3441269E+00
         13   -1    0    0    0    0  0.00000000000E+00  0.00000000000E+00  0.14999999963E+04  0.15000000000E+04  0.10566000000E+00 0. -1.
        994   -1    0    0    0    0 -0.00000000000E+00 -0.00000000000E+00  0.11368683772E-12  0.17120000000E+03  0.17120000000E+03 0.  0.
         13    1    1    2    0    0  0.13149844697E+02 -0.12949784727E+02  0.55007674870E+02  0.58021296078E+02  0.10566000000E+00 0. -1.
        994    1    1    2    0    0 -0.12257504509E+02  0.10948245382E+02  0.38808226688E+01  0.17203084397E+03  0.17120000000E+03 0.  0.
        998    1    1    2    0    0 -0.89234018793E+00  0.20015393449E+01  0.14411114987E+04  0.14411478599E+04  0.10000000000E+02 0. -1.
</event>
<event>
 5    1  0.1294251E-008  0.3854222E+03  0.7957747E-01  0.3427884E+00
         13   -1    0    0    0    0  0.00000000000E+00  0.00000000000E+00  0.14999999963E+04  0.15000000000E+04  0.10566000000E+00 0.  1.
        994   -1    0    0    0    0 -0.00000000000E+00 -0.00000000000E+00  0.11368683772E-12  0.17120000000E+03  0.17120000000E+03 0.  0.
         13    1    1    2    0    0  0.84828548930E+01 -0.71560735756E+01  0.45591574684E+02  0.46923033388E+02  0.10566000000E+00 0.  1.
        994    1    1    2    0    0 -0.77638554123E+01 -0.10265324584E+02  0.19648974490E+01  0.17169436555E+03  0.17120000000E+03 0.  0.
        998    1    1    2    0    0 -0.71899948072E+00  0.17421398160E+02  0.14524435241E+04  0.14525826011E+04  0.10000000000E+02 0.  1.
</event>
<event>
 5    1  0.1294251E-008  0.3749370E+03  0.7957747E-01  0.3473505E+00
         13   -1    0    0    0    0  0.00000000000E+00  0.00000000000E+00  0.14999999963E+04  0.15000000000E+04  0.10566000000E+00 0.  1.
        994   -1    0    0    0    0 -0.00000000000E+00 -0.00000000000E+00  0.11368683772E-12  0.17120000000E+03  0.17120000000E+03 0.  0.
         13    1    1    2    0    0  0.39037391055E+02  0.30707766006E+02  0.16433532009E+03  0.17167700308E+03  0.10566000000E+00 0.  1.
        994    1    1    2    0    0 -0.43088195597E+02 -0.22695091544E+02  0.14817609617E+02  0.17860756237E+03  0.17120000000E+03 0.  0.
        998    1    1    2    0    0  0.40508045426E+01 -0.80126744621E+01  0.13208470666E+04  0.13209154345E+04  0.10000000000E+02 0.  1.
</event>
<event>
 5    1  0.1294251E-008  0.3782650E+03  0.7957747E-01  0.3458748E+00
         13   -1    0    0    0    0  0.00000000000E+00  0.00000000000E+00  0.14999999963E+04  0.15000000000E+04  0.10566000000E+00 0.  1.
        994   -1    0    0    0    0 -0.00000000000E+00 -0.00000000000E+00  0.11368683772E-12  0.17120000000E+03  0.17120000000E+03 0.  0.
         13    1    1    2    0    0  0.13259201638E+02  0.21502781361E+02  0.64646184069E+02  0.69406889521E+02  0.10566000000E+00 0.  1.
        994    1    1    2    0    0 -0.64820294546E+01 -0.13758039909E+01  0.51591824913E+01  0.17140585377E+03  0.17120000000E+03 0.  0.
        998    1    1    2    0    0 -0.67771721832E+01 -0.20126977370E+02  0.14301946297E+04  0.14303872567E+04  0.10000000000E+02 0.  1.
</event>
<event>
 5    1  0.1294251E-008  0.3822581E+03  0.7957747E-01  0.3441385E+00
         13   -1    0    0    0    0  0.00000000000E+00  0.00000000000E+00  0.14999999963E+04  0.15000000000E+04  0.10566000000E+00 0.  1.
        994   -1    0    0    0    0 -0.00000000000E+00 -0.00000000000E+00  0.11368683772E-12  0.17120000000E+03  0.17120000000E+03 0.  0.
         13    1    1    2    0    0 -0.12059873700E+02 -0.77028600000E+01  0.33296194808E+02  0.36241169387E+02  0.10566000000E+00 0.  1.
        994    1    1    2    0    0  0.38894128051E+01  0.87106048623E+01  0.32996087978E+01  0.17149731656E+03  0.17120000000E+03 0.  0.
        998    1    1    2    0    0  0.81704608946E+01 -0.10077448623E+01  0.14634041927E+04  0.14634615141E+04  0.10000000000E+02 0.  1.
</event>
<event>
 5    1  0.1294251E-008  0.4090873E+03  0.7957747E-01  0.3333526E+00
         13   -1    0    0    0    0  0.00000000000E+00  0.00000000000E+00  0.14999999963E+04  0.15000000000E+04  0.10566000000E+00 0. -1.
        994   -1    0    0    0    0 -0.00000000000E+00 -0.00000000000E+00  0.11368683772E-12  0.17120000000E+03  0.17120000000E+03 0.  0.
         13    1    1    2    0    0 -0.27338592649E+02 -0.51515808786E+02  0.36865767361E+02  0.68995457604E+02  0.10566000000E+00 0. -1.
        994    1    1    2    0    0  0.46810320771E+02  0.54579503447E+02  0.54670842357E+02  0.19356773835E+03  0.17120000000E+03 0.  0.
        998    1    1    2    0    0 -0.19471728123E+02 -0.30636946609E+01  0.14084633866E+04  0.14086368040E+04  0.10000000000E+02 0. -1.
</event>
<event>
 5    1  0.1294251E-008  0.3841673E+03  0.7957747E-01  0.3433212E+00
         13   -1    0    0    0    0  0.00000000000E+00  0.00000000000E+00  0.14999999963E+04  0.15000000000E+04  0.10566000000E+00 0.  1.
        994   -1    0    0    0    0 -0.00000000000E+00 -0.00000000000E+00  0.11368683772E-12  0.17120000000E+03  0.17120000000E+03 0.  0.
         13    1    1    2    0    0  0.13011098628E+02 -0.65585394031E+01  0.54830684307E+02  0.56733748618E+02  0.10566000000E+00 0.  1.
        994    1    1    2    0    0  0.90561250155E+01  0.13961818952E+02  0.29579049775E+01  0.17203236611E+03  0.17120000000E+03 0.  0.
        998    1    1    2    0    0 -0.22067223644E+02 -0.74032795489E+01  0.14422114070E+04  0.14424338853E+04  0.10000000000E+02 0.  1.
</event>
<event>
 5    1  0.1294251E-008  0.3836272E+03  0.7957747E-01  0.3435515E+00
         13   -1    0    0    0    0  0.00000000000E+00  0.00000000000E+00  0.14999999963E+04  0.15000000000E+04  0.10566000000E+00 0.  1.
        994   -1    0    0    0    0 -0.00000000000E+00 -0.00000000000E+00  0.11368683772E-12  0.17120000000E+03  0.17120000000E+03 0.  0.
         13    1    1    2    0    0 -0.20029505793E+02 -0.16403343714E+02  0.15646014283E+03  0.15858763586E+03  0.10566000000E+00 0.  1.
        994    1    1    2    0    0  0.58121634951E+01  0.25850793360E+01  0.24469209542E+01  0.17133561014E+03  0.17120000000E+03 0.  0.
        998    1    1    2    0    0  0.14217342298E+02  0.13818264378E+02  0.13410929325E+04  0.13412767540E+04  0.10000000000E+02 0.  1.
</event>
<event>
 5    1  0.1294251E-008  0.3847697E+03  0.7957747E-01  0.3430649E+00
         13   -1    0    0    0    0  0.00000000000E+00  0.00000000000E+00  0.14999999963E+04  0.15000000000E+04  0.10566000000E+00 0. -1.
        994   -1    0    0    0    0 -0.00000000000E+00 -0.00000000000E+00  0.11368683772E-12  0.17120000000E+03  0.17120000000E+03 0.  0.
         13    1    1    2    0    0 -0.44670987035E+01 -0.17466708731E+02  0.98560285832E+02  0.10019571843E+03  0.10566000000E+00 0. -1.
        994    1    1    2    0    0 -0.21461545869E+01  0.47314687795E+01  0.18333405111E+01  0.17128862751E+03  0.17120000000E+03 0.  0.
        998    1    1    2    0    0  0.66132532905E+01  0.12735239952E+02  0.13996063699E+04  0.13997156541E+04  0.10000000000E+02 0. -1.
</event>
<event>
 5    1  0.1294251E-008  0.3757122E+03  0.7957747E-01  0.3470044E+00
         13   -1    0    0    0    0  0.00000000000E+00  0.00000000000E+00  0.14999999963E+04  0.15000000000E+04  0.10566000000E+00 0.  1.
        994   -1    0    0    0    0 -0.00000000000E+00 -0.00000000000E+00  0.11368683772E-12  0.17120000000E+03  0.17120000000E+03 0.  0.
         13    1    1    2    0    0 -0.25507304383E+02 -0.37117133345E+02  0.14355378354E+03  0.15045266398E+03  0.10566000000E+00 0.  1.
        994    1    1    2    0    0  0.28491140504E+02  0.36274308628E+02  0.13562499399E+02  0.17782281053E+03  0.17120000000E+03 0.  0.
        998    1    1    2    0    0 -0.29838361213E+01  0.84282471702E+00  0.13428837133E+04  0.13429245255E+04  0.10000000000E+02 0.  1.
</event>
<event>
 5    1  0.1294251E-008  0.3771420E+03  0.7957747E-01  0.3463698E+00
         13   -1    0    0    0    0  0.00000000000E+00  0.00000000000E+00  0.14999999963E+04  0.15000000000E+04  0.10566000000E+00 0. -1.
        994   -1    0    0    0    0 -0.00000000000E+00 -0.00000000000E+00  0.11368683772E-12  0.17120000000E+03  0.17120000000E+03 0.  0.
         13    1    1    2    0    0 -0.15240639944E+02  0.12843606355E+02  0.33279318060E+02  0.38791229739E+02  0.10566000000E+00 0. -1.
        994    1    1    2    0    0  0.12252171675E+02 -0.70217493222E+01  0.62561203960E+01  0.17189531616E+03  0.17120000000E+03 0.  0.
        998    1    1    2    0    0  0.29884682689E+01 -0.58218570329E+01  0.14604645578E+04  0.14605134541E+04  0.10000000000E+02 0. -1.
</event>
<event>
 5    1  0.1294251E-008  0.3802135E+03  0.7957747E-01  0.3450229E+00
         13   -1    0    0    0    0  0.00000000000E+00  0.00000000000E+00  0.14999999963E+04  0.15000000000E+04  0.10566000000E+00 0. -1.
        994   -1    0    0    0    0 -0.00000000000E+00 -0.00000000000E+00  0.11368683772E-12  0.17120000000E+03  0.17120000000E+03 0.  0.
         13    1    1    2    0    0  0.23487646008E+02 -0.11735367025E+02  0.79875455564E+02  0.84080246906E+02  0.10566000000E+00 0. -1.
        994    1    1    2    0    0 -0.24236482010E+02  0.13442511564E+02  0.65955577864E+01  0.17355416895E+03  0.17120000000E+03 0.  0.
        998    1    1    2    0    0  0.74883600140E+00 -0.17071445393E+01  0.14135289829E+04  0.14135655841E+04  0.10000000000E+02 0.  0.
</event>
<event>
 5    1  0.1294251E-008  0.2436856E+03  0.7957747E-01  0.4403534E+00
         13   -1    0    0    0    0  0.00000000000E+00  0.00000000000E+00  0.14999999963E+04  0.15000000000E+04  0.10566000000E+00 0.  1.
        994   -1    0    0    0    0 -0.00000000000E+00 -0.00000000000E+00  0.11368683772E-12  0.17120000000E+03  0.17120000000E+03 0.  0.
         13    1    1    2    0    0  0.16244103361E+03  0.66430493518E+02  0.38441566809E+03  0.42258196471E+03  0.10566000000E+00 0.  1.
        994    1    1    2    0    0 -0.96908236102E+02  0.12234851507E+02  0.87931950264E+02  0.21582948291E+03  0.17120000000E+03 0.  0.
        998    1    1    2    0    0 -0.65532797505E+02 -0.78665345024E+02  0.10276523779E+04  0.10327885524E+04  0.10000000000E+02 0.  1.
</event>
<event>
 5    1  0.1294251E-008  0.4189220E+03  0.7957747E-01  0.3297424E+00
         13   -1    0    0    0    0  0.00000000000E+00  0.00000000000E+00  0.14999999963E+04  0.15000000000E+04  0.10566000000E+00 0. -1.
        994   -1    0    0    0    0 -0.00000000000E+00 -0.00000000000E+00  0.11368683772E-12  0.17120000000E+03  0.17120000000E+03 0.  0.
         13    1    1    2    0    0 -0.24323995946E+02  0.93684578854E+02  0.19911956063E+03  0.22139798483E+03  0.10566000000E+00 0. -1.
        994    1    1    2    0    0  0.59356101150E+02  0.13788922570E+03  0.14400182790E+03  0.26941149149E+03  0.17120000000E+03 0.  0.
        998    1    1    2    0    0 -0.35032105204E+02 -0.23157380455E+03  0.11568786077E+04  0.11803905237E+04  0.10000000000E+02 0. -1.
</event>
<event>
 5    1  0.1294251E-008  0.3822239E+03  0.7957747E-01  0.3441532E+00
         13   -1    0    0    0    0  0.00000000000E+00  0.00000000000E+00  0.14999999963E+04  0.15000000000E+04  0.10566000000E+00 0.  1.
        994   -1    0    0    0    0 -0.00000000000E+00 -0.00000000000E+00  0.11368683772E-12  0.17120000000E+03  0.17120000000E+03 0.  0.
         13    1    1    2    0    0  0.10829147974E+02 -0.66639630377E+01  0.26424102084E+02  0.29324446870E+02  0.10566000000E+00 0.  1.
        994    1    1    2    0    0 -0.33025829618E+01 -0.51166495926E+01  0.31378106617E+01  0.17133701589E+03  0.17120000000E+03 0.  0.
        998    1    1    2    0    0 -0.75265650124E+01  0.11780612630E+02  0.14704380835E+04  0.14705385372E+04  0.10000000000E+02 0.  1.
</event>
<event>
 5    1  0.1294251E-008  0.3755373E+03  0.7957747E-01  0.3470823E+00
         13   -1    0    0    0    0  0.00000000000E+00  0.00000000000E+00  0.14999999963E+04  0.15000000000E+04  0.10566000000E+00 0. -1.
        994   -1    0    0    0    0 -0.00000000000E+00 -0.00000000000E+00  0.11368683772E-12  0.17120000000E+03  0.17120000000E+03 0.  0.
         13    1    1    2    0    0 -0.17497601407E+02 -0.17281466385E+01  0.21285591029E+02  0.27608696009E+02  0.10566000000E+00 0. -1.
        994    1    1    2    0    0  0.15731993970E+02 -0.93906298914E+01  0.75428863556E+01  0.17234272453E+03  0.17120000000E+03 0.  0.
        998    1    1    2    0    0  0.17656074365E+01  0.11118776530E+02  0.14711715189E+04  0.14712485795E+04  0.10000000000E+02 0. -1.
</event>
<event>
 5    1  0.1294251E-008  0.3711601E+03  0.7957747E-01  0.3490576E+00
         13   -1    0    0    0    0  0.00000000000E+00  0.00000000000E+00  0.14999999963E+04  0.15000000000E+04  0.10566000000E+00 0. -1.
        994   -1    0    0    0    0 -0.00000000000E+00 -0.00000000000E+00  0.11368683772E-12  0.17120000000E+03  0.17120000000E+03 0.  0.
         13    1    1    2    0    0 -0.37429700244E+02 -0.36375768189E+02  0.15750347473E+03  0.16592629293E+03  0.10566000000E+00 0. -1.
        994    1    1    2    0    0  0.11264876386E+02  0.27120717907E+02  0.11639806656E+02  0.17409007978E+03  0.17120000000E+03 0.  0.
        998    1    1    2    0    0  0.26164823858E+02  0.92550502827E+01  0.13308567149E+04  0.13311836273E+04  0.10000000000E+02 0. -1.
</event>
<event>
 5    1  0.1294251E-008  0.3849608E+03  0.7957747E-01  0.3429838E+00
         13   -1    0    0    0    0  0.00000000000E+00  0.00000000000E+00  0.14999999963E+04  0.15000000000E+04  0.10566000000E+00 0. -1.
        994   -1    0    0    0    0 -0.00000000000E+00 -0.00000000000E+00  0.11368683772E-12  0.17120000000E+03  0.17120000000E+03 0.  0.
         13    1    1    2    0    0  0.47539524989E+01 -0.52060998650E+02  0.63368610862E+02  0.82149495746E+02  0.10566000000E+00 0. -1.
        994    1    1    2    0    0 -0.41307073084E+01  0.45972824542E+02  0.26984496876E+02  0.17935486169E+03  0.17120000000E+03 0.  0.
        998    1    1    2    0    0 -0.62324519056E+00  0.60881741074E+01  0.14096468885E+04  0.14096956426E+04  0.10000000000E+02 0. -1.
</event>
<event>
 5    1  0.1294251E-008  0.3725777E+03  0.7957747E-01  0.3484128E+00
         13   -1    0    0    0    0  0.00000000000E+00  0.00000000000E+00  0.14999999963E+04  0.15000000000E+04  0.10566000000E+00 0. -1.
        994   -1    0    0    0    0 -0.00000000000E+00 -0.00000000000E+00  0.11368683772E-12  0.17120000000E+03  0.17120000000E+03 0.  0.
         13    1    1    2    0    0  0.47866156371E+02  0.64942577250E+02  0.32990385958E+03  0.33962519782E+03  0.10566000000E+00 0. -1.
        994    1    1    2    0    0 -0.75457430171E+02 -0.40480178884E+02  0.33491910421E+02  0.19432863071E+03  0.17120000000E+03 0.  0.
        998    1    1    2    0    0  0.27591273800E+02 -0.24462398366E+02  0.11366042263E+04  0.11372461715E+04  0.10000000000E+02 0. -1.
</event>
<event>
 5    1  0.1294251E-008  0.3835615E+03  0.7957747E-01  0.3435796E+00
         13   -1    0    0    0    0  0.00000000000E+00  0.00000000000E+00  0.14999999963E+04  0.15000000000E+04  0.10566000000E+00 0.  1.
        994   -1    0    0    0    0 -0.00000000000E+00 -0.00000000000E+00  0.11368683772E-12  0.17120000000E+03  0.17120000000E+03 0.  0.
         13    1    1    2    0    0 -0.10224506055E+02 -0.15265712280E+02  0.69008667439E+02  0.71412812864E+02  0.10566000000E+00 0.  1.
        994    1    1    2    0    0  0.56503071970E+01  0.17863681243E+02  0.35067318490E+01  0.17225787137E+03  0.17120000000E+03 0.  0.
        998    1    1    2    0    0  0.45741988579E+01 -0.25979689628E+01  0.14274845970E+04  0.14275293158E+04  0.10000000000E+02 0.  1.
</event>
<event>
 5    1  0.1294251E-008  0.3754377E+03  0.7957747E-01  0.3471268E+00
         13   -1    0    0    0    0  0.00000000000E+00  0.00000000000E+00  0.14999999963E+04  0.15000000000E+04  0.10566000000E+00 0. -1.
        994   -1    0    0    0    0 -0.00000000000E+00 -0.00000000000E+00  0.11368683772E-12  0.17120000000E+03  0.17120000000E+03 0.  0.
         13    1    1    2    0    0 -0.16150345140E+02 -0.57076636161E+01  0.18114842580E+02  0.24931300765E+02  0.10566000000E+00 0. -1.
        994    1    1    2    0    0  0.52556445101E+02  0.37402480786E+01  0.15935904141E+02  0.17983203946E+03  0.17120000000E+03 0.  0.
        998    1    1    2    0    0 -0.36406099960E+02  0.19674155375E+01  0.14659492496E+04  0.14664366598E+04  0.10000000000E+02 0. -1.
</event>
<event>
 5    1  0.1294251E-008  0.3745901E+03  0.7957747E-01  0.3475058E+00
         13   -1    0    0    0    0  0.00000000000E+00  0.00000000000E+00  0.14999999963E+04  0.15000000000E+04  0.10566000000E+00 0. -1.
        994   -1    0    0    0    0 -0.00000000000E+00 -0.00000000000E+00  0.11368683772E-12  0.17120000000E+03  0.17120000000E+03 0.  0.
         13    1    1    2    0    0  0.66503080799E+01  0.22913157208E+02  0.36934388993E+02  0.43970440356E+02  0.10566000000E+00 0. -1.
        994    1    1    2    0    0 -0.11741972651E+01 -0.32001189547E+02  0.10387874187E+02  0.17447866002E+03  0.17120000000E+03 0.  0.
        998    1    1    2    0    0 -0.54761108148E+01  0.90880323394E+01  0.14526777331E+04  0.14527508996E+04  0.10000000000E+02 0. -1.
</event>
<event>
 5    1  0.1294251E-008  0.3840666E+03  0.7957747E-01  0.3433641E+00
         13   -1    0    0    0    0  0.00000000000E+00  0.00000000000E+00  0.14999999963E+04  0.15000000000E+04  0.10566000000E+00 0.  1.
        994   -1    0    0    0    0 -0.00000000000E+00 -0.00000000000E+00  0.11368683772E-12  0.17120000000E+03  0.17120000000E+03 0.  0.
         13    1    1    2    0    0 -0.14769525502E+01  0.19535770923E+02  0.86947582323E+02  0.89127554495E+02  0.10566000000E+00 0.  1.
        994    1    1    2    0    0 -0.19260127622E+02 -0.21955112275E+02  0.49130255669E+01  0.17374279062E+03  0.17120000000E+03 0.  0.
        998    1    1    2    0    0  0.20737080172E+02  0.24193413525E+01  0.14081393884E+04  0.14083296549E+04  0.10000000000E+02 0.  1.
</event>
<event>
 5    1  0.1294251E-008  0.3804848E+03  0.7957747E-01  0.3449050E+00
         13   -1    0    0    0    0  0.00000000000E+00  0.00000000000E+00  0.14999999963E+04  0.15000000000E+04  0.10566000000E+00 0.  1.
        994   -1    0    0    0    0 -0.00000000000E+00 -0.00000000000E+00  0.11368683772E-12  0.17120000000E+03  0.17120000000E+03 0.  0.
         13    1    1    2    0    0 -0.15264943200E+02 -0.28550247582E+02  0.12159830899E+03  0.12583439530E+03  0.10566000000E+00 0.  1.
        994    1    1    2    0    0  0.18370490862E+02  0.30417587623E+02  0.81144702020E+01  0.17503710806E+03  0.17120000000E+03 0.  0.
        998    1    1    2    0    0 -0.31055476621E+01 -0.18673400408E+01  0.13702872171E+04  0.13703284966E+04  0.10000000000E+02 0.  1.
</event>
<event>
 5    1  0.1294251E-008  0.3972636E+03  0.7957747E-01  0.3379270E+00
         13   -1    0    0    0    0  0.00000000000E+00  0.00000000000E+00  0.14999999963E+04  0.15000000000E+04  0.10566000000E+00 0.  1.
        994   -1    0    0    0    0 -0.00000000000E+00 -0.00000000000E+00  0.11368683772E-12  0.17120000000E+03  0.17120000000E+03 0.  0.
         13    1    1    2    0    0 -0.39428927472E+02 -0.31443533161E+02  0.37572125243E+02  0.62888885016E+02  0.10566000000E+00 0.  1.
        994    1    1    2    0    0  0.32687784489E+02  0.45992336301E+02  0.38584120832E+02  0.18434196656E+03  0.17120000000E+03 0.  0.
        998    1    1    2    0    0  0.67411429828E+01 -0.14548803140E+02  0.14238437502E+04  0.14239691484E+04  0.10000000000E+02 0.  1.
</event>
<event>
 5    1  0.1294251E-008  0.3700465E+03  0.7957747E-01  0.3495677E+00
         13   -1    0    0    0    0  0.00000000000E+00  0.00000000000E+00  0.14999999963E+04  0.15000000000E+04  0.10566000000E+00 0. -1.
        994   -1    0    0    0    0 -0.00000000000E+00 -0.00000000000E+00  0.11368683772E-12  0.17120000000E+03  0.17120000000E+03 0.  0.
         13    1    1    2    0    0 -0.11724152250E+02 -0.65942738401E+01  0.55112111720E+01  0.14537015034E+02  0.10566000000E+00 0. -1.
        994    1    1    2    0    0  0.90185113491E+01  0.11296585380E+02  0.99674357247E+01  0.17209804230E+03  0.17120000000E+03 0.  0.
        998    1    1    2    0    0  0.27056409013E+01 -0.47023115398E+01  0.14845213494E+04  0.14845649427E+04  0.10000000000E+02 0. -1.
</event>
<event>
 5    1  0.1294251E-008  0.4276451E+03  0.7957747E-01  0.3266768E+00
         13   -1    0    0    0    0  0.00000000000E+00  0.00000000000E+00  0.14999999963E+04  0.15000000000E+04  0.10566000000E+00 0. -1.
        994   -1    0    0    0    0 -0.00000000000E+00 -0.00000000000E+00  0.11368683772E-12  0.17120000000E+03  0.17120000000E+03 0.  0.
         13    1    1    2    0    0  0.45849325425E+02  0.85215551541E+02  0.86876051274E+02  0.13004349394E+03  0.10566000000E+00 0. -1.
        994    1    1    2    0    0 -0.59568737938E+02 -0.68435991089E+02  0.82945075460E+02  0.21076348108E+03  0.17120000000E+03 0.  0.
        998    1    1    2    0    0  0.13719412514E+02 -0.16779560452E+02  0.13301788695E+04  0.13303930250E+04  0.10000000000E+02 0. -1.
</event>
<event>
 5    1  0.1294251E-008  0.3847032E+03  0.7957747E-01  0.3430932E+00
         13   -1    0    0    0    0  0.00000000000E+00  0.00000000000E+00  0.14999999963E+04  0.15000000000E+04  0.10566000000E+00 0.  1.
        994   -1    0    0    0    0 -0.00000000000E+00 -0.00000000000E+00  0.11368683772E-12  0.17120000000E+03  0.17120000000E+03 0.  0.
         13    1    1    2    0    0  0.53496836742E+01 -0.86414543074E+01  0.28091165634E+02  0.29873376084E+02  0.10566000000E+00 0.  1.
        994    1    1    2    0    0 -0.69289570877E+01  0.99064353358E+01  0.22587874239E+01  0.17164116647E+03  0.17120000000E+03 0.  0.
        998    1    1    2    0    0  0.15792734135E+01 -0.12649810283E+01  0.14696500432E+04  0.14696854574E+04  0.10000000000E+02 0.  1.
</event>
<event>
 5    1  0.1294251E-008  0.3845132E+03  0.7957747E-01  0.3431740E+00
         13   -1    0    0    0    0  0.00000000000E+00  0.00000000000E+00  0.14999999963E+04  0.15000000000E+04  0.10566000000E+00 0. -1.
        994   -1    0    0    0    0 -0.00000000000E+00 -0.00000000000E+00  0.11368683772E-12  0.17120000000E+03  0.17120000000E+03 0.  0.
         13    1    1    2    0    0  0.21030321238E+02 -0.40423465870E+01  0.12137338772E+03  0.12324822672E+03  0.10566000000E+00 0. -1.
        994    1    1    2    0    0 -0.13623746541E+02  0.44574396399E+01  0.25491299924E+01  0.17181796560E+03  0.17120000000E+03 0.  0.
        998    1    1    2    0    0 -0.74065746966E+01 -0.41509305287E+00  0.13760774786E+04  0.13761338077E+04  0.10000000000E+02 0. -1.
</event>
<event>
 5    1  0.1294251E-008  0.3742418E+03  0.7957747E-01  0.3476621E+00
         13   -1    0    0    0    0  0.00000000000E+00  0.00000000000E+00  0.14999999963E+04  0.15000000000E+04  0.10566000000E+00 0.  1.
        994   -1    0    0    0    0 -0.00000000000E+00 -0.00000000000E+00  0.11368683772E-12  0.17120000000E+03  0.17120000000E+03 0.  0.
         13    1    1    2    0    0  0.38949150242E+02  0.41310013795E+02  0.10582949162E+03  0.12009765195E+03  0.10566000000E+00 0.  1.
        994    1    1    2    0    0  0.67547908225E+01 -0.97616269750E+02  0.48007239564E+02  0.20294998982E+03  0.17120000000E+03 0.  0.
        998    1    1    2    0    0 -0.45703941064E+02  0.56306255955E+02  0.13461632651E+04  0.13481523582E+04  0.10000000000E+02 0.  1.
</event>
<event>
 5    1  0.1294251E-008  0.3844720E+03  0.7957747E-01  0.3431915E+00
         13   -1    0    0    0    0  0.00000000000E+00  0.00000000000E+00  0.14999999963E+04  0.15000000000E+04  0.10566000000E+00 0. -1.
        994   -1    0    0    0    0 -0.00000000000E+00 -0.00000000000E+00  0.11368683772E-12  0.17120000000E+03  0.17120000000E+03 0.  0.
         13    1    1    2    0    0 -0.73671485303E+01 -0.69096085939E+01  0.26472868041E+02  0.28334457375E+02  0.10566000000E+00 0. -1.
        994    1    1    2    0    0  0.43591248681E+01  0.56363561752E+01  0.20597842868E+01  0.17136059405E+03  0.17120000000E+03 0.  0.
        998    1    1    2    0    0  0.30080236622E+01  0.12732524188E+01  0.14714673440E+04  0.14715049486E+04  0.10000000000E+02 0. -1.
</event>
<event>
 5    1  0.1573886E-008  0.3862108E+03  0.7957747E-01  0.3424553E+00
         13   -1    0    0    0    0  0.00000000000E+00  0.00000000000E+00  0.14999999963E+04  0.15000000000E+04  0.10566000000E+00 0.  1.
        994   -1    0    0    0    0 -0.00000000000E+00 -0.00000000000E+00  0.11368683772E-12  0.17120000000E+03  0.17120000000E+03 0.  0.
         13    1    1    2    0    0  0.90561062694E+01 -0.42425336940E+01  0.47647113880E+02  0.48685426752E+02  0.10566000000E+00 0.  1.
        994    1    1    2    0    0 -0.11717406345E+02  0.28472476174E+01  0.15066331421E+01  0.17163075008E+03  0.17120000000E+03 0.  0.
        998    1    1    2    0    0  0.26613000754E+01  0.13952860766E+01  0.14508462493E+04  0.14508838232E+04  0.10000000000E+02 0.  1.
</event>
<event>
 5    1  0.1294251E-008  0.3788498E+03  0.7957747E-01  0.3456182E+00
         13   -1    0    0    0    0  0.00000000000E+00  0.00000000000E+00  0.14999999963E+04  0.15000000000E+04  0.10566000000E+00 0.  1.
        994   -1    0    0    0    0 -0.00000000000E+00 -0.00000000000E+00  0.11368683772E-12  0.17120000000E+03  0.17120000000E+03 0.  0.
         13    1    1    2    0    0 -0.23372613649E+02  0.10804361326E+02  0.68960292929E+02  0.73610776775E+02  0.10566000000E+00 0.  1.
        994    1    1    2    0    0  0.76817023393E+01 -0.19143142958E+02  0.61439041623E+01  0.17254754716E+03  0.17120000000E+03 0.  0.
        998    1    1    2    0    0  0.15690911310E+02  0.83387816317E+01  0.14248957992E+04  0.14250416761E+04  0.10000000000E+02 0.  1.
</event>
<event>
 5    1  0.1294251E-008  0.3780550E+03  0.7957747E-01  0.3459671E+00
         13   -1    0    0    0    0  0.00000000000E+00  0.00000000000E+00  0.14999999963E+04  0.15000000000E+04  0.10566000000E+00 0.  1.
        994   -1    0    0    0    0 -0.00000000000E+00 -0.00000000000E+00  0.11368683772E-12  0.17120000000E+03  0.17120000000E+03 0.  0.
         13    1    1    2    0    0  0.96195092013E+01 -0.23526153302E+02  0.61555646776E+02  0.66596724098E+02  0.10566000000E+00 0.  1.
        994    1    1    2    0    0 -0.11598530399E+02  0.11140218366E+02  0.59888366313E+01  0.17205794529E+03  0.17120000000E+03 0.  0.
        998    1    1    2    0    0  0.19790211973E+01  0.12385934936E+02  0.14324555129E+04  0.14325453306E+04  0.10000000000E+02 0.  1.
</event>
<event>
 5    1  0.1294251E-008  0.3781677E+03  0.7957747E-01  0.3459176E+00
         13   -1    0    0    0    0  0.00000000000E+00  0.00000000000E+00  0.14999999963E+04  0.15000000000E+04  0.10566000000E+00 0. -1.
        994   -1    0    0    0    0 -0.00000000000E+00 -0.00000000000E+00  0.11368683772E-12  0.17120000000E+03  0.17120000000E+03 0.  0.
         13    1    1    2    0    0 -0.12358747107E+02 -0.22270684876E+02  0.63963950980E+02  0.68848531022E+02  0.10566000000E+00 0. -1.
        994    1    1    2    0    0 -0.59442169443E+01  0.13654260597E+02  0.58071647538E+01  0.17194457162E+03  0.17120000000E+03 0.  0.
        998    1    1    2    0    0  0.18302964052E+02  0.86164242793E+01  0.14302288805E+04  0.14304068974E+04  0.10000000000E+02 0. -1.
</event>
<event>
 5    1  0.1294251E-008  0.3848414E+03  0.7957747E-01  0.3430345E+00
         13   -1    0    0    0    0  0.00000000000E+00  0.00000000000E+00  0.14999999963E+04  0.15000000000E+04  0.10566000000E+00 0. -1.
        994   -1    0    0    0    0 -0.00000000000E+00 -0.00000000000E+00  0.11368683772E-12  0.17120000000E+03  0.17120000000E+03 0.  0.
         13    1    1    2    0    0  0.12669274527E+02  0.63243270797E+01  0.57191190129E+02  0.58918172260E+02  0.10566000000E+00 0. -1.
        994    1    1    2    0    0 -0.10752093077E+02 -0.87079924550E+01  0.23390554554E+01  0.17177411859E+03  0.17120000000E+03 0.  0.
        998    1    1    2    0    0 -0.19171814506E+01  0.23836653752E+01  0.14404697507E+04  0.14405077091E+04  0.10000000000E+02 0. -1.
</event>
<event>
 5    1  0.1294251E-008  0.3836476E+03  0.7957747E-01  0.3435428E+00
         13   -1    0    0    0    0  0.00000000000E+00  0.00000000000E+00  0.14999999963E+04  0.15000000000E+04  0.10566000000E+00 0. -1.
        994   -1    0    0    0    0 -0.00000000000E+00 -0.00000000000E+00  0.11368683772E-12  0.17120000000E+03  0.17120000000E+03 0.  0.
         13    1    1    2    0    0  0.38170000495E+01 -0.15244492927E+02  0.52426527420E+02  0.54731307269E+02  0.10566000000E+00 0. -1.
        994    1    1    2    0    0 -0.36137964990E+01  0.12222625732E+02  0.28398411694E+01  0.17169728246E+03  0.17120000000E+03 0.  0.
        998    1    1    2    0    0 -0.20320355052E+00  0.30218671941E+01  0.14447336277E+04  0.14447714103E+04  0.10000000000E+02 0. -1.
</event>
<event>
 5    1  0.1294251E-008  0.3843175E+03  0.7957747E-01  0.3432572E+00
         13   -1    0    0    0    0  0.00000000000E+00  0.00000000000E+00  0.14999999963E+04  0.15000000000E+04  0.10566000000E+00 0.  1.
        994   -1    0    0    0    0 -0.00000000000E+00 -0.00000000000E+00  0.11368683772E-12  0.17120000000E+03  0.17120000000E+03 0.  0.
         13    1    1    2    0    0  0.18173123557E+02 -0.48925530180E+01  0.93636356345E+02  0.95509046107E+02  0.10566000000E+00 0.  1.
        994    1    1    2    0    0 -0.47975656014E+01  0.43241966072E+01  0.21068475983E+01  0.17133474288E+03  0.17120000000E+03 0.  0.
        998    1    1    2    0    0 -0.13375557955E+02  0.56835641084E+00  0.14042567923E+04  0.14043562110E+04  0.10000000000E+02 0.  1.
</event>
<event>
 5    1  0.1294251E-008  0.3723586E+03  0.7957747E-01  0.3485121E+00
         13   -1    0    0    0    0  0.00000000000E+00  0.00000000000E+00  0.14999999963E+04  0.15000000000E+04  0.10566000000E+00 0.  1.
        994   -1    0    0    0    0 -0.00000000000E+00 -0.00000000000E+00  0.11368683772E-12  0.17120000000E+03  0.17120000000E+03 0.  0.
         13    1    1    2    0    0 -0.70178417321E+02  0.59150500130E+02  0.43925755417E+03  0.44874380439E+03  0.10566000000E+00 0.  1.
        994    1    1    2    0    0  0.98417889552E+02 -0.53631288871E+01  0.42134260679E+02  0.20198905925E+03  0.17120000000E+03 0.  0.
        998    1    1    2    0    0 -0.28239472231E+02 -0.53787371243E+02  0.10186081814E+04  0.10204671364E+04  0.10000000000E+02 0. -1.
</event>
<event>
 5    1  0.1294251E-008  0.3719791E+03  0.7957747E-01  0.3486845E+00
         13   -1    0    0    0    0  0.00000000000E+00  0.00000000000E+00  0.14999999963E+04  0.15000000000E+04  0.10566000000E+00 0. -1.
        994   -1    0    0    0    0 -0.00000000000E+00 -0.00000000000E+00  0.11368683772E-12  0.17120000000E+03  0.17120000000E+03 0.  0.
         13    1    1    2    0    0  0.19142320193E+01  0.24837977808E+02  0.33952339028E+02  0.42111303890E+02  0.10566000000E+00 0. -1.
        994    1    1    2    0    0  0.17297946926E+01 -0.21365188420E+02  0.98177710315E+01  0.17281577501E+03  0.17120000000E+03 0.  0.
        998    1    1    2    0    0 -0.36440267119E+01 -0.34727893880E+01  0.14562298862E+04  0.14562729211E+04  0.10000000000E+02 0. -1.
</event>
<event>
 5    1  0.1294251E-008  0.3769182E+03  0.7957747E-01  0.3464688E+00
         13   -1    0    0    0    0  0.00000000000E+00  0.00000000000E+00  0.14999999963E+04  0.15000000000E+04  0.10566000000E+00 0. -1.
        994   -1    0    0    0    0 -0.00000000000E+00 -0.00000000000E+00  0.11368683772E-12  0.17120000000E+03  0.17120000000E+03 0.  0.
         13    1    1    2    0    0  0.39628893820E+02  0.56649630098E+02  0.32378519385E+03  0.33108381527E+03  0.10566000000E+00 0. -1.
        994    1    1    2    0    0 -0.27130059652E+02 -0.67647829151E+02  0.23854189544E+02  0.18759192756E+03  0.17120000000E+03 0.  0.
        998    1    1    2    0    0 -0.12498834167E+02  0.10998199053E+02  0.11523606129E+04  0.11525242572E+04  0.10000000000E+02 0. -1.
</event>
<event>
 5    1  0.1294251E-008  0.3776399E+03  0.7957747E-01  0.3461500E+00
         13   -1    0    0    0    0  0.00000000000E+00  0.00000000000E+00  0.14999999963E+04  0.15000000000E+04  0.10566000000E+00 0.  1.
        994   -1    0    0    0    0 -0.00000000000E+00 -0.00000000000E+00  0.11368683772E-12  0.17120000000E+03  0.17120000000E+03 0.  0.
         13    1    1    2    0    0  0.93254804902E+01 -0.72372455316E+01  0.10836773712E+02  0.16024641580E+02  0.10566000000E+00 0.  1.
        994    1    1    2    0    0 -0.14369818887E+02 -0.14671043009E+02  0.67514709583E+01  0.17255942037E+03  0.17120000000E+03 0.  0.
        998    1    1    2    0    0  0.50443383972E+01  0.21908288540E+02  0.14824117516E+04  0.14826159381E+04  0.10000000000E+02 0.  1.
</event>
<event>
 5    1  0.1294251E-008  0.3806367E+03  0.7957747E-01  0.3448391E+00
         13   -1    0    0    0    0  0.00000000000E+00  0.00000000000E+00  0.14999999963E+04  0.15000000000E+04  0.10566000000E+00 0. -1.
        994   -1    0    0    0    0 -0.00000000000E+00 -0.00000000000E+00  0.11368683772E-12  0.17120000000E+03  0.17120000000E+03 0.  0.
         13    1    1    2    0    0 -0.56837667867E+01 -0.35163884540E+02  0.18148936323E+03  0.18495189675E+03  0.10566000000E+00 0. -1.
        994    1    1    2    0    0 -0.38792868240E+01  0.87405358066E+01  0.41171988577E+01  0.17151628832E+03  0.17120000000E+03 0.  0.
        998    1    1    2    0    0  0.95630536107E+01  0.26423348734E+02  0.13143934342E+04  0.13147318149E+04  0.10000000000E+02 0. -1.
</event>
<event>
 5    1  0.1294251E-008  0.3844206E+03  0.7957747E-01  0.3432133E+00
         13   -1    0    0    0    0  0.00000000000E+00  0.00000000000E+00  0.14999999963E+04  0.15000000000E+04  0.10566000000E+00 0. -1.
        994   -1    0    0    0    0 -0.00000000000E+00 -0.00000000000E+00  0.11368683772E-12  0.17120000000E+03  0.17120000000E+03 0.  0.
         13    1    1    2    0    0  0.12373293886E+02 -0.13054480902E+02  0.89253844547E+02  0.91048216916E+02  0.10566000000E+00 0. -1.
        994    1    1    2    0    0 -0.48805233824E+01 -0.55013511183E+00  0.19975577554E+01  0.17128208428E+03  0.17120000000E+03 0.  0.
        998    1    1    2    0    0 -0.74927705031E+01  0.13604616014E+02  0.14087485940E+04  0.14088696988E+04  0.10000000000E+02 0. -1.
</event>
<event>
 5    1  0.1294251E-008  0.3729449E+03  0.7957747E-01  0.3482465E+00
         13   -1    0    0    0    0  0.00000000000E+00  0.00000000000E+00  0.14999999963E+04  0.15000000000E+04  0.10566000000E+00 0.  1.
        994   -1    0    0    0    0 -0.00000000000E+00 -0.00000000000E+00  0.11368683772E-12  0.17120000000E+03  0.17120000000E+03 0.  0.
         13    1    1    2    0    0  0.52028724085E+02  0.42621016618E+02  0.15927785092E+03  0.17289587660E+03  0.10566000000E+00 0.  1.
        994    1    1    2    0    0 -0.48286091081E+02 -0.45693667060E+02  0.28284637253E+02  0.18581958590E+03  0.17120000000E+03 0.  0.
        998    1    1    2    0    0 -0.37426330037E+01  0.30726504413E+01  0.13124375081E+04  0.13124845375E+04  0.10000000000E+02 0.  0.
</event>
<event>
 5    1  0.1294251E-008  0.3765908E+03  0.7957747E-01  0.3466139E+00
         13   -1    0    0    0    0  0.00000000000E+00  0.00000000000E+00  0.14999999963E+04  0.15000000000E+04  0.10566000000E+00 0.  1.
        994   -1    0    0    0    0 -0.00000000000E+00 -0.00000000000E+00  0.11368683772E-12  0.17120000000E+03  0.17120000000E+03 0.  0.
         13    1    1    2    0    0  0.24595143400E+02 -0.12436909366E+02  0.60658673277E+02  0.66626448211E+02  0.10566000000E+00 0.  1.
        994    1    1    2    0    0 -0.21911099843E+02  0.14910944849E+02  0.82426970470E+01  0.17343533270E+03  0.17120000000E+03 0.  0.
        998    1    1    2    0    0 -0.26840435567E+01 -0.24740354830E+01  0.14310986260E+04  0.14311382191E+04  0.10000000000E+02 0.  1.
</event>
<event>
 5    1  0.1294251E-008  0.3848435E+03  0.7957747E-01  0.3430336E+00
         13   -1    0    0    0    0  0.00000000000E+00  0.00000000000E+00  0.14999999963E+04  0.15000000000E+04  0.10566000000E+00 0. -1.
        994   -1    0    0    0    0 -0.00000000000E+00 -0.00000000000E+00  0.11368683772E-12  0.17120000000E+03  0.17120000000E+03 0.  0.
         13    1    1    2    0    0 -0.12021900090E+02  0.11395548627E+02  0.92719024657E+02  0.94187118587E+02  0.10566000000E+00 0. -1.
        994    1    1    2    0    0  0.99084843035E+01  0.21249942031E+02  0.35187425871E+01  0.17283390769E+03  0.17120000000E+03 0.  0.
        998    1    1    2    0    0  0.21134157863E+01 -0.32645490658E+02  0.14037622290E+04  0.14041789737E+04  0.10000000000E+02 0. -1.
</event>
<event>
 5    1  0.1294251E-008  0.3743797E+03  0.7957747E-01  0.3476002E+00
         13   -1    0    0    0    0  0.00000000000E+00  0.00000000000E+00  0.14999999963E+04  0.15000000000E+04  0.10566000000E+00 0. -1.
        994   -1    0    0    0    0 -0.00000000000E+00 -0.00000000000E+00  0.11368683772E-12  0.17120000000E+03  0.17120000000E+03 0.  0.
         13    1    1    2    0    0 -0.91644830092E+02 -0.98210136283E+01  0.41861172964E+03  0.42863856400E+03  0.10566000000E+00 0. -1.
        994    1    1    2    0    0  0.93861690243E+02  0.17792648072E+02  0.38751919377E+02  0.19984430559E+03  0.17120000000E+03 0.  0.
        998    1    1    2    0    0 -0.22168601511E+01 -0.79716344442E+01  0.10426363473E+04  0.10427171304E+04  0.10000000000E+02 0.  0.
</event>
<event>
 5    1  0.1294251E-008  0.3749830E+03  0.7957747E-01  0.3473299E+00
         13   -1    0    0    0    0  0.00000000000E+00  0.00000000000E+00  0.14999999963E+04  0.15000000000E+04  0.10566000000E+00 0.  1.
        994   -1    0    0    0    0 -0.00000000000E+00 -0.00000000000E+00  0.11368683772E-12  0.17120000000E+03  0.17120000000E+03 0.  0.
         13    1    1    2    0    0 -0.10481694940E+03  0.24299151176E+03  0.86862199622E+03  0.90803945462E+03  0.10566000000E+00 0.  1.
        994    1    1    2    0    0  0.10210587860E+03 -0.25411104392E+03  0.33121519683E+03  0.46261320744E+03  0.17120000000E+03 0.  0.
        998    1    1    2    0    0  0.27110708015E+01  0.11119532167E+02  0.30016280323E+03  0.30054733794E+03  0.10000000000E+02 0.  1.
</event>
<event>
 5    1  0.1294251E-008  0.3712643E+03  0.7957747E-01  0.3490100E+00
         13   -1    0    0    0    0  0.00000000000E+00  0.00000000000E+00  0.14999999963E+04  0.15000000000E+04  0.10566000000E+00 0. -1.
        994   -1    0    0    0    0 -0.00000000000E+00 -0.00000000000E+00  0.11368683772E-12  0.17120000000E+03  0.17120000000E+03 0.  0.
         13    1    1    2    0    0 -0.24177154055E+02  0.36330615741E+02  0.10205389956E+03  0.11099305382E+03  0.10566000000E+00 0. -1.
        994    1    1    2    0    0  0.14875505355E+02 -0.38956860565E+02  0.14619979219E+02  0.17681092002E+03  0.17120000000E+03 0.  0.
        998    1    1    2    0    0  0.93016486996E+01  0.26262448240E+01  0.13833261175E+04  0.13833960262E+04  0.10000000000E+02 0. -1.
</event>
<event>
 5    1  0.1294251E-008  0.3841885E+03  0.7957747E-01  0.3433121E+00
         13   -1    0    0    0    0  0.00000000000E+00  0.00000000000E+00  0.14999999963E+04  0.15000000000E+04  0.10566000000E+00 0.  1.
        994   -1    0    0    0    0 -0.00000000000E+00 -0.00000000000E+00  0.11368683772E-12  0.17120000000E+03  0.17120000000E+03 0.  0.
         13    1    1    2    0    0 -0.10354616198E+02  0.27757744043E+01  0.27744093191E+02  0.29743383654E+02  0.10566000000E+00 0.  1.
        994    1    1    2    0    0  0.48566458549E+01 -0.89563100027E+01  0.23759286167E+01  0.17151935032E+03  0.17120000000E+03 0.  0.
        998    1    1    2    0    0  0.54979703429E+01  0.61805355984E+01  0.14698799745E+04  0.14699372660E+04  0.10000000000E+02 0.  1.
</event>
<event>
 5    1  0.1294251E-008  0.3787010E+03  0.7957747E-01  0.3456834E+00
         13   -1    0    0    0    0  0.00000000000E+00  0.00000000000E+00  0.14999999963E+04  0.15000000000E+04  0.10566000000E+00 0.  1.
        994   -1    0    0    0    0 -0.00000000000E+00 -0.00000000000E+00  0.11368683772E-12  0.17120000000E+03  0.17120000000E+03 0.  0.
         13    1    1    2    0    0 -0.31593973823E+02 -0.81890636808E+01  0.11752449761E+03  0.12197236838E+03  0.10566000000E+00 0.  1.
        994    1    1    2    0    0  0.42762289266E+01  0.86101712199E+01  0.51006533733E+01  0.17154555619E+03  0.17120000000E+03 0.  0.
        998    1    1    2    0    0  0.27317744896E+02 -0.42110753910E+00  0.13773748453E+04  0.13776820754E+04  0.10000000000E+02 0.  1.
</event>
<event>
 5    1  0.1294251E-008  0.3790998E+03  0.7957747E-01  0.3455088E+00
         13   -1    0    0    0    0  0.00000000000E+00  0.00000000000E+00  0.14999999963E+04  0.15000000000E+04  0.10566000000E+00 0. -1.
        994   -1    0    0    0    0 -0.00000000000E+00 -0.00000000000E+00  0.11368683772E-12  0.17120000000E+03  0.17120000000E+03 0.  0.
         13    1    1    2    0    0 -0.10055504748E+02  0.28249982001E+02  0.92761633888E+02  0.97487981539E+02  0.10566000000E+00 0. -1.
        994    1    1    2    0    0  0.79994577626E+01 -0.25181338559E+02  0.69324005957E+01  0.17336547902E+03  0.17120000000E+03 0.  0.
        998    1    1    2    0    0  0.20560469855E+01 -0.30686434427E+01  0.14003059618E+04  0.14003465394E+04  0.10000000000E+02 0. -1.
</event>
<event>
 5    1  0.1294251E-008  0.3862793E+03  0.7957747E-01  0.3424264E+00
         13   -1    0    0    0    0  0.00000000000E+00  0.00000000000E+00  0.14999999963E+04  0.15000000000E+04  0.10566000000E+00 0.  1.
        994   -1    0    0    0    0 -0.00000000000E+00 -0.00000000000E+00  0.11368683772E-12  0.17120000000E+03  0.17120000000E+03 0.  0.
         13    1    1    2    0    0 -0.76793053715E+01 -0.12807016591E+02 -0.36458405609E+01  0.15371880900E+02  0.10566000000E+00 0.  1.
        994    1    1    2    0    0  0.15083025552E+02  0.35490420862E+02  0.25355744959E+02  0.17731165059E+03  0.17120000000E+03 0.  0.
        998    1    1    2    0    0 -0.74037201804E+01 -0.22683404270E+02  0.14782900919E+04  0.14785164685E+04  0.10000000000E+02 0.  1.
</event>
<event>
 5    1  0.1294251E-008  0.4508017E+03  0.7957747E-01  0.3191002E+00
         13   -1    0    0    0    0  0.00000000000E+00  0.00000000000E+00  0.14999999963E+04  0.15000000000E+04  0.10566000000E+00 0.  1.
        994   -1    0    0    0    0 -0.00000000000E+00 -0.00000000000E+00  0.11368683772E-12  0.17120000000E+03  0.17120000000E+03 0.  0.
         13    1    1    2    0    0  0.12639730656E+02  0.51139318759E+02 -0.21647954906E+00  0.52678750380E+02  0.10566000000E+00 0.  1.
        994    1    1    2    0    0 -0.92778691948E+01 -0.51904083105E+02  0.76534713155E+02  0.19480019255E+03  0.17120000000E+03 0.  0.
        998    1    1    2    0    0 -0.33618614611E+01  0.76476434550E+00  0.14236817627E+04  0.14237210571E+04  0.10000000000E+02 0.  1.
</event>
<event>
 5    1  0.1294251E-008  0.3689594E+03  0.7957747E-01  0.3500687E+00
         13   -1    0    0    0    0  0.00000000000E+00  0.00000000000E+00  0.14999999963E+04  0.15000000000E+04  0.10566000000E+00 0.  1.
        994   -1    0    0    0    0 -0.00000000000E+00 -0.00000000000E+00  0.11368683772E-12  0.17120000000E+03  0.17120000000E+03 0.  0.
         13    1    1    2    0    0 -0.73457357983E+01 -0.13700869626E+02  0.72605803429E+01  0.17158113354E+02  0.10566000000E+00 0.  1.
        994    1    1    2    0    0  0.13189856765E+02  0.41006516677E+02  0.16280511840E+02  0.17728508622E+03  0.17120000000E+03 0.  0.
        998    1    1    2    0    0 -0.58441209664E+01 -0.27305647051E+02  0.14764589041E+04  0.14767568004E+04  0.10000000000E+02 0.  1.
</event>
<event>
 5    1  0.1294251E-008  0.3720442E+03  0.7957747E-01  0.3486549E+00
         13   -1    0    0    0    0  0.00000000000E+00  0.00000000000E+00  0.14999999963E+04  0.15000000000E+04  0.10566000000E+00 0. -1.
        994   -1    0    0    0    0 -0.00000000000E+00 -0.00000000000E+00  0.11368683772E-12  0.17120000000E+03  0.17120000000E+03 0.  0.
         13    1    1    2    0    0  0.48665311495E+01  0.78543709992E+02  0.24897499715E+03  0.26111560251E+03  0.10566000000E+00 0. -1.
        994    1    1    2    0    0 -0.15162943966E+02 -0.49369544698E+02  0.21475700831E+02  0.18010528182E+03  0.17120000000E+03 0.  0.
        998    1    1    2    0    0  0.10296412817E+02 -0.29174165294E+02  0.12295492983E+04  0.12299791157E+04  0.10000000000E+02 0. -1.
</event>
<event>
 5    1  0.1294251E-008  0.3811960E+03  0.7957747E-01  0.3445968E+00
         13   -1    0    0    0    0  0.00000000000E+00  0.00000000000E+00  0.14999999963E+04  0.15000000000E+04  0.10566000000E+00 0.  1.
        994   -1    0    0    0    0 -0.00000000000E+00 -0.00000000000E+00  0.11368683772E-12  0.17120000000E+03  0.17120000000E+03 0.  0.
         13    1    1    2    0    0 -0.28591589573E+02  0.24137319278E+02  0.20011318692E+03  0.20358140367E+03  0.10566000000E+00 0.  1.
        994    1    1    2    0    0  0.22033806007E+02 -0.47964367639E+01  0.52256471266E+01  0.17275775468E+03  0.17120000000E+03 0.  0.
        998    1    1    2    0    0  0.65577835666E+01 -0.19340882514E+02  0.12946611622E+04  0.12948608417E+04  0.10000000000E+02 0.  1.
</event>
<event>
 5    1  0.1294251E-008  0.3785044E+03  0.7957747E-01  0.3457697E+00
         13   -1    0    0    0    0  0.00000000000E+00  0.00000000000E+00  0.14999999963E+04  0.15000000000E+04  0.10566000000E+00 0.  1.
        994   -1    0    0    0    0 -0.00000000000E+00 -0.00000000000E+00  0.11368683772E-12  0.17120000000E+03  0.17120000000E+03 0.  0.
         13    1    1    2    0    0  0.88785124503E+02 -0.12430402144E+02  0.39430880457E+03  0.40437205363E+03  0.10566000000E+00 0.  1.
        994    1    1    2    0    0 -0.13436488820E+03 -0.88564794939E+01  0.68441980179E+02  0.22831142122E+03  0.17120000000E+03 0.  0.
        998    1    1    2    0    0  0.45579763696E+02  0.21286881638E+02  0.10372492115E+04  0.10385165251E+04  0.10000000000E+02 0. -1.
</event>
<event>
 5    1  0.1294251E-008  0.3830019E+03  0.7957747E-01  0.3438191E+00
         13   -1    0    0    0    0  0.00000000000E+00  0.00000000000E+00  0.14999999963E+04  0.15000000000E+04  0.10566000000E+00 0.  1.
        994   -1    0    0    0    0 -0.00000000000E+00 -0.00000000000E+00  0.11368683772E-12  0.17120000000E+03  0.17120000000E+03 0.  0.
         13    1    1    2    0    0  0.19987088070E+02  0.37103076183E+01  0.76149137951E+02  0.78815940309E+02  0.10566000000E+00 0.  1.
        994    1    1    2    0    0 -0.16346933777E+02 -0.61387168737E+01  0.36353314709E+01  0.17212658634E+03  0.17120000000E+03 0.  0.
        998    1    1    2    0    0 -0.36401542924E+01  0.24284092554E+01  0.14202155269E+04  0.14202574734E+04  0.10000000000E+02 0.  1.
</event>
<event>
 5    1  0.1294251E-008  0.3715198E+03  0.7957747E-01  0.3488935E+00
         13   -1    0    0    0    0  0.00000000000E+00  0.00000000000E+00  0.14999999963E+04  0.15000000000E+04  0.10566000000E+00 0.  1.
        994   -1    0    0    0    0 -0.00000000000E+00 -0.00000000000E+00  0.11368683772E-12  0.17120000000E+03  0.17120000000E+03 0.  0.
         13    1    1    2    0    0 -0.34836076524E+02 -0.19238755792E+02  0.10512067549E+03  0.11240128794E+03  0.10566000000E+00 0.  1.
        994    1    1    2    0    0 -0.15622970171E+02  0.11169378224E+01  0.93210913675E+01  0.17216749836E+03  0.17120000000E+03 0.  0.
        998    1    1    2    0    0  0.50459046695E+02  0.18121817970E+02  0.13855582294E+04  0.13866312137E+04  0.10000000000E+02 0.  1.
</event>
<event>
 5    1  0.1294251E-008  0.3768816E+03  0.7957747E-01  0.3464850E+00
         13   -1    0    0    0    0  0.00000000000E+00  0.00000000000E+00  0.14999999963E+04  0.15000000000E+04  0.10566000000E+00 0. -1.
        994   -1    0    0    0    0 -0.00000000000E+00 -0.00000000000E+00  0.11368683772E-12  0.17120000000E+03  0.17120000000E+03 0.  0.
         13    1    1    2    0    0 -0.41581846393E+02  0.84251904076E+00  0.16877505536E+03  0.17382402096E+03  0.10566000000E+00 0. -1.
        994    1    1    2    0    0  0.39672340580E+01  0.61643219342E+01  0.58971732863E+01  0.17145831699E+03  0.17120000000E+03 0.  0.
        998    1    1    2    0    0  0.37614612335E+02 -0.70068409750E+01  0.13253277676E+04  0.13259176621E+04  0.10000000000E+02 0. -1.
</event>
<event>
 5    1  0.1294251E-008  0.3836529E+03  0.7957747E-01  0.3435405E+00
         13   -1    0    0    0    0  0.00000000000E+00  0.00000000000E+00  0.14999999963E+04  0.15000000000E+04  0.10566000000E+00 0.  1.
        994   -1    0    0    0    0 -0.00000000000E+00 -0.00000000000E+00  0.11368683772E-12  0.17120000000E+03  0.17120000000E+03 0.  0.
         13    1    1    2    0    0 -0.19156835867E+02  0.22403959416E+02  0.16835032962E+03  0.17091157481E+03  0.10566000000E+00 0.  1.
        994    1    1    2    0    0  0.21680942748E+02 -0.21539067489E+02  0.53915780522E+01  0.17398995322E+03  0.17120000000E+03 0.  0.
        998    1    1    2    0    0 -0.25241068811E+01 -0.86489192693E+00  0.13262580886E+04  0.13262984720E+04  0.10000000000E+02 0.  1.
</event>
<event>
 5    1  0.1294251E-008  0.3827363E+03  0.7957747E-01  0.3439330E+00
         13   -1    0    0    0    0  0.00000000000E+00  0.00000000000E+00  0.14999999963E+04  0.15000000000E+04  0.10566000000E+00 0. -1.
        994   -1    0    0    0    0 -0.00000000000E+00 -0.00000000000E+00  0.11368683772E-12  0.17120000000E+03  0.17120000000E+03 0.  0.
         13    1    1    2    0    0 -0.34845680347E+02  0.13735054616E+02  0.21063438018E+03  0.21393860437E+03  0.10566000000E+00 0. -1.
        994    1    1    2    0    0  0.39026895076E+02 -0.17095396576E+02  0.87958244964E+01  0.17664132487E+03  0.17120000000E+03 0.  0.
        998    1    1    2    0    0 -0.41812147297E+01  0.33603419602E+01  0.12805697916E+04  0.12806200708E+04  0.10000000000E+02 0. -1.
</event>
<event>
 5    1  0.1294251E-008  0.3765892E+03  0.7957747E-01  0.3466146E+00
         13   -1    0    0    0    0  0.00000000000E+00  0.00000000000E+00  0.14999999963E+04  0.15000000000E+04  0.10566000000E+00 0.  1.
        994   -1    0    0    0    0 -0.00000000000E+00 -0.00000000000E+00  0.11368683772E-12  0.17120000000E+03  0.17120000000E+03 0.  0.
         13    1    1    2    0    0 -0.62316265159E+01  0.10018027890E+02 -0.19278341469E+01  0.11954988933E+02  0.10566000000E+00 0.  1.
        994    1    1    2    0    0  0.10207912758E+02 -0.87220724634E+01  0.15111650611E+02  0.17238932106E+03  0.17120000000E+03 0.  0.
        998    1    1    2    0    0 -0.39762862417E+01 -0.12959554271E+01  0.14868161798E+04  0.14868556900E+04  0.10000000000E+02 0.  1.
</event>
<event>
 5    1  0.1294251E-008  0.3770122E+03  0.7957747E-01  0.3464272E+00
         13   -1    0    0    0    0  0.00000000000E+00  0.00000000000E+00  0.14999999963E+04  0.15000000000E+04  0.10566000000E+00 0. -1.
        994   -1    0    0    0    0 -0.00000000000E+00 -0.00000000000E+00  0.11368683772E-12  0.17120000000E+03  0.17120000000E+03 0.  0.
         13    1    1    2    0    0 -0.54393324177E+01 -0.95795329349E+01  0.81411217381E+01  0.13698277833E+02  0.10566000000E+00 0. -1.
        994    1    1    2    0    0  0.58168876251E+01  0.83015122514E+01  0.59960138295E+01  0.17160461378E+03  0.17120000000E+03 0.  0.
        998    1    1    2    0    0 -0.37755520738E+00  0.12780206835E+01  0.14858628607E+04  0.14858971084E+04  0.10000000000E+02 0. -1.
</event>
<event>
 5    1  0.1294251E-008  0.3714855E+03  0.7957747E-01  0.3489092E+00
         13   -1    0    0    0    0  0.00000000000E+00  0.00000000000E+00  0.14999999963E+04  0.15000000000E+04  0.10566000000E+00 0. -1.
        994   -1    0    0    0    0 -0.00000000000E+00 -0.00000000000E+00  0.11368683772E-12  0.17120000000E+03  0.17120000000E+03 0.  0.
         13    1    1    2    0    0 -0.19272038414E+03 -0.80039020870E+02  0.84080717958E+03  0.86631640625E+03  0.10566000000E+00 0. -1.
        994    1    1    2    0    0  0.18567773514E+03  0.10158006301E+03  0.18292527615E+03  0.32797229636E+03  0.17120000000E+03 0.  0.
        998    1    1    2    0    0  0.70426490057E+01 -0.21541042138E+02  0.47626754055E+03  0.47691129739E+03  0.10000000000E+02 0.  1.
</event>
<event>
 5    1  0.1294251E-008  0.3829489E+03  0.7957747E-01  0.3438418E+00
         13   -1    0    0    0    0  0.00000000000E+00  0.00000000000E+00  0.14999999963E+04  0.15000000000E+04  0.10566000000E+00 0.  1.
        994   -1    0    0    0    0 -0.00000000000E+00 -0.00000000000E+00  0.11368683772E-12  0.17120000000E+03  0.17120000000E+03 0.  0.
         13    1    1    2    0    0 -0.22090196653E+02 -0.44362658153E+00  0.95876525745E+02  0.98389496115E+02  0.10566000000E+00 0.  1.
        994    1    1    2    0    0  0.58023804453E+01  0.20583560394E+01  0.27774068744E+01  0.17133317962E+03  0.17120000000E+03 0.  0.
        998    1    1    2    0    0  0.16287816208E+02 -0.16147294579E+01  0.14013460637E+04  0.14014773243E+04  0.10000000000E+02 0.  1.
</event>
<event>
 5    1  0.1294251E-008  0.3772088E+03  0.7957747E-01  0.3463403E+00
         13   -1    0    0    0    0  0.00000000000E+00  0.00000000000E+00  0.14999999963E+04  0.15000000000E+04  0.10566000000E+00 0.  1.
        994   -1    0    0    0    0 -0.00000000000E+00 -0.00000000000E+00  0.11368683772E-12  0.17120000000E+03  0.17120000000E+03 0.  0.
         13    1    1    2    0    0 -0.71005010560E+02  0.26117479265E+02  0.36954007353E+03  0.37720513167E+03  0.10566000000E+00 0.  1.
        994    1    1    2    0    0  0.78328675504E+02 -0.20015968383E+02  0.27929561218E+02  0.19137795272E+03  0.17120000000E+03 0.  0.
        998    1    1    2    0    0 -0.73236649440E+01 -0.61015108819E+01  0.11025303615E+04  0.11026169156E+04  0.10000000000E+02 0.  1.
</event>
<event>
 5    1  0.1294251E-008  0.3872016E+03  0.7957747E-01  0.3420388E+00
         13   -1    0    0    0    0  0.00000000000E+00  0.00000000000E+00  0.14999999963E+04  0.15000000000E+04  0.10566000000E+00 0.  1.
        994   -1    0    0    0    0 -0.00000000000E+00 -0.00000000000E+00  0.11368683772E-12  0.17120000000E+03  0.17120000000E+03 0.  0.
         13    1    1    2    0    0 -0.41026985361E+02 -0.51157506583E+02  0.18612387412E+03  0.19733831784E+03  0.10566000000E+00 0.  1.
        994    1    1    2    0    0 -0.87924174774E+02 -0.78011370668E+02  0.73808368590E+02  0.22039407827E+03  0.17120000000E+03 0.  0.
        998    1    1    2    0    0  0.12895116013E+03  0.12916887725E+03  0.12400677536E+04  0.12534676039E+04  0.10000000000E+02 0.  1.
</event>
<event>
 5    1  0.1294251E-008  0.3826801E+03  0.7957747E-01  0.3439571E+00
         13   -1    0    0    0    0  0.00000000000E+00  0.00000000000E+00  0.14999999963E+04  0.15000000000E+04  0.10566000000E+00 0.  1.
        994   -1    0    0    0    0 -0.00000000000E+00 -0.00000000000E+00  0.11368683772E-12  0.17120000000E+03  0.17120000000E+03 0.  0.
         13    1    1    2    0    0 -0.14736095057E+02  0.12977250306E+02  0.74521176721E+02  0.77064768000E+02  0.10566000000E+00 0.  1.
        994    1    1    2    0    0  0.22073607246E+01  0.78353145744E+01  0.30059263744E+01  0.17141977771E+03  0.17120000000E+03 0.  0.
        998    1    1    2    0    0  0.12528734332E+02 -0.20812564881E+02  0.14224728932E+04  0.14227154543E+04  0.10000000000E+02 0.  1.
</event>
<event>
 5    1  0.1294251E-008  0.3779706E+03  0.7957747E-01  0.3460043E+00
         13   -1    0    0    0    0  0.00000000000E+00  0.00000000000E+00  0.14999999963E+04  0.15000000000E+04  0.10566000000E+00 0. -1.
        994   -1    0    0    0    0 -0.00000000000E+00 -0.00000000000E+00  0.11368683772E-12  0.17120000000E+03  0.17120000000E+03 0.  0.
         13    1    1    2    0    0 -0.35885128419E+02  0.12710602674E+02  0.12955466861E+03  0.13503231164E+03  0.10566000000E+00 0. -1.
        994    1    1    2    0    0  0.35099522028E+02 -0.70413704121E+01  0.94863025021E+01  0.17515989061E+03  0.17120000000E+03 0.  0.
        998    1    1    2    0    0  0.78560639121E+00 -0.56692322623E+01  0.13609590252E+04  0.13610077978E+04  0.10000000000E+02 0. -1.
</event>
<event>
 5    1  0.1294251E-008  0.3840619E+03  0.7957747E-01  0.3433661E+00
         13   -1    0    0    0    0  0.00000000000E+00  0.00000000000E+00  0.14999999963E+04  0.15000000000E+04  0.10566000000E+00 0.  1.
        994   -1    0    0    0    0 -0.00000000000E+00 -0.00000000000E+00  0.11368683772E-12  0.17120000000E+03  0.17120000000E+03 0.  0.
         13    1    1    2    0    0  0.15186490455E+02  0.12107404275E+02  0.83861277150E+02  0.86081029849E+02  0.10566000000E+00 0.  1.
        994    1    1    2    0    0 -0.17436010303E+02 -0.14651816288E+02  0.38094650726E+01  0.17275023068E+03  0.17120000000E+03 0.  0.
        998    1    1    2    0    0  0.22495198481E+01  0.25444120131E+01  0.14123292541E+04  0.14123687395E+04  0.10000000000E+02 0.  1.
</event>
<event>
 5    1  0.1294251E-008  0.3838336E+03  0.7957747E-01  0.3434634E+00
         13   -1    0    0    0    0  0.00000000000E+00  0.00000000000E+00  0.14999999963E+04  0.15000000000E+04  0.10566000000E+00 0. -1.
        994   -1    0    0    0    0 -0.00000000000E+00 -0.00000000000E+00  0.11368683772E-12  0.17120000000E+03  0.17120000000E+03 0.  0.
         13    1    1    2    0    0  0.66621594078E+01  0.94441190890E+01  0.29336362310E+02  0.31531081031E+02  0.10566000000E+00 0. -1.
        994    1    1    2    0    0 -0.85798069702E+01 -0.61431236394E+01  0.25780078055E+01  0.17154427178E+03  0.17120000000E+03 0.  0.
        998    1    1    2    0    0  0.19176475624E+01 -0.33009954497E+01  0.14680856262E+04  0.14681246472E+04  0.10000000000E+02 0. -1.
</event>
<event>
 5    1  0.1294251E-008  0.3806067E+03  0.7957747E-01  0.3448521E+00
         13   -1    0    0    0    0  0.00000000000E+00  0.00000000000E+00  0.14999999963E+04  0.15000000000E+04  0.10566000000E+00 0. -1.
        994   -1    0    0    0    0 -0.00000000000E+00 -0.00000000000E+00  0.11368683772E-12  0.17120000000E+03  0.17120000000E+03 0.  0.
         13    1    1    2    0    0 -0.20940075556E+02  0.12216490737E+02  0.77819968763E+02  0.81508822299E+02  0.10566000000E+00 0. -1.
        994    1    1    2    0    0  0.52793487821E+01 -0.81191223157E+01  0.41401814705E+01  0.17152367992E+03  0.17120000000E+03 0.  0.
        998    1    1    2    0    0  0.15660726774E+02 -0.40973684216E+01  0.14180398460E+04  0.14181674978E+04  0.10000000000E+02 0. -1.
</event>
<event>
 5    1  0.1294251E-008  0.3900064E+03  0.7957747E-01  0.3408713E+00
         13   -1    0    0    0    0  0.00000000000E+00  0.00000000000E+00  0.14999999963E+04  0.15000000000E+04  0.10566000000E+00 0. -1.
        994   -1    0    0    0    0 -0.00000000000E+00 -0.00000000000E+00  0.11368683772E-12  0.17120000000E+03  0.17120000000E+03 0.  0.
         13    1    1    2    0    0  0.15548339935E+02  0.98074669928E+01 -0.21156314699E+01  0.18504711403E+02  0.10566000000E+00 0. -1.
        994    1    1    2    0    0 -0.13980627578E+02 -0.10523133320E+02  0.23089072765E+02  0.17363392400E+03  0.17120000000E+03 0.  0.
        998    1    1    2    0    0 -0.15677123573E+01  0.71566632702E+00  0.14790265550E+04  0.14790613646E+04  0.10000000000E+02 0. -1.
</event>
<event>
 5    1  0.1294251E-008  0.3811277E+03  0.7957747E-01  0.3446263E+00
         13   -1    0    0    0    0  0.00000000000E+00  0.00000000000E+00  0.14999999963E+04  0.15000000000E+04  0.10566000000E+00 0. -1.
        994   -1    0    0    0    0 -0.00000000000E+00 -0.00000000000E+00  0.11368683772E-12  0.17120000000E+03  0.17120000000E+03 0.  0.
         13    1    1    2    0    0  0.41305904151E+02  0.18159699313E+02  0.25136313907E+03  0.25538087486E+03  0.10566000000E+00 0. -1.
        994    1    1    2    0    0 -0.39503738408E+02 -0.92424569509E+01  0.90663859560E+01  0.17617493497E+03  0.17120000000E+03 0.  0.
        998    1    1    2    0    0 -0.18021657426E+01 -0.89172423621E+01  0.12395704712E+04  0.12396441902E+04  0.10000000000E+02 0. -1.
</event>
<event>
 5    1  0.1294251E-008  0.3849433E+03  0.7957747E-01  0.3429913E+00
         13   -1    0    0    0    0  0.00000000000E+00  0.00000000000E+00  0.14999999963E+04  0.15000000000E+04  0.10566000000E+00 0. -1.
        994   -1    0    0    0    0 -0.00000000000E+00 -0.00000000000E+00  0.11368683772E-12  0.17120000000E+03  0.17120000000E+03 0.  0.
         13    1    1    2    0    0 -0.86098890307E+01 -0.11934956639E+02  0.63995337599E+02  0.65665727572E+02  0.10566000000E+00 0. -1.
        994    1    1    2    0    0  0.10705949002E+02  0.82135666814E+01  0.22574096868E+01  0.17174578865E+03  0.17120000000E+03 0.  0.
        998    1    1    2    0    0 -0.20960599717E+01  0.37213899576E+01  0.14337472490E+04  0.14337884838E+04  0.10000000000E+02 0. -1.
</event>
<event>
 5    1  0.1294251E-008  0.3746531E+03  0.7957747E-01  0.3474776E+00
         13   -1    0    0    0    0  0.00000000000E+00  0.00000000000E+00  0.14999999963E+04  0.15000000000E+04  0.10566000000E+00 0.  1.
        994   -1    0    0    0    0 -0.00000000000E+00 -0.00000000000E+00  0.11368683772E-12  0.17120000000E+03  0.17120000000E+03 0.  0.
         13    1    1    2    0    0 -0.18542167674E+01  0.13445614675E+02  0.56076137879E+00  0.13584855214E+02  0.10566000000E+00 0.  1.
        994    1    1    2    0    0 -0.81435186171E+01 -0.23933260287E+02  0.15695335270E+02  0.17376680176E+03  0.17120000000E+03 0.  0.
        998    1    1    2    0    0  0.99977353845E+01  0.10487645611E+02  0.14837438996E+04  0.14838483430E+04  0.10000000000E+02 0.  1.
</event>
<event>
 5    1  0.1294251E-008  0.3688762E+03  0.7957747E-01  0.3501072E+00
         13   -1    0    0    0    0  0.00000000000E+00  0.00000000000E+00  0.14999999963E+04  0.15000000000E+04  0.10566000000E+00 0. -1.
        994   -1    0    0    0    0 -0.00000000000E+00 -0.00000000000E+00  0.11368683772E-12  0.17120000000E+03  0.17120000000E+03 0.  0.
         13    1    1    2    0    0  0.38550498181E+02  0.11771130872E+02  0.75183178963E+02  0.85306635117E+02  0.10566000000E+00 0. -1.
        994    1    1    2    0    0 -0.31613085351E+01 -0.12255880951E+03  0.64004195507E+02  0.22008324039E+03  0.17120000000E+03 0.  0.
        998    1    1    2    0    0 -0.35389189645E+02  0.11078767864E+03  0.13608126218E+04  0.13658101245E+04  0.10000000000E+02 0. -1.
</event>
<event>
 5    1  0.1294251E-008  0.3797144E+03  0.7957747E-01  0.3452403E+00
         13   -1    0    0    0    0  0.00000000000E+00  0.00000000000E+00  0.14999999963E+04  0.15000000000E+04  0.10566000000E+00 0. -1.
        994   -1    0    0    0    0 -0.00000000000E+00 -0.00000000000E+00  0.11368683772E-12  0.17120000000E+03  0.17120000000E+03 0.  0.
         13    1    1    2    0    0  0.24890204235E+02 -0.22321259690E+02  0.12546517086E+03  0.12984329465E+03  0.10566000000E+00 0. -1.
        994    1    1    2    0    0 -0.69233551421E+02 -0.32532685908E+02  0.24112921086E+02  0.18905695771E+03  0.17120000000E+03 0.  0.
        998    1    1    2    0    0  0.44343347187E+02  0.54853945598E+02  0.13504219043E+04  0.13522997476E+04  0.10000000000E+02 0. -1.
</event>
<event>
 5    1  0.1294251E-008  0.3814510E+03  0.7957747E-01  0.3444865E+00
         13   -1    0    0    0    0  0.00000000000E+00  0.00000000000E+00  0.14999999963E+04  0.15000000000E+04  0.10566000000E+00 0. -1.
        994   -1    0    0    0    0 -0.00000000000E+00 -0.00000000000E+00  0.11368683772E-12  0.17120000000E+03  0.17120000000E+03 0.  0.
         13    1    1    2    0    0 -0.26948535637E+02  0.22731203074E+02  0.13916894270E+03  0.14356509653E+03  0.10566000000E+00 0. -1.
        994    1    1    2    0    0  0.58987392145E+02 -0.27382734663E+02  0.17603481402E+02  0.18398002377E+03  0.17120000000E+03 0.  0.
        998    1    1    2    0    0 -0.32038856508E+02  0.46515315896E+01  0.13432275722E+04  0.13436548797E+04  0.10000000000E+02 0. -1.
</event>
<event>
 5    1  0.1294251E-008  0.3753573E+03  0.7957747E-01  0.3471626E+00
         13   -1    0    0    0    0  0.00000000000E+00  0.00000000000E+00  0.14999999963E+04  0.15000000000E+04  0.10566000000E+00 0. -1.
        994   -1    0    0    0    0 -0.00000000000E+00 -0.00000000000E+00  0.11368683772E-12  0.17120000000E+03  0.17120000000E+03 0.  0.
         13    1    1    2    0    0 -0.96598566921E+01  0.19630529018E+02  0.33897138100E+02  0.40344734926E+02  0.10566000000E+00 0. -1.
        994    1    1    2    0    0  0.74531773903E+01 -0.16545914206E+02  0.76142072974E+01  0.17232740143E+03  0.17120000000E+03 0.  0.
        998    1    1    2    0    0  0.22066793018E+01 -0.30846148122E+01  0.14584886509E+04  0.14585278636E+04  0.10000000000E+02 0. -1.
</event>
<event>
 5    1  0.1294251E-008  0.3852333E+03  0.7957747E-01  0.3428683E+00
         13   -1    0    0    0    0  0.00000000000E+00  0.00000000000E+00  0.14999999963E+04  0.15000000000E+04  0.10566000000E+00 0.  1.
        994   -1    0    0    0    0 -0.00000000000E+00 -0.00000000000E+00  0.11368683772E-12  0.17120000000E+03  0.17120000000E+03 0.  0.
         13    1    1    2    0    0  0.46526321493E+00  0.12341644250E+02  0.50899393197E+02  0.52376445513E+02  0.10566000000E+00 0.  1.
        994    1    1    2    0    0  0.22137514916E+01 -0.67795582726E+01  0.16814929108E+01  0.17135673469E+03  0.17120000000E+03 0.  0.
        998    1    1    2    0    0 -0.26790147065E+01 -0.55620859776E+01  0.14474191102E+04  0.14474668198E+04  0.10000000000E+02 0.  1.
</event>
<event>
 5    1  0.1294251E-008  0.3852083E+03  0.7957747E-01  0.3428789E+00
         13   -1    0    0    0    0  0.00000000000E+00  0.00000000000E+00  0.14999999963E+04  0.15000000000E+04  0.10566000000E+00 0. -1.
        994   -1    0    0    0    0 -0.00000000000E+00 -0.00000000000E+00  0.11368683772E-12  0.17120000000E+03  0.17120000000E+03 0.  0.
         13    1    1    2    0    0 -0.82145936610E+01 -0.67592448744E+01  0.37051946969E+02  0.38548993224E+02  0.10566000000E+00 0. -1.
        994    1    1    2    0    0  0.51933472231E+01  0.45635832687E+01  0.16838432458E+01  0.17134781141E+03  0.17120000000E+03 0.  0.
        998    1    1    2    0    0  0.30212464379E+01  0.21956616058E+01  0.14612642061E+04  0.14613031954E+04  0.10000000000E+02 0. -1.
</event>
<event>
 5    1  0.1294251E-008  0.3828577E+03  0.7957747E-01  0.3438809E+00
         13   -1    0    0    0    0  0.00000000000E+00  0.00000000000E+00  0.14999999963E+04  0.15000000000E+04  0.10566000000E+00 0. -1.
        994   -1    0    0    0    0 -0.00000000000E+00 -0.00000000000E+00  0.11368683772E-12  0.17120000000E+03  0.17120000000E+03 0.  0.
         13    1    1    2    0    0  0.84597925542E+01  0.20091009782E+02  0.10194721130E+03  0.10425191519E+03  0.10566000000E+00 0. -1.
        994    1    1    2    0    0 -0.38946927527E+02  0.24926639372E+02  0.98109688015E+01  0.17760601235E+03  0.17120000000E+03 0.  0.
        998    1    1    2    0    0  0.30487134973E+02 -0.45017649154E+02  0.13882418162E+04  0.13893420725E+04  0.10000000000E+02 0. -1.
</event>
<event>
 5    1  0.1591639E-008  0.3860295E+03  0.7957747E-01  0.3425318E+00
         13   -1    0    0    0    0  0.00000000000E+00  0.00000000000E+00  0.14999999963E+04  0.15000000000E+04  0.10566000000E+00 0. -1.
        994   -1    0    0    0    0 -0.00000000000E+00 -0.00000000000E+00  0.11368683772E-12  0.17120000000E+03  0.17120000000E+03 0.  0.
         13    1    1    2    0    0  0.28666237743E+01  0.13384616800E+02  0.80357541949E+02  0.81515098055E+02  0.10566000000E+00 0. -1.
        994    1    1    2    0    0 -0.17156709909E+01 -0.15159950308E+02  0.18831813360E+01  0.17188878379E+03  0.17120000000E+03 0.  0.
        998    1    1    2    0    0 -0.11509527834E+01  0.17753335075E+01  0.14177592730E+04  0.14177961182E+04  0.10000000000E+02 0. -1.
</event>
<event>
 5    1  0.1294251E-008  0.3815093E+03  0.7957747E-01  0.3444613E+00
         13   -1    0    0    0    0  0.00000000000E+00  0.00000000000E+00  0.14999999963E+04  0.15000000000E+04  0.10566000000E+00 0. -1.
        994   -1    0    0    0    0 -0.00000000000E+00 -0.00000000000E+00  0.11368683772E-12  0.17120000000E+03  0.17120000000E+03 0.  0.
         13    1    1    2    0    0  0.90211628905E+01  0.33866043109E+02  0.18698983400E+03  0.19024589204E+03  0.10566000000E+00 0. -1.
        994    1    1    2    0    0  0.12949109021E+02 -0.20772163288E+02  0.53687317330E+01  0.17302434936E+03  0.17120000000E+03 0.  0.
        998    1    1    2    0    0 -0.21970271911E+02 -0.13093879821E+02  0.13076414305E+04  0.13079297586E+04  0.10000000000E+02 0. -1.
</event>
<event>
 5    1  0.1294251E-008  0.3851284E+03  0.7957747E-01  0.3429128E+00
         13   -1    0    0    0    0  0.00000000000E+00  0.00000000000E+00  0.14999999963E+04  0.15000000000E+04  0.10566000000E+00 0. -1.
        994   -1    0    0    0    0 -0.00000000000E+00 -0.00000000000E+00  0.11368683772E-12  0.17120000000E+03  0.17120000000E+03 0.  0.
         13    1    1    2    0    0 -0.29044150802E+01 -0.97691464350E+01  0.33257317234E+02  0.34784079155E+02  0.10566000000E+00 0. -1.
        994    1    1    2    0    0  0.32873109127E+01  0.46049422607E+01  0.16716611610E+01  0.17130162392E+03  0.17120000000E+03 0.  0.
        998    1    1    2    0    0 -0.38289583247E+00  0.51642041742E+01  0.14650710179E+04  0.14651142969E+04  0.10000000000E+02 0. -1.
</event>
<event>
 5    1  0.1294251E-008  0.2745654E+03  0.7957747E-01  0.4096190E+00
         13   -1    0    0    0    0  0.00000000000E+00  0.00000000000E+00  0.14999999963E+04  0.15000000000E+04  0.10566000000E+00 0.  1.
        994   -1    0    0    0    0 -0.00000000000E+00 -0.00000000000E+00  0.11368683772E-12  0.17120000000E+03  0.17120000000E+03 0.  0.
         13    1    1    2    0    0  0.96808169444E+02 -0.14667981028E+03  0.49391962379E+03  0.52425508518E+03  0.10566000000E+00 0.  1.
        994    1    1    2    0    0 -0.77875832258E+02  0.13690687183E+03  0.12224344099E+03  0.26279466446E+03  0.17120000000E+03 0.  0.
        998    1    1    2    0    0 -0.18932337186E+02  0.97729384506E+01  0.88383693150E+03  0.88415025035E+03  0.10000000000E+02 0.  1.
</event>
<event>
 5    1  0.1294251E-008  0.3691084E+03  0.7957747E-01  0.3499999E+00
         13   -1    0    0    0    0  0.00000000000E+00  0.00000000000E+00  0.14999999963E+04  0.15000000000E+04  0.10566000000E+00 0. -1.
        994   -1    0    0    0    0 -0.00000000000E+00 -0.00000000000E+00  0.11368683772E-12  0.17120000000E+03  0.17120000000E+03 0.  0.
         13    1    1    2    0    0 -0.27103957042E+02  0.33019857224E+02  0.86635660007E+02  0.96595466805E+02  0.10566000000E+00 0. -1.
        994    1    1    2    0    0  0.16936218454E+02 -0.36507630188E+02  0.15374286168E+02  0.17653739330E+03  0.17120000000E+03 0.  0.
        998    1    1    2    0    0  0.10167738588E+02  0.34877729639E+01  0.13979900501E+04  0.13980671399E+04  0.10000000000E+02 0. -1.
</event>
<event>
 5    1  0.1294251E-008  0.3789615E+03  0.7957747E-01  0.3455693E+00
         13   -1    0    0    0    0  0.00000000000E+00  0.00000000000E+00  0.14999999963E+04  0.15000000000E+04  0.10566000000E+00 0.  1.
        994   -1    0    0    0    0 -0.00000000000E+00 -0.00000000000E+00  0.11368683772E-12  0.17120000000E+03  0.17120000000E+03 0.  0.
         13    1    1    2    0    0 -0.32988582224E+02 -0.26512073148E+02  0.18860263700E+03  0.19329278938E+03  0.10566000000E+00 0.  1.
        994    1    1    2    0    0  0.39245961553E+02 -0.54629771810E+01  0.99431315219E+01  0.17600680522E+03  0.17120000000E+03 0.  0.
        998    1    1    2    0    0 -0.62573793290E+01  0.31975050329E+02  0.13014542278E+04  0.13019004054E+04  0.10000000000E+02 0.  1.
</event>
<event>
 5    1  0.1294251E-008  0.3791453E+03  0.7957747E-01  0.3454889E+00
         13   -1    0    0    0    0  0.00000000000E+00  0.00000000000E+00  0.14999999963E+04  0.15000000000E+04  0.10566000000E+00 0.  1.
        994   -1    0    0    0    0 -0.00000000000E+00 -0.00000000000E+00  0.11368683772E-12  0.17120000000E+03  0.17120000000E+03 0.  0.
         13    1    1    2    0    0 -0.37136141207E+02 -0.21910646342E+02  0.25501607179E+03  0.25863560745E+03  0.10566000000E+00 0.  1.
        994    1    1    2    0    0  0.69508787757E-01 -0.54183569587E+01  0.46636802125E+01  0.17134921458E+03  0.17120000000E+03 0.  0.
        998    1    1    2    0    0  0.37066632419E+02  0.27329003300E+02  0.12403202443E+04  0.12412151780E+04  0.10000000000E+02 0.  1.
</event>
<event>
 5    1  0.1294251E-008  0.3792205E+03  0.7957747E-01  0.3454559E+00
         13   -1    0    0    0    0  0.00000000000E+00  0.00000000000E+00  0.14999999963E+04  0.15000000000E+04  0.10566000000E+00 0. -1.
        994   -1    0    0    0    0 -0.00000000000E+00 -0.00000000000E+00  0.11368683772E-12  0.17120000000E+03  0.17120000000E+03 0.  0.
         13    1    1    2    0    0  0.13132548137E+03 -0.20225797043E+03  0.91541548328E+03  0.94664681210E+03  0.10566000000E+00 0. -1.
        994    1    1    2    0    0 -0.14088491775E+03  0.21412351188E+03  0.27095427183E+03  0.41039383014E+03  0.17120000000E+03 0.  0.
        998    1    1    2    0    0  0.95594363850E+01 -0.11865541454E+02  0.31363024116E+03  0.31415935776E+03  0.10000000000E+02 0.  1.
</event>
<event>
 5    1  0.1294251E-008  0.3840082E+03  0.7957747E-01  0.3433890E+00
         13   -1    0    0    0    0  0.00000000000E+00  0.00000000000E+00  0.14999999963E+04  0.15000000000E+04  0.10566000000E+00 0.  1.
        994   -1    0    0    0    0 -0.00000000000E+00 -0.00000000000E+00  0.11368683772E-12  0.17120000000E+03  0.17120000000E+03 0.  0.
         13    1    1    2    0    0 -0.13049238979E+02  0.28403812321E+02  0.18819355690E+03  0.19077181452E+03  0.10566000000E+00 0.  1.
        994    1    1    2    0    0 -0.17471503160E+02 -0.55223177200E+02  0.13271495155E+02  0.18121927410E+03  0.17120000000E+03 0.  0.
        998    1    1    2    0    0  0.30520742139E+02  0.26819364880E+02  0.12985349442E+04  0.12992089114E+04  0.10000000000E+02 0.  1.
</event>
<event>
 5    1  0.1294251E-008  0.3777357E+03  0.7957747E-01  0.3461077E+00
         13   -1    0    0    0    0  0.00000000000E+00  0.00000000000E+00  0.14999999963E+04  0.15000000000E+04  0.10566000000E+00 0.  1.
        994   -1    0    0    0    0 -0.00000000000E+00 -0.00000000000E+00  0.11368683772E-12  0.17120000000E+03  0.17120000000E+03 0.  0.
         13    1    1    2    0    0  0.82591221337E+01 -0.10661144641E+02  0.14976842175E+02  0.20154157612E+02  0.10566000000E+00 0.  1.
        994    1    1    2    0    0 -0.74591254750E+01  0.43425352913E+01  0.55314722535E+01  0.17150665687E+03  0.17120000000E+03 0.  0.
        998    1    1    2    0    0 -0.79999665872E+00  0.63186093493E+01  0.14794916819E+04  0.14795391855E+04  0.10000000000E+02 0.  1.
</event>
<event>
 5    1  0.1294251E-008  0.4377487E+03  0.7957747E-01  0.3232753E+00
         13   -1    0    0    0    0  0.00000000000E+00  0.00000000000E+00  0.14999999963E+04  0.15000000000E+04  0.10566000000E+00 0. -1.
        994   -1    0    0    0    0 -0.00000000000E+00 -0.00000000000E+00  0.11368683772E-12  0.17120000000E+03  0.17120000000E+03 0.  0.
         13    1    1    2    0    0  0.12251878270E+03  0.19193280958E+02  0.11864566127E+03  0.17162761506E+03  0.10566000000E+00 0. -1.
        994    1    1    2    0    0 -0.12557116488E+03 -0.21656977036E+02  0.13362748879E+03  0.25179930076E+03  0.17120000000E+03 0.  0.
        998    1    1    2    0    0  0.30523821869E+01  0.24636960775E+01  0.12477268462E+04  0.12477730842E+04  0.10000000000E+02 0. -1.
</event>
<event>
 5    1  0.1294251E-008  0.3849546E+03  0.7957747E-01  0.3429865E+00
         13   -1    0    0    0    0  0.00000000000E+00  0.00000000000E+00  0.14999999963E+04  0.15000000000E+04  0.10566000000E+00 0.  1.
        994   -1    0    0    0    0 -0.00000000000E+00 -0.00000000000E+00  0.11368683772E-12  0.17120000000E+03  0.17120000000E+03 0.  0.
         13    1    1    2    0    0 -0.13927426669E+02  0.12755990916E+02  0.10360242875E+03  0.10530984249E+03  0.10566000000E+00 0.  1.
        994    1    1    2    0    0  0.17665756939E+02 -0.62918556797E+01  0.28102201897E+01  0.17224692669E+03  0.17120000000E+03 0.  0.
        998    1    1    2    0    0 -0.37383302694E+01 -0.64641352361E+01  0.13935873473E+04  0.13936432308E+04  0.10000000000E+02 0.  1.
</event>
<event>
 5    1  0.1294251E-008  0.3825422E+03  0.7957747E-01  0.3440163E+00
         13   -1    0    0    0    0  0.00000000000E+00  0.00000000000E+00  0.14999999963E+04  0.15000000000E+04  0.10566000000E+00 0. -1.
        994   -1    0    0    0    0 -0.00000000000E+00 -0.00000000000E+00  0.11368683772E-12  0.17120000000E+03  0.17120000000E+03 0.  0.
         13    1    1    2    0    0 -0.22802323467E+02  0.10937687358E+02  0.10426471192E+03  0.10728802485E+03  0.10566000000E+00 0. -1.
        994    1    1    2    0    0  0.22913169841E+02 -0.12086764167E+02  0.50832470547E+01  0.17322350482E+03  0.17120000000E+03 0.  0.
        998    1    1    2    0    0 -0.11084637459E+00  0.11490768094E+01  0.13906520373E+04  0.13906884703E+04  0.10000000000E+02 0. -1.
</event>
<event>
 5    1  0.1294251E-008  0.3820435E+03  0.7957747E-01  0.3442308E+00
         13   -1    0    0    0    0  0.00000000000E+00  0.00000000000E+00  0.14999999963E+04  0.15000000000E+04  0.10566000000E+00 0. -1.
        994   -1    0    0    0    0 -0.00000000000E+00 -0.00000000000E+00  0.11368683772E-12  0.17120000000E+03  0.17120000000E+03 0.  0.
         13    1    1    2    0    0 -0.14981556894E+01  0.25952249709E+02  0.10326725701E+03  0.10648897253E+03  0.10566000000E+00 0. -1.
        994    1    1    2    0    0 -0.34070533909E+01 -0.23468568115E+02  0.49747426685E+01  0.17290624560E+03  0.17120000000E+03 0.  0.
        998    1    1    2    0    0  0.49052090802E+01 -0.24836815939E+01  0.13917579966E+04  0.13918047819E+04  0.10000000000E+02 0. -1.
</event>
<event>
 5    1  0.1294251E-008  0.3823808E+03  0.7957747E-01  0.3440857E+00
         13   -1    0    0    0    0  0.00000000000E+00  0.00000000000E+00  0.14999999963E+04  0.15000000000E+04  0.10566000000E+00 0. -1.
        994   -1    0    0    0    0 -0.00000000000E+00 -0.00000000000E+00  0.11368683772E-12  0.17120000000E+03  0.17120000000E+03 0.  0.
         13    1    1    2    0    0  0.13093994569E+02  0.13308897092E+02  0.59934053914E+02  0.62774847018E+02  0.10566000000E+00 0. -1.
        994    1    1    2    0    0 -0.11949705839E+02  0.23487672183E+01  0.34282110852E+01  0.17166684248E+03  0.17120000000E+03 0.  0.
        998    1    1    2    0    0 -0.11442887302E+01 -0.15657664311E+02  0.14366377313E+04  0.14367583105E+04  0.10000000000E+02 0. -1.
</event>
<event>
 5    1  0.1294251E-008  0.3702584E+03  0.7957747E-01  0.3494704E+00
         13   -1    0    0    0    0  0.00000000000E+00  0.00000000000E+00  0.14999999963E+04  0.15000000000E+04  0.10566000000E+00 0.  1.
        994   -1    0    0    0    0 -0.00000000000E+00 -0.00000000000E+00  0.11368683772E-12  0.17120000000E+03  0.17120000000E+03 0.  0.
         13    1    1    2    0    0 -0.10834523185E+02 -0.32436102196E+02  0.47407704068E+02  0.58455018496E+02  0.10566000000E+00 0.  1.
        994    1    1    2    0    0  0.25777181086E+01  0.32765107312E+02  0.14864672592E+02  0.17495883910E+03  0.17120000000E+03 0.  0.
        998    1    1    2    0    0  0.82568050763E+01 -0.32900511596E+00  0.14377276196E+04  0.14377861424E+04  0.10000000000E+02 0.  1.
</event>
<event>
 5    1  0.1294251E-008  0.3751046E+03  0.7957747E-01  0.3472755E+00
         13   -1    0    0    0    0  0.00000000000E+00  0.00000000000E+00  0.14999999963E+04  0.15000000000E+04  0.10566000000E+00 0.  1.
        994   -1    0    0    0    0 -0.00000000000E+00 -0.00000000000E+00  0.11368683772E-12  0.17120000000E+03  0.17120000000E+03 0.  0.
         13    1    1    2    0    0 -0.82638003063E+00  0.16419665445E+02  0.17262829288E+02  0.23839143364E+02  0.10566000000E+00 0.  1.
        994    1    1    2    0    0  0.66932751760E+00 -0.18099282576E+02  0.77404709095E+01  0.17232929791E+03  0.17120000000E+03 0.  0.
        998    1    1    2    0    0  0.15705251303E+00  0.16796171309E+01  0.14749966961E+04  0.14750315587E+04  0.10000000000E+02 0.  1.
</event>
<event>
 5    1  0.1294251E-008  0.3846077E+03  0.7957747E-01  0.3431338E+00
         13   -1    0    0    0    0  0.00000000000E+00  0.00000000000E+00  0.14999999963E+04  0.15000000000E+04  0.10566000000E+00 0.  1.
        994   -1    0    0    0    0 -0.00000000000E+00 -0.00000000000E+00  0.11368683772E-12  0.17120000000E+03  0.17120000000E+03 0.  0.
         13    1    1    2    0    0 -0.58398290353E+01 -0.19300946688E+02  0.10365378726E+03  0.10559710660E+03  0.10566000000E+00 0.  1.
        994    1    1    2    0    0 -0.31438575442E+01  0.24228228244E+02  0.37929745993E+01  0.17297606060E+03  0.17120000000E+03 0.  0.
        998    1    1    2    0    0  0.89836865795E+01 -0.49272815562E+01  0.13925532344E+04  0.13926268328E+04  0.10000000000E+02 0.  1.
</event>
<event>
 5    1  0.1294251E-008  0.3839574E+03  0.7957747E-01  0.3434106E+00
         13   -1    0    0    0    0  0.00000000000E+00  0.00000000000E+00  0.14999999963E+04  0.15000000000E+04  0.10566000000E+00 0.  1.
        994   -1    0    0    0    0 -0.00000000000E+00 -0.00000000000E+00  0.11368683772E-12  0.17120000000E+03  0.17120000000E+03 0.  0.
         13    1    1    2    0    0 -0.92182697760E+01 -0.24110489229E+02  0.14186823746E+03  0.14419743462E+03  0.10566000000E+00 0.  1.
        994    1    1    2    0    0  0.31058445931E+01  0.26860694019E+02  0.45650289987E+01  0.17338230199E+03  0.17120000000E+03 0.  0.
        998    1    1    2    0    0  0.61124251829E+01 -0.27502047904E+01  0.13535667298E+04  0.13536202634E+04  0.10000000000E+02 0.  1.
</event>
<event>
 5    1  0.1294251E-008  0.3799427E+03  0.7957747E-01  0.3451408E+00
         13   -1    0    0    0    0  0.00000000000E+00  0.00000000000E+00  0.14999999963E+04  0.15000000000E+04  0.10566000000E+00 0. -1.
        994   -1    0    0    0    0 -0.00000000000E+00 -0.00000000000E+00  0.11368683772E-12  0.17120000000E+03  0.17120000000E+03 0.  0.
         13    1    1    2    0    0 -0.33964481164E+01 -0.15382616266E+02  0.28266917080E+02  0.32360323055E+02  0.10566000000E+00 0. -1.
        994    1    1    2    0    0  0.86214246566E+00  0.93858282886E+01  0.44591541351E+01  0.17151723271E+03  0.17120000000E+03 0.  0.
        998    1    1    2    0    0  0.25343056507E+01  0.59967879777E+01  0.14672739251E+04  0.14673224442E+04  0.10000000000E+02 0. -1.
</event>
<event>
 5    1  0.1294251E-008  0.3810849E+03  0.7957747E-01  0.3446448E+00
         13   -1    0    0    0    0  0.00000000000E+00  0.00000000000E+00  0.14999999963E+04  0.15000000000E+04  0.10566000000E+00 0. -1.
        994   -1    0    0    0    0 -0.00000000000E+00 -0.00000000000E+00  0.11368683772E-12  0.17120000000E+03  0.17120000000E+03 0.  0.
         13    1    1    2    0    0 -0.16531617481E+02 -0.36759321122E+01  0.38468421539E+02  0.42031386762E+02  0.10566000000E+00 0. -1.
        994    1    1    2    0    0  0.14459923982E+02 -0.66845873336E+01  0.44322611214E+01  0.17199668034E+03  0.17120000000E+03 0.  0.
        998    1    1    2    0    0  0.20716934993E+01  0.10360519446E+02  0.14570993136E+04  0.14571719329E+04  0.10000000000E+02 0. -1.
</event>
<event>
 5    1  0.1294251E-008  0.3811706E+03  0.7957747E-01  0.3446077E+00
         13   -1    0    0    0    0  0.00000000000E+00  0.00000000000E+00  0.14999999963E+04  0.15000000000E+04  0.10566000000E+00 0.  1.
        994   -1    0    0    0    0 -0.00000000000E+00 -0.00000000000E+00  0.11368683772E-12  0.17120000000E+03  0.17120000000E+03 0.  0.
         13    1    1    2    0    0  0.11652655161E+02  0.17922169160E+02  0.60367849884E+02  0.64041213163E+02  0.10566000000E+00 0.  1.
        994    1    1    2    0    0 -0.43047752247E+01 -0.26475155525E+02  0.59429536401E+01  0.17339037934E+03  0.17120000000E+03 0.  0.
        998    1    1    2    0    0 -0.73478799363E+01  0.85529863650E+01  0.14336891928E+04  0.14337684075E+04  0.10000000000E+02 0.  1.
</event>
<event>
 5    1  0.1294251E-008  0.3830665E+03  0.7957747E-01  0.3437914E+00
         13   -1    0    0    0    0  0.00000000000E+00  0.00000000000E+00  0.14999999963E+04  0.15000000000E+04  0.10566000000E+00 0.  1.
        994   -1    0    0    0    0 -0.00000000000E+00 -0.00000000000E+00  0.11368683772E-12  0.17120000000E+03  0.17120000000E+03 0.  0.
         13    1    1    2    0    0  0.12871778231E+01 -0.15191290452E+02  0.43279478715E+02  0.45886344093E+02  0.10566000000E+00 0.  1.
        994    1    1    2    0    0 -0.18715177585E+01  0.14069272691E+02  0.32600742641E+01  0.17181826183E+03  0.17120000000E+03 0.  0.
        998    1    1    2    0    0  0.58433993544E+00  0.11220177614E+01  0.14534604433E+04  0.14534953941E+04  0.10000000000E+02 0.  1.
</event>
<event>
 5    1  0.1294251E-008  0.3794638E+03  0.7957747E-01  0.3453497E+00
         13   -1    0    0    0    0  0.00000000000E+00  0.00000000000E+00  0.14999999963E+04  0.15000000000E+04  0.10566000000E+00 0. -1.
        994   -1    0    0    0    0 -0.00000000000E+00 -0.00000000000E+00  0.11368683772E-12  0.17120000000E+03  0.17120000000E+03 0.  0.
         13    1    1    2    0    0  0.15290706590E+02  0.21878299004E+02  0.86354590597E+02  0.90385796210E+02  0.10566000000E+00 0. -1.
        994    1    1    2    0    0  0.57065331300E+01 -0.22134400365E+01  0.45295552575E+01  0.17136925252E+03  0.17120000000E+03 0.  0.
        998    1    1    2    0    0 -0.20997239720E+02 -0.19664858967E+02  0.14091158504E+04  0.14094449513E+04  0.10000000000E+02 0. -1.
</event>
<event>
 5    1  0.1294251E-008  0.3813416E+03  0.7957747E-01  0.3445338E+00
         13   -1    0    0    0    0  0.00000000000E+00  0.00000000000E+00  0.14999999963E+04  0.15000000000E+04  0.10566000000E+00 0.  1.
        994   -1    0    0    0    0 -0.00000000000E+00 -0.00000000000E+00  0.11368683772E-12  0.17120000000E+03  0.17120000000E+03 0.  0.
         13    1    1    2    0    0  0.19762075342E+03  0.46626521908E+02  0.99985962397E+03  0.10202682361E+04  0.10566000000E+00 0.  1.
        994    1    1    2    0    0 -0.20490871644E+03 -0.64147736730E+02  0.17619482375E+03  0.32627683049E+03  0.17120000000E+03 0.  0.
        998    1    1    2    0    0  0.72879630142E+01  0.17521214822E+02  0.32394554856E+03  0.32465493343E+03  0.10000000000E+02 0.  1.
</event>
<event>
 5    1  0.1294251E-008  0.3218978E+03  0.7957747E-01  0.3751113E+00
         13   -1    0    0    0    0  0.00000000000E+00  0.00000000000E+00  0.14999999963E+04  0.15000000000E+04  0.10566000000E+00 0. -1.
        994   -1    0    0    0    0 -0.00000000000E+00 -0.00000000000E+00  0.11368683772E-12  0.17120000000E+03  0.17120000000E+03 0.  0.
         13    1    1    2    0    0  0.12519989118E+03  0.16374169568E+03  0.77905316917E+03  0.80585991785E+03  0.10566000000E+00 0. -1.
        994    1    1    2    0    0 -0.13146848183E+03 -0.15200532840E+03  0.16970101399E+03  0.31384304314E+03  0.17120000000E+03 0.  0.
        998    1    1    2    0    0  0.62685906473E+01 -0.11736367272E+02  0.55124581313E+03  0.55149703901E+03  0.10000000000E+02 0.  0.
</event>
<event>
 5    1  0.1294251E-008  0.3848852E+03  0.7957747E-01  0.3430159E+00
         13   -1    0    0    0    0  0.00000000000E+00  0.00000000000E+00  0.14999999963E+04  0.15000000000E+04  0.10566000000E+00 0. -1.
        994   -1    0    0    0    0 -0.00000000000E+00 -0.00000000000E+00  0.11368683772E-12  0.17120000000E+03  0.17120000000E+03 0.  0.
         13    1    1    2    0    0 -0.10932577960E+02 -0.15050616072E+02  0.10249285555E+03  0.10416736009E+03  0.10566000000E+00 0. -1.
        994    1    1    2    0    0  0.89252501707E+01  0.82215085297E+01  0.21717521658E+01  0.17164326320E+03  0.17120000000E+03 0.  0.
        998    1    1    2    0    0  0.20073277895E+01  0.68291075420E+01  0.13953353886E+04  0.13953893767E+04  0.10000000000E+02 0. -1.
</event>
<event>
 5    1  0.1294251E-008  0.3779084E+03  0.7957747E-01  0.3460317E+00
         13   -1    0    0    0    0  0.00000000000E+00  0.00000000000E+00  0.14999999963E+04  0.15000000000E+04  0.10566000000E+00 0. -1.
        994   -1    0    0    0    0 -0.00000000000E+00 -0.00000000000E+00  0.11368683772E-12  0.17120000000E+03  0.17120000000E+03 0.  0.
         13    1    1    2    0    0  0.18404755434E+02 -0.37514804783E+02  0.18851227463E+03  0.19308802255E+03  0.10566000000E+00 0. -1.
        994    1    1    2    0    0 -0.25286613446E+02 -0.56293250537E+01  0.74550523682E+01  0.17330931864E+03  0.17120000000E+03 0.  0.
        998    1    1    2    0    0  0.68818580121E+01  0.43144129836E+02  0.13040326693E+04  0.13048026588E+04  0.10000000000E+02 0. -1.
</event>
<event>
 5    1  0.1294251E-008  0.3845182E+03  0.7957747E-01  0.3431718E+00
         13   -1    0    0    0    0  0.00000000000E+00  0.00000000000E+00  0.14999999963E+04  0.15000000000E+04  0.10566000000E+00 0.  1.
        994   -1    0    0    0    0 -0.00000000000E+00 -0.00000000000E+00  0.11368683772E-12  0.17120000000E+03  0.17120000000E+03 0.  0.
         13    1    1    2    0    0 -0.15663566673E+02  0.93638049367E+01  0.10200545800E+03  0.10362505869E+03  0.10566000000E+00 0.  1.
        994    1    1    2    0    0 -0.12847225409E+02 -0.96870605773E+01  0.27227212109E+01  0.17197599703E+03  0.17120000000E+03 0.  0.
        998    1    1    2    0    0  0.28510792082E+02  0.32325564060E+00  0.13952718171E+04  0.13955989443E+04  0.10000000000E+02 0.  1.
</event>
<event>
 5    1  0.1294251E-008  0.3757017E+03  0.7957747E-01  0.3470090E+00
         13   -1    0    0    0    0  0.00000000000E+00  0.00000000000E+00  0.14999999963E+04  0.15000000000E+04  0.10566000000E+00 0.  1.
        994   -1    0    0    0    0 -0.00000000000E+00 -0.00000000000E+00  0.11368683772E-12  0.17120000000E+03  0.17120000000E+03 0.  0.
         13    1    1    2    0    0 -0.16096849073E+02 -0.14060470384E+02  0.32973198648E+02  0.39294380904E+02  0.10566000000E+00 0.  1.
        994    1    1    2    0    0  0.14704808570E+02  0.15073677889E+02  0.78240681576E+01  0.17266760901E+03  0.17120000000E+03 0.  0.
        998    1    1    2    0    0  0.13920405030E+01 -0.10132075050E+01  0.14592027295E+04  0.14592380101E+04  0.10000000000E+02 0.  1.
</event>
<event>
 5    1  0.1294251E-008  0.3851949E+03  0.7957747E-01  0.3428846E+00
         13   -1    0    0    0    0  0.00000000000E+00  0.00000000000E+00  0.14999999963E+04  0.15000000000E+04  0.10566000000E+00 0. -1.
        994   -1    0    0    0    0 -0.00000000000E+00 -0.00000000000E+00  0.11368683772E-12  0.17120000000E+03  0.17120000000E+03 0.  0.
         13    1    1    2    0    0 -0.10113256790E+02 -0.11637339511E+02  0.79142421027E+02  0.80630264813E+02  0.10566000000E+00 0. -1.
        994    1    1    2    0    0  0.88587379800E+01  0.22482294245E+01  0.18080085053E+01  0.17145331921E+03  0.17120000000E+03 0.  0.
        998    1    1    2    0    0  0.12545188097E+01  0.93891100864E+01  0.14190495667E+04  0.14191164160E+04  0.10000000000E+02 0. -1.
</event>
<event>
 5    1  0.1294251E-008  0.3755927E+03  0.7957747E-01  0.3470576E+00
         13   -1    0    0    0    0  0.00000000000E+00  0.00000000000E+00  0.14999999963E+04  0.15000000000E+04  0.10566000000E+00 0. -1.
        994   -1    0    0    0    0 -0.00000000000E+00 -0.00000000000E+00  0.11368683772E-12  0.17120000000E+03  0.17120000000E+03 0.  0.
         13    1    1    2    0    0 -0.12180405067E+03  0.12414745530E+03  0.64001232629E+03  0.66322289344E+03  0.10566000000E+00 0. -1.
        994    1    1    2    0    0  0.13480875049E+03 -0.17163341614E+03  0.19024796052E+03  0.33635569748E+03  0.17120000000E+03 0.  0.
        998    1    1    2    0    0 -0.13004699822E+02  0.47485960839E+02  0.66973970947E+03  0.67162140908E+03  0.10000000000E+02 0. -1.
</event>
<event>
 5    1  0.1294251E-008  0.3827429E+03  0.7957747E-01  0.3439302E+00
         13   -1    0    0    0    0  0.00000000000E+00  0.00000000000E+00  0.14999999963E+04  0.15000000000E+04  0.10566000000E+00 0.  1.
        994   -1    0    0    0    0 -0.00000000000E+00 -0.00000000000E+00  0.11368683772E-12  0.17120000000E+03  0.17120000000E+03 0.  0.
         13    1    1    2    0    0 -0.33000924296E-01 -0.36203879152E+02  0.21047635282E+03  0.21356738566E+03  0.10566000000E+00 0.  1.
        994    1    1    2    0    0 -0.39331478139E+01  0.34269991508E+02  0.67069419817E+01  0.17476934811E+03  0.17120000000E+03 0.  0.
        998    1    1    2    0    0  0.39661487382E+01  0.19338876446E+01  0.12828167015E+04  0.12828632662E+04  0.10000000000E+02 0.  0.
</event>
<event>
 5    1  0.1294251E-008  0.3821813E+03  0.7957747E-01  0.3441715E+00
         13   -1    0    0    0    0  0.00000000000E+00  0.00000000000E+00  0.14999999963E+04  0.15000000000E+04  0.10566000000E+00 0.  1.
        994   -1    0    0    0    0 -0.00000000000E+00 -0.00000000000E+00  0.11368683772E-12  0.17120000000E+03  0.17120000000E+03 0.  0.
         13    1    1    2    0    0 -0.51325170022E+01  0.12467911292E+02  0.28881000296E+02  0.31873419724E+02  0.10566000000E+00 0.  1.
        994    1    1    2    0    0  0.46910373690E+01 -0.74027971107E+01  0.32910463512E+01  0.17145576171E+03  0.17120000000E+03 0.  0.
        998    1    1    2    0    0  0.44147963324E+00 -0.50651141810E+01  0.14678279496E+04  0.14678708186E+04  0.10000000000E+02 0.  1.
</event>
<event>
 5    1  0.1294251E-008  0.3853932E+03  0.7957747E-01  0.3428006E+00
         13   -1    0    0    0    0  0.00000000000E+00  0.00000000000E+00  0.14999999963E+04  0.15000000000E+04  0.10566000000E+00 0.  1.
        994   -1    0    0    0    0 -0.00000000000E+00 -0.00000000000E+00  0.11368683772E-12  0.17120000000E+03  0.17120000000E+03 0.  0.
         13    1    1    2    0    0  0.33084579633E+00  0.10078350106E+02  0.33795093940E+02  0.35267579137E+02  0.10566000000E+00 0.  1.
        994    1    1    2    0    0  0.17330470449E+01 -0.16570748194E+02  0.23473219125E+01  0.17202483271E+03  0.17120000000E+03 0.  0.
        998    1    1    2    0    0 -0.20638928413E+01  0.64923980887E+01  0.14638575804E+04  0.14639075882E+04  0.10000000000E+02 0.  1.
</event>
<event>
 5    1  0.1294251E-008  0.3780314E+03  0.7957747E-01  0.3459775E+00
         13   -1    0    0    0    0  0.00000000000E+00  0.00000000000E+00  0.14999999963E+04  0.15000000000E+04  0.10566000000E+00 0. -1.
        994   -1    0    0    0    0 -0.00000000000E+00 -0.00000000000E+00  0.11368683772E-12  0.17120000000E+03  0.17120000000E+03 0.  0.
         13    1    1    2    0    0 -0.22924861577E+02 -0.11167900974E+02  0.60045612410E+02  0.65236171134E+02  0.10566000000E+00 0. -1.
        994    1    1    2    0    0  0.19366071192E+02  0.11696755598E+02  0.68543837491E+01  0.17282442357E+03  0.17120000000E+03 0.  0.
        998    1    1    2    0    0  0.35587903851E+01 -0.52885462429E+00  0.14331000001E+04  0.14331394053E+04  0.10000000000E+02 0. -1.
</event>
<event>
 5    1  0.1294251E-008  0.3813694E+03  0.7957747E-01  0.3445218E+00
         13   -1    0    0    0    0  0.00000000000E+00  0.00000000000E+00  0.14999999963E+04  0.15000000000E+04  0.10566000000E+00 0. -1.
        994   -1    0    0    0    0 -0.00000000000E+00 -0.00000000000E+00  0.11368683772E-12  0.17120000000E+03  0.17120000000E+03 0.  0.
         13    1    1    2    0    0 -0.49211887384E+01  0.32060421429E+02  0.14676375067E+03  0.15030535052E+03  0.10566000000E+00 0. -1.
        994    1    1    2    0    0  0.25147663450E+02 -0.21020289073E+02  0.70267084242E+01  0.17445077289E+03  0.17120000000E+03 0.  0.
        998    1    1    2    0    0 -0.20226474712E+02 -0.11040132356E+02  0.13462095372E+04  0.13464438766E+04  0.10000000000E+02 0. -1.
</event>
<event>
 5    1  0.1294251E-008  0.3910015E+03  0.7957747E-01  0.3404611E+00
         13   -1    0    0    0    0  0.00000000000E+00  0.00000000000E+00  0.14999999963E+04  0.15000000000E+04  0.10566000000E+00 0. -1.
        994   -1    0    0    0    0 -0.00000000000E+00 -0.00000000000E+00  0.11368683772E-12  0.17120000000E+03  0.17120000000E+03 0.  0.
         13    1    1    2    0    0 -0.64560285183E+02 -0.22581936206E+02  0.90941449309E+02  0.11379074054E+03  0.10566000000E+00 0. -1.
        994    1    1    2    0    0  0.67103006449E+02  0.16278271493E+02  0.40746360164E+02  0.18904364963E+03  0.17120000000E+03 0.  0.
        998    1    1    2    0    0 -0.25427212658E+01  0.63036647131E+01  0.13683121868E+04  0.13683656098E+04  0.10000000000E+02 0. -1.
</event>
<event>
 5    1  0.1294251E-008  0.3793726E+03  0.7957747E-01  0.3453895E+00
         13   -1    0    0    0    0  0.00000000000E+00  0.00000000000E+00  0.14999999963E+04  0.15000000000E+04  0.10566000000E+00 0.  1.
        994   -1    0    0    0    0 -0.00000000000E+00 -0.00000000000E+00  0.11368683772E-12  0.17120000000E+03  0.17120000000E+03 0.  0.
         13    1    1    2    0    0  0.87635423826E+01  0.52334749970E+01  0.97054725723E+01  0.14085322060E+02  0.10566000000E+00 0.  1.
        994    1    1    2    0    0 -0.62391393786E+01 -0.53772928564E+01  0.46774886299E+01  0.17146183552E+03  0.17120000000E+03 0.  0.
        998    1    1    2    0    0 -0.25244030040E+01  0.14381785931E+00  0.14856170351E+04  0.14856528424E+04  0.10000000000E+02 0.  1.
</event>
<event>
 5    1  0.1294251E-008  0.3709950E+03  0.7957747E-01  0.3491330E+00
         13   -1    0    0    0    0  0.00000000000E+00  0.00000000000E+00  0.14999999963E+04  0.15000000000E+04  0.10566000000E+00 0.  1.
        994   -1    0    0    0    0 -0.00000000000E+00 -0.00000000000E+00  0.11368683772E-12  0.17120000000E+03  0.17120000000E+03 0.  0.
         13    1    1    2    0    0  0.12857528901E+02 -0.15801544721E+02  0.13820670397E+02  0.24617614817E+02  0.10566000000E+00 0.  1.
        994    1    1    2    0    0  0.45179729460E+01 -0.67976966740E+01  0.11699701842E+02  0.17179331705E+03  0.17120000000E+03 0.  0.
        998    1    1    2    0    0 -0.17375501847E+02  0.22599241395E+02  0.14744796240E+04  0.14747890681E+04  0.10000000000E+02 0.  1.
</event>
<event>
 5    1  0.1294251E-008  0.3729515E+03  0.7957747E-01  0.3482435E+00
         13   -1    0    0    0    0  0.00000000000E+00  0.00000000000E+00  0.14999999963E+04  0.15000000000E+04  0.10566000000E+00 0.  1.
        994   -1    0    0    0    0 -0.00000000000E+00 -0.00000000000E+00  0.11368683772E-12  0.17120000000E+03  0.17120000000E+03 0.  0.
         13    1    1    2    0    0  0.35812211828E+02 -0.15549553814E+01  0.46195317457E+02  0.58471795947E+02  0.10566000000E+00 0.  1.
        994    1    1    2    0    0 -0.28053750999E+02 -0.40506533089E+01  0.15351358667E+02  0.17420828037E+03  0.17120000000E+03 0.  0.
        998    1    1    2    0    0 -0.77584608291E+01  0.56056086903E+01  0.14384533202E+04  0.14385199237E+04  0.10000000000E+02 0.  1.
</event>
<event>
 5    1  0.1294251E-008  0.3694472E+03  0.7957747E-01  0.3498435E+00
         13   -1    0    0    0    0  0.00000000000E+00  0.00000000000E+00  0.14999999963E+04  0.15000000000E+04  0.10566000000E+00 0.  1.
        994   -1    0    0    0    0 -0.00000000000E+00 -0.00000000000E+00  0.11368683772E-12  0.17120000000E+03  0.17120000000E+03 0.  0.
         13    1    1    2    0    0 -0.27953284171E+02  0.73599458195E+00  0.31428591432E+02  0.42067746641E+02  0.10566000000E+00 0.  1.
        994    1    1    2    0    0  0.31825506179E+02  0.23286498609E+00  0.14189321599E+02  0.17471031428E+03  0.17120000000E+03 0.  0.
        998    1    1    2    0    0 -0.38722220081E+01 -0.96885956803E+00  0.14543820832E+04  0.14544219391E+04  0.10000000000E+02 0.  1.
</event>
<event>
 5    1  0.1294251E-008  0.3769507E+03  0.7957747E-01  0.3464544E+00
         13   -1    0    0    0    0  0.00000000000E+00  0.00000000000E+00  0.14999999963E+04  0.15000000000E+04  0.10566000000E+00 0. -1.
        994   -1    0    0    0    0 -0.00000000000E+00 -0.00000000000E+00  0.11368683772E-12  0.17120000000E+03  0.17120000000E+03 0.  0.
         13    1    1    2    0    0 -0.33635597594E+02 -0.62932070738E+02  0.33853229221E+03  0.34597098576E+03  0.10566000000E+00 0. -1.
        994    1    1    2    0    0  0.27869847749E+02  0.68713593619E+02  0.24479369937E+02  0.18816738802E+03  0.17120000000E+03 0.  0.
        998    1    1    2    0    0  0.57657498451E+01 -0.57815228813E+01  0.11369883341E+04  0.11370616262E+04  0.10000000000E+02 0. -1.
</event>
<event>
 5    1  0.1294251E-008  0.3706829E+03  0.7957747E-01  0.3492758E+00
         13   -1    0    0    0    0  0.00000000000E+00  0.00000000000E+00  0.14999999963E+04  0.15000000000E+04  0.10566000000E+00 0. -1.
        994   -1    0    0    0    0 -0.00000000000E+00 -0.00000000000E+00  0.11368683772E-12  0.17120000000E+03  0.17120000000E+03 0.  0.
         13    1    1    2    0    0  0.94361726627E+01  0.21355058454E+02  0.26725418175E+02  0.35487166931E+02  0.10566000000E+00 0. -1.
        994    1    1    2    0    0 -0.13183405105E+02 -0.14513201676E+02  0.10239798982E+02  0.17262308269E+03  0.17120000000E+03 0.  0.
        998    1    1    2    0    0  0.37472324419E+01 -0.68418567789E+01  0.14630347791E+04  0.14630897504E+04  0.10000000000E+02 0. -1.
</event>
<event>
 5    1  0.1294251E-008  0.3741449E+03  0.7957747E-01  0.3477056E+00
         13   -1    0    0    0    0  0.00000000000E+00  0.00000000000E+00  0.14999999963E+04  0.15000000000E+04  0.10566000000E+00 0. -1.
        994   -1    0    0    0    0 -0.00000000000E+00 -0.00000000000E+00  0.11368683772E-12  0.17120000000E+03  0.17120000000E+03 0.  0.
         13    1    1    2    0    0  0.43128556525E+02  0.13647941963E+01  0.15350424309E+03  0.15945375149E+03  0.10566000000E+00 0. -1.
        994    1    1    2    0    0  0.89544510379E+01 -0.14508224909E+01  0.73990425328E+01  0.17159974624E+03  0.17120000000E+03 0.  0.
        998    1    1    2    0    0 -0.52083007563E+02  0.86028294588E-01  0.13390967107E+04  0.13401465023E+04  0.10000000000E+02 0. -1.
</event>
<event>
 5    1  0.1294251E-008  0.3756085E+03  0.7957747E-01  0.3470506E+00
         13   -1    0    0    0    0  0.00000000000E+00  0.00000000000E+00  0.14999999963E+04  0.15000000000E+04  0.10566000000E+00 0.  1.
        994   -1    0    0    0    0 -0.00000000000E+00 -0.00000000000E+00  0.11368683772E-12  0.17120000000E+03  0.17120000000E+03 0.  0.
         13    1    1    2    0    0  0.19984631530E+02 -0.49076318504E+02  0.91922837565E+02  0.10610226089E+03  0.10566000000E+00 0.  1.
        994    1    1    2    0    0 -0.21449624017E+02  0.43327022615E+02  0.22318058347E+02  0.17928985746E+03  0.17120000000E+03 0.  0.
        998    1    1    2    0    0  0.14649924867E+01  0.57492958889E+01  0.13857591004E+04  0.13858078817E+04  0.10000000000E+02 0.  1.
</event>
<event>
 5    1  0.1294251E-008  0.3685190E+03  0.7957747E-01  0.3502725E+00
         13   -1    0    0    0    0  0.00000000000E+00  0.00000000000E+00  0.14999999963E+04  0.15000000000E+04  0.10566000000E+00 0.  1.
        994   -1    0    0    0    0 -0.00000000000E+00 -0.00000000000E+00  0.11368683772E-12  0.17120000000E+03  0.17120000000E+03 0.  0.
         13    1    1    2    0    0  0.32038634126E+02  0.89814676953E+02  0.45583519170E+03  0.46570256971E+03  0.10566000000E+00 0.  1.
        994    1    1    2    0    0  0.16399077268E+02 -0.65025766523E+02  0.25842302735E+02  0.18567322009E+03  0.17120000000E+03 0.  0.
        998    1    1    2    0    0 -0.48437711395E+02 -0.24788910430E+02  0.10183225018E+04  0.10198242102E+04  0.10000000000E+02 0.  1.
</event>
<event>
 5    1  0.1294251E-008  0.3750845E+03  0.7957747E-01  0.3472845E+00
         13   -1    0    0    0    0  0.00000000000E+00  0.00000000000E+00  0.14999999963E+04  0.15000000000E+04  0.10566000000E+00 0. -1.
        994   -1    0    0    0    0 -0.00000000000E+00 -0.00000000000E+00  0.11368683772E-12  0.17120000000E+03  0.17120000000E+03 0.  0.
         13    1    1    2    0    0 -0.14121246286E+02 -0.30330311208E+01  0.12802687884E+02  0.19301006593E+02  0.10566000000E+00 0. -1.
        994    1    1    2    0    0  0.80866403341E+01  0.83787558515E+01  0.70962839537E+01  0.17174223286E+03  0.17120000000E+03 0.  0.
        998    1    1    2    0    0  0.60346059515E+01 -0.53457247306E+01  0.14801010244E+04  0.14801567605E+04  0.10000000000E+02 0. -1.
</event>
<event>
 5    1  0.1294251E-008  0.3777768E+03  0.7957747E-01  0.3460896E+00
         13   -1    0    0    0    0  0.00000000000E+00  0.00000000000E+00  0.14999999963E+04  0.15000000000E+04  0.10566000000E+00 0. -1.
        994   -1    0    0    0    0 -0.00000000000E+00 -0.00000000000E+00  0.11368683772E-12  0.17120000000E+03  0.17120000000E+03 0.  0.
         13    1    1    2    0    0  0.18263280670E+02 -0.67015007771E+02  0.35984518735E+03  0.36648755601E+03  0.10566000000E+00 0. -1.
        994    1    1    2    0    0 -0.28873302187E+02  0.60735637255E+02  0.20644391172E+02  0.18508948133E+03  0.17120000000E+03 0.  0.
        998    1    1    2    0    0  0.10610021517E+02  0.62793705160E+01  0.11195104178E+04  0.11196229627E+04  0.10000000000E+02 0.  1.
</event>
<event>
 5    1  0.1294251E-008  0.3835331E+03  0.7957747E-01  0.3435917E+00
         13   -1    0    0    0    0  0.00000000000E+00  0.00000000000E+00  0.14999999963E+04  0.15000000000E+04  0.10566000000E+00 0. -1.
        994   -1    0    0    0    0 -0.00000000000E+00 -0.00000000000E+00  0.11368683772E-12  0.17120000000E+03  0.17120000000E+03 0.  0.
         13    1    1    2    0    0 -0.14286091287E+02 -0.41103799999E+01  0.46579456417E+02  0.48894217983E+02  0.10566000000E+00 0. -1.
        994    1    1    2    0    0  0.73567544870E+01  0.33304824490E+01  0.25756850454E+01  0.17140970831E+03  0.17120000000E+03 0.  0.
        998    1    1    2    0    0  0.69293367999E+01  0.77989755094E+00  0.14508448548E+04  0.14508960737E+04  0.10000000000E+02 0. -1.
</event>
<event>
 5    1  0.1294251E-008  0.3692295E+03  0.7957747E-01  0.3499440E+00
         13   -1    0    0    0    0  0.00000000000E+00  0.00000000000E+00  0.14999999963E+04  0.15000000000E+04  0.10566000000E+00 0. -1.
        994   -1    0    0    0    0 -0.00000000000E+00 -0.00000000000E+00  0.11368683772E-12  0.17120000000E+03  0.17120000000E+03 0.  0.
         13    1    1    2    0    0  0.65217027133E+02 -0.52923988063E+02  0.32940065000E+03  0.33993971307E+03  0.10566000000E+00 0. -1.
        994    1    1    2    0    0 -0.57224052156E+02  0.28637858539E+02  0.24005476127E+02  0.18433779312E+03  0.17120000000E+03 0.  0.
        998    1    1    2    0    0 -0.79929749769E+01  0.24286129524E+02  0.11465938702E+04  0.11469224938E+04  0.10000000000E+02 0. -1.
</event>
<event>
 5    1  0.1294251E-008  0.3854661E+03  0.7957747E-01  0.3427698E+00
         13   -1    0    0    0    0  0.00000000000E+00  0.00000000000E+00  0.14999999963E+04  0.15000000000E+04  0.10566000000E+00 0. -1.
        994   -1    0    0    0    0 -0.00000000000E+00 -0.00000000000E+00  0.11368683772E-12  0.17120000000E+03  0.17120000000E+03 0.  0.
         13    1    1    2    0    0 -0.14145036594E+02  0.14364740503E+02  0.11730733110E+03  0.11902709324E+03  0.10566000000E+00 0. -1.
        994    1    1    2    0    0  0.22716160510E+02 -0.30070024547E+02  0.60764272799E+01  0.17540408574E+03  0.17120000000E+03 0.  0.
        998    1    1    2    0    0 -0.85711239161E+01  0.15705284044E+02  0.13766162379E+04  0.13767688210E+04  0.10000000000E+02 0.  1.
</event>
<event>
 5    1  0.1294251E-008  0.3727628E+03  0.7957747E-01  0.3483289E+00
         13   -1    0    0    0    0  0.00000000000E+00  0.00000000000E+00  0.14999999963E+04  0.15000000000E+04  0.10566000000E+00 0. -1.
        994   -1    0    0    0    0 -0.00000000000E+00 -0.00000000000E+00  0.11368683772E-12  0.17120000000E+03  0.17120000000E+03 0.  0.
         13    1    1    2    0    0  0.69154740555E+01  0.14057064250E+02  0.12052470898E+02  0.19766083464E+02  0.10566000000E+00 0. -1.
        994    1    1    2    0    0 -0.80245127317E+01 -0.14344118587E+02  0.87578618615E+01  0.17221000751E+03  0.17120000000E+03 0.  0.
        998    1    1    2    0    0  0.11090386762E+01  0.28705433707E+00  0.14791896635E+04  0.14792239090E+04  0.10000000000E+02 0. -1.
</event>
<event>
 5    1  0.1294251E-008  0.3773935E+03  0.7957747E-01  0.3462587E+00
         13   -1    0    0    0    0  0.00000000000E+00  0.00000000000E+00  0.14999999963E+04  0.15000000000E+04  0.10566000000E+00 0. -1.
        994   -1    0    0    0    0 -0.00000000000E+00 -0.00000000000E+00  0.11368683772E-12  0.17120000000E+03  0.17120000000E+03 0.  0.
         13    1    1    2    0    0 -0.39581859033E+02  0.33750416102E+02  0.23662625197E+03  0.24227630597E+03  0.10566000000E+00 0. -1.
        994    1    1    2    0    0  0.19147426116E+02 -0.32342866333E+02  0.10233071796E+02  0.17557574060E+03  0.17120000000E+03 0.  0.
        998    1    1    2    0    0  0.20434432917E+02 -0.14075497687E+01  0.12531406725E+04  0.12533479534E+04  0.10000000000E+02 0. -1.
</event>
<event>
 5    1  0.1294251E-008  0.3777325E+03  0.7957747E-01  0.3461092E+00
         13   -1    0    0    0    0  0.00000000000E+00  0.00000000000E+00  0.14999999963E+04  0.15000000000E+04  0.10566000000E+00 0.  1.
        994   -1    0    0    0    0 -0.00000000000E+00 -0.00000000000E+00  0.11368683772E-12  0.17120000000E+03  0.17120000000E+03 0.  0.
         13    1    1    2    0    0  0.10537875998E+02  0.33444331374E+01  0.92958530993E+01  0.14444933798E+02  0.10566000000E+00 0.  1.
        994    1    1    2    0    0 -0.99041399748E+00 -0.69805621795E+01  0.54496349935E+01  0.17143175811E+03  0.17120000000E+03 0.  0.
        998    1    1    2    0    0 -0.95474620002E+01  0.36361290421E+01  0.14852545082E+04  0.14853233081E+04  0.10000000000E+02 0.  1.
</event>
<event>
 5    1  0.1294251E-008  0.3791905E+03  0.7957747E-01  0.3454691E+00
         13   -1    0    0    0    0  0.00000000000E+00  0.00000000000E+00  0.14999999963E+04  0.15000000000E+04  0.10566000000E+00 0.  1.
        994   -1    0    0    0    0 -0.00000000000E+00 -0.00000000000E+00  0.11368683772E-12  0.17120000000E+03  0.17120000000E+03 0.  0.
         13    1    1    2    0    0 -0.16233279602E+02  0.18414991043E+02  0.71439778090E+02  0.75539951809E+02  0.10566000000E+00 0.  1.
        994    1    1    2    0    0 -0.16692731955E+02 -0.44538187399E+01  0.55434375173E+01  0.17215880315E+03  0.17120000000E+03 0.  0.
        998    1    1    2    0    0  0.32926011557E+02 -0.13961172303E+02  0.14230167807E+04  0.14235012450E+04  0.10000000000E+02 0.  1.
</event>
<event>
 5    1  0.1294251E-008  0.3795778E+03  0.7957747E-01  0.3452999E+00
         13   -1    0    0    0    0  0.00000000000E+00  0.00000000000E+00  0.14999999963E+04  0.15000000000E+04  0.10566000000E+00 0. -1.
        994   -1    0    0    0    0 -0.00000000000E+00 -0.00000000000E+00  0.11368683772E-12  0.17120000000E+03  0.17120000000E+03 0.  0.
         13    1    1    2    0    0 -0.60486644757E+01 -0.11932316873E+02  0.18733634293E+02  0.23020137831E+02  0.10566000000E+00 0. -1.
        994    1    1    2    0    0  0.16421097307E+01  0.10207861898E+02  0.47043643069E+01  0.17157642033E+03  0.17120000000E+03 0.  0.
        998    1    1    2    0    0  0.44065547450E+01  0.17244549750E+01  0.14765619977E+04  0.14766034418E+04  0.10000000000E+02 0. -1.
</event>
<event>
 5    1  0.1294251E-008  0.3705855E+03  0.7957747E-01  0.3493204E+00
         13   -1    0    0    0    0  0.00000000000E+00  0.00000000000E+00  0.14999999963E+04  0.15000000000E+04  0.10566000000E+00 0. -1.
        994   -1    0    0    0    0 -0.00000000000E+00 -0.00000000000E+00  0.11368683772E-12  0.17120000000E+03  0.17120000000E+03 0.  0.
         13    1    1    2    0    0  0.42897208406E+02  0.35786004125E+02  0.15433783079E+03  0.16413709440E+03  0.10566000000E+00 0. -1.
        994    1    1    2    0    0 -0.46480080470E+02 -0.31393077320E+02  0.19898393811E+02  0.18124930141E+03  0.17120000000E+03 0.  0.
        998    1    1    2    0    0  0.35828720638E+01 -0.43929268045E+01  0.13257637717E+04  0.13258136042E+04  0.10000000000E+02 0. -1.
</event>
<event>
 5    1  0.1294251E-008  0.3851330E+03  0.7957747E-01  0.3429108E+00
         13   -1    0    0    0    0  0.00000000000E+00  0.00000000000E+00  0.14999999963E+04  0.15000000000E+04  0.10566000000E+00 0.  1.
        994   -1    0    0    0    0 -0.00000000000E+00 -0.00000000000E+00  0.11368683772E-12  0.17120000000E+03  0.17120000000E+03 0.  0.
         13    1    1    2    0    0 -0.94636698398E+01  0.49892183121E+01  0.35965762837E+02  0.37523334163E+02  0.10566000000E+00 0.  1.
        994    1    1    2    0    0  0.93713587953E+01 -0.40479343853E+01  0.19067450623E+01  0.17151467522E+03  0.17120000000E+03 0.  0.
        998    1    1    2    0    0  0.92311044433E-01 -0.94128392680E+00  0.14621274884E+04  0.14621619906E+04  0.10000000000E+02 0.  1.
</event>
<event>
 5    1  0.1294251E-008  0.3749253E+03  0.7957747E-01  0.3473557E+00
         13   -1    0    0    0    0  0.00000000000E+00  0.00000000000E+00  0.14999999963E+04  0.15000000000E+04  0.10566000000E+00 0.  1.
        994   -1    0    0    0    0 -0.00000000000E+00 -0.00000000000E+00  0.11368683772E-12  0.17120000000E+03  0.17120000000E+03 0.  0.
         13    1    1    2    0    0 -0.98176346993E+01 -0.42585744964E+01  0.53989682396E+01  0.11986718897E+02  0.10566000000E+00 0.  1.
        994    1    1    2    0    0  0.69454265923E+01  0.94200054486E+01  0.71829371783E+01  0.17174984728E+03  0.17120000000E+03 0.  0.
        998    1    1    2    0    0  0.28722081070E+01 -0.51614309522E+01  0.14874180909E+04  0.14874634338E+04  0.10000000000E+02 0.  1.
</event>
<event>
 5    1  0.1294251E-008  0.3594496E+03  0.7957747E-01  0.3545830E+00
         13   -1    0    0    0    0  0.00000000000E+00  0.00000000000E+00  0.14999999963E+04  0.15000000000E+04  0.10566000000E+00 0.  1.
        994   -1    0    0    0    0 -0.00000000000E+00 -0.00000000000E+00  0.11368683772E-12  0.17120000000E+03  0.17120000000E+03 0.  0.
         13    1    1    2    0    0  0.19912699021E+03  0.54582374369E+01  0.12018321501E+04  0.12182289927E+04  0.10566000000E+00 0.  1.
        994    1    1    2    0    0 -0.15209585250E+03 -0.77630650616E+01  0.10169766021E+03  0.25068958419E+03  0.17120000000E+03 0.  0.
        998    1    1    2    0    0 -0.47031137707E+02  0.23048276246E+01  0.19647018598E+03  0.20228142308E+03  0.10000000000E+02 0.  1.
</event>
<event>
 5    1  0.1294251E-008  0.3782584E+03  0.7957747E-01  0.3458777E+00
         13   -1    0    0    0    0  0.00000000000E+00  0.00000000000E+00  0.14999999963E+04  0.15000000000E+04  0.10566000000E+00 0.  1.
        994   -1    0    0    0    0 -0.00000000000E+00 -0.00000000000E+00  0.11368683772E-12  0.17120000000E+03  0.17120000000E+03 0.  0.
         13    1    1    2    0    0 -0.14130189562E+02 -0.14161794081E+02  0.37240980716E+02  0.42274347746E+02  0.10566000000E+00 0.  1.
        994    1    1    2    0    0  0.11469870354E+02  0.15614478478E+02  0.62779893466E+01  0.17240714317E+03  0.17120000000E+03 0.  0.
        998    1    1    2    0    0  0.26603192079E+01 -0.14526843973E+01  0.14564810262E+04  0.14565185091E+04  0.10000000000E+02 0.  1.
</event>
<event>
 5    1  0.1294251E-008  0.3801510E+03  0.7957747E-01  0.3450501E+00
         13   -1    0    0    0    0  0.00000000000E+00  0.00000000000E+00  0.14999999963E+04  0.15000000000E+04  0.10566000000E+00 0. -1.
        994   -1    0    0    0    0 -0.00000000000E+00 -0.00000000000E+00  0.11368683772E-12  0.17120000000E+03  0.17120000000E+03 0.  0.
         13    1    1    2    0    0 -0.12084902285E+02 -0.35124397408E+02  0.20230026671E+03  0.20568222390E+03  0.10566000000E+00 0. -1.
        994    1    1    2    0    0  0.31406345223E+01 -0.30793479395E+01  0.41215972026E+01  0.17130608142E+03  0.17120000000E+03 0.  0.
        998    1    1    2    0    0  0.89442677627E+01  0.38203745347E+02  0.12935781324E+04  0.12942116947E+04  0.10000000000E+02 0. -1.
</event>
<event>
 5    1  0.1294251E-008  0.3795609E+03  0.7957747E-01  0.3453073E+00
         13   -1    0    0    0    0  0.00000000000E+00  0.00000000000E+00  0.14999999963E+04  0.15000000000E+04  0.10566000000E+00 0.  1.
        994   -1    0    0    0    0 -0.00000000000E+00 -0.00000000000E+00  0.11368683772E-12  0.17120000000E+03  0.17120000000E+03 0.  0.
         13    1    1    2    0    0 -0.57853910799E+02  0.11732057400E+02  0.33919376470E+03  0.34429222666E+03  0.10566000000E+00 0.  1.
        994    1    1    2    0    0  0.49820750254E+02 -0.78335774024E+01  0.12917437573E+02  0.17894069488E+03  0.17120000000E+03 0.  0.
        998    1    1    2    0    0  0.80331605444E+01 -0.38984799975E+01  0.11478887940E+04  0.11479670785E+04  0.10000000000E+02 0.  1.
</event>
<event>
 5    1  0.1642409E-008  0.3862814E+03  0.7957747E-01  0.3424256E+00
         13   -1    0    0    0    0  0.00000000000E+00  0.00000000000E+00  0.14999999963E+04  0.15000000000E+04  0.10566000000E+00 0. -1.
        994   -1    0    0    0    0 -0.00000000000E+00 -0.00000000000E+00  0.11368683772E-12  0.17120000000E+03  0.17120000000E+03 0.  0.
         13    1    1    2    0    0 -0.86511189514E+01  0.74409148174E+01  0.66581840840E+02  0.67552659209E+02  0.10566000000E+00 0. -1.
        994    1    1    2    0    0  0.17775295678E+01 -0.94921202632E+01  0.13007800173E+01  0.17147708881E+03  0.17120000000E+03 0.  0.
        998    1    1    2    0    0  0.68735893837E+01  0.20512054457E+01  0.14321173754E+04  0.14321702520E+04  0.10000000000E+02 0. -1.
</event>
<event>
 5    1  0.1294251E-008  0.3847224E+03  0.7957747E-01  0.3430850E+00
         13   -1    0    0    0    0  0.00000000000E+00  0.00000000000E+00  0.14999999963E+04  0.15000000000E+04  0.10566000000E+00 0. -1.
        994   -1    0    0    0    0 -0.00000000000E+00 -0.00000000000E+00  0.11368683772E-12  0.17120000000E+03  0.17120000000E+03 0.  0.
         13    1    1    2    0    0 -0.12228315446E+02  0.15930346484E+02  0.11617895078E+03  0.11790193979E+03  0.10566000000E+00 0. -1.
        994    1    1    2    0    0  0.91428798667E+01 -0.59189979947E+01  0.21585741392E+01  0.17155968708E+03  0.17120000000E+03 0.  0.
        998    1    1    2    0    0  0.30854355796E+01 -0.10011348489E+02  0.13816624714E+04  0.13817383731E+04  0.10000000000E+02 0. -1.
</event>
<event>
 5    1  0.1294251E-008  0.3777229E+03  0.7957747E-01  0.3461134E+00
         13   -1    0    0    0    0  0.00000000000E+00  0.00000000000E+00  0.14999999963E+04  0.15000000000E+04  0.10566000000E+00 0. -1.
        994   -1    0    0    0    0 -0.00000000000E+00 -0.00000000000E+00  0.11368683772E-12  0.17120000000E+03  0.17120000000E+03 0.  0.
         13    1    1    2    0    0 -0.96682199006E+01  0.96592193151E+01  0.15381889648E+02  0.20576410936E+02  0.10566000000E+00 0. -1.
        994    1    1    2    0    0  0.93619937463E+01 -0.36952540576E+01  0.56283161126E+01  0.17158793597E+03  0.17120000000E+03 0.  0.
        998    1    1    2    0    0  0.30622615428E+00 -0.59639652575E+01  0.14789897905E+04  0.14790356531E+04  0.10000000000E+02 0. -1.
</event>
<event>
 5    1  0.1294251E-008  0.3832362E+03  0.7957747E-01  0.3437187E+00
         13   -1    0    0    0    0  0.00000000000E+00  0.00000000000E+00  0.14999999963E+04  0.15000000000E+04  0.10566000000E+00 0. -1.
        994   -1    0    0    0    0 -0.00000000000E+00 -0.00000000000E+00  0.11368683772E-12  0.17120000000E+03  0.17120000000E+03 0.  0.
         13    1    1    2    0    0  0.91738774275E+01 -0.11496798145E+02  0.43394599139E+02  0.45819633271E+02  0.10566000000E+00 0. -1.
        994    1    1    2    0    0  0.25721537174E+01  0.76349672974E+01  0.27230922779E+01  0.17141109629E+03  0.17120000000E+03 0.  0.
        998    1    1    2    0    0 -0.11746031145E+02  0.38618308475E+01  0.14538823049E+04  0.14539692704E+04  0.10000000000E+02 0. -1.
</event>
<event>
 5    1  0.1294251E-008  0.3698356E+03  0.7957747E-01  0.3496647E+00
         13   -1    0    0    0    0  0.00000000000E+00  0.00000000000E+00  0.14999999963E+04  0.15000000000E+04  0.10566000000E+00 0.  1.
        994   -1    0    0    0    0 -0.00000000000E+00 -0.00000000000E+00  0.11368683772E-12  0.17120000000E+03  0.17120000000E+03 0.  0.
         13    1    1    2    0    0 -0.73347429766E+02 -0.33827367416E+02  0.37398092252E+03  0.38260407449E+03  0.10566000000E+00 0.  1.
        994    1    1    2    0    0  0.17740630920E+01  0.35970739184E+02  0.15397346077E+02  0.17562334595E+03  0.17120000000E+03 0.  0.
        998    1    1    2    0    0  0.71573366674E+02 -0.21433717686E+01  0.11106217277E+04  0.11129725796E+04  0.10000000000E+02 0.  1.
</event>
<event>
 5    1  0.1294251E-008  0.3850038E+03  0.7957747E-01  0.3429656E+00
         13   -1    0    0    0    0  0.00000000000E+00  0.00000000000E+00  0.14999999963E+04  0.15000000000E+04  0.10566000000E+00 0.  1.
        994   -1    0    0    0    0 -0.00000000000E+00 -0.00000000000E+00  0.11368683772E-12  0.17120000000E+03  0.17120000000E+03 0.  0.
         13    1    1    2    0    0 -0.95822248484E+01 -0.98050183466E+01  0.58014905456E+02  0.59612899920E+02  0.10566000000E+00 0.  1.
        994    1    1    2    0    0  0.71972181742E+01  0.44486060429E+01  0.18637330337E+01  0.17141908746E+03  0.17120000000E+03 0.  0.
        998    1    1    2    0    0  0.23850066742E+01  0.53564123036E+01  0.14401213578E+04  0.14401680126E+04  0.10000000000E+02 0.  0.
</event>
<event>
 5    1  0.1294251E-008  0.3759425E+03  0.7957747E-01  0.3469018E+00
         13   -1    0    0    0    0  0.00000000000E+00  0.00000000000E+00  0.14999999963E+04  0.15000000000E+04  0.10566000000E+00 0. -1.
        994   -1    0    0    0    0 -0.00000000000E+00 -0.00000000000E+00  0.11368683772E-12  0.17120000000E+03  0.17120000000E+03 0.  0.
         13    1    1    2    0    0 -0.11904226164E+02  0.45940305502E+02  0.18001508901E+03  0.18616569422E+03  0.10566000000E+00 0. -1.
        994    1    1    2    0    0  0.78920942142E+01 -0.26189605996E+02  0.87348429023E+01  0.17359123853E+03  0.17120000000E+03 0.  0.
        998    1    1    2    0    0  0.40121319496E+01 -0.19750699506E+02  0.13112500644E+04  0.13114430673E+04  0.10000000000E+02 0. -1.
</event>
<event>
 5    1  0.1294251E-008  0.3766215E+03  0.7957747E-01  0.3466002E+00
         13   -1    0    0    0    0  0.00000000000E+00  0.00000000000E+00  0.14999999963E+04  0.15000000000E+04  0.10566000000E+00 0.  1.
        994   -1    0    0    0    0 -0.00000000000E+00 -0.00000000000E+00  0.11368683772E-12  0.17120000000E+03  0.17120000000E+03 0.  0.
         13    1    1    2    0    0 -0.47208363113E+01 -0.94159796380E+02  0.34684677217E+03  0.35943156244E+03  0.10566000000E+00 0.  1.
        994    1    1    2    0    0 -0.14502132822E+01  0.33246244680E+02  0.18457648070E+02  0.17537827880E+03  0.17120000000E+03 0.  0.
        998    1    1    2    0    0  0.61710495935E+01  0.60913551700E+02  0.11346955760E+04  0.11363901588E+04  0.10000000000E+02 0.  1.
</event>
<event>
 5    1  0.1294251E-008  0.3841104E+03  0.7957747E-01  0.3433454E+00
         13   -1    0    0    0    0  0.00000000000E+00  0.00000000000E+00  0.14999999963E+04  0.15000000000E+04  0.10566000000E+00 0.  1.
        994   -1    0    0    0    0 -0.00000000000E+00 -0.00000000000E+00  0.11368683772E-12  0.17120000000E+03  0.17120000000E+03 0.  0.
         13    1    1    2    0    0  0.14870032917E+02 -0.17355076252E+02  0.13730305962E+03  0.13919216176E+03  0.10566000000E+00 0.  1.
        994    1    1    2    0    0  0.60606008240E+01  0.10052260109E+02  0.25270136822E+01  0.17162052504E+03  0.17120000000E+03 0.  0.
        998    1    1    2    0    0 -0.20930633741E+02  0.73028161426E+01  0.13601699230E+04  0.13603873132E+04  0.10000000000E+02 0.  1.
</event>
<event>
 5    1  0.1294251E-008  0.3838128E+03  0.7957747E-01  0.3434723E+00
         13   -1    0    0    0    0  0.00000000000E+00  0.00000000000E+00  0.14999999963E+04  0.15000000000E+04  0.10566000000E+00 0. -1.
        994   -1    0    0    0    0 -0.00000000000E+00 -0.00000000000E+00  0.11368683772E-12  0.17120000000E+03  0.17120000000E+03 0.  0.
         13    1    1    2    0    0 -0.18399210599E+02 -0.25682778295E+01  0.73973188343E+02  0.76270379305E+02  0.10566000000E+00 0. -1.
        994    1    1    2    0    0  0.19318331713E+02  0.13147881903E+01  0.34594273167E+01  0.17232624364E+03  0.17120000000E+03 0.  0.
        998    1    1    2    0    0 -0.91912111369E+00  0.12534896392E+01  0.14225673806E+04  0.14226033771E+04  0.10000000000E+02 0.  0.
</event>
<event>
 5    1  0.1294251E-008  0.3822297E+03  0.7957747E-01  0.3441507E+00
         13   -1    0    0    0    0  0.00000000000E+00  0.00000000000E+00  0.14999999963E+04  0.15000000000E+04  0.10566000000E+00 0. -1.
        994   -1    0    0    0    0 -0.00000000000E+00 -0.00000000000E+00  0.11368683772E-12  0.17120000000E+03  0.17120000000E+03 0.  0.
         13    1    1    2    0    0 -0.23069213744E+02  0.11793891346E+02  0.12416759461E+03  0.12684197732E+03  0.10566000000E+00 0. -1.
        994    1    1    2    0    0 -0.31771203220E+01 -0.27628491553E+01  0.30706721073E+01  0.17127929372E+03  0.17120000000E+03 0.  0.
        998    1    1    2    0    0  0.26246334066E+02 -0.90310421903E+01  0.13727617296E+04  0.13730787290E+04  0.10000000000E+02 0. -1.
</event>
<event>
 5    1  0.1294251E-008  0.3802952E+03  0.7957747E-01  0.3449874E+00
         13   -1    0    0    0    0  0.00000000000E+00  0.00000000000E+00  0.14999999963E+04  0.15000000000E+04  0.10566000000E+00 0. -1.
        994   -1    0    0    0    0 -0.00000000000E+00 -0.00000000000E+00  0.11368683772E-12  0.17120000000E+03  0.17120000000E+03 0.  0.
         13    1    1    2    0    0  0.20025643741E+02  0.16701687630E+02  0.69046491604E+02  0.73806516947E+02  0.10566000000E+00 0. -1.
        994    1    1    2    0    0 -0.47644161690E+02 -0.38568005274E+02  0.16636485003E+02  0.18260249124E+03  0.17120000000E+03 0.  0.
        998    1    1    2    0    0  0.27618517949E+02  0.21866317644E+02  0.14143170197E+04  0.14147909918E+04  0.10000000000E+02 0. -1.
</event>
<event>
 5    1  0.1294251E-008  0.3824231E+03  0.7957747E-01  0.3440675E+00
         13   -1    0    0    0    0  0.00000000000E+00  0.00000000000E+00  0.14999999963E+04  0.15000000000E+04  0.10566000000E+00 0.  1.
        994   -1    0    0    0    0 -0.00000000000E+00 -0.00000000000E+00  0.11368683772E-12  0.17120000000E+03  0.17120000000E+03 0.  0.
         13    1    1    2    0    0 -0.18910893480E+02  0.18942024584E+02  0.11127422934E+03  0.11444818682E+03  0.10566000000E+00 0.  1.
        994    1    1    2    0    0  0.18358041390E+02 -0.25462247000E+02  0.61895919768E+01  0.17416398811E+03  0.17120000000E+03 0.  0.
        998    1    1    2    0    0  0.55285209019E+00  0.65202224157E+01  0.13825361750E+04  0.13825878251E+04  0.10000000000E+02 0.  1.
</event>
<event>
 5    1  0.1294251E-008  0.3737217E+03  0.7957747E-01  0.3478960E+00
         13   -1    0    0    0    0  0.00000000000E+00  0.00000000000E+00  0.14999999963E+04  0.15000000000E+04  0.10566000000E+00 0.  1.
        994   -1    0    0    0    0 -0.00000000000E+00 -0.00000000000E+00  0.11368683772E-12  0.17120000000E+03  0.17120000000E+03 0.  0.
         13    1    1    2    0    0  0.24297136096E+02  0.91796585088E+01  0.19485220537E+02  0.32470015956E+02  0.10566000000E+00 0.  1.
        994    1    1    2    0    0 -0.42288666222E+02 -0.11198434496E+02  0.19730116144E+02  0.17779891369E+03  0.17120000000E+03 0.  0.
        998    1    1    2    0    0  0.17991530127E+02  0.20187759871E+01  0.14607846596E+04  0.14609310704E+04  0.10000000000E+02 0.  1.
</event>
<event>
 5    1  0.1294251E-008  0.3733695E+03  0.7957747E-01  0.3480547E+00
         13   -1    0    0    0    0  0.00000000000E+00  0.00000000000E+00  0.14999999963E+04  0.15000000000E+04  0.10566000000E+00 0. -1.
        994   -1    0    0    0    0 -0.00000000000E+00 -0.00000000000E+00  0.11368683772E-12  0.17120000000E+03  0.17120000000E+03 0.  0.
         13    1    1    2    0    0 -0.54317515915E+01 -0.68908670454E+02  0.26365288729E+03  0.27256332279E+03  0.10566000000E+00 0. -1.
        994    1    1    2    0    0 -0.73229780351E+01  0.68204901652E+02  0.23776763137E+02  0.18595781533E+03  0.17120000000E+03 0.  0.
        998    1    1    2    0    0  0.12754729627E+02  0.70376880220E+00  0.12125703459E+04  0.12126788619E+04  0.10000000000E+02 0. -1.
</event>
<event>
 5    1  0.1294251E-008  0.3769961E+03  0.7957747E-01  0.3464343E+00
         13   -1    0    0    0    0  0.00000000000E+00  0.00000000000E+00  0.14999999963E+04  0.15000000000E+04  0.10566000000E+00 0.  1.
        994   -1    0    0    0    0 -0.00000000000E+00 -0.00000000000E+00  0.11368683772E-12  0.17120000000E+03  0.17120000000E+03 0.  0.
         13    1    1    2    0    0 -0.53266251414E+02  0.19727676156E+03  0.99111328538E+03  0.10119589764E+04  0.10566000000E+00 0.  1.
        994    1    1    2    0    0  0.50949081527E+02 -0.19401832545E+03  0.15643998367E+03  0.30662978983E+03  0.17120000000E+03 0.  0.
        998    1    1    2    0    0  0.23171698866E+01 -0.32584361087E+01  0.35244672723E+03  0.35261123382E+03  0.10000000000E+02 0. -1.
</event>
<event>
 5    1  0.1294251E-008  0.3794812E+03  0.7957747E-01  0.3453421E+00
         13   -1    0    0    0    0  0.00000000000E+00  0.00000000000E+00  0.14999999963E+04  0.15000000000E+04  0.10566000000E+00 0. -1.
        994   -1    0    0    0    0 -0.00000000000E+00 -0.00000000000E+00  0.11368683772E-12  0.17120000000E+03  0.17120000000E+03 0.  0.
         13    1    1    2    0    0  0.35698309210E+02 -0.82411203745E+01  0.14413670452E+03  0.14872016036E+03  0.10566000000E+00 0. -1.
        994    1    1    2    0    0 -0.28642425828E+02  0.73291892701E+01  0.73278909183E+01  0.17388859525E+03  0.17120000000E+03 0.  0.
        998    1    1    2    0    0 -0.70558833826E+01  0.91193110443E+00  0.13485354008E+04  0.13485912444E+04  0.10000000000E+02 0. -1.
</event>
<event>
 5    1  0.1294251E-008  0.3819470E+03  0.7957747E-01  0.3442724E+00
         13   -1    0    0    0    0  0.00000000000E+00  0.00000000000E+00  0.14999999963E+04  0.15000000000E+04  0.10566000000E+00 0. -1.
        994   -1    0    0    0    0 -0.00000000000E+00 -0.00000000000E+00  0.11368683772E-12  0.17120000000E+03  0.17120000000E+03 0.  0.
         13    1    1    2    0    0 -0.49432591935E+01  0.37790735944E+02  0.22070347837E+03  0.22397011422E+03  0.10566000000E+00 0. -1.
        994    1    1    2    0    0  0.19990842066E+02 -0.24455694179E+02  0.64745595252E+01  0.17420985812E+03  0.17120000000E+03 0.  0.
        998    1    1    2    0    0 -0.15047582872E+02 -0.13335041765E+02  0.12728219584E+04  0.12730200277E+04  0.10000000000E+02 0. -1.
</event>
<event>
 5    1  0.1294251E-008  0.3808929E+03  0.7957747E-01  0.3447280E+00
         13   -1    0    0    0    0  0.00000000000E+00  0.00000000000E+00  0.14999999963E+04  0.15000000000E+04  0.10566000000E+00 0. -1.
        994   -1    0    0    0    0 -0.00000000000E+00 -0.00000000000E+00  0.11368683772E-12  0.17120000000E+03  0.17120000000E+03 0.  0.
         13    1    1    2    0    0  0.39643361744E+02 -0.61533034094E+02  0.41853849584E+03  0.42489103789E+03  0.10566000000E+00 0. -1.
        994    1    1    2    0    0 -0.43166854875E+02  0.81321618409E+02  0.32472669705E+02  0.19707992607E+03  0.17120000000E+03 0.  0.
        998    1    1    2    0    0  0.35234931309E+01 -0.19788584315E+02  0.10489888307E+04  0.10492290360E+04  0.10000000000E+02 0. -1.
</event>
<event>
 5    1  0.1294251E-008  0.3833247E+03  0.7957747E-01  0.3436809E+00
         13   -1    0    0    0    0  0.00000000000E+00  0.00000000000E+00  0.14999999963E+04  0.15000000000E+04  0.10566000000E+00 0.  1.
        994   -1    0    0    0    0 -0.00000000000E+00 -0.00000000000E+00  0.11368683772E-12  0.17120000000E+03  0.17120000000E+03 0.  0.
         13    1    1    2    0    0 -0.92785448724E+01 -0.79399975275E+01  0.29037559449E+02  0.31501205984E+02  0.10566000000E+00 0.  1.
        994    1    1    2    0    0  0.10512514558E+02  0.66314293574E+01  0.29751877262E+01  0.17167638323E+03  0.17120000000E+03 0.  0.
        998    1    1    2    0    0 -0.12339696860E+01  0.13085681701E+01  0.14679872491E+04  0.14680224108E+04  0.10000000000E+02 0.  1.
</event>
<event>
 5    1  0.1294251E-008  0.3839458E+03  0.7957747E-01  0.3434156E+00
         13   -1    0    0    0    0  0.00000000000E+00  0.00000000000E+00  0.14999999963E+04  0.15000000000E+04  0.10566000000E+00 0. -1.
        994   -1    0    0    0    0 -0.00000000000E+00 -0.00000000000E+00  0.11368683772E-12  0.17120000000E+03  0.17120000000E+03 0.  0.
         13    1    1    2    0    0 -0.14823373499E+01  0.26227675488E+02  0.15006574458E+03  0.15234771789E+03  0.10566000000E+00 0. -1.
        994    1    1    2    0    0 -0.14189011045E+02 -0.24455300298E+02  0.47968416313E+01  0.17358525121E+03  0.17120000000E+03 0.  0.
        998    1    1    2    0    0  0.15671348395E+02 -0.17723751900E+01  0.13451374101E+04  0.13452670309E+04  0.10000000000E+02 0. -1.
</event>
<event>
 5    1  0.1294251E-008  0.3774303E+03  0.7957747E-01  0.3462425E+00
         13   -1    0    0    0    0  0.00000000000E+00  0.00000000000E+00  0.14999999963E+04  0.15000000000E+04  0.10566000000E+00 0. -1.
        994   -1    0    0    0    0 -0.00000000000E+00 -0.00000000000E+00  0.11368683772E-12  0.17120000000E+03  0.17120000000E+03 0.  0.
         13    1    1    2    0    0 -0.86487752827E+01  0.27915658229E+02  0.73353579051E+02  0.78961028438E+02  0.10566000000E+00 0. -1.
        994    1    1    2    0    0 -0.70961082295E+01 -0.32744708660E+02  0.92301354677E+01  0.17469174594E+03  0.17120000000E+03 0.  0.
        998    1    1    2    0    0  0.15744883512E+02  0.48290504313E+01  0.14174162818E+04  0.14175472256E+04  0.10000000000E+02 0. -1.
</event>
<event>
 5    1  0.1294251E-008  0.3844315E+03  0.7957747E-01  0.3432087E+00
         13   -1    0    0    0    0  0.00000000000E+00  0.00000000000E+00  0.14999999963E+04  0.15000000000E+04  0.10566000000E+00 0. -1.
        994   -1    0    0    0    0 -0.00000000000E+00 -0.00000000000E+00  0.11368683772E-12  0.17120000000E+03  0.17120000000E+03 0.  0.
         13    1    1    2    0    0 -0.15655077098E+02  0.99535844530E+01  0.91579315177E+02  0.93439485309E+02  0.10566000000E+00 0. -1.
        994    1    1    2    0    0  0.96660480135E+01 -0.14444290699E+01  0.22274282213E+01  0.17149320773E+03  0.17120000000E+03 0.  0.
        998    1    1    2    0    0  0.59890290846E+01 -0.85091553830E+01  0.14061932529E+04  0.14062673070E+04  0.10000000000E+02 0. -1.
</event>
<event>
 5    1  0.1294251E-008  0.3807705E+03  0.7957747E-01  0.3447810E+00
         13   -1    0    0    0    0  0.00000000000E+00  0.00000000000E+00  0.14999999963E+04  0.15000000000E+04  0.10566000000E+00 0. -1.
        994   -1    0    0    0    0 -0.00000000000E+00 -0.00000000000E+00  0.11368683772E-12  0.17120000000E+03  0.17120000000E+03 0.  0.
         13    1    1    2    0    0  0.24521683961E+02 -0.25130316652E+02  0.18296133210E+03  0.18630004296E+03  0.10566000000E+00 0. -1.
        994    1    1    2    0    0  0.19366767391E+02  0.28867706041E+02  0.77845734891E+01  0.17486696576E+03  0.17120000000E+03 0.  0.
        998    1    1    2    0    0 -0.43888451352E+02 -0.37373893891E+01  0.13092540907E+04  0.13100329913E+04  0.10000000000E+02 0. -1.
</event>
<event>
 5    1  0.1294251E-008  0.3844254E+03  0.7957747E-01  0.3432113E+00
         13   -1    0    0    0    0  0.00000000000E+00  0.00000000000E+00  0.14999999963E+04  0.15000000000E+04  0.10566000000E+00 0. -1.
        994   -1    0    0    0    0 -0.00000000000E+00 -0.00000000000E+00  0.11368683772E-12  0.17120000000E+03  0.17120000000E+03 0.  0.
         13    1    1    2    0    0 -0.16029538906E+02  0.24273005210E+02  0.14348490136E+02  0.32434784301E+02  0.10566000000E+00 0. -1.
        994    1    1    2    0    0  0.11033286515E+02 -0.30039067678E+02  0.22560697160E+02  0.17562034066E+03  0.17120000000E+03 0.  0.
        998    1    1    2    0    0  0.49962523912E+01  0.57660624683E+01  0.14630908090E+04  0.14631448750E+04  0.10000000000E+02 0. -1.
</event>
<event>
 5    1  0.1294251E-008  0.3828480E+03  0.7957747E-01  0.3438850E+00
         13   -1    0    0    0    0  0.00000000000E+00  0.00000000000E+00  0.14999999963E+04  0.15000000000E+04  0.10566000000E+00 0.  1.
        994   -1    0    0    0    0 -0.00000000000E+00 -0.00000000000E+00  0.11368683772E-12  0.17120000000E+03  0.17120000000E+03 0.  0.
         13    1    1    2    0    0 -0.23518087123E+02  0.11615557673E+01  0.11497077782E+03  0.11735731997E+03  0.10566000000E+00 0.  1.
        994    1    1    2    0    0 -0.36082684999E+01 -0.54865241754E+01  0.28451475606E+01  0.17134951536E+03  0.17120000000E+03 0.  0.
        998    1    1    2    0    0  0.27126355623E+02  0.43249684081E+01  0.13821840709E+04  0.13824931647E+04  0.10000000000E+02 0.  1.
</event>
<event>
 5    1  0.1294251E-008  0.3851911E+03  0.7957747E-01  0.3428862E+00
         13   -1    0    0    0    0  0.00000000000E+00  0.00000000000E+00  0.14999999963E+04  0.15000000000E+04  0.10566000000E+00 0. -1.
        994   -1    0    0    0    0 -0.00000000000E+00 -0.00000000000E+00  0.11368683772E-12  0.17120000000E+03  0.17120000000E+03 0.  0.
         13    1    1    2    0    0 -0.12782700565E+02  0.18968118830E+01  0.56405848526E+02  0.57867315827E+02  0.10566000000E+00 0. -1.
        994    1    1    2    0    0  0.22982700692E+01 -0.41525994537E+01  0.16093533095E+01  0.17127333752E+03  0.17120000000E+03 0.  0.
        998    1    1    2    0    0  0.10484430496E+02  0.22557875707E+01  0.14419847944E+04  0.14420593467E+04  0.10000000000E+02 0.  0.
</event>
<event>
 5    1  0.1294251E-008  0.3748518E+03  0.7957747E-01  0.3473886E+00
         13   -1    0    0    0    0  0.00000000000E+00  0.00000000000E+00  0.14999999963E+04  0.15000000000E+04  0.10566000000E+00 0. -1.
        994   -1    0    0    0    0 -0.00000000000E+00 -0.00000000000E+00  0.11368683772E-12  0.17120000000E+03  0.17120000000E+03 0.  0.
         13    1    1    2    0    0  0.57863740886E+02 -0.26869974856E+02  0.25728991218E+03  0.26508171972E+03  0.10566000000E+00 0. -1.
        994    1    1    2    0    0 -0.51222356929E+02  0.29762606373E+02  0.18785584860E+02  0.18213149312E+03  0.17120000000E+03 0.  0.
        998    1    1    2    0    0 -0.66413839571E+01 -0.28926315171E+01  0.12239244992E+04  0.12239867872E+04  0.10000000000E+02 0. -1.
</event>
<event>
 5    1  0.1294251E-008  0.3801108E+03  0.7957747E-01  0.3450676E+00
         13   -1    0    0    0    0  0.00000000000E+00  0.00000000000E+00  0.14999999963E+04  0.15000000000E+04  0.10566000000E+00 0.  1.
        994   -1    0    0    0    0 -0.00000000000E+00 -0.00000000000E+00  0.11368683772E-12  0.17120000000E+03  0.17120000000E+03 0.  0.
         13    1    1    2    0    0 -0.27347608711E+02  0.64667724168E+01  0.90950343771E+02  0.95192893872E+02  0.10566000000E+00 0.  1.
        994    1    1    2    0    0  0.23980151593E+02 -0.16226175407E+02  0.68837646033E+01  0.17376755351E+03  0.17120000000E+03 0.  0.
        998    1    1    2    0    0  0.33674571182E+01  0.97594029899E+01  0.14021658879E+04  0.14022395526E+04  0.10000000000E+02 0.  1.
</event>
<event>
 5    1  0.1294251E-008  0.3804539E+03  0.7957747E-01  0.3449184E+00
         13   -1    0    0    0    0  0.00000000000E+00  0.00000000000E+00  0.14999999963E+04  0.15000000000E+04  0.10566000000E+00 0.  1.
        994   -1    0    0    0    0 -0.00000000000E+00 -0.00000000000E+00  0.11368683772E-12  0.17120000000E+03  0.17120000000E+03 0.  0.
         13    1    1    2    0    0 -0.34860885292E+02 -0.92325985380E+01  0.15052562298E+03  0.15478532403E+03  0.10566000000E+00 0.  1.
        994    1    1    2    0    0  0.33937002117E+02  0.11382709186E+02  0.81928448834E+01  0.17509382881E+03  0.17120000000E+03 0.  0.
        998    1    1    2    0    0  0.92388317531E+00 -0.21501106477E+01  0.13412815284E+04  0.13413208472E+04  0.10000000000E+02 0.  1.
</event>
<event>
 5    1  0.1294251E-008  0.3807398E+03  0.7957747E-01  0.3447943E+00
         13   -1    0    0    0    0  0.00000000000E+00  0.00000000000E+00  0.14999999963E+04  0.15000000000E+04  0.10566000000E+00 0.  1.
        994   -1    0    0    0    0 -0.00000000000E+00 -0.00000000000E+00  0.11368683772E-12  0.17120000000E+03  0.17120000000E+03 0.  0.
         13    1    1    2    0    0 -0.28610291881E+02 -0.16844055958E+02  0.15551353143E+03  0.15901805131E+03  0.10566000000E+00 0.  1.
        994    1    1    2    0    0  0.31518512948E+01  0.13777037302E+02  0.44265248018E+01  0.17183938735E+03  0.17120000000E+03 0.  0.
        998    1    1    2    0    0  0.25458440586E+02  0.30670186559E+01  0.13400599400E+04  0.13403425613E+04  0.10000000000E+02 0.  1.
</event>
<event>
 5    1  0.1294251E-008  0.3743255E+03  0.7957747E-01  0.3476245E+00
         13   -1    0    0    0    0  0.00000000000E+00  0.00000000000E+00  0.14999999963E+04  0.15000000000E+04  0.10566000000E+00 0.  1.
        994   -1    0    0    0    0 -0.00000000000E+00 -0.00000000000E+00  0.11368683772E-12  0.17120000000E+03  0.17120000000E+03 0.  0.
         13    1    1    2    0    0 -0.30817229402E+02  0.11385085641E+02  0.74388942994E+02  0.81320648097E+02  0.10566000000E+00 0.  1.
        994    1    1    2    0    0  0.17873410890E+02 -0.98534858225E+01  0.84459327276E+01  0.17261901338E+03  0.17120000000E+03 0.  0.
        998    1    1    2    0    0  0.12943818512E+02 -0.15315998182E+01  0.14171651206E+04  0.14172603385E+04  0.10000000000E+02 0.  1.
</event>
<event>
 5    1  0.1294251E-008  0.4116209E+03  0.7957747E-01  0.3324063E+00
         13   -1    0    0    0    0  0.00000000000E+00  0.00000000000E+00  0.14999999963E+04  0.15000000000E+04  0.10566000000E+00 0.  1.
        994   -1    0    0    0    0 -0.00000000000E+00 -0.00000000000E+00  0.11368683772E-12  0.17120000000E+03  0.17120000000E+03 0.  0.
         13    1    1    2    0    0  0.86564025630E+02  0.48087886546E+01  0.99713013928E+02  0.13213308175E+03  0.10566000000E+00 0.  1.
        994    1    1    2    0    0 -0.57722262991E+02  0.14567268557E+02  0.49631555545E+02  0.18792763571E+03  0.17120000000E+03 0.  0.
        998    1    1    2    0    0 -0.28841762639E+02 -0.19376057212E+02  0.13506554268E+04  0.13511392825E+04  0.10000000000E+02 0.  1.
</event>
<event>
 5    1  0.1294251E-008  0.3852589E+03  0.7957747E-01  0.3428575E+00
         13   -1    0    0    0    0  0.00000000000E+00  0.00000000000E+00  0.14999999963E+04  0.15000000000E+04  0.10566000000E+00 0.  1.
        994   -1    0    0    0    0 -0.00000000000E+00 -0.00000000000E+00  0.11368683772E-12  0.17120000000E+03  0.17120000000E+03 0.  0.
         13    1    1    2    0    0  0.95490937274E+01 -0.67455084652E+01  0.46954860943E+02  0.48388606156E+02  0.10566000000E+00 0.  1.
        994    1    1    2    0    0  0.45585464168E+01  0.11045400528E+02  0.19709562052E+01  0.17162781210E+03  0.17120000000E+03 0.  0.
        998    1    1    2    0    0 -0.14107640144E+02 -0.42998920625E+01  0.14510741791E+04  0.14511835817E+04  0.10000000000E+02 0.  1.
</event>
<event>
 5    1  0.1294251E-008  0.3794399E+03  0.7957747E-01  0.3453601E+00
         13   -1    0    0    0    0  0.00000000000E+00  0.00000000000E+00  0.14999999963E+04  0.15000000000E+04  0.10566000000E+00 0.  1.
        994   -1    0    0    0    0 -0.00000000000E+00 -0.00000000000E+00  0.11368683772E-12  0.17120000000E+03  0.17120000000E+03 0.  0.
         13    1    1    2    0    0 -0.20586603284E+02  0.46366725623E+02  0.23618667856E+03  0.24157367360E+03  0.10566000000E+00 0.  1.
        994    1    1    2    0    0  0.18321469912E+02 -0.53035079391E+02  0.15033628968E+02  0.18078674151E+03  0.17120000000E+03 0.  0.
        998    1    1    2    0    0  0.22651333712E+01  0.66683537681E+01  0.12487796887E+04  0.12488395849E+04  0.10000000000E+02 0.  1.
</event>
<event>
 5    1  0.1294251E-008  0.3777071E+03  0.7957747E-01  0.3461204E+00
         13   -1    0    0    0    0  0.00000000000E+00  0.00000000000E+00  0.14999999963E+04  0.15000000000E+04  0.10566000000E+00 0.  1.
        994   -1    0    0    0    0 -0.00000000000E+00 -0.00000000000E+00  0.11368683772E-12  0.17120000000E+03  0.17120000000E+03 0.  0.
         13    1    1    2    0    0 -0.51931276268E+02  0.79228456055E+02  0.48047293113E+03  0.48972263009E+03  0.10566000000E+00 0.  1.
        994    1    1    2    0    0  0.33051521401E+02 -0.11140575712E+03  0.52222086753E+02  0.21340157481E+03  0.17120000000E+03 0.  0.
        998    1    1    2    0    0  0.18879754867E+02  0.32177301060E+02  0.96730497839E+03  0.96807579511E+03  0.10000000000E+02 0.  1.
</event>
<event>
 5    1  0.1294251E-008  0.3814441E+03  0.7957747E-01  0.3444895E+00
         13   -1    0    0    0    0  0.00000000000E+00  0.00000000000E+00  0.14999999963E+04  0.15000000000E+04  0.10566000000E+00 0. -1.
        994   -1    0    0    0    0 -0.00000000000E+00 -0.00000000000E+00  0.11368683772E-12  0.17120000000E+03  0.17120000000E+03 0.  0.
         13    1    1    2    0    0 -0.54872339744E+01  0.11732635494E+02  0.23748140083E+02  0.27050874177E+02  0.10566000000E+00 0. -1.
        994    1    1    2    0    0 -0.23202576499E+01 -0.37881115200E+01  0.34716057579E+01  0.17129280613E+03  0.17120000000E+03 0.  0.
        998    1    1    2    0    0  0.78074916243E+01 -0.79445239740E+01  0.14727802504E+04  0.14728563197E+04  0.10000000000E+02 0. -1.
</event>
<event>
 5    1  0.1294251E-008  0.3836796E+03  0.7957747E-01  0.3435291E+00
         13   -1    0    0    0    0  0.00000000000E+00  0.00000000000E+00  0.14999999963E+04  0.15000000000E+04  0.10566000000E+00 0.  1.
        994   -1    0    0    0    0 -0.00000000000E+00 -0.00000000000E+00  0.11368683772E-12  0.17120000000E+03  0.17120000000E+03 0.  0.
         13    1    1    2    0    0  0.37782984123E+02  0.49231834435E+01  0.22247193864E+03  0.22571124534E+03  0.10566000000E+00 0.  1.
        994    1    1    2    0    0 -0.57264832282E+02 -0.16254673738E+02  0.14079625696E+02  0.18179975603E+03  0.17120000000E+03 0.  0.
        998    1    1    2    0    0  0.19481848159E+02  0.11331490295E+02  0.12634484319E+04  0.12636889986E+04  0.10000000000E+02 0.  1.
</event>
<event>
 5    1  0.1294251E-008  0.3811634E+03  0.7957747E-01  0.3446108E+00
         13   -1    0    0    0    0  0.00000000000E+00  0.00000000000E+00  0.14999999963E+04  0.15000000000E+04  0.10566000000E+00 0. -1.
        994   -1    0    0    0    0 -0.00000000000E+00 -0.00000000000E+00  0.11368683772E-12  0.17120000000E+03  0.17120000000E+03 0.  0.
         13    1    1    2    0    0 -0.16451699878E+02  0.16554233505E+02  0.73211662180E+02  0.76841783680E+02  0.10566000000E+00 0. -1.
        994    1    1    2    0    0  0.15355090126E+02 -0.14905176376E+02  0.50735123228E+01  0.17260684692E+03  0.17120000000E+03 0.  0.
        998    1    1    2    0    0  0.10966097522E+01 -0.16490571288E+01  0.14217148218E+04  0.14217513694E+04  0.10000000000E+02 0. -1.
</event>
<event>
 5    1  0.1294251E-008  0.3801821E+03  0.7957747E-01  0.3450366E+00
         13   -1    0    0    0    0  0.00000000000E+00  0.00000000000E+00  0.14999999963E+04  0.15000000000E+04  0.10566000000E+00 0. -1.
        994   -1    0    0    0    0 -0.00000000000E+00 -0.00000000000E+00  0.11368683772E-12  0.17120000000E+03  0.17120000000E+03 0.  0.
         13    1    1    2    0    0 -0.24251398516E+02 -0.26442060231E+02  0.18265993288E+03  0.18615040994E+03  0.10566000000E+00 0. -1.
        994    1    1    2    0    0 -0.11044619312E+02  0.11888960546E+02  0.49215122210E+01  0.17203776411E+03  0.17120000000E+03 0.  0.
        998    1    1    2    0    0  0.35296017828E+02  0.14553099685E+02  0.13124185512E+04  0.13130118259E+04  0.10000000000E+02 0. -1.
</event>
<event>
 5    1  0.1294251E-008  0.3852845E+03  0.7957747E-01  0.3428467E+00
         13   -1    0    0    0    0  0.00000000000E+00  0.00000000000E+00  0.14999999963E+04  0.15000000000E+04  0.10566000000E+00 0. -1.
        994   -1    0    0    0    0 -0.00000000000E+00 -0.00000000000E+00  0.11368683772E-12  0.17120000000E+03  0.17120000000E+03 0.  0.
         13    1    1    2    0    0  0.13363675464E+01 -0.13526784813E+02  0.62902729336E+02  0.64354675880E+02  0.10566000000E+00 0. -1.
        994    1    1    2    0    0 -0.10520600215E+02  0.64344760682E+01  0.19888162134E+01  0.17165512198E+03  0.17120000000E+03 0.  0.
        998    1    1    2    0    0  0.91842326690E+01  0.70923087449E+01  0.14351084507E+04  0.14351902021E+04  0.10000000000E+02 0. -1.
</event>
<event>
 5    1  0.1294251E-008  0.2726049E+03  0.7957747E-01  0.4113350E+00
         13   -1    0    0    0    0  0.00000000000E+00  0.00000000000E+00  0.14999999963E+04  0.15000000000E+04  0.10566000000E+00 0.  1.
        994   -1    0    0    0    0 -0.00000000000E+00 -0.00000000000E+00  0.11368683772E-12  0.17120000000E+03  0.17120000000E+03 0.  0.
         13    1    1    2    0    0 -0.82369485660E+02  0.15196051877E+03  0.49178920029E+03  0.52128050042E+03  0.10566000000E+00 0.  1.
        994    1    1    2    0    0  0.67874147969E+02 -0.13330642467E+03  0.11217333406E+03  0.25351489048E+03  0.17120000000E+03 0.  0.
        998    1    1    2    0    0  0.14495337690E+02 -0.18654094100E+02  0.89603746193E+03  0.89640460910E+03  0.10000000000E+02 0.  1.
</event>
<event>
 5    1  0.1887442E-008  0.3865273E+03  0.7957747E-01  0.3423220E+00
         13   -1    0    0    0    0  0.00000000000E+00  0.00000000000E+00  0.14999999963E+04  0.15000000000E+04  0.10566000000E+00 0. -1.
        994   -1    0    0    0    0 -0.00000000000E+00 -0.00000000000E+00  0.11368683772E-12  0.17120000000E+03  0.17120000000E+03 0.  0.
         13    1    1    2    0    0 -0.11803392723E+02 -0.14490321131E+01  0.66502037289E+02  0.67557027033E+02  0.10566000000E+00 0. -1.
        994    1    1    2    0    0  0.31867369478E+02  0.34033333903E+02  0.80198894547E+01  0.17761631592E+03  0.17120000000E+03 0.  0.
        998    1    1    2    0    0 -0.20063976755E+02 -0.32584301790E+02  0.14254780695E+04  0.14260266570E+04  0.10000000000E+02 0. -1.
</event>
<event>
 5    1  0.1294251E-008  0.3808173E+03  0.7957747E-01  0.3447607E+00
         13   -1    0    0    0    0  0.00000000000E+00  0.00000000000E+00  0.14999999963E+04  0.15000000000E+04  0.10566000000E+00 0.  1.
        994   -1    0    0    0    0 -0.00000000000E+00 -0.00000000000E+00  0.11368683772E-12  0.17120000000E+03  0.17120000000E+03 0.  0.
         13    1    1    2    0    0  0.64739619076E+01 -0.31656557305E+02  0.14771155521E+03  0.15120437992E+03  0.10566000000E+00 0.  1.
        994    1    1    2    0    0 -0.55597211618E+01  0.90715246865E+01  0.40986304214E+01  0.17157925816E+03  0.17120000000E+03 0.  0.
        998    1    1    2    0    0 -0.91424074579E+00  0.22585032618E+02  0.13481898107E+04  0.13484163619E+04  0.10000000000E+02 0.  1.
</event>
<event>
 5    1  0.1294251E-008  0.3843758E+03  0.7957747E-01  0.3432324E+00
         13   -1    0    0    0    0  0.00000000000E+00  0.00000000000E+00  0.14999999963E+04  0.15000000000E+04  0.10566000000E+00 0.  1.
        994   -1    0    0    0    0 -0.00000000000E+00 -0.00000000000E+00  0.11368683772E-12  0.17120000000E+03  0.17120000000E+03 0.  0.
         13    1    1    2    0    0 -0.28424785614E+01  0.10959464509E+02  0.32514187933E+02  0.34429248143E+02  0.10566000000E+00 0.  1.
        994    1    1    2    0    0  0.25397832188E+01 -0.78738632232E+01  0.21659334998E+01  0.17141347523E+03  0.17120000000E+03 0.  0.
        998    1    1    2    0    0  0.30269534266E+00 -0.30856012862E+01  0.14653198748E+04  0.14653572766E+04  0.10000000000E+02 0.  1.
</event>
<event>
 5    1  0.1294251E-008  0.3945870E+03  0.7957747E-01  0.3390003E+00
         13   -1    0    0    0    0  0.00000000000E+00  0.00000000000E+00  0.14999999963E+04  0.15000000000E+04  0.10566000000E+00 0. -1.
        994   -1    0    0    0    0 -0.00000000000E+00 -0.00000000000E+00  0.11368683772E-12  0.17120000000E+03  0.17120000000E+03 0.  0.
         13    1    1    2    0    0 -0.12866145657E+02  0.67092228155E+02  0.81519561104E+02  0.10635955429E+03  0.10566000000E+00 0. -1.
        994    1    1    2    0    0 -0.10726373212E+02 -0.74744280054E+02  0.46770164309E+02  0.19286951743E+03  0.17120000000E+03 0.  0.
        998    1    1    2    0    0  0.23592518869E+02  0.76520518994E+01  0.13717102709E+04  0.13719709283E+04  0.10000000000E+02 0. -1.
</event>
<event>
 5    1  0.1294251E-008  0.3754694E+03  0.7957747E-01  0.3471126E+00
         13   -1    0    0    0    0  0.00000000000E+00  0.00000000000E+00  0.14999999963E+04  0.15000000000E+04  0.10566000000E+00 0.  1.
        994   -1    0    0    0    0 -0.00000000000E+00 -0.00000000000E+00  0.11368683772E-12  0.17120000000E+03  0.17120000000E+03 0.  0.
         13    1    1    2    0    0  0.32519138966E+02 -0.63613493650E+01  0.82419238185E+02  0.88830755664E+02  0.10566000000E+00 0.  1.
        994    1    1    2    0    0 -0.24018420352E+02 -0.67329994145E+01  0.85524221206E+01  0.17321894158E+03  0.17120000000E+03 0.  0.
        998    1    1    2    0    0 -0.85007186146E+01  0.13094348779E+02  0.14090283360E+04  0.14091503028E+04  0.10000000000E+02 0.  1.
</event>
<event>
 5    1  0.1294251E-008  0.3839415E+03  0.7957747E-01  0.3434174E+00
         13   -1    0    0    0    0  0.00000000000E+00  0.00000000000E+00  0.14999999963E+04  0.15000000000E+04  0.10566000000E+00 0.  1.
        994   -1    0    0    0    0 -0.00000000000E+00 -0.00000000000E+00  0.11368683772E-12  0.17120000000E+03  0.17120000000E+03 0.  0.
         13    1    1    2    0    0 -0.13453817566E+02 -0.12853526878E+02  0.74654105867E+02  0.76938059809E+02  0.10566000000E+00 0.  1.
        994    1    1    2    0    0  0.19052879055E+02  0.13815614389E+02  0.39865360031E+01  0.17285605535E+03  0.17120000000E+03 0.  0.
        998    1    1    2    0    0 -0.55990614886E+01 -0.96208751155E+00  0.14213593544E+04  0.14214058848E+04  0.10000000000E+02 0.  1.
</event>
<event>
 5    1  0.1294251E-008  0.3831988E+03  0.7957747E-01  0.3437347E+00
         13   -1    0    0    0    0  0.00000000000E+00  0.00000000000E+00  0.14999999963E+04  0.15000000000E+04  0.10566000000E+00 0.  1.
        994   -1    0    0    0    0 -0.00000000000E+00 -0.00000000000E+00  0.11368683772E-12  0.17120000000E+03  0.17120000000E+03 0.  0.
         13    1    1    2    0    0 -0.16319188130E+02 -0.11961466130E+01  0.53914540722E+02  0.56343016722E+02  0.10566000000E+00 0.  1.
        994    1    1    2    0    0  0.46880270344E+01 -0.61378697862E+01  0.27243869766E+01  0.17139577978E+03  0.17120000000E+03 0.  0.
        998    1    1    2    0    0  0.11631161096E+02  0.73340163991E+01  0.14433610686E+04  0.14434612035E+04  0.10000000000E+02 0.  1.
</event>
<event>
 5    1  0.1294251E-008  0.3831269E+03  0.7957747E-01  0.3437655E+00
         13   -1    0    0    0    0  0.00000000000E+00  0.00000000000E+00  0.14999999963E+04  0.15000000000E+04  0.10566000000E+00 0. -1.
        994   -1    0    0    0    0 -0.00000000000E+00 -0.00000000000E+00  0.11368683772E-12  0.17120000000E+03  0.17120000000E+03 0.  0.
         13    1    1    2    0    0 -0.19327816648E+02  0.18304640811E+01  0.73730301353E+02  0.76243580692E+02  0.10566000000E+00 0. -1.
        994    1    1    2    0    0  0.10037505648E+02 -0.15363733788E+01  0.29042202836E+01  0.17152546883E+03  0.17120000000E+03 0.  0.
        998    1    1    2    0    0  0.92903110001E+01 -0.29409070231E+00  0.14233654746E+04  0.14234309505E+04  0.10000000000E+02 0. -1.
</event>
<event>
 5    1  0.1294251E-008  0.3930083E+03  0.7957747E-01  0.3396402E+00
         13   -1    0    0    0    0  0.00000000000E+00  0.00000000000E+00  0.14999999963E+04  0.15000000000E+04  0.10566000000E+00 0.  1.
        994   -1    0    0    0    0 -0.00000000000E+00 -0.00000000000E+00  0.11368683772E-12  0.17120000000E+03  0.17120000000E+03 0.  0.
         13    1    1    2    0    0 -0.57970734228E+01 -0.22167949834E+02 -0.63989416069E+00  0.22922580324E+02  0.10566000000E+00 0.  1.
        994    1    1    2    0    0 -0.11783260900E+02  0.88809545986E+02  0.54914578626E+02  0.20087566214E+03  0.17120000000E+03 0.  0.
        998    1    1    2    0    0  0.17580334322E+02 -0.66641596152E+02  0.14457253118E+04  0.14474017575E+04  0.10000000000E+02 0.  1.
</event>
<event>
 5    1  0.1294251E-008  0.3852808E+03  0.7957747E-01  0.3428482E+00
         13   -1    0    0    0    0  0.00000000000E+00  0.00000000000E+00  0.14999999963E+04  0.15000000000E+04  0.10566000000E+00 0. -1.
        994   -1    0    0    0    0 -0.00000000000E+00 -0.00000000000E+00  0.11368683772E-12  0.17120000000E+03  0.17120000000E+03 0.  0.
         13    1    1    2    0    0  0.14787164390E+02 -0.81951904635E+01  0.91735573833E+02  0.93280480530E+02  0.10566000000E+00 0. -1.
        994    1    1    2    0    0 -0.13984680238E+02  0.96343233286E+01  0.24389243142E+01  0.17205748987E+03  0.17120000000E+03 0.  0.
        998    1    1    2    0    0 -0.80248415196E+00 -0.14391328651E+01  0.14058254981E+04  0.14058620296E+04  0.10000000000E+02 0. -1.
</event>
<event>
 5    1  0.1294251E-008  0.3828788E+03  0.7957747E-01  0.3438718E+00
         13   -1    0    0    0    0  0.00000000000E+00  0.00000000000E+00  0.14999999963E+04  0.15000000000E+04  0.10566000000E+00 0.  1.
        994   -1    0    0    0    0 -0.00000000000E+00 -0.00000000000E+00  0.11368683772E-12  0.17120000000E+03  0.17120000000E+03 0.  0.
         13    1    1    2    0    0  0.32079317311E+02 -0.24933844626E+02  0.20840477045E+03  0.21232837473E+03  0.10566000000E+00 0.  1.
        994    1    1    2    0    0 -0.58850730030E+02  0.35712984031E+02  0.18540826828E+02  0.18545087736E+03  0.17120000000E+03 0.  0.
        998    1    1    2    0    0  0.26771412719E+02 -0.10779139405E+02  0.12730543990E+04  0.12734207479E+04  0.10000000000E+02 0.  1.
</event>
<event>
 5    1  0.1294251E-008  0.3851332E+03  0.7957747E-01  0.3429108E+00
         13   -1    0    0    0    0  0.00000000000E+00  0.00000000000E+00  0.14999999963E+04  0.15000000000E+04  0.10566000000E+00 0.  1.
        994   -1    0    0    0    0 -0.00000000000E+00 -0.00000000000E+00  0.11368683772E-12  0.17120000000E+03  0.17120000000E+03 0.  0.
         13    1    1    2    0    0 -0.46062659021E+01  0.19897248601E+02  0.10682467307E+03  0.10875955190E+03  0.10566000000E+00 0.  1.
        994    1    1    2    0    0  0.12361988862E+02 -0.39136738394E+02  0.71210927015E+01  0.17619492905E+03  0.17120000000E+03 0.  0.
        998    1    1    2    0    0 -0.77557229599E+01  0.19239489793E+02  0.13860542305E+04  0.13862455191E+04  0.10000000000E+02 0.  1.
</event>
<event>
 5    1  0.1294251E-008  0.3808588E+03  0.7957747E-01  0.3447428E+00
         13   -1    0    0    0    0  0.00000000000E+00  0.00000000000E+00  0.14999999963E+04  0.15000000000E+04  0.10566000000E+00 0. -1.
        994   -1    0    0    0    0 -0.00000000000E+00 -0.00000000000E+00  0.11368683772E-12  0.17120000000E+03  0.17120000000E+03 0.  0.
         13    1    1    2    0    0  0.72397269554E+00  0.29778823525E+02  0.98477982307E+02  0.10288453057E+03  0.10566000000E+00 0. -1.
        994    1    1    2    0    0 -0.25775245109E+02 -0.53403294643E+02  0.15511771158E+02  0.18184149742E+03  0.17120000000E+03 0.  0.
        998    1    1    2    0    0  0.25051272413E+02  0.23624471118E+02  0.13860102428E+04  0.13864739720E+04  0.10000000000E+02 0. -1.
</event>
<event>
 5    1  0.1294251E-008  0.3825838E+03  0.7957747E-01  0.3439985E+00
         13   -1    0    0    0    0  0.00000000000E+00  0.00000000000E+00  0.14999999963E+04  0.15000000000E+04  0.10566000000E+00 0. -1.
        994   -1    0    0    0    0 -0.00000000000E+00 -0.00000000000E+00  0.11368683772E-12  0.17120000000E+03  0.17120000000E+03 0.  0.
         13    1    1    2    0    0 -0.11725113105E+02 -0.35756372422E+01  0.25746420496E+02  0.28515834047E+02  0.10566000000E+00 0. -1.
        994    1    1    2    0    0  0.35944651178E+01  0.60870392271E+01  0.30001511822E+01  0.17137214807E+03  0.17120000000E+03 0.  0.
        998    1    1    2    0    0  0.81306479871E+01 -0.25114019849E+01  0.14712534246E+04  0.14713120179E+04  0.10000000000E+02 0. -1.
</event>
<event>
 5    1  0.1294251E-008  0.3858207E+03  0.7957747E-01  0.3426199E+00
         13   -1    0    0    0    0  0.00000000000E+00  0.00000000000E+00  0.14999999963E+04  0.15000000000E+04  0.10566000000E+00 0. -1.
        994   -1    0    0    0    0 -0.00000000000E+00 -0.00000000000E+00  0.11368683772E-12  0.17120000000E+03  0.17120000000E+03 0.  0.
         13    1    1    2    0    0  0.10956960996E+01  0.10524310042E+02  0.46776412601E+02  0.47958373530E+02  0.10566000000E+00 0. -1.
        994    1    1    2    0    0  0.20398526064E+01 -0.52298462830E+01  0.13265789226E+01  0.17129714563E+03  0.17120000000E+03 0.  0.
        998    1    1    2    0    0 -0.31355487060E+01 -0.52944637591E+01  0.14518970048E+04  0.14519444808E+04  0.10000000000E+02 0. -1.
</event>
<event>
 5    1  0.1294251E-008  0.3849433E+03  0.7957747E-01  0.3429913E+00
         13   -1    0    0    0    0  0.00000000000E+00  0.00000000000E+00  0.14999999963E+04  0.15000000000E+04  0.10566000000E+00 0. -1.
        994   -1    0    0    0    0 -0.00000000000E+00 -0.00000000000E+00  0.11368683772E-12  0.17120000000E+03  0.17120000000E+03 0.  0.
         13    1    1    2    0    0 -0.12356595614E+02  0.21151898477E+01  0.49951430209E+02  0.51500641037E+02  0.10566000000E+00 0. -1.
        994    1    1    2    0    0 -0.33929145172E+01 -0.12359809758E+02  0.21988276424E+01  0.17169319034E+03  0.17120000000E+03 0.  0.
        998    1    1    2    0    0  0.15749510131E+02  0.10244619910E+02  0.14478497384E+04  0.14480061686E+04  0.10000000000E+02 0. -1.
</event>
<event>
 5    1  0.1294251E-008  0.3686659E+03  0.7957747E-01  0.3502045E+00
         13   -1    0    0    0    0  0.00000000000E+00  0.00000000000E+00  0.14999999963E+04  0.15000000000E+04  0.10566000000E+00 0. -1.
        994   -1    0    0    0    0 -0.00000000000E+00 -0.00000000000E+00  0.11368683772E-12  0.17120000000E+03  0.17120000000E+03 0.  0.
         13    1    1    2    0    0  0.11897648403E+02  0.19287903952E+02  0.22001745900E+02  0.31585839598E+02  0.10566000000E+00 0. -1.
        994    1    1    2    0    0 -0.13199748715E+02 -0.40597222546E+00  0.10574074036E+02  0.17203386068E+03  0.17120000000E+03 0.  0.
        998    1    1    2    0    0  0.13021003123E+01 -0.18881931727E+02  0.14674241763E+04  0.14675802997E+04  0.10000000000E+02 0. -1.
</event>
<event>
 5    1  0.1294251E-008  0.3779102E+03  0.7957747E-01  0.3460309E+00
         13   -1    0    0    0    0  0.00000000000E+00  0.00000000000E+00  0.14999999963E+04  0.15000000000E+04  0.10566000000E+00 0. -1.
        994   -1    0    0    0    0 -0.00000000000E+00 -0.00000000000E+00  0.11368683772E-12  0.17120000000E+03  0.17120000000E+03 0.  0.
         13    1    1    2    0    0 -0.89967720299E+01 -0.81071403714E+01  0.11691144981E+02  0.16833349843E+02  0.10566000000E+00 0. -1.
        994    1    1    2    0    0  0.99623266890E+01  0.92157440119E+01  0.58120360831E+01  0.17183537952E+03  0.17120000000E+03 0.  0.
        998    1    1    2    0    0 -0.96555465902E+00 -0.11086036405E+01  0.14824968152E+04  0.14825312706E+04  0.10000000000E+02 0. -1.
</event>
<event>
 5    1  0.1294251E-008  0.3764609E+03  0.7957747E-01  0.3466715E+00
         13   -1    0    0    0    0  0.00000000000E+00  0.00000000000E+00  0.14999999963E+04  0.15000000000E+04  0.10566000000E+00 0. -1.
        994   -1    0    0    0    0 -0.00000000000E+00 -0.00000000000E+00  0.11368683772E-12  0.17120000000E+03  0.17120000000E+03 0.  0.
         13    1    1    2    0    0  0.34580455133E+02  0.45737308883E+01  0.10215092786E+03  0.10794234627E+03  0.10566000000E+00 0. -1.
        994    1    1    2    0    0 -0.19987056951E+02  0.15715382320E+02  0.81201903574E+01  0.17326809625E+03  0.17120000000E+03 0.  0.
        998    1    1    2    0    0 -0.14593398182E+02 -0.20289113208E+02  0.13897288781E+04  0.13899895575E+04  0.10000000000E+02 0. -1.
</event>
<event>
 5    1  0.1294251E-008  0.3847975E+03  0.7957747E-01  0.3430532E+00
         13   -1    0    0    0    0  0.00000000000E+00  0.00000000000E+00  0.14999999963E+04  0.15000000000E+04  0.10566000000E+00 0.  1.
        994   -1    0    0    0    0 -0.00000000000E+00 -0.00000000000E+00  0.11368683772E-12  0.17120000000E+03  0.17120000000E+03 0.  0.
         13    1    1    2    0    0  0.10942870177E+02 -0.16698622943E+00  0.31746085612E+02  0.33579746989E+02  0.10566000000E+00 0.  1.
        994    1    1    2    0    0 -0.25646331791E+02 -0.14408653665E+02  0.45836013653E+01  0.17376936737E+03  0.17120000000E+03 0.  0.
        998    1    1    2    0    0  0.14703461614E+02  0.14575639894E+02  0.14636703093E+04  0.14638508856E+04  0.10000000000E+02 0.  1.
</event>
<event>
 5    1  0.1294251E-008  0.3828672E+03  0.7957747E-01  0.3438768E+00
         13   -1    0    0    0    0  0.00000000000E+00  0.00000000000E+00  0.14999999963E+04  0.15000000000E+04  0.10566000000E+00 0.  1.
        994   -1    0    0    0    0 -0.00000000000E+00 -0.00000000000E+00  0.11368683772E-12  0.17120000000E+03  0.17120000000E+03 0.  0.
         13    1    1    2    0    0  0.24495515976E+02 -0.13064655232E+02  0.16363700852E+03  0.16597529106E+03  0.10566000000E+00 0.  1.
        994    1    1    2    0    0  0.45572561898E+01  0.81655857863E+01  0.29823765383E+01  0.17148113583E+03  0.17120000000E+03 0.  0.
        998    1    1    2    0    0 -0.29052772166E+02  0.48990694457E+01  0.13333806112E+04  0.13337435731E+04  0.10000000000E+02 0.  1.
</event>
<event>
 5    1  0.1294251E-008  0.3746116E+03  0.7957747E-01  0.3474962E+00
         13   -1    0    0    0    0  0.00000000000E+00  0.00000000000E+00  0.14999999963E+04  0.15000000000E+04  0.10566000000E+00 0. -1.
        994   -1    0    0    0    0 -0.00000000000E+00 -0.00000000000E+00  0.11368683772E-12  0.17120000000E+03  0.17120000000E+03 0.  0.
         13    1    1    2    0    0  0.20438536002E+01 -0.32599237808E+02  0.34297414813E+02  0.47362553458E+02  0.10566000000E+00 0. -1.
        994    1    1    2    0    0 -0.11044832261E+02  0.25008867856E+02  0.16058771477E+02  0.17411133200E+03  0.17120000000E+03 0.  0.
        998    1    1    2    0    0  0.90009786613E+01  0.75903699517E+01  0.14496438100E+04  0.14497261145E+04  0.10000000000E+02 0. -1.
</event>
<event>
 5    1  0.1294251E-008  0.3792203E+03  0.7957747E-01  0.3454560E+00
         13   -1    0    0    0    0  0.00000000000E+00  0.00000000000E+00  0.14999999963E+04  0.15000000000E+04  0.10566000000E+00 0.  1.
        994   -1    0    0    0    0 -0.00000000000E+00 -0.00000000000E+00  0.11368683772E-12  0.17120000000E+03  0.17120000000E+03 0.  0.
         13    1    1    2    0    0 -0.13161591701E+02  0.51629394545E+01  0.19957514853E+02  0.24458066217E+02  0.10566000000E+00 0.  1.
        994    1    1    2    0    0  0.14186748147E+02 -0.20824822882E+01  0.52166245461E+01  0.17187860171E+03  0.17120000000E+03 0.  0.
        998    1    1    2    0    0 -0.10251564461E+01 -0.30804571663E+01  0.14748258569E+04  0.14748633321E+04  0.10000000000E+02 0.  1.
</event>
<event>
 5    1  0.1294251E-008  0.3812858E+03  0.7957747E-01  0.3445579E+00
         13   -1    0    0    0    0  0.00000000000E+00  0.00000000000E+00  0.14999999963E+04  0.15000000000E+04  0.10566000000E+00 0. -1.
        994   -1    0    0    0    0 -0.00000000000E+00 -0.00000000000E+00  0.11368683772E-12  0.17120000000E+03  0.17120000000E+03 0.  0.
         13    1    1    2    0    0  0.43532417487E+02  0.49852917750E+01  0.23802021541E+03  0.24201974840E+03  0.10566000000E+00 0. -1.
        994    1    1    2    0    0 -0.40827441324E+02 -0.91750285189E+01  0.93363944334E+01  0.17648702325E+03  0.17120000000E+03 0.  0.
        998    1    1    2    0    0 -0.27049761623E+01  0.41897367440E+01  0.12526433864E+04  0.12526932284E+04  0.10000000000E+02 0. -1.
</event>
<event>
 5    1  0.1294251E-008  0.3838280E+03  0.7957747E-01  0.3434658E+00
         13   -1    0    0    0    0  0.00000000000E+00  0.00000000000E+00  0.14999999963E+04  0.15000000000E+04  0.10566000000E+00 0.  1.
        994   -1    0    0    0    0 -0.00000000000E+00 -0.00000000000E+00  0.11368683772E-12  0.17120000000E+03  0.17120000000E+03 0.  0.
         13    1    1    2    0    0 -0.67800642340E+01  0.11296707877E+02  0.37559698663E+02  0.39803605459E+02  0.10566000000E+00 0.  1.
        994    1    1    2    0    0  0.10168253343E+02 -0.11963151031E+02  0.30273415494E+01  0.17194509343E+03  0.17120000000E+03 0.  0.
        998    1    1    2    0    0 -0.33881891089E+01  0.66644315389E+00  0.14594129561E+04  0.14594513011E+04  0.10000000000E+02 0.  1.
</event>
<event>
 5    1  0.1294251E-008  0.3827861E+03  0.7957747E-01  0.3439116E+00
         13   -1    0    0    0    0  0.00000000000E+00  0.00000000000E+00  0.14999999963E+04  0.15000000000E+04  0.10566000000E+00 0.  1.
        994   -1    0    0    0    0 -0.00000000000E+00 -0.00000000000E+00  0.11368683772E-12  0.17120000000E+03  0.17120000000E+03 0.  0.
         13    1    1    2    0    0  0.77203632829E+01  0.25601327468E+02  0.14514352622E+03  0.14758619971E+03  0.10566000000E+00 0.  1.
        994    1    1    2    0    0  0.60356089613E+01 -0.36209239094E+01  0.28974041955E+01  0.17136911804E+03  0.17120000000E+03 0.  0.
        998    1    1    2    0    0 -0.13755972244E+02 -0.21980403558E+02  0.13519590659E+04  0.13522446822E+04  0.10000000000E+02 0.  1.
</event>
<event>
 5    1  0.1294251E-008  0.3771521E+03  0.7957747E-01  0.3463654E+00
         13   -1    0    0    0    0  0.00000000000E+00  0.00000000000E+00  0.14999999963E+04  0.15000000000E+04  0.10566000000E+00 0. -1.
        994   -1    0    0    0    0 -0.00000000000E+00 -0.00000000000E+00  0.11368683772E-12  0.17120000000E+03  0.17120000000E+03 0.  0.
         13    1    1    2    0    0 -0.21423495690E+02 -0.13581909716E+02  0.14588051603E+02  0.29261866870E+02  0.10566000000E+00 0. -1.
        994    1    1    2    0    0  0.21062216956E+02  0.44801592289E+02  0.23612946148E+02  0.17977155192E+03  0.17120000000E+03 0.  0.
        998    1    1    2    0    0  0.36127873440E+00 -0.31219682573E+02  0.14617989985E+04  0.14621665812E+04  0.10000000000E+02 0. -1.
</event>
<event>
 5    1  0.1294251E-008  0.4015534E+03  0.7957747E-01  0.3362364E+00
         13   -1    0    0    0    0  0.00000000000E+00  0.00000000000E+00  0.14999999963E+04  0.15000000000E+04  0.10566000000E+00 0.  1.
        994   -1    0    0    0    0 -0.00000000000E+00 -0.00000000000E+00  0.11368683772E-12  0.17120000000E+03  0.17120000000E+03 0.  0.
         13    1    1    2    0    0 -0.24674483171E+02 -0.43144897890E+01 -0.15664212332E+01  0.25098003535E+02  0.10566000000E+00 0.  1.
        994    1    1    2    0    0  0.30617780175E+02  0.48067835906E+01  0.32503397734E+02  0.17699283741E+03  0.17120000000E+03 0.  0.
        998    1    1    2    0    0 -0.59432970041E+01 -0.49229380161E+00  0.14690630198E+04  0.14691091591E+04  0.10000000000E+02 0.  1.
</event>
<event>
 5    1  0.1294251E-008  0.3767882E+03  0.7957747E-01  0.3465264E+00
         13   -1    0    0    0    0  0.00000000000E+00  0.00000000000E+00  0.14999999963E+04  0.15000000000E+04  0.10566000000E+00 0.  1.
        994   -1    0    0    0    0 -0.00000000000E+00 -0.00000000000E+00  0.11368683772E-12  0.17120000000E+03  0.17120000000E+03 0.  0.
         13    1    1    2    0    0 -0.39809437237E+02 -0.38236634288E+02  0.18627555509E+03  0.19428181871E+03  0.10566000000E+00 0.  1.
        994    1    1    2    0    0  0.73908637260E+02  0.53035565101E+02  0.34256162828E+02  0.19687097937E+03  0.17120000000E+03 0.  0.
        998    1    1    2    0    0 -0.34099200023E+02 -0.14798930814E+02  0.12794682784E+04  0.12800472019E+04  0.10000000000E+02 0.  1.
</event>
<event>
 5    1  0.1294251E-008  0.3709499E+03  0.7957747E-01  0.3491537E+00
         13   -1    0    0    0    0  0.00000000000E+00  0.00000000000E+00  0.14999999963E+04  0.15000000000E+04  0.10566000000E+00 0.  1.
        994   -1    0    0    0    0 -0.00000000000E+00 -0.00000000000E+00  0.11368683772E-12  0.17120000000E+03  0.17120000000E+03 0.  0.
         13    1    1    2    0    0  0.13418598530E+02  0.45837185752E+01  0.35278242619E+01  0.14612527863E+02  0.10566000000E+00 0.  1.
        994    1    1    2    0    0 -0.12962701137E+02 -0.16228651328E+01  0.12040800377E+02  0.17211939515E+03  0.17120000000E+03 0.  0.
        998    1    1    2    0    0 -0.45589739364E+00 -0.29608534424E+01  0.14844313716E+04  0.14844680770E+04  0.10000000000E+02 0.  1.
</event>
<event>
 5    1  0.1294251E-008  0.3850160E+03  0.7957747E-01  0.3429605E+00
         13   -1    0    0    0    0  0.00000000000E+00  0.00000000000E+00  0.14999999963E+04  0.15000000000E+04  0.10566000000E+00 0.  1.
        994   -1    0    0    0    0 -0.00000000000E+00 -0.00000000000E+00  0.11368683772E-12  0.17120000000E+03  0.17120000000E+03 0.  0.
         13    1    1    2    0    0 -0.17385656896E+02 -0.86276888814E+01  0.11577422598E+03  0.11738986603E+03  0.10566000000E+00 0.  1.
        994    1    1    2    0    0  0.11350303663E+02  0.55646571810E+01  0.21478773567E+01  0.17167949260E+03  0.17120000000E+03 0.  0.
        998    1    1    2    0    0  0.60353532328E+01  0.30630317004E+01  0.13820778929E+04  0.13821306414E+04  0.10000000000E+02 0.  1.
</event>
<event>
 5    1  0.1294251E-008  0.3776866E+03  0.7957747E-01  0.3461294E+00
         13   -1    0    0    0    0  0.00000000000E+00  0.00000000000E+00  0.14999999963E+04  0.15000000000E+04  0.10566000000E+00 0. -1.
        994   -1    0    0    0    0 -0.00000000000E+00 -0.00000000000E+00  0.11368683772E-12  0.17120000000E+03  0.17120000000E+03 0.  0.
         13    1    1    2    0    0  0.85256061045E+02  0.55869988169E+02  0.53100089453E+03  0.54069585968E+03  0.10566000000E+00 0. -1.
        994    1    1    2    0    0 -0.10638301666E+03 -0.46921162847E+02  0.52290805370E+02  0.21345423416E+03  0.17120000000E+03 0.  0.
        998    1    1    2    0    0  0.21126955610E+02 -0.89488253222E+01  0.91670829638E+03  0.91704990615E+03  0.10000000000E+02 0.  1.
</event>
<event>
 5    1  0.1294251E-008  0.3808125E+03  0.7957747E-01  0.3447628E+00
         13   -1    0    0    0    0  0.00000000000E+00  0.00000000000E+00  0.14999999963E+04  0.15000000000E+04  0.10566000000E+00 0.  1.
        994   -1    0    0    0    0 -0.00000000000E+00 -0.00000000000E+00  0.11368683772E-12  0.17120000000E+03  0.17120000000E+03 0.  0.
         13    1    1    2    0    0  0.51118578282E+01  0.16128757103E+02  0.37338710505E+02  0.40993394131E+02  0.10566000000E+00 0.  1.
        994    1    1    2    0    0 -0.70697333077E+01 -0.71744700937E+01  0.40619005946E+01  0.17154414355E+03  0.17120000000E+03 0.  0.
        998    1    1    2    0    0  0.19578754794E+01 -0.89542870093E+01  0.14585993852E+04  0.14586624623E+04  0.10000000000E+02 0.  1.
</event>
<event>
 5    1  0.1294251E-008  0.3853322E+03  0.7957747E-01  0.3428265E+00
         13   -1    0    0    0    0  0.00000000000E+00  0.00000000000E+00  0.14999999963E+04  0.15000000000E+04  0.10566000000E+00 0.  1.
        994   -1    0    0    0    0 -0.00000000000E+00 -0.00000000000E+00  0.11368683772E-12  0.17120000000E+03  0.17120000000E+03 0.  0.
         13    1    1    2    0    0  0.73888216932E+01 -0.11183078034E+02  0.70132312553E+02  0.71401739113E+02  0.10566000000E+00 0.  1.
        994    1    1    2    0    0 -0.11881995390E+01 -0.12234936175E+02  0.19618697452E+01  0.17165195721E+03  0.17120000000E+03 0.  0.
        998    1    1    2    0    0 -0.62006221542E+01  0.23418014209E+02  0.14279058140E+04  0.14281463037E+04  0.10000000000E+02 0.  1.
</event>
<event>
 5    1  0.1294251E-008  0.3798452E+03  0.7957747E-01  0.3451833E+00
         13   -1    0    0    0    0  0.00000000000E+00  0.00000000000E+00  0.14999999963E+04  0.15000000000E+04  0.10566000000E+00 0. -1.
        994   -1    0    0    0    0 -0.00000000000E+00 -0.00000000000E+00  0.11368683772E-12  0.17120000000E+03  0.17120000000E+03 0.  0.
         13    1    1    2    0    0 -0.49618293201E+01  0.31016696783E+02  0.97667609683E+02  0.10259448511E+03  0.10566000000E+00 0. -1.
        994    1    1    2    0    0 -0.13765245277E+01 -0.54090008523E+02  0.14066044856E+02  0.18009696683E+03  0.17120000000E+03 0.  0.
        998    1    1    2    0    0  0.63383538478E+01  0.23073311740E+02  0.13882663417E+04  0.13885085481E+04  0.10000000000E+02 0. -1.
</event>
<event>
 5    1  0.1294251E-008  0.3818848E+03  0.7957747E-01  0.3442993E+00
         13   -1    0    0    0    0  0.00000000000E+00  0.00000000000E+00  0.14999999963E+04  0.15000000000E+04  0.10566000000E+00 0.  1.
        994   -1    0    0    0    0 -0.00000000000E+00 -0.00000000000E+00  0.11368683772E-12  0.17120000000E+03  0.17120000000E+03 0.  0.
         13    1    1    2    0    0 -0.15872436540E+02 -0.20074820874E+02  0.10142693411E+03  0.10460576850E+03  0.10566000000E+00 0.  1.
        994    1    1    2    0    0  0.23020558007E+01  0.19092997497E+02  0.44143892685E+01  0.17233330742E+03  0.17120000000E+03 0.  0.
        998    1    1    2    0    0  0.13570380740E+02  0.98182337714E+00  0.13941586729E+04  0.13942609241E+04  0.10000000000E+02 0.  1.
</event>
<event>
 5    1  0.1294251E-008  0.3796328E+03  0.7957747E-01  0.3452759E+00
         13   -1    0    0    0    0  0.00000000000E+00  0.00000000000E+00  0.14999999963E+04  0.15000000000E+04  0.10566000000E+00 0.  1.
        994   -1    0    0    0    0 -0.00000000000E+00 -0.00000000000E+00  0.11368683772E-12  0.17120000000E+03  0.17120000000E+03 0.  0.
         13    1    1    2    0    0  0.72703801342E+01  0.18834582799E+02  0.45866418294E+02  0.50113265985E+02  0.10566000000E+00 0.  1.
        994    1    1    2    0    0 -0.38000813471E+01 -0.10695694169E+02  0.47499511011E+01  0.17164160488E+03  0.17120000000E+03 0.  0.
        998    1    1    2    0    0 -0.34702987871E+01 -0.81388886298E+01  0.14493836269E+04  0.14494451291E+04  0.10000000000E+02 0.  1.
</event>
<event>
 5    1  0.1294251E-008  0.3806953E+03  0.7957747E-01  0.3448137E+00
         13   -1    0    0    0    0  0.00000000000E+00  0.00000000000E+00  0.14999999963E+04  0.15000000000E+04  0.10566000000E+00 0. -1.
        994   -1    0    0    0    0 -0.00000000000E+00 -0.00000000000E+00  0.11368683772E-12  0.17120000000E+03  0.17120000000E+03 0.  0.
         13    1    1    2    0    0  0.44731447306E+01  0.12819596225E+02  0.23610191754E+02  0.27236067812E+02  0.10566000000E+00 0. -1.
        994    1    1    2    0    0 -0.88319869722E+01  0.52173358716E+01  0.41336115690E+01  0.17155684577E+03  0.17120000000E+03 0.  0.
        998    1    1    2    0    0  0.43588422416E+01 -0.18036932097E+02  0.14722561930E+04  0.14724070864E+04  0.10000000000E+02 0. -1.
</event>
<event>
 5    1  0.1294251E-008  0.3809203E+03  0.7957747E-01  0.3447161E+00
         13   -1    0    0    0    0  0.00000000000E+00  0.00000000000E+00  0.14999999963E+04  0.15000000000E+04  0.10566000000E+00 0. -1.
        994   -1    0    0    0    0 -0.00000000000E+00 -0.00000000000E+00  0.11368683772E-12  0.17120000000E+03  0.17120000000E+03 0.  0.
         13    1    1    2    0    0  0.15214617740E+02 -0.44084039187E+02  0.25981277616E+03  0.26396510550E+03  0.10566000000E+00 0. -1.
        994    1    1    2    0    0 -0.87918453363E+01  0.40381954629E+02  0.93827143493E+01  0.17636744068E+03  0.17120000000E+03 0.  0.
        998    1    1    2    0    0 -0.64227724033E+01  0.37020845573E+01  0.12308045058E+04  0.12308674538E+04  0.10000000000E+02 0. -1.
</event>
<event>
 5    1  0.1294251E-008  0.3828612E+03  0.7957747E-01  0.3438794E+00
         13   -1    0    0    0    0  0.00000000000E+00  0.00000000000E+00  0.14999999963E+04  0.15000000000E+04  0.10566000000E+00 0.  1.
        994   -1    0    0    0    0 -0.00000000000E+00 -0.00000000000E+00  0.11368683772E-12  0.17120000000E+03  0.17120000000E+03 0.  0.
         13    1    1    2    0    0 -0.17763530542E+02 -0.29753126998E+02  0.19981698454E+03  0.20279948239E+03  0.10566000000E+00 0.  1.
        994    1    1    2    0    0  0.10263606036E+02  0.31315541567E+02  0.63005190727E+01  0.17445670320E+03  0.17120000000E+03 0.  0.
        998    1    1    2    0    0  0.74999245067E+01 -0.15624145683E+01  0.12938824927E+04  0.12939438144E+04  0.10000000000E+02 0.  1.
</event>
<event>
 5    1  0.1294251E-008  0.3833155E+03  0.7957747E-01  0.3436848E+00
         13   -1    0    0    0    0  0.00000000000E+00  0.00000000000E+00  0.14999999963E+04  0.15000000000E+04  0.10566000000E+00 0.  1.
        994   -1    0    0    0    0 -0.00000000000E+00 -0.00000000000E+00  0.11368683772E-12  0.17120000000E+03  0.17120000000E+03 0.  0.
         13    1    1    2    0    0 -0.45321639049E+01  0.11646070538E+02  0.30210005491E+02  0.32692920708E+02  0.10566000000E+00 0.  1.
        994    1    1    2    0    0  0.34741097824E+01 -0.13715973914E+02  0.31310703552E+01  0.17181222594E+03  0.17120000000E+03 0.  0.
        998    1    1    2    0    0  0.10580541225E+01  0.20699033761E+01  0.14666589204E+04  0.14666948534E+04  0.10000000000E+02 0.  1.
</event>
<event>
 5    1  0.1294251E-008  0.3779677E+03  0.7957747E-01  0.3460056E+00
         13   -1    0    0    0    0  0.00000000000E+00  0.00000000000E+00  0.14999999963E+04  0.15000000000E+04  0.10566000000E+00 0.  1.
        994   -1    0    0    0    0 -0.00000000000E+00 -0.00000000000E+00  0.11368683772E-12  0.17120000000E+03  0.17120000000E+03 0.  0.
         13    1    1    2    0    0  0.30206078126E+02 -0.31622268638E+01  0.89454232760E+02  0.94469454096E+02  0.10566000000E+00 0.  1.
        994    1    1    2    0    0 -0.11565071299E+02  0.23750068955E+02  0.75146522399E+01  0.17338894615E+03  0.17120000000E+03 0.  0.
        998    1    1    2    0    0 -0.18641006827E+02 -0.20587842091E+02  0.14030311113E+04  0.14033415998E+04  0.10000000000E+02 0.  1.
</event>
<event>
 5    1  0.1294251E-008  0.3850077E+03  0.7957747E-01  0.3429640E+00
         13   -1    0    0    0    0  0.00000000000E+00  0.00000000000E+00  0.14999999963E+04  0.15000000000E+04  0.10566000000E+00 0. -1.
        994   -1    0    0    0    0 -0.00000000000E+00 -0.00000000000E+00  0.11368683772E-12  0.17120000000E+03  0.17120000000E+03 0.  0.
         13    1    1    2    0    0 -0.94234709198E+01  0.82776604286E+01  0.47845505273E+02  0.49462359479E+02  0.10566000000E+00 0. -1.
        994    1    1    2    0    0  0.68196438584E+01 -0.76153451873E+01  0.19700618539E+01  0.17151624462E+03  0.17120000000E+03 0.  0.
        998    1    1    2    0    0  0.26038270614E+01 -0.66231524137E+00  0.14501844292E+04  0.14502213959E+04  0.10000000000E+02 0. -1.
</event>
<event>
 5    1  0.1294251E-008  0.3839382E+03  0.7957747E-01  0.3434188E+00
         13   -1    0    0    0    0  0.00000000000E+00  0.00000000000E+00  0.14999999963E+04  0.15000000000E+04  0.10566000000E+00 0. -1.
        994   -1    0    0    0    0 -0.00000000000E+00 -0.00000000000E+00  0.11368683772E-12  0.17120000000E+03  0.17120000000E+03 0.  0.
         13    1    1    2    0    0  0.27469227032E+01 -0.10690596011E+02  0.28617296874E+02  0.30672386145E+02  0.10566000000E+00 0. -1.
        994    1    1    2    0    0 -0.40183153878E+01 -0.29546284617E+01  0.22403235735E+01  0.17128729006E+03  0.17120000000E+03 0.  0.
        998    1    1    2    0    0  0.12713926846E+01  0.13645224472E+02  0.14691423758E+04  0.14692403238E+04  0.10000000000E+02 0. -1.
</event>
<event>
 5    1  0.1294251E-008  0.3816981E+03  0.7957747E-01  0.3443798E+00
         13   -1    0    0    0    0  0.00000000000E+00  0.00000000000E+00  0.14999999963E+04  0.15000000000E+04  0.10566000000E+00 0. -1.
        994   -1    0    0    0    0 -0.00000000000E+00 -0.00000000000E+00  0.11368683772E-12  0.17120000000E+03  0.17120000000E+03 0.  0.
         13    1    1    2    0    0  0.30043054375E+02 -0.23001777205E+02  0.19688756891E+03  0.20049038089E+03  0.10566000000E+00 0. -1.
        994    1    1    2    0    0 -0.35485749959E+02  0.10404734734E+02  0.78377009673E+01  0.17532360512E+03  0.17120000000E+03 0.  0.
        998    1    1    2    0    0  0.54426955840E+01  0.12597042471E+02  0.12952747264E+04  0.12953860140E+04  0.10000000000E+02 0. -1.
</event>
<event>
 5    1  0.1608122E-008  0.3859825E+03  0.7957747E-01  0.3425516E+00
         13   -1    0    0    0    0  0.00000000000E+00  0.00000000000E+00  0.14999999963E+04  0.15000000000E+04  0.10566000000E+00 0. -1.
        994   -1    0    0    0    0 -0.00000000000E+00 -0.00000000000E+00  0.11368683772E-12  0.17120000000E+03  0.17120000000E+03 0.  0.
         13    1    1    2    0    0  0.59888644608E+00  0.10463128559E+02  0.49101423601E+02  0.50207536167E+02  0.10566000000E+00 0. -1.
        994    1    1    2    0    0 -0.16416202220E+01 -0.53704179749E+01  0.12465342713E+01  0.17129661454E+03  0.17120000000E+03 0.  0.
        998    1    1    2    0    0  0.10427337759E+01 -0.50927105845E+01  0.14496520384E+04  0.14496958493E+04  0.10000000000E+02 0. -1.
</event>
<event>
 5    1  0.1294251E-008  0.3766154E+03  0.7957747E-01  0.3466029E+00
         13   -1    0    0    0    0  0.00000000000E+00  0.00000000000E+00  0.14999999963E+04  0.15000000000E+04  0.10566000000E+00 0. -1.
        994   -1    0    0    0    0 -0.00000000000E+00 -0.00000000000E+00  0.11368683772E-12  0.17120000000E+03  0.17120000000E+03 0.  0.
         13    1    1    2    0    0  0.26862610516E+02 -0.40332960273E+02  0.17335807068E+03  0.18000383152E+03  0.10566000000E+00 0. -1.
        994    1    1    2    0    0 -0.37053412305E+02  0.37728411919E+02  0.15364609548E+02  0.17983853774E+03  0.17120000000E+03 0.  0.
        998    1    1    2    0    0  0.10190801789E+02  0.26045483545E+01  0.13112773161E+04  0.13113576307E+04  0.10000000000E+02 0. -1.
</event>
<event>
 5    1  0.1294251E-008  0.3856484E+03  0.7957747E-01  0.3426927E+00
         13   -1    0    0    0    0  0.00000000000E+00  0.00000000000E+00  0.14999999963E+04  0.15000000000E+04  0.10566000000E+00 0. -1.
        994   -1    0    0    0    0 -0.00000000000E+00 -0.00000000000E+00  0.11368683772E-12  0.17120000000E+03  0.17120000000E+03 0.  0.
         13    1    1    2    0    0 -0.10042229204E+02 -0.65624273953E+01  0.54558084757E+02  0.55861503713E+02  0.10566000000E+00 0. -1.
        994    1    1    2    0    0  0.89595344144E+01  0.50774834755E+01  0.16566743516E+01  0.17151745878E+03  0.17120000000E+03 0.  0.
        998    1    1    2    0    0  0.10826947892E+01  0.14849439199E+01  0.14437852372E+04  0.14438210375E+04  0.10000000000E+02 0. -1.
</event>
<event>
 5    1  0.1294251E-008  0.3850602E+03  0.7957747E-01  0.3429417E+00
         13   -1    0    0    0    0  0.00000000000E+00  0.00000000000E+00  0.14999999963E+04  0.15000000000E+04  0.10566000000E+00 0.  1.
        994   -1    0    0    0    0 -0.00000000000E+00 -0.00000000000E+00  0.11368683772E-12  0.17120000000E+03  0.17120000000E+03 0.  0.
         13    1    1    2    0    0  0.90619045211E+01  0.87751331002E+01  0.55088304166E+02  0.56514188434E+02  0.10566000000E+00 0.  1.
        994    1    1    2    0    0  0.95507931346E+01  0.26660043125E+01  0.19236271396E+01  0.17149771302E+03  0.17120000000E+03 0.  0.
        998    1    1    2    0    0 -0.18612697656E+02 -0.11441137413E+02  0.14429880650E+04  0.14431880985E+04  0.10000000000E+02 0.  1.
</event>
<event>
 5    1  0.1294251E-008  0.3785427E+03  0.7957747E-01  0.3457529E+00
         13   -1    0    0    0    0  0.00000000000E+00  0.00000000000E+00  0.14999999963E+04  0.15000000000E+04  0.10566000000E+00 0.  1.
        994   -1    0    0    0    0 -0.00000000000E+00 -0.00000000000E+00  0.11368683772E-12  0.17120000000E+03  0.17120000000E+03 0.  0.
         13    1    1    2    0    0  0.41862660194E+02  0.11241727627E+02  0.16620923721E+03  0.17176839190E+03  0.10566000000E+00 0.  1.
        994    1    1    2    0    0 -0.43969280212E+02 -0.22691076543E+02  0.13138686132E+02  0.17869036804E+03  0.17120000000E+03 0.  0.
        998    1    1    2    0    0  0.21066200176E+01  0.11449348916E+02  0.13206520729E+04  0.13207412401E+04  0.10000000000E+02 0.  1.
</event>
<event>
 5    1  0.1294251E-008  0.3799735E+03  0.7957747E-01  0.3451274E+00
         13   -1    0    0    0    0  0.00000000000E+00  0.00000000000E+00  0.14999999963E+04  0.15000000000E+04  0.10566000000E+00 0. -1.
        994   -1    0    0    0    0 -0.00000000000E+00 -0.00000000000E+00  0.11368683772E-12  0.17120000000E+03  0.17120000000E+03 0.  0.
         13    1    1    2    0    0  0.11829053975E+02 -0.96935920309E+01  0.26599709326E+02  0.30683023721E+02  0.10566000000E+00 0. -1.
        994    1    1    2    0    0 -0.73018316956E+01  0.63095379543E+01  0.44579287259E+01  0.17152970630E+03  0.17120000000E+03 0.  0.
        998    1    1    2    0    0 -0.45272222793E+01  0.33840540766E+01  0.14689423582E+04  0.14689872700E+04  0.10000000000E+02 0. -1.
</event>
<event>
 5    1  0.1294251E-008  0.3858148E+03  0.7957747E-01  0.3426224E+00
         13   -1    0    0    0    0  0.00000000000E+00  0.00000000000E+00  0.14999999963E+04  0.15000000000E+04  0.10566000000E+00 0. -1.
        994   -1    0    0    0    0 -0.00000000000E+00 -0.00000000000E+00  0.11368683772E-12  0.17120000000E+03  0.17120000000E+03 0.  0.
         13    1    1    2    0    0  0.11421862445E+02  0.65282213447E+01  0.73755882404E+02  0.74920077209E+02  0.10566000000E+00 0. -1.
        994    1    1    2    0    0 -0.22217318524E+01 -0.45461413002E+01  0.13101288230E+01  0.17127977093E+03  0.17120000000E+03 0.  0.
        998    1    1    2    0    0 -0.92001305929E+01 -0.19820800445E+01  0.14249339851E+04  0.14250001519E+04  0.10000000000E+02 0. -1.
</event>
<event>
 5    1  0.1294251E-008  0.4150300E+03  0.7957747E-01  0.3311510E+00
         13   -1    0    0    0    0  0.00000000000E+00  0.00000000000E+00  0.14999999963E+04  0.15000000000E+04  0.10566000000E+00 0.  1.
        994   -1    0    0    0    0 -0.00000000000E+00 -0.00000000000E+00  0.11368683772E-12  0.17120000000E+03  0.17120000000E+03 0.  0.
         13    1    1    2    0    0  0.82665932370E+02 -0.72586492640E+02  0.43293112417E+03  0.44668985295E+03  0.10566000000E+00 0.  1.
        994    1    1    2    0    0  0.12082396179E+03 -0.26050240506E+02  0.10433813094E+03  0.23552692063E+03  0.17120000000E+03 0.  0.
        998    1    1    2    0    0 -0.20348989416E+03  0.98636733146E+02  0.96273074117E+03  0.98898322642E+03  0.10000000000E+02 0.  1.
</event>
<event>
 5    1  0.1294251E-008  0.3852033E+03  0.7957747E-01  0.3428810E+00
         13   -1    0    0    0    0  0.00000000000E+00  0.00000000000E+00  0.14999999963E+04  0.15000000000E+04  0.10566000000E+00 0. -1.
        994   -1    0    0    0    0 -0.00000000000E+00 -0.00000000000E+00  0.11368683772E-12  0.17120000000E+03  0.17120000000E+03 0.  0.
         13    1    1    2    0    0  0.90695016893E+01 -0.18318817010E+02  0.11655972431E+03  0.11833856266E+03  0.10566000000E+00 0. -1.
        994    1    1    2    0    0 -0.19775843597E+02  0.25636105966E+02  0.49820244845E+01  0.17430592212E+03  0.17120000000E+03 0.  0.
        998    1    1    2    0    0  0.10706341908E+02 -0.73172889555E+01  0.13784582475E+04  0.13785555152E+04  0.10000000000E+02 0. -1.
</event>
<event>
 5    1  0.1294251E-008  0.3810844E+03  0.7957747E-01  0.3446450E+00
         13   -1    0    0    0    0  0.00000000000E+00  0.00000000000E+00  0.14999999963E+04  0.15000000000E+04  0.10566000000E+00 0. -1.
        994   -1    0    0    0    0 -0.00000000000E+00 -0.00000000000E+00  0.11368683772E-12  0.17120000000E+03  0.17120000000E+03 0.  0.
         13    1    1    2    0    0  0.72253235621E+02  0.10585237778E+03  0.74926099932E+03  0.76014295511E+03  0.10566000000E+00 0. -1.
        994    1    1    2    0    0 -0.87674638475E+02 -0.11715432043E+03  0.78546406471E+02  0.23851824877E+03  0.17120000000E+03 0.  0.
        998    1    1    2    0    0  0.15421402854E+02  0.11301942649E+02  0.67219259049E+03  0.67253879612E+03  0.10000000000E+02 0.  1.
</event>
<event>
 5    1  0.1294251E-008  0.4008148E+03  0.7957747E-01  0.3365249E+00
         13   -1    0    0    0    0  0.00000000000E+00  0.00000000000E+00  0.14999999963E+04  0.15000000000E+04  0.10566000000E+00 0.  1.
        994   -1    0    0    0    0 -0.00000000000E+00 -0.00000000000E+00  0.11368683772E-12  0.17120000000E+03  0.17120000000E+03 0.  0.
         13    1    1    2    0    0 -0.28323399557E+02  0.98475751592E+02  0.15853370662E+03  0.18876608782E+03  0.10566000000E+00 0.  1.
        994    1    1    2    0    0  0.47590639581E+02 -0.92287742631E+02  0.72019748975E+02  0.21278670226E+03  0.17120000000E+03 0.  0.
        998    1    1    2    0    0 -0.19267240024E+02 -0.61880089601E+01  0.12694465407E+04  0.12696472099E+04  0.10000000000E+02 0.  1.
</event>
<event>
 5    1  0.1294251E-008  0.3826708E+03  0.7957747E-01  0.3439611E+00
         13   -1    0    0    0    0  0.00000000000E+00  0.00000000000E+00  0.14999999963E+04  0.15000000000E+04  0.10566000000E+00 0. -1.
        994   -1    0    0    0    0 -0.00000000000E+00 -0.00000000000E+00  0.11368683772E-12  0.17120000000E+03  0.17120000000E+03 0.  0.
         13    1    1    2    0    0  0.89756675976E+01 -0.54237189770E+01  0.18408452371E+02  0.21186354549E+02  0.10566000000E+00 0. -1.
        994    1    1    2    0    0 -0.76834140150E+01  0.92299241002E+01  0.32690208644E+01  0.17165183613E+03  0.17120000000E+03 0.  0.
        998    1    1    2    0    0 -0.12922535826E+01 -0.38062051233E+01  0.14783225230E+04  0.14783618093E+04  0.10000000000E+02 0. -1.
</event>
<event>
 5    1  0.1294251E-008  0.3831316E+03  0.7957747E-01  0.3437635E+00
         13   -1    0    0    0    0  0.00000000000E+00  0.00000000000E+00  0.14999999963E+04  0.15000000000E+04  0.10566000000E+00 0. -1.
        994   -1    0    0    0    0 -0.00000000000E+00 -0.00000000000E+00  0.11368683772E-12  0.17120000000E+03  0.17120000000E+03 0.  0.
         13    1    1    2    0    0 -0.73362320332E+00  0.15925955985E+02  0.49968352514E+02  0.52450182974E+02  0.10566000000E+00 0. -1.
        994    1    1    2    0    0 -0.17217125746E+01 -0.57983917745E+01  0.26816924002E+01  0.17132780602E+03  0.17120000000E+03 0.  0.
        998    1    1    2    0    0  0.24553357779E+01 -0.10127564210E+02  0.14473499514E+04  0.14474220110E+04  0.10000000000E+02 0. -1.
</event>
<event>
 5    1  0.1294251E-008  0.3699979E+03  0.7957747E-01  0.3495901E+00
         13   -1    0    0    0    0  0.00000000000E+00  0.00000000000E+00  0.14999999963E+04  0.15000000000E+04  0.10566000000E+00 0. -1.
        994   -1    0    0    0    0 -0.00000000000E+00 -0.00000000000E+00  0.11368683772E-12  0.17120000000E+03  0.17120000000E+03 0.  0.
         13    1    1    2    0    0  0.16143447268E+02 -0.37864429453E+02  0.82500600194E+02  0.92199165418E+02  0.10566000000E+00 0. -1.
        994    1    1    2    0    0 -0.15778977012E+02  0.42172926106E+02  0.16313532879E+02  0.17777261647E+03  0.17120000000E+03 0.  0.
        998    1    1    2    0    0 -0.36447025579E+00 -0.43084966523E+01  0.14011858632E+04  0.14012282181E+04  0.10000000000E+02 0. -1.
</event>
<event>
 5    1  0.1294251E-008  0.3835352E+03  0.7957747E-01  0.3435909E+00
         13   -1    0    0    0    0  0.00000000000E+00  0.00000000000E+00  0.14999999963E+04  0.15000000000E+04  0.10566000000E+00 0.  1.
        994   -1    0    0    0    0 -0.00000000000E+00 -0.00000000000E+00  0.11368683772E-12  0.17120000000E+03  0.17120000000E+03 0.  0.
         13    1    1    2    0    0  0.19006704067E+02  0.24283654358E+01  0.74617414881E+02  0.77038441870E+02  0.10566000000E+00 0.  1.
        994    1    1    2    0    0 -0.18855970540E+02  0.29096785027E+01  0.35629036277E+01  0.17229668638E+03  0.17120000000E+03 0.  0.
        998    1    1    2    0    0 -0.15073352691E+00 -0.53380439385E+01  0.14218196778E+04  0.14218648718E+04  0.10000000000E+02 0.  1.
</event>
<event>
 5    1  0.1294251E-008  0.3843309E+03  0.7957747E-01  0.3432515E+00
         13   -1    0    0    0    0  0.00000000000E+00  0.00000000000E+00  0.14999999963E+04  0.15000000000E+04  0.10566000000E+00 0. -1.
        994   -1    0    0    0    0 -0.00000000000E+00 -0.00000000000E+00  0.11368683772E-12  0.17120000000E+03  0.17120000000E+03 0.  0.
         13    1    1    2    0    0  0.81920377784E+02 -0.32985417442E+02  0.18326305381E+03  0.20343142362E+03  0.10566000000E+00 0. -1.
        994    1    1    2    0    0 -0.73083162946E+02  0.35537501086E+02  0.43471498872E+02  0.19443064034E+03  0.17120000000E+03 0.  0.
        998    1    1    2    0    0 -0.88372148377E+01 -0.25520836443E+01  0.12732654436E+04  0.12733379360E+04  0.10000000000E+02 0. -1.
</event>
<event>
 5    1  0.1294251E-008  0.3790617E+03  0.7957747E-01  0.3455254E+00
         13   -1    0    0    0    0  0.00000000000E+00  0.00000000000E+00  0.14999999963E+04  0.15000000000E+04  0.10566000000E+00 0. -1.
        994   -1    0    0    0    0 -0.00000000000E+00 -0.00000000000E+00  0.11368683772E-12  0.17120000000E+03  0.17120000000E+03 0.  0.
         13    1    1    2    0    0 -0.18803378248E+02  0.28318535921E+02  0.12574414332E+03  0.13025784911E+03  0.10566000000E+00 0. -1.
        994    1    1    2    0    0 -0.14215196956E+02 -0.31304012312E+02  0.85814151409E+01  0.17482875535E+03  0.17120000000E+03 0.  0.
        998    1    1    2    0    0  0.33018575204E+02  0.29854763912E+01  0.13656744378E+04  0.13661133955E+04  0.10000000000E+02 0. -1.
</event>
<event>
 5    1  0.1294251E-008  0.3790290E+03  0.7957747E-01  0.3455397E+00
         13   -1    0    0    0    0  0.00000000000E+00  0.00000000000E+00  0.14999999963E+04  0.15000000000E+04  0.10566000000E+00 0. -1.
        994   -1    0    0    0    0 -0.00000000000E+00 -0.00000000000E+00  0.11368683772E-12  0.17120000000E+03  0.17120000000E+03 0.  0.
         13    1    1    2    0    0  0.88714573740E+02  0.15942803801E+03  0.97390347983E+03  0.99084588816E+03  0.10566000000E+00 0. -1.
        994    1    1    2    0    0 -0.98612083435E+02 -0.15535104354E+03  0.12811183039E+03  0.28209993055E+03  0.17120000000E+03 0.  0.
        998    1    1    2    0    0  0.98975096956E+01 -0.40769944706E+01  0.39798468606E+03  0.39825418130E+03  0.10000000000E+02 0.  1.
</event>
<event>
 5    1  0.1294251E-008  0.3825672E+03  0.7957747E-01  0.3440056E+00
         13   -1    0    0    0    0  0.00000000000E+00  0.00000000000E+00  0.14999999963E+04  0.15000000000E+04  0.10566000000E+00 0. -1.
        994   -1    0    0    0    0 -0.00000000000E+00 -0.00000000000E+00  0.11368683772E-12  0.17120000000E+03  0.17120000000E+03 0.  0.
         13    1    1    2    0    0  0.17592172105E+02  0.21786034075E+02  0.15882727299E+03  0.16127687252E+03  0.10566000000E+00 0. -1.
        994    1    1    2    0    0 -0.33043640276E+01  0.50090351842E+01  0.29621821569E+01  0.17133074382E+03  0.17120000000E+03 0.  0.
        998    1    1    2    0    0 -0.14287808078E+02 -0.26795069259E+02  0.13382105411E+04  0.13385923837E+04  0.10000000000E+02 0. -1.
</event>
<event>
 5    1  0.1294251E-008  0.2860903E+03  0.7957747E-01  0.4000615E+00
         13   -1    0    0    0    0  0.00000000000E+00  0.00000000000E+00  0.14999999963E+04  0.15000000000E+04  0.10566000000E+00 0. -1.
        994   -1    0    0    0    0 -0.00000000000E+00 -0.00000000000E+00  0.11368683772E-12  0.17120000000E+03  0.17120000000E+03 0.  0.
         13    1    1    2    0    0 -0.66038378149E+02  0.17152628210E+03  0.63815776309E+03  0.66409914515E+03  0.10566000000E+00 0. -1.
        994    1    1    2    0    0  0.14421959669E+03 -0.85454447390E+02  0.14339695489E+03  0.27923803702E+03  0.17120000000E+03 0.  0.
        998    1    1    2    0    0 -0.78181218537E+02 -0.86071834712E+02  0.71844527830E+03  0.72786281783E+03  0.10000000000E+02 0.  1.
</event>
<event>
 5    1  0.1294251E-008  0.3803732E+03  0.7957747E-01  0.3449535E+00
         13   -1    0    0    0    0  0.00000000000E+00  0.00000000000E+00  0.14999999963E+04  0.15000000000E+04  0.10566000000E+00 0.  1.
        994   -1    0    0    0    0 -0.00000000000E+00 -0.00000000000E+00  0.11368683772E-12  0.17120000000E+03  0.17120000000E+03 0.  0.
         13    1    1    2    0    0 -0.20447620343E+02 -0.30952049246E+02  0.19556895948E+03  0.19905618203E+03  0.10566000000E+00 0.  1.
        994    1    1    2    0    0  0.68646008887E+01  0.20813558278E+01  0.41167056807E+01  0.17139965593E+03  0.17120000000E+03 0.  0.
        998    1    1    2    0    0  0.13583019454E+02  0.28870693418E+02  0.13003143311E+04  0.13007441620E+04  0.10000000000E+02 0.  1.
</event>
<event>
 5    1  0.1294251E-008  0.3832168E+03  0.7957747E-01  0.3437270E+00
         13   -1    0    0    0    0  0.00000000000E+00  0.00000000000E+00  0.14999999963E+04  0.15000000000E+04  0.10566000000E+00 0. -1.
        994   -1    0    0    0    0 -0.00000000000E+00 -0.00000000000E+00  0.11368683772E-12  0.17120000000E+03  0.17120000000E+03 0.  0.
         13    1    1    2    0    0  0.16868906807E+02  0.14607033866E+02  0.10414773538E+03  0.10651144260E+03  0.10566000000E+00 0. -1.
        994    1    1    2    0    0  0.43312154810E+00 -0.81386572903E+01  0.27377992318E+01  0.17141575447E+03  0.17120000000E+03 0.  0.
        998    1    1    2    0    0 -0.17302028356E+02 -0.64683765760E+01  0.13931144617E+04  0.13932728029E+04  0.10000000000E+02 0. -1.
</event>
<event>
 5    1  0.1294251E-008  0.3781475E+03  0.7957747E-01  0.3459265E+00
         13   -1    0    0    0    0  0.00000000000E+00  0.00000000000E+00  0.14999999963E+04  0.15000000000E+04  0.10566000000E+00 0.  1.
        994   -1    0    0    0    0 -0.00000000000E+00 -0.00000000000E+00  0.11368683772E-12  0.17120000000E+03  0.17120000000E+03 0.  0.
         13    1    1    2    0    0 -0.16234813121E+02 -0.35971327124E+02  0.14617597228E+03  0.15140981331E+03  0.10566000000E+00 0.  1.
        994    1    1    2    0    0  0.19370175391E+02  0.24131399127E+02  0.82985941298E+01  0.17417185416E+03  0.17120000000E+03 0.  0.
        998    1    1    2    0    0 -0.31353622705E+01  0.11839927997E+02  0.13455254299E+04  0.13456183325E+04  0.10000000000E+02 0.  1.
</event>
<event>
 5    1  0.2468090E-008  0.3860688E+03  0.7957747E-01  0.3425152E+00
         13   -1    0    0    0    0  0.00000000000E+00  0.00000000000E+00  0.14999999963E+04  0.15000000000E+04  0.10566000000E+00 0.  1.
        994   -1    0    0    0    0 -0.00000000000E+00 -0.00000000000E+00  0.11368683772E-12  0.17120000000E+03  0.17120000000E+03 0.  0.
         13    1    1    2    0    0 -0.10878852533E+02  0.27020244801E+01  0.59766354088E+02  0.60808540631E+02  0.10566000000E+00 0.  1.
        994    1    1    2    0    0  0.21954707215E+01 -0.39142259457E+01  0.11664204835E+01  0.17126278578E+03  0.17120000000E+03 0.  0.
        998    1    1    2    0    0  0.86833818115E+01  0.12122014656E+01  0.14390672217E+04  0.14391286736E+04  0.10000000000E+02 0.  1.
</event>
<event>
 5    1  0.1294251E-008  0.3836476E+03  0.7957747E-01  0.3435428E+00
         13   -1    0    0    0    0  0.00000000000E+00  0.00000000000E+00  0.14999999963E+04  0.15000000000E+04  0.10566000000E+00 0.  1.
        994   -1    0    0    0    0 -0.00000000000E+00 -0.00000000000E+00  0.11368683772E-12  0.17120000000E+03  0.17120000000E+03 0.  0.
         13    1    1    2    0    0 -0.13667334234E+02 -0.74630271246E+01  0.52187583585E+02  0.54461434460E+02  0.10566000000E+00 0.  1.
        994    1    1    2    0    0  0.81140631808E+01  0.55646036633E+01  0.26229039120E+01  0.17150254360E+03  0.17120000000E+03 0.  0.
        998    1    1    2    0    0  0.55532710530E+01  0.18984234613E+01  0.14451895088E+04  0.14452360219E+04  0.10000000000E+02 0.  1.
</event>
<event>
 5    1  0.1294251E-008  0.3841180E+03  0.7957747E-01  0.3433421E+00
         13   -1    0    0    0    0  0.00000000000E+00  0.00000000000E+00  0.14999999963E+04  0.15000000000E+04  0.10566000000E+00 0. -1.
        994   -1    0    0    0    0 -0.00000000000E+00 -0.00000000000E+00  0.11368683772E-12  0.17120000000E+03  0.17120000000E+03 0.  0.
         13    1    1    2    0    0  0.12688888544E+01  0.17370572438E+02  0.71281179556E+02  0.73378229664E+02  0.10566000000E+00 0. -1.
        994    1    1    2    0    0 -0.67994249669E+01 -0.14742465520E+02  0.29384217384E+01  0.17199315914E+03  0.17120000000E+03 0.  0.
        998    1    1    2    0    0  0.55305361125E+01 -0.26281069176E+01  0.14257803950E+04  0.14258286112E+04  0.10000000000E+02 0. -1.
</event>
<event>
 5    1  0.1294251E-008  0.3826457E+03  0.7957747E-01  0.3439719E+00
         13   -1    0    0    0    0  0.00000000000E+00  0.00000000000E+00  0.14999999963E+04  0.15000000000E+04  0.10566000000E+00 0. -1.
        994   -1    0    0    0    0 -0.00000000000E+00 -0.00000000000E+00  0.11368683772E-12  0.17120000000E+03  0.17120000000E+03 0.  0.
         13    1    1    2    0    0 -0.86094153425E+01 -0.11786857141E+02  0.38960526641E+02  0.41605117882E+02  0.10566000000E+00 0. -1.
        994    1    1    2    0    0  0.55667837715E+01 -0.75730566950E+01  0.30963524496E+01  0.17148576520E+03  0.17120000000E+03 0.  0.
        998    1    1    2    0    0  0.30426315709E+01  0.19359913836E+02  0.14579431172E+04  0.14581091169E+04  0.10000000000E+02 0. -1.
</event>
<event>
 5    1  0.1294251E-008  0.3831238E+03  0.7957747E-01  0.3437669E+00
         13   -1    0    0    0    0  0.00000000000E+00  0.00000000000E+00  0.14999999963E+04  0.15000000000E+04  0.10566000000E+00 0.  1.
        994   -1    0    0    0    0 -0.00000000000E+00 -0.00000000000E+00  0.11368683772E-12  0.17120000000E+03  0.17120000000E+03 0.  0.
         13    1    1    2    0    0  0.61010564656E+01  0.10197498884E+02  0.26867997655E+02  0.29378773554E+02  0.10566000000E+00 0.  1.
        994    1    1    2    0    0  0.28876638998E+01 -0.85858442648E+01  0.28360740271E+01  0.17146293664E+03  0.17120000000E+03 0.  0.
        998    1    1    2    0    0 -0.89887203654E+01 -0.16116546189E+01  0.14702959246E+04  0.14703582898E+04  0.10000000000E+02 0.  1.
</event>
<event>
 5    1  0.1294251E-008  0.3696952E+03  0.7957747E-01  0.3497293E+00
         13   -1    0    0    0    0  0.00000000000E+00  0.00000000000E+00  0.14999999963E+04  0.15000000000E+04  0.10566000000E+00 0. -1.
        994   -1    0    0    0    0 -0.00000000000E+00 -0.00000000000E+00  0.11368683772E-12  0.17120000000E+03  0.17120000000E+03 0.  0.
         13    1    1    2    0    0 -0.15940419855E+02 -0.10380882493E+02  0.12131679340E+02  0.22562103495E+02  0.10566000000E+00 0. -1.
        994    1    1    2    0    0  0.11226125138E+02  0.34325171705E+01  0.11259128820E+02  0.17197097442E+03  0.17120000000E+03 0.  0.
        998    1    1    2    0    0  0.47142947168E+01  0.69483653222E+01  0.14766091881E+04  0.14766669221E+04  0.10000000000E+02 0. -1.
</event>
<event>
 5    1  0.1294251E-008  0.3801011E+03  0.7957747E-01  0.3450718E+00
         13   -1    0    0    0    0  0.00000000000E+00  0.00000000000E+00  0.14999999963E+04  0.15000000000E+04  0.10566000000E+00 0. -1.
        994   -1    0    0    0    0 -0.00000000000E+00 -0.00000000000E+00  0.11368683772E-12  0.17120000000E+03  0.17120000000E+03 0.  0.
         13    1    1    2    0    0  0.11464774902E+02  0.15202077593E+01  0.14973376009E+02  0.18919969565E+02  0.10566000000E+00 0. -1.
        994    1    1    2    0    0  0.22129401087E+01 -0.86069577632E+01  0.43460693332E+01  0.17148558291E+03  0.17120000000E+03 0.  0.
        998    1    1    2    0    0 -0.13677715011E+02  0.70867500040E+01  0.14806805509E+04  0.14807944475E+04  0.10000000000E+02 0. -1.
</event>
<event>
 5    1  0.1294251E-008  0.3206108E+03  0.7957747E-01  0.3759045E+00
         13   -1    0    0    0    0  0.00000000000E+00  0.00000000000E+00  0.14999999963E+04  0.15000000000E+04  0.10566000000E+00 0.  1.
        994   -1    0    0    0    0 -0.00000000000E+00 -0.00000000000E+00  0.11368683772E-12  0.17120000000E+03  0.17120000000E+03 0.  0.
         13    1    1    2    0    0  0.22230832653E+03  0.64763600442E+02  0.11121973841E+04  0.11360450468E+04  0.10566000000E+00 0.  1.
        994    1    1    2    0    0 -0.11989036928E+03  0.16028624801E+02  0.13166772727E+03  0.24754080040E+03  0.17120000000E+03 0.  0.
        998    1    1    2    0    0 -0.10241795724E+03 -0.80792225243E+02  0.25613488491E+03  0.28761415280E+03  0.10000000000E+02 0.  1.
</event>
<event>
 5    1  0.1294251E-008  0.3772251E+03  0.7957747E-01  0.3463331E+00
         13   -1    0    0    0    0  0.00000000000E+00  0.00000000000E+00  0.14999999963E+04  0.15000000000E+04  0.10566000000E+00 0. -1.
        994   -1    0    0    0    0 -0.00000000000E+00 -0.00000000000E+00  0.11368683772E-12  0.17120000000E+03  0.17120000000E+03 0.  0.
         13    1    1    2    0    0 -0.24439907846E+02 -0.11529089908E+02  0.61177627474E+02  0.66880058889E+02  0.10566000000E+00 0. -1.
        994    1    1    2    0    0  0.24535249730E+02  0.15550117786E+02  0.83925687219E+01  0.17384953222E+03  0.17120000000E+03 0.  0.
        998    1    1    2    0    0 -0.95341884570E-01 -0.40210278784E+01  0.14304298001E+04  0.14304704089E+04  0.10000000000E+02 0. -1.
</event>
<event>
 5    1  0.1294251E-008  0.3854608E+03  0.7957747E-01  0.3427720E+00
         13   -1    0    0    0    0  0.00000000000E+00  0.00000000000E+00  0.14999999963E+04  0.15000000000E+04  0.10566000000E+00 0.  1.
        994   -1    0    0    0    0 -0.00000000000E+00 -0.00000000000E+00  0.11368683772E-12  0.17120000000E+03  0.17120000000E+03 0.  0.
         13    1    1    2    0    0 -0.68239500755E+01 -0.10717433859E+02  0.54927109212E+02  0.56377550263E+02  0.10566000000E+00 0.  1.
        994    1    1    2    0    0  0.12115963544E+02  0.12234624227E+02  0.23757144845E+01  0.17208011687E+03  0.17120000000E+03 0.  0.
        998    1    1    2    0    0 -0.52920134680E+01 -0.15171903686E+01  0.14426971726E+04  0.14427423329E+04  0.10000000000E+02 0.  1.
</event>
<event>
 5    1  0.1294251E-008  0.3831000E+03  0.7957747E-01  0.3437771E+00
         13   -1    0    0    0    0  0.00000000000E+00  0.00000000000E+00  0.14999999963E+04  0.15000000000E+04  0.10566000000E+00 0. -1.
        994   -1    0    0    0    0 -0.00000000000E+00 -0.00000000000E+00  0.11368683772E-12  0.17120000000E+03  0.17120000000E+03 0.  0.
         13    1    1    2    0    0 -0.25795462190E+02  0.17613676641E+02  0.16936756374E+03  0.17222377968E+03  0.10566000000E+00 0. -1.
        994    1    1    2    0    0  0.27796913149E+02 -0.15172988381E+02  0.59020855179E+01  0.17420437012E+03  0.17120000000E+03 0.  0.
        998    1    1    2    0    0 -0.20014509590E+01 -0.24406882600E+01  0.13247303470E+04  0.13247718502E+04  0.10000000000E+02 0. -1.
</event>
<event>
 5    1  0.1294251E-008  0.3828931E+03  0.7957747E-01  0.3438657E+00
         13   -1    0    0    0    0  0.00000000000E+00  0.00000000000E+00  0.14999999963E+04  0.15000000000E+04  0.10566000000E+00 0.  1.
        994   -1    0    0    0    0 -0.00000000000E+00 -0.00000000000E+00  0.11368683772E-12  0.17120000000E+03  0.17120000000E+03 0.  0.
         13    1    1    2    0    0  0.11968407517E+02 -0.19513791355E+02  0.10246124879E+03  0.10498737781E+03  0.10566000000E+00 0.  1.
        994    1    1    2    0    0 -0.46113351663E+01  0.37230369954E+01  0.27961329785E+01  0.17132537400E+03  0.17120000000E+03 0.  0.
        998    1    1    2    0    0 -0.73570723512E+01  0.15790754359E+02  0.13947426145E+04  0.13948872482E+04  0.10000000000E+02 0.  1.
</event>
<event>
 5    1  0.1294251E-008  0.3696275E+03  0.7957747E-01  0.3497605E+00
         13   -1    0    0    0    0  0.00000000000E+00  0.00000000000E+00  0.14999999963E+04  0.15000000000E+04  0.10566000000E+00 0.  1.
        994   -1    0    0    0    0 -0.00000000000E+00 -0.00000000000E+00  0.11368683772E-12  0.17120000000E+03  0.17120000000E+03 0.  0.
         13    1    1    2    0    0  0.34448296218E+02 -0.51709080120E+00  0.58062481754E+02  0.67514557295E+02  0.10566000000E+00 0.  1.
        994    1    1    2    0    0 -0.28799222152E+02  0.27887194992E+01  0.12367738464E+02  0.17406772563E+03  0.17120000000E+03 0.  0.
        998    1    1    2    0    0 -0.56490740665E+01 -0.22716286981E+01  0.14295697761E+04  0.14296177171E+04  0.10000000000E+02 0.  1.
</event>
<event>
 5    1  0.1294251E-008  0.3832796E+03  0.7957747E-01  0.3437002E+00
         13   -1    0    0    0    0  0.00000000000E+00  0.00000000000E+00  0.14999999963E+04  0.15000000000E+04  0.10566000000E+00 0.  1.
        994   -1    0    0    0    0 -0.00000000000E+00 -0.00000000000E+00  0.11368683772E-12  0.17120000000E+03  0.17120000000E+03 0.  0.
         13    1    1    2    0    0 -0.36785312982E+00 -0.16910623195E+02  0.53029639966E+02  0.55662001148E+02  0.10566000000E+00 0.  1.
        994    1    1    2    0    0  0.46196697488E+01  0.25709381368E+02  0.47464370934E+01  0.17324630531E+03  0.17120000000E+03 0.  0.
        998    1    1    2    0    0 -0.42518166190E+01 -0.87987581730E+01  0.14422239192E+04  0.14422916935E+04  0.10000000000E+02 0.  1.
</event>
<event>
 5    1  0.1294251E-008  0.3834849E+03  0.7957747E-01  0.3436123E+00
         13   -1    0    0    0    0  0.00000000000E+00  0.00000000000E+00  0.14999999963E+04  0.15000000000E+04  0.10566000000E+00 0. -1.
        994   -1    0    0    0    0 -0.00000000000E+00 -0.00000000000E+00  0.11368683772E-12  0.17120000000E+03  0.17120000000E+03 0.  0.
         13    1    1    2    0    0 -0.45445905557E+02 -0.12407292113E+02  0.50629569720E+02  0.69156602892E+02  0.10566000000E+00 0. -1.
        994    1    1    2    0    0  0.53302237787E+02  0.28902096263E+02  0.31876354887E+02  0.18439631700E+03  0.17120000000E+03 0.  0.
        998    1    1    2    0    0 -0.78563322293E+01 -0.16494804150E+02  0.14174940717E+04  0.14176470801E+04  0.10000000000E+02 0. -1.
</event>
<event>
 5    1  0.1294251E-008  0.3747145E+03  0.7957747E-01  0.3474501E+00
         13   -1    0    0    0    0  0.00000000000E+00  0.00000000000E+00  0.14999999963E+04  0.15000000000E+04  0.10566000000E+00 0.  1.
        994   -1    0    0    0    0 -0.00000000000E+00 -0.00000000000E+00  0.11368683772E-12  0.17120000000E+03  0.17120000000E+03 0.  0.
         13    1    1    2    0    0  0.44462861872E+02 -0.71229356458E+02  0.41166327024E+03  0.42013953222E+03  0.10566000000E+00 0.  1.
        994    1    1    2    0    0  0.95342812871E+01  0.10047444377E+03  0.42314440060E+02  0.20318948843E+03  0.17120000000E+03 0.  0.
        998    1    1    2    0    0 -0.53997143159E+02 -0.29245087308E+02  0.10460222860E+04  0.10478709794E+04  0.10000000000E+02 0.  1.
</event>
<event>
 5    1  0.1294251E-008  0.3698534E+03  0.7957747E-01  0.3496565E+00
         13   -1    0    0    0    0  0.00000000000E+00  0.00000000000E+00  0.14999999963E+04  0.15000000000E+04  0.10566000000E+00 0. -1.
        994   -1    0    0    0    0 -0.00000000000E+00 -0.00000000000E+00  0.11368683772E-12  0.17120000000E+03  0.17120000000E+03 0.  0.
         13    1    1    2    0    0 -0.19739497994E+02  0.59349584216E+02  0.18445241989E+03  0.19476839398E+03  0.10566000000E+00 0. -1.
        994    1    1    2    0    0  0.35831815152E+01 -0.61725810519E+02  0.22689402368E+02  0.18343163264E+03  0.17120000000E+03 0.  0.
        998    1    1    2    0    0  0.16156316479E+02  0.23762263028E+01  0.12928581740E+04  0.12929999734E+04  0.10000000000E+02 0.  1.
</event>
<event>
 5    1  0.1294251E-008  0.3813686E+03  0.7957747E-01  0.3445221E+00
         13   -1    0    0    0    0  0.00000000000E+00  0.00000000000E+00  0.14999999963E+04  0.15000000000E+04  0.10566000000E+00 0. -1.
        994   -1    0    0    0    0 -0.00000000000E+00 -0.00000000000E+00  0.11368683772E-12  0.17120000000E+03  0.17120000000E+03 0.  0.
         13    1    1    2    0    0 -0.27872148592E+01 -0.15505403371E+02  0.33542764025E+02  0.37058255259E+02  0.10566000000E+00 0. -1.
        994    1    1    2    0    0 -0.57657900453E+02  0.31879634593E+02  0.18026601655E+02  0.18432347369E+03  0.17120000000E+03 0.  0.
        998    1    1    2    0    0  0.60445115312E+02 -0.16374231222E+02  0.14484306306E+04  0.14498182710E+04  0.10000000000E+02 0. -1.
</event>
<event>
 5    1  0.1294251E-008  0.3830393E+03  0.7957747E-01  0.3438031E+00
         13   -1    0    0    0    0  0.00000000000E+00  0.00000000000E+00  0.14999999963E+04  0.15000000000E+04  0.10566000000E+00 0.  1.
        994   -1    0    0    0    0 -0.00000000000E+00 -0.00000000000E+00  0.11368683772E-12  0.17120000000E+03  0.17120000000E+03 0.  0.
         13    1    1    2    0    0  0.19103782615E+02 -0.50411445055E+01  0.71336190815E+02  0.74021827404E+02  0.10566000000E+00 0.  1.
        994    1    1    2    0    0 -0.18386718839E+02  0.81970763377E+01  0.39491674430E+01  0.17242476450E+03  0.17120000000E+03 0.  0.
        998    1    1    2    0    0 -0.71706377590E+00 -0.31559318322E+01  0.14247146380E+04  0.14247534081E+04  0.10000000000E+02 0.  1.
</event>
<event>
 5    1  0.1294251E-008  0.3820718E+03  0.7957747E-01  0.3442187E+00
         13   -1    0    0    0    0  0.00000000000E+00  0.00000000000E+00  0.14999999963E+04  0.15000000000E+04  0.10566000000E+00 0. -1.
        994   -1    0    0    0    0 -0.00000000000E+00 -0.00000000000E+00  0.11368683772E-12  0.17120000000E+03  0.17120000000E+03 0.  0.
         13    1    1    2    0    0  0.26431021037E+02 -0.22233377369E+01  0.13391585526E+03  0.13651743316E+03  0.10566000000E+00 0. -1.
        994    1    1    2    0    0  0.80256351105E+01 -0.52615186542E+01  0.33967632816E+01  0.17150239765E+03  0.17120000000E+03 0.  0.
        998    1    1    2    0    0 -0.34456656148E+02  0.74848563910E+01  0.13626873777E+04  0.13631801692E+04  0.10000000000E+02 0. -1.
</event>
<event>
 5    1  0.1294251E-008  0.3755488E+03  0.7957747E-01  0.3470772E+00
         13   -1    0    0    0    0  0.00000000000E+00  0.00000000000E+00  0.14999999963E+04  0.15000000000E+04  0.10566000000E+00 0. -1.
        994   -1    0    0    0    0 -0.00000000000E+00 -0.00000000000E+00  0.11368683772E-12  0.17120000000E+03  0.17120000000E+03 0.  0.
         13    1    1    2    0    0  0.21236049059E+02 -0.17768840796E+01  0.36780421702E+02  0.42508089598E+02  0.10566000000E+00 0. -1.
        994    1    1    2    0    0  0.23027251758E+02 -0.22680232257E+02  0.99497806772E+01  0.17450812415E+03  0.17120000000E+03 0.  0.
        998    1    1    2    0    0 -0.44263300816E+02  0.24457116337E+02  0.14532697939E+04  0.14541837863E+04  0.10000000000E+02 0. -1.
</event>
<event>
 5    1  0.1411882E-008  0.3862020E+03  0.7957747E-01  0.3424590E+00
         13   -1    0    0    0    0  0.00000000000E+00  0.00000000000E+00  0.14999999963E+04  0.15000000000E+04  0.10566000000E+00 0.  1.
        994   -1    0    0    0    0 -0.00000000000E+00 -0.00000000000E+00  0.11368683772E-12  0.17120000000E+03  0.17120000000E+03 0.  0.
         13    1    1    2    0    0  0.85868712529E+01 -0.61337273762E+01  0.58067600385E+02  0.59018762677E+02  0.10566000000E+00 0.  1.
        994    1    1    2    0    0  0.38141653057E+01  0.37903508845E+01  0.11292810800E+01  0.17128814872E+03  0.17120000000E+03 0.  0.
        998    1    1    2    0    0 -0.12401036559E+02  0.23433764917E+01  0.14408031148E+04  0.14408930886E+04  0.10000000000E+02 0.  1.
</event>
<event>
 5    1  0.1294251E-008  0.3744267E+03  0.7957747E-01  0.3475791E+00
         13   -1    0    0    0    0  0.00000000000E+00  0.00000000000E+00  0.14999999963E+04  0.15000000000E+04  0.10566000000E+00 0. -1.
        994   -1    0    0    0    0 -0.00000000000E+00 -0.00000000000E+00  0.11368683772E-12  0.17120000000E+03  0.17120000000E+03 0.  0.
         13    1    1    2    0    0  0.12304864083E+02  0.11014564491E+02  0.16992902899E+02  0.23695995949E+02  0.10566000000E+00 0. -1.
        994    1    1    2    0    0  0.83650792644E+01 -0.88648812583E+01  0.74795365261E+01  0.17179622853E+03  0.17120000000E+03 0.  0.
        998    1    1    2    0    0 -0.20669943348E+02 -0.21496832327E+01  0.14755275569E+04  0.14757077755E+04  0.10000000000E+02 0. -1.
</event>
<event>
 5    1  0.1294251E-008  0.3857921E+03  0.7957747E-01  0.3426320E+00
         13   -1    0    0    0    0  0.00000000000E+00  0.00000000000E+00  0.14999999963E+04  0.15000000000E+04  0.10566000000E+00 0.  1.
        994   -1    0    0    0    0 -0.00000000000E+00 -0.00000000000E+00  0.11368683772E-12  0.17120000000E+03  0.17120000000E+03 0.  0.
         13    1    1    2    0    0 -0.76974186054E+01 -0.10073416054E+02  0.64282280307E+02  0.65520582184E+02  0.10566000000E+00 0.  1.
        994    1    1    2    0    0  0.48339329756E+01  0.10240070144E+02  0.16581272742E+01  0.17158209502E+03  0.17120000000E+03 0.  0.
        998    1    1    2    0    0  0.28634856298E+01 -0.16665409059E+00  0.14340595887E+04  0.14340973228E+04  0.10000000000E+02 0.  1.
</event>
<event>
 5    1  0.1294251E-008  0.3704706E+03  0.7957747E-01  0.3493731E+00
         13   -1    0    0    0    0  0.00000000000E+00  0.00000000000E+00  0.14999999963E+04  0.15000000000E+04  0.10566000000E+00 0.  1.
        994   -1    0    0    0    0 -0.00000000000E+00 -0.00000000000E+00  0.11368683772E-12  0.17120000000E+03  0.17120000000E+03 0.  0.
         13    1    1    2    0    0 -0.13240774877E+02 -0.17601137293E+02  0.23778815190E+02  0.32412364450E+02  0.10566000000E+00 0.  1.
        994    1    1    2    0    0  0.45483551840E+00  0.35816671616E+01  0.90683276107E+01  0.17147801544E+03  0.17120000000E+03 0.  0.
        998    1    1    2    0    0  0.12785939359E+02  0.14019470131E+02  0.14671528535E+04  0.14673096201E+04  0.10000000000E+02 0.  1.
</event>
<event>
 5    1  0.1294251E-008  0.3834171E+03  0.7957747E-01  0.3436414E+00
         13   -1    0    0    0    0  0.00000000000E+00  0.00000000000E+00  0.14999999963E+04  0.15000000000E+04  0.10566000000E+00 0.  1.
        994   -1    0    0    0    0 -0.00000000000E+00 -0.00000000000E+00  0.11368683772E-12  0.17120000000E+03  0.17120000000E+03 0.  0.
         13    1    1    2    0    0 -0.14716218445E+02 -0.26820346840E+02  0.18202243013E+03  0.18457538928E+03  0.10566000000E+00 0.  1.
        994    1    1    2    0    0  0.18982642486E+02  0.17709219111E+02  0.46491047976E+01  0.17321954662E+03  0.17120000000E+03 0.  0.
        998    1    1    2    0    0 -0.42664240407E+01  0.91111277297E+01  0.13133284613E+04  0.13134050641E+04  0.10000000000E+02 0.  1.
</event>
<event>
 5    1  0.1294251E-008  0.3836214E+03  0.7957747E-01  0.3435540E+00
         13   -1    0    0    0    0  0.00000000000E+00  0.00000000000E+00  0.14999999963E+04  0.15000000000E+04  0.10566000000E+00 0. -1.
        994   -1    0    0    0    0 -0.00000000000E+00 -0.00000000000E+00  0.11368683772E-12  0.17120000000E+03  0.17120000000E+03 0.  0.
         13    1    1    2    0    0 -0.12198228312E+02  0.17084503015E+01  0.32337871423E+02  0.34604402446E+02  0.10566000000E+00 0. -1.
        994    1    1    2    0    0  0.47764510451E+01 -0.10781242677E+02  0.27756227623E+01  0.17162806810E+03  0.17120000000E+03 0.  0.
        998    1    1    2    0    0  0.74217772672E+01  0.90727923758E+01  0.14648865021E+04  0.14649675295E+04  0.10000000000E+02 0. -1.
</event>
<event>
 5    1  0.1294251E-008  0.3847405E+03  0.7957747E-01  0.3430773E+00
         13   -1    0    0    0    0  0.00000000000E+00  0.00000000000E+00  0.14999999963E+04  0.15000000000E+04  0.10566000000E+00 0.  1.
        994   -1    0    0    0    0 -0.00000000000E+00 -0.00000000000E+00  0.11368683772E-12  0.17120000000E+03  0.17120000000E+03 0.  0.
         13    1    1    2    0    0  0.44429355962E+01 -0.12547386499E+02  0.51562866693E+02  0.53253328256E+02  0.10566000000E+00 0.  1.
        994    1    1    2    0    0  0.45649622763E+01  0.58539506676E+01  0.19404116381E+01  0.17137185538E+03  0.17120000000E+03 0.  0.
        998    1    1    2    0    0 -0.90078978725E+01  0.66934358310E+01  0.14464967179E+04  0.14465748164E+04  0.10000000000E+02 0.  1.
</event>
<event>
 5    1  0.1294251E-008  0.3690917E+03  0.7957747E-01  0.3500076E+00
         13   -1    0    0    0    0  0.00000000000E+00  0.00000000000E+00  0.14999999963E+04  0.15000000000E+04  0.10566000000E+00 0.  1.
        994   -1    0    0    0    0 -0.00000000000E+00 -0.00000000000E+00  0.11368683772E-12  0.17120000000E+03  0.17120000000E+03 0.  0.
         13    1    1    2    0    0 -0.18866286292E+02  0.29047588521E+02  0.56167807679E+02  0.65988884980E+02  0.10566000000E+00 0.  1.
        994    1    1    2    0    0  0.21589970285E+02 -0.25395234144E+02  0.13608033020E+02  0.17494474355E+03  0.17120000000E+03 0.  0.
        998    1    1    2    0    0 -0.27236839935E+01 -0.36523543775E+01  0.14302241556E+04  0.14302663715E+04  0.10000000000E+02 0.  1.
</event>
<event>
 5    1  0.1294251E-008  0.3692720E+03  0.7957747E-01  0.3499243E+00
         13   -1    0    0    0    0  0.00000000000E+00  0.00000000000E+00  0.14999999963E+04  0.15000000000E+04  0.10566000000E+00 0. -1.
        994   -1    0    0    0    0 -0.00000000000E+00 -0.00000000000E+00  0.11368683772E-12  0.17120000000E+03  0.17120000000E+03 0.  0.
         13    1    1    2    0    0 -0.48778174980E+02 -0.52903230084E+02  0.23820669895E+03  0.24883831035E+03  0.10566000000E+00 0. -1.
        994    1    1    2    0    0  0.43338121641E+02  0.43256262385E+02  0.22761217117E+02  0.18323976104E+03  0.17120000000E+03 0.  0.
        998    1    1    2    0    0  0.54400533396E+01  0.96469676990E+01  0.12390320802E+04  0.12391219286E+04  0.10000000000E+02 0. -1.
</event>
<event>
 5    1  0.1294251E-008  0.3781633E+03  0.7957747E-01  0.3459195E+00
         13   -1    0    0    0    0  0.00000000000E+00  0.00000000000E+00  0.14999999963E+04  0.15000000000E+04  0.10566000000E+00 0. -1.
        994   -1    0    0    0    0 -0.00000000000E+00 -0.00000000000E+00  0.11368683772E-12  0.17120000000E+03  0.17120000000E+03 0.  0.
         13    1    1    2    0    0  0.51556717791E+00 -0.62737721911E+02  0.34214332394E+03  0.34784817498E+03  0.10566000000E+00 0. -1.
        994    1    1    2    0    0 -0.60739379841E+01  0.49253002020E+02  0.13391346225E+02  0.17874987856E+03  0.17120000000E+03 0.  0.
        998    1    1    2    0    0  0.55583708062E+01  0.13484719892E+02  0.11444653261E+04  0.11446019465E+04  0.10000000000E+02 0. -1.
</event>
<event>
 5    1  0.1294251E-008  0.3855789E+03  0.7957747E-01  0.3427221E+00
         13   -1    0    0    0    0  0.00000000000E+00  0.00000000000E+00  0.14999999963E+04  0.15000000000E+04  0.10566000000E+00 0.  1.
        994   -1    0    0    0    0 -0.00000000000E+00 -0.00000000000E+00  0.11368683772E-12  0.17120000000E+03  0.17120000000E+03 0.  0.
         13    1    1    2    0    0 -0.69465315257E+01  0.82172269657E+01  0.48215293883E+02  0.49401445803E+02  0.10566000000E+00 0.  1.
        994    1    1    2    0    0 -0.10334256254E+02  0.46920600165E+01  0.17659343984E+01  0.17158487930E+03  0.17120000000E+03 0.  0.
        998    1    1    2    0    0  0.17280787780E+02 -0.12909286982E+02  0.14500187680E+04  0.14502136749E+04  0.10000000000E+02 0.  1.
</event>
<event>
 5    1  0.1294251E-008  0.3716355E+03  0.7957747E-01  0.3488408E+00
         13   -1    0    0    0    0  0.00000000000E+00  0.00000000000E+00  0.14999999963E+04  0.15000000000E+04  0.10566000000E+00 0. -1.
        994   -1    0    0    0    0 -0.00000000000E+00 -0.00000000000E+00  0.11368683772E-12  0.17120000000E+03  0.17120000000E+03 0.  0.
         13    1    1    2    0    0 -0.59156030491E+02  0.51643831825E+02  0.28894490479E+03  0.29942560090E+03  0.10566000000E+00 0. -1.
        994    1    1    2    0    0  0.50012746508E+02 -0.65486313169E+02  0.32136234654E+02  0.19269641824E+03  0.17120000000E+03 0.  0.
        998    1    1    2    0    0  0.91432839831E+01  0.13842481344E+02  0.11789188568E+04  0.11790779809E+04  0.10000000000E+02 0. -1.
</event>
<event>
 5    1  0.1294251E-008  0.3820699E+03  0.7957747E-01  0.3442195E+00
         13   -1    0    0    0    0  0.00000000000E+00  0.00000000000E+00  0.14999999963E+04  0.15000000000E+04  0.10566000000E+00 0.  1.
        994   -1    0    0    0    0 -0.00000000000E+00 -0.00000000000E+00  0.11368683772E-12  0.17120000000E+03  0.17120000000E+03 0.  0.
         13    1    1    2    0    0 -0.30033308439E+02  0.39553164998E+01  0.18245272771E+03  0.18495040729E+03  0.10566000000E+00 0.  1.
        994    1    1    2    0    0 -0.75201058767E+01  0.16749523008E+01  0.32889997810E+01  0.17140482775E+03  0.17120000000E+03 0.  0.
        998    1    1    2    0    0  0.37553414315E+02 -0.56302688006E+01  0.13142582688E+04  0.13148447650E+04  0.10000000000E+02 0.  1.
</event>
<event>
 5    1  0.1294251E-008  0.3863506E+03  0.7957747E-01  0.3423964E+00
         13   -1    0    0    0    0  0.00000000000E+00  0.00000000000E+00  0.14999999963E+04  0.15000000000E+04  0.10566000000E+00 0.  1.
        994   -1    0    0    0    0 -0.00000000000E+00 -0.00000000000E+00  0.11368683772E-12  0.17120000000E+03  0.17120000000E+03 0.  0.
         13    1    1    2    0    0 -0.97302506764E+01  0.33342542777E+01  0.56523627323E+02  0.57451950704E+02  0.10566000000E+00 0.  1.
        994    1    1    2    0    0  0.11276831351E+02  0.13532253682E+02  0.19776982545E+01  0.17211519429E+03  0.17120000000E+03 0.  0.
        998    1    1    2    0    0 -0.15465806744E+01 -0.16866507960E+02  0.14414986707E+04  0.14416328550E+04  0.10000000000E+02 0.  1.
</event>
<event>
 5    1  0.1294251E-008  0.3850296E+03  0.7957747E-01  0.3429547E+00
         13   -1    0    0    0    0  0.00000000000E+00  0.00000000000E+00  0.14999999963E+04  0.15000000000E+04  0.10566000000E+00 0. -1.
        994   -1    0    0    0    0 -0.00000000000E+00 -0.00000000000E+00  0.11368683772E-12  0.17120000000E+03  0.17120000000E+03 0.  0.
         13    1    1    2    0    0  0.10025507131E+02  0.76860451542E+01  0.48151384962E+02  0.49781051828E+02  0.10566000000E+00 0. -1.
        994    1    1    2    0    0 -0.13118166534E+02 -0.41810352692E+01  0.22390354459E+01  0.17176734448E+03  0.17120000000E+03 0.  0.
        998    1    1    2    0    0  0.30926594027E+01 -0.35050098850E+01  0.14496095759E+04  0.14496516037E+04  0.10000000000E+02 0. -1.
</event>
<event>
 5    1  0.1294251E-008  0.3723437E+03  0.7957747E-01  0.3485189E+00
         13   -1    0    0    0    0  0.00000000000E+00  0.00000000000E+00  0.14999999963E+04  0.15000000000E+04  0.10566000000E+00 0.  1.
        994   -1    0    0    0    0 -0.00000000000E+00 -0.00000000000E+00  0.11368683772E-12  0.17120000000E+03  0.17120000000E+03 0.  0.
         13    1    1    2    0    0 -0.73505923022E+01 -0.53263037132E+02  0.18477639671E+03  0.19244040708E+03  0.10566000000E+00 0.  1.
        994    1    1    2    0    0 -0.70553022074E+01  0.24753876394E+02  0.10324967551E+02  0.17343176364E+03  0.17120000000E+03 0.  0.
        998    1    1    2    0    0  0.14405894510E+02  0.28509160738E+02  0.13048986320E+04  0.13053278293E+04  0.10000000000E+02 0.  1.
</event>
<event>
 5    1  0.1294251E-008  0.3779838E+03  0.7957747E-01  0.3459985E+00
         13   -1    0    0    0    0  0.00000000000E+00  0.00000000000E+00  0.14999999963E+04  0.15000000000E+04  0.10566000000E+00 0. -1.
        994   -1    0    0    0    0 -0.00000000000E+00 -0.00000000000E+00  0.11368683772E-12  0.17120000000E+03  0.17120000000E+03 0.  0.
         13    1    1    2    0    0 -0.94712796927E+01 -0.19667235286E+02  0.45398737734E+02  0.50374217956E+02  0.10566000000E+00 0. -1.
        994    1    1    2    0    0 -0.41159529445E+01  0.91746615936E+01  0.54947227439E+01  0.17158306286E+03  0.17120000000E+03 0.  0.
        998    1    1    2    0    0  0.13587232637E+02  0.10492573692E+02  0.14491065358E+04  0.14492427192E+04  0.10000000000E+02 0. -1.
</event>
<event>
 5    1  0.1294251E-008  0.3791051E+03  0.7957747E-01  0.3455065E+00
         13   -1    0    0    0    0  0.00000000000E+00  0.00000000000E+00  0.14999999963E+04  0.15000000000E+04  0.10566000000E+00 0. -1.
        994   -1    0    0    0    0 -0.00000000000E+00 -0.00000000000E+00  0.11368683772E-12  0.17120000000E+03  0.17120000000E+03 0.  0.
         13    1    1    2    0    0  0.14417544140E+02 -0.14996775480E+02  0.44556472014E+02  0.49173765528E+02  0.10566000000E+00 0. -1.
        994    1    1    2    0    0 -0.14649225151E+02  0.12721690577E+02  0.58487391023E+01  0.17239515352E+03  0.17120000000E+03 0.  0.
        998    1    1    2    0    0  0.23168101088E+00  0.22750849025E+01  0.14495947852E+04  0.14496310809E+04  0.10000000000E+02 0. -1.
</event>
<event>
 5    1  0.1294251E-008  0.3841892E+03  0.7957747E-01  0.3433118E+00
         13   -1    0    0    0    0  0.00000000000E+00  0.00000000000E+00  0.14999999963E+04  0.15000000000E+04  0.10566000000E+00 0.  1.
        994   -1    0    0    0    0 -0.00000000000E+00 -0.00000000000E+00  0.11368683772E-12  0.17120000000E+03  0.17120000000E+03 0.  0.
         13    1    1    2    0    0 -0.13195151446E+01 -0.12779824784E+02  0.39798360954E+02  0.41820876849E+02  0.10566000000E+00 0.  1.
        994    1    1    2    0    0 -0.17374782085E+01  0.10774655720E+02  0.24260702629E+01  0.17156467542E+03  0.17120000000E+03 0.  0.
        998    1    1    2    0    0  0.30569933531E+01  0.20051690645E+01  0.14577755651E+04  0.14578144477E+04  0.10000000000E+02 0.  1.
</event>
<event>
 5    1  0.1294251E-008  0.3687000E+03  0.7957747E-01  0.3501887E+00
         13   -1    0    0    0    0  0.00000000000E+00  0.00000000000E+00  0.14999999963E+04  0.15000000000E+04  0.10566000000E+00 0.  1.
        994   -1    0    0    0    0 -0.00000000000E+00 -0.00000000000E+00  0.11368683772E-12  0.17120000000E+03  0.17120000000E+03 0.  0.
         13    1    1    2    0    0 -0.20404945294E+02  0.28055546817E+02  0.55177308219E+02  0.65176851765E+02  0.10566000000E+00 0.  1.
        994    1    1    2    0    0  0.91739029889E+01 -0.19094231032E+02  0.11816305541E+02  0.17290984712E+03  0.17120000000E+03 0.  0.
        998    1    1    2    0    0  0.11231042305E+02 -0.89613157846E+01  0.14330063825E+04  0.14331133011E+04  0.10000000000E+02 0.  1.
</event>
<event>
 5    1  0.1294251E-008  0.3817042E+03  0.7957747E-01  0.3443772E+00
         13   -1    0    0    0    0  0.00000000000E+00  0.00000000000E+00  0.14999999963E+04  0.15000000000E+04  0.10566000000E+00 0. -1.
        994   -1    0    0    0    0 -0.00000000000E+00 -0.00000000000E+00  0.11368683772E-12  0.17120000000E+03  0.17120000000E+03 0.  0.
         13    1    1    2    0    0 -0.84974565063E+00 -0.16605148765E+02  0.40301425641E+02  0.43596663931E+02  0.10566000000E+00 0. -1.
        994    1    1    2    0    0  0.18474559971E+02  0.15013500177E+02  0.51615031085E+01  0.17292424835E+03  0.17120000000E+03 0.  0.
        998    1    1    2    0    0 -0.17624814320E+02  0.15916485885E+01  0.14545370675E+04  0.14546790877E+04  0.10000000000E+02 0. -1.
</event>
<event>
 5    1  0.1294251E-008  0.3851407E+03  0.7957747E-01  0.3429076E+00
         13   -1    0    0    0    0  0.00000000000E+00  0.00000000000E+00  0.14999999963E+04  0.15000000000E+04  0.10566000000E+00 0.  1.
        994   -1    0    0    0    0 -0.00000000000E+00 -0.00000000000E+00  0.11368683772E-12  0.17120000000E+03  0.17120000000E+03 0.  0.
         13    1    1    2    0    0  0.14503255396E+02  0.26004569126E+01  0.71504390655E+02  0.73006820504E+02  0.10566000000E+00 0.  1.
        994    1    1    2    0    0 -0.62310256829E+01  0.13345953824E+01  0.16938011863E+01  0.17132692663E+03  0.17120000000E+03 0.  0.
        998    1    1    2    0    0 -0.82722297132E+01 -0.39350522950E+01  0.14268018044E+04  0.14268662529E+04  0.10000000000E+02 0.  1.
</event>
<event>
 5    1  0.1294251E-008  0.3837159E+03  0.7957747E-01  0.3435137E+00
         13   -1    0    0    0    0  0.00000000000E+00  0.00000000000E+00  0.14999999963E+04  0.15000000000E+04  0.10566000000E+00 0. -1.
        994   -1    0    0    0    0 -0.00000000000E+00 -0.00000000000E+00  0.11368683772E-12  0.17120000000E+03  0.17120000000E+03 0.  0.
         13    1    1    2    0    0 -0.35606453425E+01  0.10820037658E+02  0.26345250234E+02  0.28702522260E+02  0.10566000000E+00 0. -1.
        994    1    1    2    0    0 -0.14546482821E+02 -0.29640475432E+02  0.58775014934E+01  0.17445384195E+03  0.17120000000E+03 0.  0.
        998    1    1    2    0    0  0.18107128163E+02  0.18820437774E+02  0.14677772446E+04  0.14680436358E+04  0.10000000000E+02 0. -1.
</event>
<event>
 5    1  0.1294251E-008  0.3731430E+03  0.7957747E-01  0.3481570E+00
         13   -1    0    0    0    0  0.00000000000E+00  0.00000000000E+00  0.14999999963E+04  0.15000000000E+04  0.10566000000E+00 0.  1.
        994   -1    0    0    0    0 -0.00000000000E+00 -0.00000000000E+00  0.11368683772E-12  0.17120000000E+03  0.17120000000E+03 0.  0.
         13    1    1    2    0    0 -0.68544369505E+01  0.27246308495E+02  0.49638470226E+02  0.57038000692E+02  0.10566000000E+00 0.  1.
        994    1    1    2    0    0 -0.68462695840E+01 -0.14512707176E+02  0.85166742696E+01  0.17216115653E+03  0.17120000000E+03 0.  0.
        998    1    1    2    0    0  0.13700706534E+02 -0.12733601319E+02  0.14418448518E+04  0.14420008428E+04  0.10000000000E+02 0.  1.
</event>
<event>
 5    1  0.1294251E-008  0.3848919E+03  0.7957747E-01  0.3430131E+00
         13   -1    0    0    0    0  0.00000000000E+00  0.00000000000E+00  0.14999999963E+04  0.15000000000E+04  0.10566000000E+00 0. -1.
        994   -1    0    0    0    0 -0.00000000000E+00 -0.00000000000E+00  0.11368683772E-12  0.17120000000E+03  0.17120000000E+03 0.  0.
         13    1    1    2    0    0  0.19008652307E+01 -0.14117245258E+02  0.56209844155E+02  0.57986788550E+02  0.10566000000E+00 0. -1.
        994    1    1    2    0    0 -0.22705091795E+01  0.21224946536E+02  0.31842431870E+01  0.17255501433E+03  0.17120000000E+03 0.  0.
        998    1    1    2    0    0  0.36964394877E+00 -0.71077012772E+01  0.14406059089E+04  0.14406581971E+04  0.10000000000E+02 0. -1.
</event>
<event>
 5    1  0.1294251E-008  0.3849574E+03  0.7957747E-01  0.3429853E+00
         13   -1    0    0    0    0  0.00000000000E+00  0.00000000000E+00  0.14999999963E+04  0.15000000000E+04  0.10566000000E+00 0. -1.
        994   -1    0    0    0    0 -0.00000000000E+00 -0.00000000000E+00  0.11368683772E-12  0.17120000000E+03  0.17120000000E+03 0.  0.
         13    1    1    2    0    0 -0.13669820129E+02 -0.60872138675E+01  0.64972057614E+02  0.66673064949E+02  0.10566000000E+00 0. -1.
        994    1    1    2    0    0  0.15832336563E+02  0.54136997117E+01  0.25726652197E+01  0.17203496631E+03  0.17120000000E+03 0.  0.
        998    1    1    2    0    0 -0.21625164338E+01  0.67351415579E+00  0.14324552734E+04  0.14324919687E+04  0.10000000000E+02 0.  0.
</event>
<event>
 5    1  0.1567915E-008  0.3856959E+03  0.7957747E-01  0.3426726E+00
         13   -1    0    0    0    0  0.00000000000E+00  0.00000000000E+00  0.14999999963E+04  0.15000000000E+04  0.10566000000E+00 0. -1.
        994   -1    0    0    0    0 -0.00000000000E+00 -0.00000000000E+00  0.11368683772E-12  0.17120000000E+03  0.17120000000E+03 0.  0.
         13    1    1    2    0    0  0.14057726073E+02 -0.21323552545E+01  0.80841539565E+02  0.82082472456E+02  0.10566000000E+00 0. -1.
        994    1    1    2    0    0 -0.71086921012E+01 -0.15469727178E+01  0.14587161665E+01  0.17136071452E+03  0.17120000000E+03 0.  0.
        998    1    1    2    0    0 -0.69490339714E+01  0.36793279722E+01  0.14176997405E+04  0.14177568130E+04  0.10000000000E+02 0. -1.
</event>
<event>
 5    1  0.1294251E-008  0.3744630E+03  0.7957747E-01  0.3475628E+00
         13   -1    0    0    0    0  0.00000000000E+00  0.00000000000E+00  0.14999999963E+04  0.15000000000E+04  0.10566000000E+00 0. -1.
        994   -1    0    0    0    0 -0.00000000000E+00 -0.00000000000E+00  0.11368683772E-12  0.17120000000E+03  0.17120000000E+03 0.  0.
         13    1    1    2    0    0  0.23137622636E+02 -0.20417727808E+02  0.61122866041E+02  0.68470790175E+02  0.10566000000E+00 0. -1.
        994    1    1    2    0    0 -0.30927893611E+02  0.28090948499E+02  0.12922585081E+02  0.17669767739E+03  0.17120000000E+03 0.  0.
        998    1    1    2    0    0  0.77902709753E+01 -0.76732206902E+01  0.14259545452E+04  0.14260315324E+04  0.10000000000E+02 0. -1.
</event>
<event>
 5    1  0.1294251E-008  0.3826734E+03  0.7957747E-01  0.3439600E+00
         13   -1    0    0    0    0  0.00000000000E+00  0.00000000000E+00  0.14999999963E+04  0.15000000000E+04  0.10566000000E+00 0. -1.
        994   -1    0    0    0    0 -0.00000000000E+00 -0.00000000000E+00  0.11368683772E-12  0.17120000000E+03  0.17120000000E+03 0.  0.
         13    1    1    2    0    0  0.66794558122E+01  0.86096715776E+01  0.19820958599E+02  0.22619087922E+02  0.10566000000E+00 0. -1.
        994    1    1    2    0    0 -0.94847395006E+01 -0.10654990490E+02  0.34642648278E+01  0.17182819977E+03  0.17120000000E+03 0.  0.
        998    1    1    2    0    0  0.28052836884E+01  0.20453189125E+01  0.14767147729E+04  0.14767527123E+04  0.10000000000E+02 0. -1.
</event>
<event>
 5    1  0.1294251E-008  0.3848731E+03  0.7957747E-01  0.3430211E+00
         13   -1    0    0    0    0  0.00000000000E+00  0.00000000000E+00  0.14999999963E+04  0.15000000000E+04  0.10566000000E+00 0. -1.
        994   -1    0    0    0    0 -0.00000000000E+00 -0.00000000000E+00  0.11368683772E-12  0.17120000000E+03  0.17120000000E+03 0.  0.
         13    1    1    2    0    0  0.14884637387E+02  0.10309903404E+02  0.92389500146E+02  0.94147105317E+02  0.10566000000E+00 0. -1.
        994    1    1    2    0    0 -0.14667720593E+02 -0.10312847963E+02  0.27515893834E+01  0.17215838087E+03  0.17120000000E+03 0.  0.
        998    1    1    2    0    0 -0.21691679400E+00  0.29445589877E-02  0.14048589067E+04  0.14048945138E+04  0.10000000000E+02 0.  0.
</event>
<event>
 5    1  0.1294251E-008  0.3855351E+03  0.7957747E-01  0.3427406E+00
         13   -1    0    0    0    0  0.00000000000E+00  0.00000000000E+00  0.14999999963E+04  0.15000000000E+04  0.10566000000E+00 0.  1.
        994   -1    0    0    0    0 -0.00000000000E+00 -0.00000000000E+00  0.11368683772E-12  0.17120000000E+03  0.17120000000E+03 0.  0.
         13    1    1    2    0    0 -0.70319315352E+01 -0.90638108061E+01  0.47102373588E+02  0.48479330535E+02  0.10566000000E+00 0.  1.
        994    1    1    2    0    0  0.11516500855E+02  0.69050229981E+01  0.19568952876E+01  0.17173694586E+03  0.17120000000E+03 0.  0.
        998    1    1    2    0    0 -0.44845693200E+01  0.21587878081E+01  0.14509407274E+04  0.14509837236E+04  0.10000000000E+02 0.  0.
</event>
<event>
 5    1  0.1294251E-008  0.3724561E+03  0.7957747E-01  0.3484679E+00
         13   -1    0    0    0    0  0.00000000000E+00  0.00000000000E+00  0.14999999963E+04  0.15000000000E+04  0.10566000000E+00 0. -1.
        994   -1    0    0    0    0 -0.00000000000E+00 -0.00000000000E+00  0.11368683772E-12  0.17120000000E+03  0.17120000000E+03 0.  0.
         13    1    1    2    0    0  0.23611970230E+02  0.14063016750E+02  0.24980902243E+02  0.37139604456E+02  0.10566000000E+00 0. -1.
        994    1    1    2    0    0 -0.29212679960E+02 -0.15704663095E+02  0.16132339596E+02  0.17512769482E+03  0.17120000000E+03 0.  0.
        998    1    1    2    0    0  0.56007097302E+01  0.16416463446E+01  0.14588867544E+04  0.14589327007E+04  0.10000000000E+02 0. -1.
</event>
<event>
 5    1  0.1294251E-008  0.3809278E+03  0.7957747E-01  0.3447128E+00
         13   -1    0    0    0    0  0.00000000000E+00  0.00000000000E+00  0.14999999963E+04  0.15000000000E+04  0.10566000000E+00 0. -1.
        994   -1    0    0    0    0 -0.00000000000E+00 -0.00000000000E+00  0.11368683772E-12  0.17120000000E+03  0.17120000000E+03 0.  0.
         13    1    1    2    0    0  0.19011134013E+02 -0.24041517952E+02  0.14736878222E+03  0.15052238019E+03  0.10566000000E+00 0. -1.
        994    1    1    2    0    0  0.34619005301E+01 -0.21440195851E+01  0.37207771120E+01  0.17128883722E+03  0.17120000000E+03 0.  0.
        998    1    1    2    0    0 -0.22473034543E+02  0.26185537537E+02  0.13489104369E+04  0.13493887826E+04  0.10000000000E+02 0. -1.
</event>
<event>
 5    1  0.1294251E-008  0.3845630E+03  0.7957747E-01  0.3431528E+00
         13   -1    0    0    0    0  0.00000000000E+00  0.00000000000E+00  0.14999999963E+04  0.15000000000E+04  0.10566000000E+00 0. -1.
        994   -1    0    0    0    0 -0.00000000000E+00 -0.00000000000E+00  0.11368683772E-12  0.17120000000E+03  0.17120000000E+03 0.  0.
         13    1    1    2    0    0 -0.40113150402E+01 -0.17692553618E+02  0.91924433338E+02  0.93697543780E+02  0.10566000000E+00 0. -1.
        994    1    1    2    0    0  0.50464365739E+00  0.69836438867E+01  0.20087154892E+01  0.17135489746E+03  0.17120000000E+03 0.  0.
        998    1    1    2    0    0  0.35066713828E+01  0.10708909731E+02  0.14060668475E+04  0.14061475588E+04  0.10000000000E+02 0. -1.
</event>
<event>
 5    1  0.1294251E-008  0.3848079E+03  0.7957747E-01  0.3430487E+00
         13   -1    0    0    0    0  0.00000000000E+00  0.00000000000E+00  0.14999999963E+04  0.15000000000E+04  0.10566000000E+00 0. -1.
        994   -1    0    0    0    0 -0.00000000000E+00 -0.00000000000E+00  0.11368683772E-12  0.17120000000E+03  0.17120000000E+03 0.  0.
         13    1    1    2    0    0  0.99076995904E+01 -0.30684194703E+01  0.31021863551E+02  0.32710012098E+02  0.10566000000E+00 0. -1.
        994    1    1    2    0    0 -0.67004856920E+01 -0.14484023095E+01  0.18801946989E+01  0.17134751095E+03  0.17120000000E+03 0.  0.
        998    1    1    2    0    0 -0.32072138984E+01  0.45168217798E+01  0.14670979380E+04  0.14671424769E+04  0.10000000000E+02 0. -1.
</event>
<event>
 5    1  0.1294251E-008  0.3837338E+03  0.7957747E-01  0.3435060E+00
         13   -1    0    0    0    0  0.00000000000E+00  0.00000000000E+00  0.14999999963E+04  0.15000000000E+04  0.10566000000E+00 0. -1.
        994   -1    0    0    0    0 -0.00000000000E+00 -0.00000000000E+00  0.11368683772E-12  0.17120000000E+03  0.17120000000E+03 0.  0.
         13    1    1    2    0    0  0.24954313716E+02  0.44821137537E+01  0.14387772497E+03  0.14609455165E+03  0.10566000000E+00 0. -1.
        994    1    1    2    0    0 -0.11907999028E+02 -0.10332000743E+02  0.30813006566E+01  0.17195198485E+03  0.17120000000E+03 0.  0.
        998    1    1    2    0    0 -0.13046314687E+02  0.58498869890E+01  0.13530409707E+04  0.13531534635E+04  0.10000000000E+02 0. -1.
</event>
<event>
 5    1  0.1294251E-008  0.3936465E+03  0.7957747E-01  0.3393809E+00
         13   -1    0    0    0    0  0.00000000000E+00  0.00000000000E+00  0.14999999963E+04  0.15000000000E+04  0.10566000000E+00 0.  1.
        994   -1    0    0    0    0 -0.00000000000E+00 -0.00000000000E+00  0.11368683772E-12  0.17120000000E+03  0.17120000000E+03 0.  0.
         13    1    1    2    0    0 -0.11159746977E+02  0.18442221504E+02 -0.92943749008E+00  0.21576155929E+02  0.10566000000E+00 0.  1.
        994    1    1    2    0    0  0.12006222655E+02 -0.17974754684E+02  0.25820047444E+02  0.17448024541E+03  0.17120000000E+03 0.  0.
        998    1    1    2    0    0 -0.84647567720E+00 -0.46746681982E+00  0.14751093863E+04  0.14751435987E+04  0.10000000000E+02 0.  1.
</event>
<event>
 5    1  0.1294251E-008  0.3766477E+03  0.7957747E-01  0.3465886E+00
         13   -1    0    0    0    0  0.00000000000E+00  0.00000000000E+00  0.14999999963E+04  0.15000000000E+04  0.10566000000E+00 0. -1.
        994   -1    0    0    0    0 -0.00000000000E+00 -0.00000000000E+00  0.11368683772E-12  0.17120000000E+03  0.17120000000E+03 0.  0.
         13    1    1    2    0    0 -0.45457366962E+02  0.38000564445E+02  0.28355716432E+03  0.28968101717E+03  0.10566000000E+00 0. -1.
        994    1    1    2    0    0  0.34739702434E+02 -0.21856225760E+02  0.11550750076E+02  0.17642959320E+03  0.17120000000E+03 0.  0.
        998    1    1    2    0    0  0.10717664528E+02 -0.16144338685E+02  0.12048920819E+04  0.12050893896E+04  0.10000000000E+02 0. -1.
</event>
<event>
 5    1  0.1294251E-008  0.3798041E+03  0.7957747E-01  0.3452012E+00
         13   -1    0    0    0    0  0.00000000000E+00  0.00000000000E+00  0.14999999963E+04  0.15000000000E+04  0.10566000000E+00 0. -1.
        994   -1    0    0    0    0 -0.00000000000E+00 -0.00000000000E+00  0.11368683772E-12  0.17120000000E+03  0.17120000000E+03 0.  0.
         13    1    1    2    0    0  0.31587239266E+02  0.74298453859E+02  0.23819075065E+03  0.25150121031E+03  0.10566000000E+00 0. -1.
        994    1    1    2    0    0 -0.87878286328E+02  0.23643985600E+02  0.46858122875E+02  0.19946617493E+03  0.17120000000E+03 0.  0.
        998    1    1    2    0    0  0.56291047061E+02 -0.97942439460E+02  0.12149511228E+04  0.12202326148E+04  0.10000000000E+02 0. -1.
</event>
<event>
 5    1  0.1294251E-008  0.3817711E+03  0.7957747E-01  0.3443483E+00
         13   -1    0    0    0    0  0.00000000000E+00  0.00000000000E+00  0.14999999963E+04  0.15000000000E+04  0.10566000000E+00 0.  1.
        994   -1    0    0    0    0 -0.00000000000E+00 -0.00000000000E+00  0.11368683772E-12  0.17120000000E+03  0.17120000000E+03 0.  0.
         13    1    1    2    0    0 -0.11462035176E+02  0.57588379046E+01  0.23828795352E+02  0.27062245220E+02  0.10566000000E+00 0.  1.
        994    1    1    2    0    0  0.10234864374E+02 -0.82726045573E+01  0.38175576392E+01  0.17174749541E+03  0.17120000000E+03 0.  0.
        998    1    1    2    0    0  0.12271708029E+01  0.25137666527E+01  0.14723536433E+04  0.14723902594E+04  0.10000000000E+02 0.  1.
</event>
<event>
 5    1  0.1294251E-008  0.3837817E+03  0.7957747E-01  0.3434856E+00
         13   -1    0    0    0    0  0.00000000000E+00  0.00000000000E+00  0.14999999963E+04  0.15000000000E+04  0.10566000000E+00 0.  1.
        994   -1    0    0    0    0 -0.00000000000E+00 -0.00000000000E+00  0.11368683772E-12  0.17120000000E+03  0.17120000000E+03 0.  0.
         13    1    1    2    0    0 -0.16357799351E+02 -0.12341161326E+02  0.98372621400E+02  0.10048415630E+03  0.10566000000E+00 0.  1.
        994    1    1    2    0    0  0.34412596830E+01  0.40820445962E+01  0.23303297616E+01  0.17129908287E+03  0.17120000000E+03 0.  0.
        998    1    1    2    0    0  0.12916539668E+02  0.82591167303E+01  0.13992970451E+04  0.13994167608E+04  0.10000000000E+02 0.  1.
</event>
<event>
 5    1  0.1294251E-008  0.4011665E+03  0.7957747E-01  0.3363874E+00
         13   -1    0    0    0    0  0.00000000000E+00  0.00000000000E+00  0.14999999963E+04  0.15000000000E+04  0.10566000000E+00 0. -1.
        994   -1    0    0    0    0 -0.00000000000E+00 -0.00000000000E+00  0.11368683772E-12  0.17120000000E+03  0.17120000000E+03 0.  0.
         13    1    1    2    0    0  0.44334114943E+02  0.86249381229E+01  0.23945674614E+02  0.51120541881E+02  0.10566000000E+00 0. -1.
        994    1    1    2    0    0 -0.52877841087E+02  0.27345436800E+00  0.39557539777E+02  0.18349490404E+03  0.17120000000E+03 0.  0.
        998    1    1    2    0    0  0.85437261441E+01 -0.88983924909E+01  0.14364967819E+04  0.14365845541E+04  0.10000000000E+02 0. -1.
</event>
<event>
 5    1  0.1294251E-008  0.3857299E+03  0.7957747E-01  0.3426582E+00
         13   -1    0    0    0    0  0.00000000000E+00  0.00000000000E+00  0.14999999963E+04  0.15000000000E+04  0.10566000000E+00 0.  1.
        994   -1    0    0    0    0 -0.00000000000E+00 -0.00000000000E+00  0.11368683772E-12  0.17120000000E+03  0.17120000000E+03 0.  0.
         13    1    1    2    0    0 -0.22377109412E+02 -0.11211586875E+02  0.14495801217E+03  0.14710292710E+03  0.10566000000E+00 0.  1.
        994    1    1    2    0    0  0.75218016490E+02  0.10774938988E+02  0.20446043880E+02  0.18841796630E+03  0.17120000000E+03 0.  0.
        998    1    1    2    0    0 -0.52840907079E+02  0.43664788669E+00  0.13345959402E+04  0.13356791066E+04  0.10000000000E+02 0.  1.
</event>
<event>
 5    1  0.1294251E-008  0.3851339E+03  0.7957747E-01  0.3429104E+00
         13   -1    0    0    0    0  0.00000000000E+00  0.00000000000E+00  0.14999999963E+04  0.15000000000E+04  0.10566000000E+00 0. -1.
        994   -1    0    0    0    0 -0.00000000000E+00 -0.00000000000E+00  0.11368683772E-12  0.17120000000E+03  0.17120000000E+03 0.  0.
         13    1    1    2    0    0 -0.64379224734E+01 -0.14883974576E+02  0.85626179478E+02  0.87148340896E+02  0.10566000000E+00 0. -1.
        994    1    1    2    0    0 -0.18421966942E+00  0.91477117229E+01  0.18389046514E+01  0.17145418087E+03  0.17120000000E+03 0.  0.
        998    1    1    2    0    0  0.66221421428E+01  0.57362628536E+01  0.14125349121E+04  0.14125974782E+04  0.10000000000E+02 0. -1.
</event>
<event>
 5    1  0.1294251E-008  0.3828604E+03  0.7957747E-01  0.3438797E+00
         13   -1    0    0    0    0  0.00000000000E+00  0.00000000000E+00  0.14999999963E+04  0.15000000000E+04  0.10566000000E+00 0.  1.
        994   -1    0    0    0    0 -0.00000000000E+00 -0.00000000000E+00  0.11368683772E-12  0.17120000000E+03  0.17120000000E+03 0.  0.
         13    1    1    2    0    0 -0.71479619171E+01  0.18289879911E+02  0.70319589096E+02  0.73010059865E+02  0.10566000000E+00 0.  1.
        994    1    1    2    0    0  0.73662717833E+01 -0.11777479730E+02  0.33354458793E+01  0.17179504122E+03  0.17120000000E+03 0.  0.
        998    1    1    2    0    0 -0.21830986614E+00 -0.65124001806E+01  0.14263449613E+04  0.14263948989E+04  0.10000000000E+02 0.  1.
</event>
<event>
 5    1  0.1294251E-008  0.3846590E+03  0.7957747E-01  0.3431120E+00
         13   -1    0    0    0    0  0.00000000000E+00  0.00000000000E+00  0.14999999963E+04  0.15000000000E+04  0.10566000000E+00 0.  1.
        994   -1    0    0    0    0 -0.00000000000E+00 -0.00000000000E+00  0.11368683772E-12  0.17120000000E+03  0.17120000000E+03 0.  0.
         13    1    1    2    0    0 -0.76171040719E+00  0.11158761262E+02  0.34810398965E+02  0.36563276600E+02  0.10566000000E+00 0.  1.
        994    1    1    2    0    0 -0.27397909542E+01 -0.54150219263E+01  0.19208010218E+01  0.17131829556E+03  0.17120000000E+03 0.  0.
        998    1    1    2    0    0  0.35015013614E+01 -0.57437393356E+01  0.14632687963E+04  0.14633184278E+04  0.10000000000E+02 0.  1.
</event>
<event>
 5    1  0.1294251E-008  0.3864529E+03  0.7957747E-01  0.3423534E+00
         13   -1    0    0    0    0  0.00000000000E+00  0.00000000000E+00  0.14999999963E+04  0.15000000000E+04  0.10566000000E+00 0.  1.
        994   -1    0    0    0    0 -0.00000000000E+00 -0.00000000000E+00  0.11368683772E-12  0.17120000000E+03  0.17120000000E+03 0.  0.
         13    1    1    2    0    0 -0.69734817319E+01 -0.77060611287E+01  0.59609608960E+02  0.60508920582E+02  0.10566000000E+00 0.  1.
        994    1    1    2    0    0 -0.44064449912E+00  0.12614239604E+02  0.14321522727E+01  0.17167062727E+03  0.17120000000E+03 0.  0.
        998    1    1    2    0    0  0.74141262310E+01 -0.49081784750E+01  0.14389582350E+04  0.14390204521E+04  0.10000000000E+02 0.  1.
</event>
<event>
 5    1  0.1294251E-008  0.3784482E+03  0.7957747E-01  0.3457943E+00
         13   -1    0    0    0    0  0.00000000000E+00  0.00000000000E+00  0.14999999963E+04  0.15000000000E+04  0.10566000000E+00 0. -1.
        994   -1    0    0    0    0 -0.00000000000E+00 -0.00000000000E+00  0.11368683772E-12  0.17120000000E+03  0.17120000000E+03 0.  0.
         13    1    1    2    0    0  0.43325036542E+01 -0.57780016157E+02  0.27805238108E+03  0.28402541901E+03  0.10566000000E+00 0. -1.
        994    1    1    2    0    0  0.16897821713E+02  0.60171385181E+02  0.18157837666E+02  0.18315370333E+03  0.17120000000E+03 0.  0.
        998    1    1    2    0    0 -0.21230325367E+02 -0.23913690244E+01  0.12037897775E+04  0.12040208777E+04  0.10000000000E+02 0. -1.
</event>
<event>
 5    1  0.1294251E-008  0.3799766E+03  0.7957747E-01  0.3451261E+00
         13   -1    0    0    0    0  0.00000000000E+00  0.00000000000E+00  0.14999999963E+04  0.15000000000E+04  0.10566000000E+00 0. -1.
        994   -1    0    0    0    0 -0.00000000000E+00 -0.00000000000E+00  0.11368683772E-12  0.17120000000E+03  0.17120000000E+03 0.  0.
         13    1    1    2    0    0  0.40506680369E+02 -0.33394301740E+02  0.24755391455E+03  0.25305912811E+03  0.10566000000E+00 0. -1.
        994    1    1    2    0    0 -0.40217424625E+02  0.56639324580E+02  0.20449690888E+02  0.18588459912E+03  0.17120000000E+03 0.  0.
        998    1    1    2    0    0 -0.28925574399E+00 -0.23245022839E+02  0.12319963908E+04  0.12322562728E+04  0.10000000000E+02 0. -1.
</event>
<event>
 5    1  0.1294251E-008  0.3751265E+03  0.7957747E-01  0.3472657E+00
         13   -1    0    0    0    0  0.00000000000E+00  0.00000000000E+00  0.14999999963E+04  0.15000000000E+04  0.10566000000E+00 0. -1.
        994   -1    0    0    0    0 -0.00000000000E+00 -0.00000000000E+00  0.11368683772E-12  0.17120000000E+03  0.17120000000E+03 0.  0.
         13    1    1    2    0    0 -0.19280241445E+02 -0.27727134993E+01  0.26019162887E+02  0.32502671454E+02  0.10566000000E+00 0. -1.
        994    1    1    2    0    0  0.10537471472E+02  0.10918497720E+02  0.73965069358E+01  0.17203023052E+03  0.17120000000E+03 0.  0.
        998    1    1    2    0    0  0.87427699730E+01 -0.81457842209E+01  0.14665843265E+04  0.14666670980E+04  0.10000000000E+02 0. -1.
</event>
<event>
 5    1  0.1294251E-008  0.3762427E+03  0.7957747E-01  0.3467683E+00
         13   -1    0    0    0    0  0.00000000000E+00  0.00000000000E+00  0.14999999963E+04  0.15000000000E+04  0.10566000000E+00 0.  1.
        994   -1    0    0    0    0 -0.00000000000E+00 -0.00000000000E+00  0.11368683772E-12  0.17120000000E+03  0.17120000000E+03 0.  0.
         13    1    1    2    0    0 -0.31101648791E+02  0.40524070968E+02  0.28303223313E+03  0.28760523124E+03  0.10566000000E+00 0.  1.
        994    1    1    2    0    0 -0.30304442227E+01  0.49072076268E+01  0.61545624790E+01  0.17140765128E+03  0.17120000000E+03 0.  0.
        998    1    1    2    0    0  0.34132093014E+02 -0.45431278595E+02  0.12108132007E+04  0.12121871175E+04  0.10000000000E+02 0.  1.
</event>
<event>
 5    1  0.1294251E-008  0.3824434E+03  0.7957747E-01  0.3440588E+00
         13   -1    0    0    0    0  0.00000000000E+00  0.00000000000E+00  0.14999999963E+04  0.15000000000E+04  0.10566000000E+00 0.  1.
        994   -1    0    0    0    0 -0.00000000000E+00 -0.00000000000E+00  0.11368683772E-12  0.17120000000E+03  0.17120000000E+03 0.  0.
         13    1    1    2    0    0  0.78333519128E+01  0.33170483451E+02  0.18442357703E+03  0.18754655236E+03  0.10566000000E+00 0.  1.
        994    1    1    2    0    0  0.26097102273E+01 -0.30781405145E+02  0.60758226069E+01  0.17407085084E+03  0.17120000000E+03 0.  0.
        998    1    1    2    0    0 -0.10443062140E+02 -0.23890783060E+01  0.13095005966E+04  0.13095825968E+04  0.10000000000E+02 0.  1.
</event>
<event>
 5    1  0.1294251E-008  0.3740282E+03  0.7957747E-01  0.3477580E+00
         13   -1    0    0    0    0  0.00000000000E+00  0.00000000000E+00  0.14999999963E+04  0.15000000000E+04  0.10566000000E+00 0.  1.
        994   -1    0    0    0    0 -0.00000000000E+00 -0.00000000000E+00  0.11368683772E-12  0.17120000000E+03  0.17120000000E+03 0.  0.
         13    1    1    2    0    0 -0.16513236128E+02  0.28857960609E+01  0.16206848449E+02  0.23317115752E+02  0.10566000000E+00 0.  1.
        994    1    1    2    0    0  0.16353878506E+02 -0.12125690524E+02  0.85934024327E+01  0.17262030089E+03  0.17120000000E+03 0.  0.
        998    1    1    2    0    0  0.15935762221E+00  0.92398944627E+01  0.14751997454E+04  0.14752625834E+04  0.10000000000E+02 0.  1.
</event>
<event>
 5    1  0.1529027E-008  0.3860812E+03  0.7957747E-01  0.3425099E+00
         13   -1    0    0    0    0  0.00000000000E+00  0.00000000000E+00  0.14999999963E+04  0.15000000000E+04  0.10566000000E+00 0.  1.
        994   -1    0    0    0    0 -0.00000000000E+00 -0.00000000000E+00  0.11368683772E-12  0.17120000000E+03  0.17120000000E+03 0.  0.
         13    1    1    2    0    0 -0.12809998854E+02  0.19216437765E+01  0.72620169605E+02  0.73766448898E+02  0.10566000000E+00 0.  1.
        994    1    1    2    0    0  0.16662975781E+02 -0.29292155038E+01  0.20328641436E+01  0.17204594619E+03  0.17120000000E+03 0.  0.
        998    1    1    2    0    0 -0.38529769272E+01  0.10075717273E+01  0.14253469625E+04  0.14253876049E+04  0.10000000000E+02 0.  1.
</event>
<event>
 5    1  0.1294251E-008  0.3855472E+03  0.7957747E-01  0.3427355E+00
         13   -1    0    0    0    0  0.00000000000E+00  0.00000000000E+00  0.14999999963E+04  0.15000000000E+04  0.10566000000E+00 0.  1.
        994   -1    0    0    0    0 -0.00000000000E+00 -0.00000000000E+00  0.11368683772E-12  0.17120000000E+03  0.17120000000E+03 0.  0.
         13    1    1    2    0    0  0.20198880395E+02 -0.10171048311E+02  0.13453461478E+03  0.13642220761E+03  0.10566000000E+00 0.  1.
        994    1    1    2    0    0 -0.47584714663E+02  0.17246811168E+02  0.98141266476E+01  0.17879461582E+03  0.17120000000E+03 0.  0.
        998    1    1    2    0    0  0.27385834268E+02 -0.70757628568E+01  0.13556512549E+04  0.13559831766E+04  0.10000000000E+02 0.  1.
</event>
<event>
 5    1  0.1294251E-008  0.3781001E+03  0.7957747E-01  0.3459473E+00
         13   -1    0    0    0    0  0.00000000000E+00  0.00000000000E+00  0.14999999963E+04  0.15000000000E+04  0.10566000000E+00 0.  1.
        994   -1    0    0    0    0 -0.00000000000E+00 -0.00000000000E+00  0.11368683772E-12  0.17120000000E+03  0.17120000000E+03 0.  0.
         13    1    1    2    0    0  0.94052132160E+02 -0.79670254673E-01  0.48908991653E+03  0.49805096881E+03  0.10566000000E+00 0.  1.
        994    1    1    2    0    0  0.12018616528E+02 -0.84843111766E+01  0.16066809427E+02  0.17258045383E+03  0.17120000000E+03 0.  0.
        998    1    1    2    0    0 -0.10607074869E+03  0.85639814312E+01  0.99484327032E+03  0.10005685774E+04  0.10000000000E+02 0.  1.
</event>
<event>
 5    1  0.1294251E-008  0.4030833E+03  0.7957747E-01  0.3356422E+00
         13   -1    0    0    0    0  0.00000000000E+00  0.00000000000E+00  0.14999999963E+04  0.15000000000E+04  0.10566000000E+00 0.  1.
        994   -1    0    0    0    0 -0.00000000000E+00 -0.00000000000E+00  0.11368683772E-12  0.17120000000E+03  0.17120000000E+03 0.  0.
         13    1    1    2    0    0 -0.10679451982E+03  0.84723632010E+00  0.19581789701E+03  0.22304808277E+03  0.10566000000E+00 0.  1.
        994    1    1    2    0    0  0.55076686683E+02  0.76514777557E+01  0.41995327034E+02  0.18483785873E+03  0.17120000000E+03 0.  0.
        998    1    1    2    0    0  0.51717833134E+02 -0.84987140758E+01  0.12621867722E+04  0.12633140585E+04  0.10000000000E+02 0.  1.
</event>
<event>
 5    1  0.1294251E-008  0.3755471E+03  0.7957747E-01  0.3470780E+00
         13   -1    0    0    0    0  0.00000000000E+00  0.00000000000E+00  0.14999999963E+04  0.15000000000E+04  0.10566000000E+00 0.  1.
        994   -1    0    0    0    0 -0.00000000000E+00 -0.00000000000E+00  0.11368683772E-12  0.17120000000E+03  0.17120000000E+03 0.  0.
         13    1    1    2    0    0  0.13606930520E+02 -0.22097174040E+01  0.12172995978E+02  0.18390878291E+02  0.10566000000E+00 0.  1.
        994    1    1    2    0    0 -0.47024701597E+01 -0.42852094382E+01  0.65354168104E+01  0.17144278322E+03  0.17120000000E+03 0.  0.
        998    1    1    2    0    0 -0.89044603604E+01  0.64949268422E+01  0.14812915835E+04  0.14813663385E+04  0.10000000000E+02 0.  1.
</event>
<event>
 5    1  0.1294251E-008  0.3848886E+03  0.7957747E-01  0.3430145E+00
         13   -1    0    0    0    0  0.00000000000E+00  0.00000000000E+00  0.14999999963E+04  0.15000000000E+04  0.10566000000E+00 0. -1.
        994   -1    0    0    0    0 -0.00000000000E+00 -0.00000000000E+00  0.11368683772E-12  0.17120000000E+03  0.17120000000E+03 0.  0.
         13    1    1    2    0    0  0.39135084488E+01  0.15243611019E+02  0.83717049585E+02  0.85183559332E+02  0.10566000000E+00 0. -1.
        994    1    1    2    0    0 -0.11750005899E+00  0.80741419319E+01  0.19000044434E+01  0.17140086228E+03  0.17120000000E+03 0.  0.
        998    1    1    2    0    0 -0.37960083899E+01 -0.23317752951E+02  0.14143829423E+04  0.14146155784E+04  0.10000000000E+02 0. -1.
</event>
<event>
 5    1  0.1294251E-008  0.3835706E+03  0.7957747E-01  0.3435757E+00
         13   -1    0    0    0    0  0.00000000000E+00  0.00000000000E+00  0.14999999963E+04  0.15000000000E+04  0.10566000000E+00 0. -1.
        994   -1    0    0    0    0 -0.00000000000E+00 -0.00000000000E+00  0.11368683772E-12  0.17120000000E+03  0.17120000000E+03 0.  0.
         13    1    1    2    0    0  0.20678604013E+02  0.14788470442E+02  0.12670821792E+03  0.12923345997E+03  0.10566000000E+00 0. -1.
        994    1    1    2    0    0 -0.22004901182E+02 -0.14658762982E+02  0.46546605279E+01  0.17329224124E+03  0.17120000000E+03 0.  0.
        998    1    1    2    0    0  0.13262971696E+01 -0.12970746066E+00  0.13686371178E+04  0.13686742988E+04  0.10000000000E+02 0.  0.
</event>
<event>
 5    1  0.1294251E-008  0.3838637E+03  0.7957747E-01  0.3434506E+00
         13   -1    0    0    0    0  0.00000000000E+00  0.00000000000E+00  0.14999999963E+04  0.15000000000E+04  0.10566000000E+00 0.  1.
        994   -1    0    0    0    0 -0.00000000000E+00 -0.00000000000E+00  0.11368683772E-12  0.17120000000E+03  0.17120000000E+03 0.  0.
         13    1    1    2    0    0  0.15930495011E+02 -0.31753893662E+01  0.54904665820E+02  0.57257290032E+02  0.10566000000E+00 0.  1.
        994    1    1    2    0    0 -0.28429162289E+02 -0.44404114368E+01  0.49329735553E+01  0.17367126633E+03  0.17120000000E+03 0.  0.
        998    1    1    2    0    0  0.12498667278E+02  0.76158008030E+01  0.14401623569E+04  0.14402714436E+04  0.10000000000E+02 0.  1.
</event>
<event>
 5    1  0.1294251E-008  0.3721159E+03  0.7957747E-01  0.3486223E+00
         13   -1    0    0    0    0  0.00000000000E+00  0.00000000000E+00  0.14999999963E+04  0.15000000000E+04  0.10566000000E+00 0.  1.
        994   -1    0    0    0    0 -0.00000000000E+00 -0.00000000000E+00  0.11368683772E-12  0.17120000000E+03  0.17120000000E+03 0.  0.
         13    1    1    2    0    0 -0.37821967721E+02 -0.73192080712E+01  0.87075864472E+02  0.95217064577E+02  0.10566000000E+00 0.  1.
        994    1    1    2    0    0  0.25294950501E+02  0.10430334121E+02  0.10741304227E+02  0.17370504313E+03  0.17120000000E+03 0.  0.
        998    1    1    2    0    0  0.12527017220E+02 -0.31111260496E+01  0.14021828276E+04  0.14022778923E+04  0.10000000000E+02 0.  1.
</event>
<event>
 5    1  0.1294251E-008  0.3853800E+03  0.7957747E-01  0.3428062E+00
         13   -1    0    0    0    0  0.00000000000E+00  0.00000000000E+00  0.14999999963E+04  0.15000000000E+04  0.10566000000E+00 0. -1.
        994   -1    0    0    0    0 -0.00000000000E+00 -0.00000000000E+00  0.11368683772E-12  0.17120000000E+03  0.17120000000E+03 0.  0.
         13    1    1    2    0    0  0.11789527966E+02 -0.90395913154E+01  0.76559007151E+02  0.77987177925E+02  0.10566000000E+00 0. -1.
        994    1    1    2    0    0 -0.54337933183E+01  0.97937398131E+01  0.18537343729E+01  0.17157598836E+03  0.17120000000E+03 0.  0.
        998    1    1    2    0    0 -0.63557346474E+01 -0.75414849776E+00  0.14215872548E+04  0.14216368337E+04  0.10000000000E+02 0. -1.
</event>
<event>
 5    1  0.1294251E-008  0.3813994E+03  0.7957747E-01  0.3445088E+00
         13   -1    0    0    0    0  0.00000000000E+00  0.00000000000E+00  0.14999999963E+04  0.15000000000E+04  0.10566000000E+00 0. -1.
        994   -1    0    0    0    0 -0.00000000000E+00 -0.00000000000E+00  0.11368683772E-12  0.17120000000E+03  0.17120000000E+03 0.  0.
         13    1    1    2    0    0  0.55530210319E+02  0.14650689600E+02  0.29130106582E+03  0.29690835131E+03  0.10566000000E+00 0. -1.
        994    1    1    2    0    0 -0.11985275133E+03  0.54665292075E+02  0.63504321670E+02  0.22515597933E+03  0.17120000000E+03 0.  0.
        998    1    1    2    0    0  0.64322541010E+02 -0.69315981675E+02  0.11451946088E+04  0.11491356694E+04  0.10000000000E+02 0. -1.
</event>
<event>
 5    1  0.1294251E-008  0.3801688E+03  0.7957747E-01  0.3450424E+00
         13   -1    0    0    0    0  0.00000000000E+00  0.00000000000E+00  0.14999999963E+04  0.15000000000E+04  0.10566000000E+00 0.  1.
        994   -1    0    0    0    0 -0.00000000000E+00 -0.00000000000E+00  0.11368683772E-12  0.17120000000E+03  0.17120000000E+03 0.  0.
         13    1    1    2    0    0  0.19149040635E+02  0.13978023640E+02  0.10531655192E+03  0.10795211056E+03  0.10566000000E+00 0.  1.
        994    1    1    2    0    0  0.70553289564E+02  0.52981933042E+01  0.20958057931E+02  0.18642563588E+03  0.17120000000E+03 0.  0.
        998    1    1    2    0    0 -0.89702330199E+02 -0.19276216944E+02  0.13737253864E+04  0.13768222536E+04  0.10000000000E+02 0.  1.
</event>
<event>
 5    1  0.1294251E-008  0.3823100E+03  0.7957747E-01  0.3441161E+00
         13   -1    0    0    0    0  0.00000000000E+00  0.00000000000E+00  0.14999999963E+04  0.15000000000E+04  0.10566000000E+00 0. -1.
        994   -1    0    0    0    0 -0.00000000000E+00 -0.00000000000E+00  0.11368683772E-12  0.17120000000E+03  0.17120000000E+03 0.  0.
         13    1    1    2    0    0  0.52491183209E+01 -0.17790912649E+02  0.55918427918E+02  0.58914782194E+02  0.10566000000E+00 0. -1.
        994    1    1    2    0    0 -0.29269134061E+01  0.15859076499E+02  0.38348836594E+01  0.17200064960E+03  0.17120000000E+03 0.  0.
        998    1    1    2    0    0 -0.23222049149E+01  0.19318361506E+01  0.14402466847E+04  0.14402845682E+04  0.10000000000E+02 0. -1.
</event>
<event>
 5    1  0.1294251E-008  0.3801597E+03  0.7957747E-01  0.3450463E+00
         13   -1    0    0    0    0  0.00000000000E+00  0.00000000000E+00  0.14999999963E+04  0.15000000000E+04  0.10566000000E+00 0. -1.
        994   -1    0    0    0    0 -0.00000000000E+00 -0.00000000000E+00  0.11368683772E-12  0.17120000000E+03  0.17120000000E+03 0.  0.
         13    1    1    2    0    0  0.17342610914E+02  0.22493139536E+02  0.89554035437E+02  0.93950220364E+02  0.10566000000E+00 0. -1.
        994    1    1    2    0    0 -0.22162297460E+02 -0.28567617527E+02  0.84326993861E+01  0.17517941266E+03  0.17120000000E+03 0.  0.
        998    1    1    2    0    0  0.48196865465E+01  0.60744779906E+01  0.14020132615E+04  0.14020703670E+04  0.10000000000E+02 0. -1.
</event>
<event>
 5    1  0.1294251E-008  0.3771360E+03  0.7957747E-01  0.3463724E+00
         13   -1    0    0    0    0  0.00000000000E+00  0.00000000000E+00  0.14999999963E+04  0.15000000000E+04  0.10566000000E+00 0.  1.
        994   -1    0    0    0    0 -0.00000000000E+00 -0.00000000000E+00  0.11368683772E-12  0.17120000000E+03  0.17120000000E+03 0.  0.
         13    1    1    2    0    0  0.58966477602E+02 -0.60466806172E+02  0.37341381446E+03  0.38284614158E+03  0.10566000000E+00 0.  1.
        994    1    1    2    0    0 -0.24998958885E+02 -0.46180847180E+02  0.24718264834E+02  0.18077071446E+03  0.17120000000E+03 0.  0.
        998    1    1    2    0    0 -0.33967518717E+02  0.10664765335E+03  0.11018679170E+04  0.11075831440E+04  0.10000000000E+02 0.  1.
</event>
<event>
 5    1  0.1294251E-008  0.3839645E+03  0.7957747E-01  0.3434076E+00
         13   -1    0    0    0    0  0.00000000000E+00  0.00000000000E+00  0.14999999963E+04  0.15000000000E+04  0.10566000000E+00 0.  1.
        994   -1    0    0    0    0 -0.00000000000E+00 -0.00000000000E+00  0.11368683772E-12  0.17120000000E+03  0.17120000000E+03 0.  0.
         13    1    1    2    0    0 -0.21377052295E+02  0.38507748099E+01  0.12787312267E+03  0.12970487075E+03  0.10566000000E+00 0.  1.
        994    1    1    2    0    0 -0.56936305624E+01  0.54174511821E+00  0.22530531493E+01  0.17131032416E+03  0.17120000000E+03 0.  0.
        998    1    1    2    0    0  0.27070682857E+02 -0.43925199281E+01  0.13698738205E+04  0.13701848051E+04  0.10000000000E+02 0.  1.
</event>
<event>
 5    1  0.1294251E-008  0.3777876E+03  0.7957747E-01  0.3460849E+00
         13   -1    0    0    0    0  0.00000000000E+00  0.00000000000E+00  0.14999999963E+04  0.15000000000E+04  0.10566000000E+00 0.  1.
        994   -1    0    0    0    0 -0.00000000000E+00 -0.00000000000E+00  0.11368683772E-12  0.17120000000E+03  0.17120000000E+03 0.  0.
         13    1    1    2    0    0 -0.96143053523E+01  0.84608356275E+02  0.20172730141E+03  0.21896329399E+03  0.10566000000E+00 0.  1.
        994    1    1    2    0    0 -0.22962391283E+01 -0.87617673447E+02  0.43276595083E+02  0.19714064293E+03  0.17120000000E+03 0.  0.
        998    1    1    2    0    0  0.11910544481E+02  0.30093171726E+01  0.12549960998E+04  0.12550960631E+04  0.10000000000E+02 0.  1.
</event>
<event>
 5    1  0.1294251E-008  0.3785995E+03  0.7957747E-01  0.3457279E+00
         13   -1    0    0    0    0  0.00000000000E+00  0.00000000000E+00  0.14999999963E+04  0.15000000000E+04  0.10566000000E+00 0.  1.
        994   -1    0    0    0    0 -0.00000000000E+00 -0.00000000000E+00  0.11368683772E-12  0.17120000000E+03  0.17120000000E+03 0.  0.
         13    1    1    2    0    0  0.65201410875E+00  0.53594362514E+02  0.27626179362E+03  0.28141316706E+03  0.10566000000E+00 0.  1.
        994    1    1    2    0    0  0.22336569342E+01 -0.38580643334E+02  0.98738965825E+01  0.17578506506E+03  0.17120000000E+03 0.  0.
        998    1    1    2    0    0 -0.28856710429E+01 -0.15013719180E+02  0.12138643061E+04  0.12140017679E+04  0.10000000000E+02 0.  1.
</event>
<event>
 5    1  0.1294251E-008  0.3707211E+03  0.7957747E-01  0.3492584E+00
         13   -1    0    0    0    0  0.00000000000E+00  0.00000000000E+00  0.14999999963E+04  0.15000000000E+04  0.10566000000E+00 0. -1.
        994   -1    0    0    0    0 -0.00000000000E+00 -0.00000000000E+00  0.11368683772E-12  0.17120000000E+03  0.17120000000E+03 0.  0.
         13    1    1    2    0    0 -0.36675843715E+02  0.62267255860E+02  0.26555867418E+03  0.27521582306E+03  0.10566000000E+00 0. -1.
        994    1    1    2    0    0  0.42630879415E+02 -0.40814245227E+02  0.21003981134E+02  0.18230140350E+03  0.17120000000E+03 0.  0.
        998    1    1    2    0    0 -0.59550357007E+01 -0.21453010633E+02  0.12134373410E+04  0.12136827734E+04  0.10000000000E+02 0. -1.
</event>
<event>
 5    1  0.1294251E-008  0.3841261E+03  0.7957747E-01  0.3433387E+00
         13   -1    0    0    0    0  0.00000000000E+00  0.00000000000E+00  0.14999999963E+04  0.15000000000E+04  0.10566000000E+00 0.  1.
        994   -1    0    0    0    0 -0.00000000000E+00 -0.00000000000E+00  0.11368683772E-12  0.17120000000E+03  0.17120000000E+03 0.  0.
         13    1    1    2    0    0  0.14149607709E+02 -0.11603353859E+02  0.90799923540E+02  0.92625517532E+02  0.10566000000E+00 0.  1.
        994    1    1    2    0    0 -0.16027109694E+01 -0.10451844830E+02  0.24334477184E+01  0.17154349714E+03  0.17120000000E+03 0.  0.
        998    1    1    2    0    0 -0.12546896739E+02  0.22055198689E+02  0.14067666250E+04  0.14070309853E+04  0.10000000000E+02 0.  1.
</event>
<event>
 5    1  0.1294251E-008  0.3815629E+03  0.7957747E-01  0.3444382E+00
         13   -1    0    0    0    0  0.00000000000E+00  0.00000000000E+00  0.14999999963E+04  0.15000000000E+04  0.10566000000E+00 0.  1.
        994   -1    0    0    0    0 -0.00000000000E+00 -0.00000000000E+00  0.11368683772E-12  0.17120000000E+03  0.17120000000E+03 0.  0.
         13    1    1    2    0    0  0.21104365094E+02  0.11587154405E+02  0.90286482758E+02  0.93441513826E+02  0.10566000000E+00 0.  1.
        994    1    1    2    0    0 -0.10087581298E+02  0.79874128910E+01  0.38970888223E+01  0.17172706648E+03  0.17120000000E+03 0.  0.
        998    1    1    2    0    0 -0.11016783796E+02 -0.19574567296E+02  0.14058164247E+04  0.14060314197E+04  0.10000000000E+02 0.  1.
</event>
<event>
 5    1  0.1294251E-008  0.3859465E+03  0.7957747E-01  0.3425668E+00
         13   -1    0    0    0    0  0.00000000000E+00  0.00000000000E+00  0.14999999963E+04  0.15000000000E+04  0.10566000000E+00 0.  1.
        994   -1    0    0    0    0 -0.00000000000E+00 -0.00000000000E+00  0.11368683772E-12  0.17120000000E+03  0.17120000000E+03 0.  0.
         13    1    1    2    0    0 -0.13123537753E+02 -0.54761265344E+01  0.83573400018E+02  0.84774639838E+02  0.10566000000E+00 0.  1.
        994    1    1    2    0    0  0.13453221721E+02  0.78722230966E+01  0.19579199225E+01  0.17191926745E+03  0.17120000000E+03 0.  0.
        998    1    1    2    0    0 -0.32968396755E+00 -0.23960965623E+01  0.14144686763E+04  0.14145060927E+04  0.10000000000E+02 0.  1.
</event>
<event>
 5    1  0.1294251E-008  0.3836074E+03  0.7957747E-01  0.3435600E+00
         13   -1    0    0    0    0  0.00000000000E+00  0.00000000000E+00  0.14999999963E+04  0.15000000000E+04  0.10566000000E+00 0.  1.
        994   -1    0    0    0    0 -0.00000000000E+00 -0.00000000000E+00  0.11368683772E-12  0.17120000000E+03  0.17120000000E+03 0.  0.
         13    1    1    2    0    0 -0.11046194179E+02  0.13311464054E+02  0.60751029643E+02  0.63165752175E+02  0.10566000000E+00 0.  1.
        994    1    1    2    0    0  0.10227752952E+01 -0.26440402732E+02  0.46395098167E+01  0.17329485283E+03  0.17120000000E+03 0.  0.
        998    1    1    2    0    0  0.10023418884E+02  0.13128938678E+02  0.14346094568E+04  0.14347393950E+04  0.10000000000E+02 0.  1.
</event>
<event>
 5    1  0.1294251E-008  0.3788227E+03  0.7957747E-01  0.3456301E+00
         13   -1    0    0    0    0  0.00000000000E+00  0.00000000000E+00  0.14999999963E+04  0.15000000000E+04  0.10566000000E+00 0. -1.
        994   -1    0    0    0    0 -0.00000000000E+00 -0.00000000000E+00  0.11368683772E-12  0.17120000000E+03  0.17120000000E+03 0.  0.
         13    1    1    2    0    0  0.27817111030E+02 -0.55244018713E+00  0.83864530003E+02  0.88359308581E+02  0.10566000000E+00 0. -1.
        994    1    1    2    0    0 -0.71305170739E+01  0.30882184945E+01  0.49312815632E+01  0.17144718984E+03  0.17120000000E+03 0.  0.
        998    1    1    2    0    0 -0.20686593957E+02 -0.25357783074E+01  0.14112041847E+04  0.14113935016E+04  0.10000000000E+02 0. -1.
</event>
<event>
 5    1  0.1294251E-008  0.3855414E+03  0.7957747E-01  0.3427379E+00
         13   -1    0    0    0    0  0.00000000000E+00  0.00000000000E+00  0.14999999963E+04  0.15000000000E+04  0.10566000000E+00 0. -1.
        994   -1    0    0    0    0 -0.00000000000E+00 -0.00000000000E+00  0.11368683772E-12  0.17120000000E+03  0.17120000000E+03 0.  0.
         13    1    1    2    0    0 -0.46126769614E+00 -0.13130764699E+02  0.64250518970E+02  0.65580256949E+02  0.10566000000E+00 0. -1.
        994    1    1    2    0    0  0.70329553630E+01  0.73875436846E+01  0.17031955012E+01  0.17151203788E+03  0.17120000000E+03 0.  0.
        998    1    1    2    0    0 -0.65716876668E+01  0.57432210148E+01  0.14340462818E+04  0.14341077052E+04  0.10000000000E+02 0. -1.
</event>
<event>
 5    1  0.1294251E-008  0.3772578E+03  0.7957747E-01  0.3463186E+00
         13   -1    0    0    0    0  0.00000000000E+00  0.00000000000E+00  0.14999999963E+04  0.15000000000E+04  0.10566000000E+00 0.  1.
        994   -1    0    0    0    0 -0.00000000000E+00 -0.00000000000E+00  0.11368683772E-12  0.17120000000E+03  0.17120000000E+03 0.  0.
         13    1    1    2    0    0  0.26811042466E+02  0.42928585458E+02  0.22139134542E+03  0.22710313612E+03  0.10566000000E+00 0.  1.
        994    1    1    2    0    0 -0.16100698882E+02 -0.30834443015E+02  0.96166194885E+01  0.17496260958E+03  0.17120000000E+03 0.  0.
        998    1    1    2    0    0 -0.10710343584E+02 -0.12094142444E+02  0.12689920314E+04  0.12691342543E+04  0.10000000000E+02 0.  1.
</event>
<event>
 5    1  0.1294251E-008  0.3888564E+03  0.7957747E-01  0.3413480E+00
         13   -1    0    0    0    0  0.00000000000E+00  0.00000000000E+00  0.14999999963E+04  0.15000000000E+04  0.10566000000E+00 0. -1.
        994   -1    0    0    0    0 -0.00000000000E+00 -0.00000000000E+00  0.11368683772E-12  0.17120000000E+03  0.17120000000E+03 0.  0.
         13    1    1    2    0    0  0.45617166957E+02  0.24432739325E+02  0.53240871883E+02  0.74246119595E+02  0.10566000000E+00 0. -1.
        994    1    1    2    0    0 -0.48387669399E+02 -0.21501451956E+02  0.31857344926E+02  0.18201101453E+03  0.17120000000E+03 0.  0.
        998    1    1    2    0    0  0.27705024419E+01 -0.29312873688E+01  0.14149017795E+04  0.14149428659E+04  0.10000000000E+02 0. -1.
</event>
<event>
 5    1  0.1294251E-008  0.3813144E+03  0.7957747E-01  0.3445455E+00
         13   -1    0    0    0    0  0.00000000000E+00  0.00000000000E+00  0.14999999963E+04  0.15000000000E+04  0.10566000000E+00 0.  1.
        994   -1    0    0    0    0 -0.00000000000E+00 -0.00000000000E+00  0.11368683772E-12  0.17120000000E+03  0.17120000000E+03 0.  0.
         13    1    1    2    0    0  0.32867096979E+02 -0.11436948860E+02  0.19795951613E+03  0.20099510206E+03  0.10566000000E+00 0.  1.
        994    1    1    2    0    0 -0.59916835452E+01 -0.50495125384E+01  0.36754789334E+01  0.17141863083E+03  0.17120000000E+03 0.  0.
        998    1    1    2    0    0 -0.26875413433E+02  0.16486461398E+02  0.12983650012E+04  0.12987862671E+04  0.10000000000E+02 0.  1.
</event>
<event>
 5    1  0.1294251E-008  0.3848018E+03  0.7957747E-01  0.3430513E+00
         13   -1    0    0    0    0  0.00000000000E+00  0.00000000000E+00  0.14999999963E+04  0.15000000000E+04  0.10566000000E+00 0. -1.
        994   -1    0    0    0    0 -0.00000000000E+00 -0.00000000000E+00  0.11368683772E-12  0.17120000000E+03  0.17120000000E+03 0.  0.
         13    1    1    2    0    0 -0.42481096198E+01  0.95298118469E+01  0.31458731855E+02  0.33144029977E+02  0.10566000000E+00 0. -1.
        994    1    1    2    0    0  0.24478274792E+01 -0.45622272563E+01  0.18168058845E+01  0.17128790547E+03  0.17120000000E+03 0.  0.
        998    1    1    2    0    0  0.18002821405E+01 -0.49675845906E+01  0.14667244585E+04  0.14667680646E+04  0.10000000000E+02 0. -1.
</event>
<event>
 5    1  0.1294251E-008  0.3853611E+03  0.7957747E-01  0.3428142E+00
         13   -1    0    0    0    0  0.00000000000E+00  0.00000000000E+00  0.14999999963E+04  0.15000000000E+04  0.10566000000E+00 0.  1.
        994   -1    0    0    0    0 -0.00000000000E+00 -0.00000000000E+00  0.11368683772E-12  0.17120000000E+03  0.17120000000E+03 0.  0.
         13    1    1    2    0    0 -0.89518746205E+01 -0.75026999652E+01  0.47698704679E+02  0.49108086483E+02  0.10566000000E+00 0.  1.
        994    1    1    2    0    0  0.42673130773E+01  0.38666120757E+01  0.15598851487E+01  0.17130392258E+03  0.17120000000E+03 0.  0.
        998    1    1    2    0    0  0.46845615432E+01  0.36360878895E+01  0.14507414065E+04  0.14507879909E+04  0.10000000000E+02 0.  1.
</event>
<event>
 5    1  0.1294251E-008  0.3795965E+03  0.7957747E-01  0.3452917E+00
         13   -1    0    0    0    0  0.00000000000E+00  0.00000000000E+00  0.14999999963E+04  0.15000000000E+04  0.10566000000E+00 0. -1.
        994   -1    0    0    0    0 -0.00000000000E+00 -0.00000000000E+00  0.11368683772E-12  0.17120000000E+03  0.17120000000E+03 0.  0.
         13    1    1    2    0    0  0.40302062590E+02  0.45097393496E+02  0.10091682093E+03  0.11765307926E+03  0.10566000000E+00 0. -1.
        994    1    1    2    0    0 -0.46219237637E+02 -0.41387328555E+02  0.30167542286E+02  0.18457694737E+03  0.17120000000E+03 0.  0.
        998    1    1    2    0    0  0.59171750477E+01 -0.37100649405E+01  0.13689156331E+04  0.13689699734E+04  0.10000000000E+02 0. -1.
</event>
<event>
 5    1  0.1294251E-008  0.3779565E+03  0.7957747E-01  0.3460105E+00
         13   -1    0    0    0    0  0.00000000000E+00  0.00000000000E+00  0.14999999963E+04  0.15000000000E+04  0.10566000000E+00 0.  1.
        994   -1    0    0    0    0 -0.00000000000E+00 -0.00000000000E+00  0.11368683772E-12  0.17120000000E+03  0.17120000000E+03 0.  0.
         13    1    1    2    0    0 -0.17697260901E+02 -0.20241192940E+02  0.74480397215E+02  0.79184844941E+02  0.10566000000E+00 0.  1.
        994    1    1    2    0    0 -0.23929195650E+02  0.14616105018E+02  0.78190097735E+01  0.17365717332E+03  0.17120000000E+03 0.  0.
        998    1    1    2    0    0  0.41626456551E+02  0.56250879218E+01  0.14177005893E+04  0.14183579817E+04  0.10000000000E+02 0.  1.
</event>
<event>
 5    1  0.1294251E-008  0.3839236E+03  0.7957747E-01  0.3434250E+00
         13   -1    0    0    0    0  0.00000000000E+00  0.00000000000E+00  0.14999999963E+04  0.15000000000E+04  0.10566000000E+00 0. -1.
        994   -1    0    0    0    0 -0.00000000000E+00 -0.00000000000E+00  0.11368683772E-12  0.17120000000E+03  0.17120000000E+03 0.  0.
         13    1    1    2    0    0  0.17869202423E+02 -0.31983875232E+01  0.71563066744E+02  0.73829680778E+02  0.10566000000E+00 0. -1.
        994    1    1    2    0    0 -0.21625037748E+02  0.85850643887E-01  0.37103332225E+01  0.17260027868E+03  0.17120000000E+03 0.  0.
        998    1    1    2    0    0  0.37558353258E+01  0.31125368794E+01  0.14247265963E+04  0.14247700405E+04  0.10000000000E+02 0. -1.
</event>
<event>
 5    1  0.1294251E-008  0.3798983E+03  0.7957747E-01  0.3451601E+00
         13   -1    0    0    0    0  0.00000000000E+00  0.00000000000E+00  0.14999999963E+04  0.15000000000E+04  0.10566000000E+00 0. -1.
        994   -1    0    0    0    0 -0.00000000000E+00 -0.00000000000E+00  0.11368683772E-12  0.17120000000E+03  0.17120000000E+03 0.  0.
         13    1    1    2    0    0 -0.28674042521E+01 -0.23051439715E+02  0.66352304879E+02  0.70300998619E+02  0.10566000000E+00 0. -1.
        994    1    1    2    0    0 -0.34707495539E+01  0.28616375287E+01  0.42521643231E+01  0.17131186758E+03  0.17120000000E+03 0.  0.
        998    1    1    2    0    0  0.63381538060E+01  0.20189802187E+02  0.14293955271E+04  0.14295871338E+04  0.10000000000E+02 0. -1.
</event>
<event>
 5    1  0.1294251E-008  0.3846287E+03  0.7957747E-01  0.3431249E+00
         13   -1    0    0    0    0  0.00000000000E+00  0.00000000000E+00  0.14999999963E+04  0.15000000000E+04  0.10566000000E+00 0.  1.
        994   -1    0    0    0    0 -0.00000000000E+00 -0.00000000000E+00  0.11368683772E-12  0.17120000000E+03  0.17120000000E+03 0.  0.
         13    1    1    2    0    0  0.14407576458E+02 -0.11774035671E+02  0.90165912615E+02  0.92065787007E+02  0.10566000000E+00 0.  1.
        994    1    1    2    0    0 -0.11488141218E+02  0.17133929602E+02  0.32170263126E+01  0.17246836867E+03  0.17120000000E+03 0.  0.
        998    1    1    2    0    0 -0.29194352406E+01 -0.53598939302E+01  0.14066170574E+04  0.14066658443E+04  0.10000000000E+02 0.  1.
</event>
<event>
 5    1  0.1294251E-008  0.3836295E+03  0.7957747E-01  0.3435505E+00
         13   -1    0    0    0    0  0.00000000000E+00  0.00000000000E+00  0.14999999963E+04  0.15000000000E+04  0.10566000000E+00 0.  1.
        994   -1    0    0    0    0 -0.00000000000E+00 -0.00000000000E+00  0.11368683772E-12  0.17120000000E+03  0.17120000000E+03 0.  0.
         13    1    1    2    0    0  0.16286056731E+02 -0.22793289973E+01  0.54805250211E+02  0.57219381325E+02  0.10566000000E+00 0.  1.
        994    1    1    2    0    0 -0.21262811470E+02  0.62610330481E+01  0.39367234183E+01  0.17267381237E+03  0.17120000000E+03 0.  0.
        998    1    1    2    0    0  0.49767547398E+01 -0.39817040508E+01  0.14412580226E+04  0.14413068063E+04  0.10000000000E+02 0.  1.
</event>
<event>
 5    1  0.1294251E-008  0.3827449E+03  0.7957747E-01  0.3439293E+00
         13   -1    0    0    0    0  0.00000000000E+00  0.00000000000E+00  0.14999999963E+04  0.15000000000E+04  0.10566000000E+00 0.  1.
        994   -1    0    0    0    0 -0.00000000000E+00 -0.00000000000E+00  0.11368683772E-12  0.17120000000E+03  0.17120000000E+03 0.  0.
         13    1    1    2    0    0 -0.73553051851E+01 -0.17259308528E+02  0.61871853450E+02  0.64653860353E+02  0.10566000000E+00 0.  1.
        994    1    1    2    0    0  0.69511173266E+01  0.14500611811E+02  0.36110360161E+01  0.17199146885E+03  0.17120000000E+03 0.  0.
        998    1    1    2    0    0  0.40418785852E+00  0.27586967166E+01  0.14345171068E+04  0.14345546708E+04  0.10000000000E+02 0.  1.
</event>
<event>
 5    1  0.1294251E-008  0.3846875E+03  0.7957747E-01  0.3430999E+00
         13   -1    0    0    0    0  0.00000000000E+00  0.00000000000E+00  0.14999999963E+04  0.15000000000E+04  0.10566000000E+00 0. -1.
        994   -1    0    0    0    0 -0.00000000000E+00 -0.00000000000E+00  0.11368683772E-12  0.17120000000E+03  0.17120000000E+03 0.  0.
         13    1    1    2    0    0 -0.12868813414E+01 -0.11936366832E+02  0.42547208157E+02  0.44208698270E+02  0.10566000000E+00 0. -1.
        994    1    1    2    0    0 -0.80524185764E+01 -0.28230711685E+01  0.20251157121E+01  0.17142447978E+03  0.17120000000E+03 0.  0.
        998    1    1    2    0    0  0.93392999178E+01  0.14759438001E+02  0.14554276724E+04  0.14555668219E+04  0.10000000000E+02 0. -1.
</event>
<event>
 5    1  0.1294251E-008  0.3823787E+03  0.7957747E-01  0.3440866E+00
         13   -1    0    0    0    0  0.00000000000E+00  0.00000000000E+00  0.14999999963E+04  0.15000000000E+04  0.10566000000E+00 0.  1.
        994   -1    0    0    0    0 -0.00000000000E+00 -0.00000000000E+00  0.11368683772E-12  0.17120000000E+03  0.17120000000E+03 0.  0.
         13    1    1    2    0    0 -0.21699296056E+02 -0.59566632441E+01  0.83224609460E+02  0.86213038863E+02  0.10566000000E+00 0.  1.
        994    1    1    2    0    0  0.13220918263E+02  0.23197187286E+02  0.53053656573E+01  0.17335076891E+03  0.17120000000E+03 0.  0.
        998    1    1    2    0    0  0.84783777927E+01 -0.17240524042E+02  0.14114700212E+04  0.14116361922E+04  0.10000000000E+02 0.  1.
</event>
<event>
 5    1  0.1294251E-008  0.3811849E+03  0.7957747E-01  0.3446015E+00
         13   -1    0    0    0    0  0.00000000000E+00  0.00000000000E+00  0.14999999963E+04  0.15000000000E+04  0.10566000000E+00 0. -1.
        994   -1    0    0    0    0 -0.00000000000E+00 -0.00000000000E+00  0.11368683772E-12  0.17120000000E+03  0.17120000000E+03 0.  0.
         13    1    1    2    0    0  0.20721675413E+02 -0.64389693521E+01  0.69710333070E+02  0.73009518962E+02  0.10566000000E+00 0. -1.
        994    1    1    2    0    0  0.25982542941E+01  0.84271454964E+01  0.37951947065E+01  0.17146898031E+03  0.17120000000E+03 0.  0.
        998    1    1    2    0    0 -0.23319929707E+02 -0.19881761443E+01  0.14264944685E+04  0.14267215007E+04  0.10000000000E+02 0. -1.
</event>
<event>
 5    1  0.1294251E-008  0.3855406E+03  0.7957747E-01  0.3427383E+00
         13   -1    0    0    0    0  0.00000000000E+00  0.00000000000E+00  0.14999999963E+04  0.15000000000E+04  0.10566000000E+00 0. -1.
        994   -1    0    0    0    0 -0.00000000000E+00 -0.00000000000E+00  0.11368683772E-12  0.17120000000E+03  0.17120000000E+03 0.  0.
         13    1    1    2    0    0 -0.61689072692E+01 -0.34266996537E+02  0.24005022241E+02  0.42291071462E+02  0.10566000000E+00 0. -1.
        994    1    1    2    0    0  0.27202094561E+02  0.11951380337E+02  0.22676503629E+02  0.17523256905E+03  0.17120000000E+03 0.  0.
        998    1    1    2    0    0 -0.21033187291E+02  0.22315616200E+02  0.14533184704E+04  0.14536763595E+04  0.10000000000E+02 0. -1.
</event>
<event>
 5    1  0.1294251E-008  0.3772333E+03  0.7957747E-01  0.3463294E+00
         13   -1    0    0    0    0  0.00000000000E+00  0.00000000000E+00  0.14999999963E+04  0.15000000000E+04  0.10566000000E+00 0. -1.
        994   -1    0    0    0    0 -0.00000000000E+00 -0.00000000000E+00  0.11368683772E-12  0.17120000000E+03  0.17120000000E+03 0.  0.
         13    1    1    2    0    0 -0.26651282711E+02  0.42744716378E+02  0.29357473875E+03  0.29786496948E+03  0.10566000000E+00 0. -1.
        994    1    1    2    0    0 -0.30306038564E+01 -0.24996793375E+00  0.55675069753E+01  0.17131749525E+03  0.17120000000E+03 0.  0.
        998    1    1    2    0    0  0.29681886568E+02 -0.42494748444E+02  0.12008577506E+04  0.12020175353E+04  0.10000000000E+02 0. -1.
</event>
<event>
 5    1  0.1442491E-008  0.3863258E+03  0.7957747E-01  0.3424069E+00
         13   -1    0    0    0    0  0.00000000000E+00  0.00000000000E+00  0.14999999963E+04  0.15000000000E+04  0.10566000000E+00 0. -1.
        994   -1    0    0    0    0 -0.00000000000E+00 -0.00000000000E+00  0.11368683772E-12  0.17120000000E+03  0.17120000000E+03 0.  0.
         13    1    1    2    0    0  0.55659021822E+01  0.86738094546E+01  0.62123418620E+02  0.62972569763E+02  0.10566000000E+00 0. -1.
        994    1    1    2    0    0 -0.71024814020E+00  0.85289987104E+01  0.12132288526E+01  0.17141808596E+03  0.17120000000E+03 0.  0.
        998    1    1    2    0    0 -0.48556540420E+01 -0.17202808165E+02  0.14366633488E+04  0.14368093443E+04  0.10000000000E+02 0. -1.
</event>
<event>
 5    1  0.1294251E-008  0.3836217E+03  0.7957747E-01  0.3435539E+00
         13   -1    0    0    0    0  0.00000000000E+00  0.00000000000E+00  0.14999999963E+04  0.15000000000E+04  0.10566000000E+00 0. -1.
        994   -1    0    0    0    0 -0.00000000000E+00 -0.00000000000E+00  0.11368683772E-12  0.17120000000E+03  0.17120000000E+03 0.  0.
         13    1    1    2    0    0  0.14751822963E+02  0.62951107648E+00  0.47876164858E+02  0.50101406072E+02  0.10566000000E+00 0. -1.
        994    1    1    2    0    0 -0.31854858831E+01 -0.56425302951E+01  0.24546962813E+01  0.17134016167E+03  0.17120000000E+03 0.  0.
        998    1    1    2    0    0 -0.11566337080E+02  0.50130192186E+01  0.14496691351E+04  0.14497584323E+04  0.10000000000E+02 0. -1.
</event>
<event>
 5    1  0.1552363E-008  0.3856186E+03  0.7957747E-01  0.3427053E+00
         13   -1    0    0    0    0  0.00000000000E+00  0.00000000000E+00  0.14999999963E+04  0.15000000000E+04  0.10566000000E+00 0. -1.
        994   -1    0    0    0    0 -0.00000000000E+00 -0.00000000000E+00  0.11368683772E-12  0.17120000000E+03  0.17120000000E+03 0.  0.
         13    1    1    2    0    0  0.13370720291E+02  0.31470514031E+01  0.66896903193E+02  0.68292656373E+02  0.10566000000E+00 0. -1.
        994    1    1    2    0    0 -0.19660822926E+02  0.13217828955E+00  0.25930871393E+01  0.17234479838E+03  0.17120000000E+03 0.  0.
        998    1    1    2    0    0  0.62901026356E+01 -0.32792296927E+01  0.14305100059E+04  0.14305625452E+04  0.10000000000E+02 0. -1.
</event>
<event>
 5    1  0.1294251E-008  0.3854499E+03  0.7957747E-01  0.3427766E+00
         13   -1    0    0    0    0  0.00000000000E+00  0.00000000000E+00  0.14999999963E+04  0.15000000000E+04  0.10566000000E+00 0. -1.
        994   -1    0    0    0    0 -0.00000000000E+00 -0.00000000000E+00  0.11368683772E-12  0.17120000000E+03  0.17120000000E+03 0.  0.
         13    1    1    2    0    0 -0.84564312937E+01 -0.76669934205E+01  0.45835968981E+02  0.47236016288E+02  0.10566000000E+00 0. -1.
        994    1    1    2    0    0  0.86822883413E+01  0.53841832764E+01  0.17497583513E+01  0.17151347823E+03  0.17120000000E+03 0.  0.
        998    1    1    2    0    0 -0.22585704757E+00  0.22828101441E+01  0.14524142689E+04  0.14524505055E+04  0.10000000000E+02 0. -1.
</event>
<event>
 5    1  0.1294251E-008  0.3788320E+03  0.7957747E-01  0.3456260E+00
         13   -1    0    0    0    0  0.00000000000E+00  0.00000000000E+00  0.14999999963E+04  0.15000000000E+04  0.10566000000E+00 0.  1.
        994   -1    0    0    0    0 -0.00000000000E+00 -0.00000000000E+00  0.11368683772E-12  0.17120000000E+03  0.17120000000E+03 0.  0.
         13    1    1    2    0    0 -0.28599802902E+01 -0.18272997199E+02  0.34000673371E+02  0.38705798888E+02  0.10566000000E+00 0.  1.
        994    1    1    2    0    0 -0.10504578260E+02  0.17391892771E+02  0.61105241094E+01  0.17250971742E+03  0.17120000000E+03 0.  0.
        998    1    1    2    0    0  0.13364558550E+02  0.88110442841E+00  0.14598887988E+04  0.14599844837E+04  0.10000000000E+02 0.  1.
</event>
<event>
 5    1  0.1294251E-008  0.4095792E+03  0.7957747E-01  0.3331680E+00
         13   -1    0    0    0    0  0.00000000000E+00  0.00000000000E+00  0.14999999963E+04  0.15000000000E+04  0.10566000000E+00 0. -1.
        994   -1    0    0    0    0 -0.00000000000E+00 -0.00000000000E+00  0.11368683772E-12  0.17120000000E+03  0.17120000000E+03 0.  0.
         13    1    1    2    0    0 -0.34604125682E+02  0.31139592849E+02  0.18753243388E+02  0.50187797906E+02  0.10566000000E+00 0. -1.
        994    1    1    2    0    0  0.33613253836E+02 -0.39433363331E+02  0.44652271863E+02  0.18435863516E+03  0.17120000000E+03 0.  0.
        998    1    1    2    0    0  0.99087184657E+00  0.82937704822E+01  0.14365944810E+04  0.14366535669E+04  0.10000000000E+02 0. -1.
</event>
<event>
 5    1  0.1294251E-008  0.3807273E+03  0.7957747E-01  0.3447998E+00
         13   -1    0    0    0    0  0.00000000000E+00  0.00000000000E+00  0.14999999963E+04  0.15000000000E+04  0.10566000000E+00 0.  1.
        994   -1    0    0    0    0 -0.00000000000E+00 -0.00000000000E+00  0.11368683772E-12  0.17120000000E+03  0.17120000000E+03 0.  0.
         13    1    1    2    0    0 -0.33390510757E+02  0.29076037799E+02  0.25046890792E+03  0.25435217156E+03  0.10566000000E+00 0.  1.
        994    1    1    2    0    0  0.25374330023E+02 -0.15306866501E+02  0.67005460740E+01  0.17387493811E+03  0.17120000000E+03 0.  0.
        998    1    1    2    0    0  0.80161807338E+01 -0.13769171298E+02  0.12428305423E+04  0.12429728903E+04  0.10000000000E+02 0.  1.
</event>
<event>
 5    1  0.1294251E-008  0.3721682E+03  0.7957747E-01  0.3485985E+00
         13   -1    0    0    0    0  0.00000000000E+00  0.00000000000E+00  0.14999999963E+04  0.15000000000E+04  0.10566000000E+00 0. -1.
        994   -1    0    0    0    0 -0.00000000000E+00 -0.00000000000E+00  0.11368683772E-12  0.17120000000E+03  0.17120000000E+03 0.  0.
         13    1    1    2    0    0 -0.22685884621E+03  0.24078089889E+03  0.62350993377E+03  0.70583640176E+03  0.10566000000E+00 0. -1.
        994    1    1    2    0    0  0.22174024217E+03 -0.24422531173E+03  0.73724468949E+03  0.82562334636E+03  0.17120000000E+03 0.  0.
        998    1    1    2    0    0  0.51186040381E+01  0.34444128391E+01  0.13924537302E+03  0.13974025188E+03  0.10000000000E+02 0.  0.
</event>
<event>
 5    1  0.1810852E-008  0.3860817E+03  0.7957747E-01  0.3425098E+00
         13   -1    0    0    0    0  0.00000000000E+00  0.00000000000E+00  0.14999999963E+04  0.15000000000E+04  0.10566000000E+00 0.  1.
        994   -1    0    0    0    0 -0.00000000000E+00 -0.00000000000E+00  0.11368683772E-12  0.17120000000E+03  0.17120000000E+03 0.  0.
         13    1    1    2    0    0  0.71104715711E+00  0.12002460599E+02  0.63818668783E+02  0.64941499041E+02  0.10566000000E+00 0.  1.
        994    1    1    2    0    0 -0.17651047726E+01 -0.14253336222E+02  0.17703350380E+01  0.17181049815E+03  0.17120000000E+03 0.  0.
        998    1    1    2    0    0  0.10540576155E+01  0.22508756236E+01  0.14344109925E+04  0.14344480028E+04  0.10000000000E+02 0.  1.
</event>
<event>
 5    1  0.1294251E-008  0.3863451E+03  0.7957747E-01  0.3423988E+00
         13   -1    0    0    0    0  0.00000000000E+00  0.00000000000E+00  0.14999999963E+04  0.15000000000E+04  0.10566000000E+00 0. -1.
        994   -1    0    0    0    0 -0.00000000000E+00 -0.00000000000E+00  0.11368683772E-12  0.17120000000E+03  0.17120000000E+03 0.  0.
         13    1    1    2    0    0 -0.45240940801E+01 -0.93580478646E+01  0.59438512500E+02  0.60340603406E+02  0.10566000000E+00 0. -1.
        994    1    1    2    0    0  0.57001095882E+01 -0.65489641430E+00  0.10715949913E+01  0.17129947009E+03  0.17120000000E+03 0.  0.
        998    1    1    2    0    0 -0.11760155082E+01  0.10012944279E+02  0.14394898888E+04  0.14395599265E+04  0.10000000000E+02 0. -1.
</event>
<event>
 5    1  0.1294251E-008  0.3771906E+03  0.7957747E-01  0.3463483E+00
         13   -1    0    0    0    0  0.00000000000E+00  0.00000000000E+00  0.14999999963E+04  0.15000000000E+04  0.10566000000E+00 0.  1.
        994   -1    0    0    0    0 -0.00000000000E+00 -0.00000000000E+00  0.11368683772E-12  0.17120000000E+03  0.17120000000E+03 0.  0.
         13    1    1    2    0    0  0.66799171253E+01 -0.46689707634E+02  0.17689838994E+03  0.18307812982E+03  0.10566000000E+00 0.  1.
        994    1    1    2    0    0 -0.13901453685E+02  0.45013271171E+02  0.13084033660E+02  0.17804515420E+03  0.17120000000E+03 0.  0.
        998    1    1    2    0    0  0.72215365596E+01  0.16764364631E+01  0.13100175727E+04  0.13100767160E+04  0.10000000000E+02 0.  1.
</event>
<event>
 5    1  0.1294251E-008  0.3833045E+03  0.7957747E-01  0.3436895E+00
         13   -1    0    0    0    0  0.00000000000E+00  0.00000000000E+00  0.14999999963E+04  0.15000000000E+04  0.10566000000E+00 0.  1.
        994   -1    0    0    0    0 -0.00000000000E+00 -0.00000000000E+00  0.11368683772E-12  0.17120000000E+03  0.17120000000E+03 0.  0.
         13    1    1    2    0    0  0.28732438082E+02  0.71993989907E+01  0.16289931620E+03  0.16557047662E+03  0.10566000000E+00 0.  1.
        994    1    1    2    0    0 -0.23429461719E+02 -0.20583456111E+02  0.56971828114E+01  0.17411064365E+03  0.17120000000E+03 0.  0.
        998    1    1    2    0    0 -0.53029763636E+01  0.13384057120E+02  0.13314034973E+04  0.13315188797E+04  0.10000000000E+02 0.  1.
</event>
<event>
 5    1  0.1294251E-008  0.3804202E+03  0.7957747E-01  0.3449331E+00
         13   -1    0    0    0    0  0.00000000000E+00  0.00000000000E+00  0.14999999963E+04  0.15000000000E+04  0.10566000000E+00 0. -1.
        994   -1    0    0    0    0 -0.00000000000E+00 -0.00000000000E+00  0.11368683772E-12  0.17120000000E+03  0.17120000000E+03 0.  0.
         13    1    1    2    0    0 -0.68010209204E+01 -0.28894674353E+02  0.10525962704E+03  0.10936524283E+03  0.10566000000E+00 0. -1.
        994    1    1    2    0    0  0.79974330176E+01  0.26774814397E+02  0.65322416322E+01  0.17358847831E+03  0.17120000000E+03 0.  0.
        998    1    1    2    0    0 -0.11964120972E+01  0.21198599560E+01  0.13882081276E+04  0.13882462789E+04  0.10000000000E+02 0. -1.
</event>
<event>
 5    1  0.1500590E-008  0.3862360E+03  0.7957747E-01  0.3424447E+00
         13   -1    0    0    0    0  0.00000000000E+00  0.00000000000E+00  0.14999999963E+04  0.15000000000E+04  0.10566000000E+00 0.  1.
        994   -1    0    0    0    0 -0.00000000000E+00 -0.00000000000E+00  0.11368683772E-12  0.17120000000E+03  0.17120000000E+03 0.  0.
         13    1    1    2    0    0 -0.55334633962E+01  0.89789764528E+01  0.54221352248E+02  0.55237735643E+02  0.10566000000E+00 0.  1.
        994    1    1    2    0    0  0.34204487807E+01 -0.10121933615E+02  0.13917061807E+01  0.17153871241E+03  0.17120000000E+03 0.  0.
        998    1    1    2    0    0  0.21130146155E+01  0.11429571619E+01  0.14443869378E+04  0.14444235519E+04  0.10000000000E+02 0.  1.
</event>
<event>
 5    1  0.1294251E-008  0.3755713E+03  0.7957747E-01  0.3470672E+00
         13   -1    0    0    0    0  0.00000000000E+00  0.00000000000E+00  0.14999999963E+04  0.15000000000E+04  0.10566000000E+00 0. -1.
        994   -1    0    0    0    0 -0.00000000000E+00 -0.00000000000E+00  0.11368683772E-12  0.17120000000E+03  0.17120000000E+03 0.  0.
         13    1    1    2    0    0  0.19870451091E+02  0.18916423993E+02  0.59852940100E+02  0.65841108176E+02  0.10566000000E+00 0. -1.
        994    1    1    2    0    0  0.80240903957E+01 -0.98799979615E+01  0.69354720117E+01  0.17181251747E+03  0.17120000000E+03 0.  0.
        998    1    1    2    0    0 -0.27894541487E+02 -0.90364260314E+01  0.14332115842E+04  0.14335463744E+04  0.10000000000E+02 0. -1.
</event>
<event>
 5    1  0.1294251E-008  0.3835806E+03  0.7957747E-01  0.3435714E+00
         13   -1    0    0    0    0  0.00000000000E+00  0.00000000000E+00  0.14999999963E+04  0.15000000000E+04  0.10566000000E+00 0.  1.
        994   -1    0    0    0    0 -0.00000000000E+00 -0.00000000000E+00  0.11368683772E-12  0.17120000000E+03  0.17120000000E+03 0.  0.
         13    1    1    2    0    0  0.13819080513E+02  0.11392453368E+02  0.67144750797E+02  0.69492328380E+02  0.10566000000E+00 0.  1.
        994    1    1    2    0    0 -0.12871775338E+02 -0.65363569036E+01  0.30253224494E+01  0.17183421993E+03  0.17120000000E+03 0.  0.
        998    1    1    2    0    0 -0.94730517491E+00 -0.48560964648E+01  0.14298299230E+04  0.14298734517E+04  0.10000000000E+02 0.  1.
</event>
<event>
 5    1  0.1294251E-008  0.3842750E+03  0.7957747E-01  0.3432753E+00
         13   -1    0    0    0    0  0.00000000000E+00  0.00000000000E+00  0.14999999963E+04  0.15000000000E+04  0.10566000000E+00 0.  1.
        994   -1    0    0    0    0 -0.00000000000E+00 -0.00000000000E+00  0.11368683772E-12  0.17120000000E+03  0.17120000000E+03 0.  0.
         13    1    1    2    0    0  0.13166056749E+02 -0.10850245504E+02  0.70919630856E+02  0.72942978295E+02  0.10566000000E+00 0.  1.
        994    1    1    2    0    0 -0.16025061718E+02  0.48800536388E+01  0.29160873196E+01  0.17204232355E+03  0.17120000000E+03 0.  0.
        998    1    1    2    0    0  0.28590049688E+01  0.59701918654E+01  0.14261642781E+04  0.14262146982E+04  0.10000000000E+02 0.  1.
</event>
<event>
 5    1  0.1294251E-008  0.3778990E+03  0.7957747E-01  0.3460358E+00
         13   -1    0    0    0    0  0.00000000000E+00  0.00000000000E+00  0.14999999963E+04  0.15000000000E+04  0.10566000000E+00 0. -1.
        994   -1    0    0    0    0 -0.00000000000E+00 -0.00000000000E+00  0.11368683772E-12  0.17120000000E+03  0.17120000000E+03 0.  0.
         13    1    1    2    0    0 -0.13280609876E+02 -0.46451208911E+02  0.21360040353E+03  0.21899596562E+03  0.10566000000E+00 0. -1.
        994    1    1    2    0    0  0.11663639413E+01  0.35024412777E+02  0.93426996741E+01  0.17499941695E+03  0.17120000000E+03 0.  0.
        998    1    1    2    0    0  0.12114245934E+02  0.11426796134E+02  0.12770568931E+04  0.12772046174E+04  0.10000000000E+02 0. -1.
</event>
<event>
 5    1  0.1294251E-008  0.3695790E+03  0.7957747E-01  0.3497828E+00
         13   -1    0    0    0    0  0.00000000000E+00  0.00000000000E+00  0.14999999963E+04  0.15000000000E+04  0.10566000000E+00 0. -1.
        994   -1    0    0    0    0 -0.00000000000E+00 -0.00000000000E+00  0.11368683772E-12  0.17120000000E+03  0.17120000000E+03 0.  0.
         13    1    1    2    0    0 -0.13586539603E+02  0.90750894466E+02  0.34011259756E+03  0.35227391202E+03  0.10566000000E+00 0. -1.
        994    1    1    2    0    0  0.38128541014E+02 -0.69648942541E+02  0.33061877566E+02  0.19159146271E+03  0.17120000000E+03 0.  0.
        998    1    1    2    0    0 -0.24542001411E+02 -0.21101951925E+02  0.11268255212E+04  0.11273346253E+04  0.10000000000E+02 0. -1.
</event>
<event>
 5    1  0.1294251E-008  0.3745319E+03  0.7957747E-01  0.3475319E+00
         13   -1    0    0    0    0  0.00000000000E+00  0.00000000000E+00  0.14999999963E+04  0.15000000000E+04  0.10566000000E+00 0.  1.
        994   -1    0    0    0    0 -0.00000000000E+00 -0.00000000000E+00  0.11368683772E-12  0.17120000000E+03  0.17120000000E+03 0.  0.
         13    1    1    2    0    0 -0.36582825227E+02 -0.22534432551E+02  0.61731068400E+02  0.75211965283E+02  0.10566000000E+00 0.  1.
        994    1    1    2    0    0  0.48073071438E+02  0.38153673914E+01  0.21663212177E+02  0.17917676185E+03  0.17120000000E+03 0.  0.
        998    1    1    2    0    0 -0.11490246211E+02  0.18719065159E+02  0.14166057157E+04  0.14168112729E+04  0.10000000000E+02 0.  1.
</event>
<event>
 5    1  0.1294251E-008  0.3815254E+03  0.7957747E-01  0.3444543E+00
         13   -1    0    0    0    0  0.00000000000E+00  0.00000000000E+00  0.14999999963E+04  0.15000000000E+04  0.10566000000E+00 0.  1.
        994   -1    0    0    0    0 -0.00000000000E+00 -0.00000000000E+00  0.11368683772E-12  0.17120000000E+03  0.17120000000E+03 0.  0.
         13    1    1    2    0    0 -0.37263614293E+02 -0.27329210845E+02  0.25532379325E+03  0.25947198939E+03  0.10566000000E+00 0.  1.
        994    1    1    2    0    0  0.35547362366E+02  0.36642935500E+02  0.12083121642E+02  0.17905798369E+03  0.17120000000E+03 0.  0.
        998    1    1    2    0    0  0.17162519266E+01 -0.93137246547E+01  0.12325930814E+04  0.12326700269E+04  0.10000000000E+02 0.  1.
</event>
<event>
 5    1  0.1294251E-008  0.3852974E+03  0.7957747E-01  0.3428412E+00
         13   -1    0    0    0    0  0.00000000000E+00  0.00000000000E+00  0.14999999963E+04  0.15000000000E+04  0.10566000000E+00 0.  1.
        994   -1    0    0    0    0 -0.00000000000E+00 -0.00000000000E+00  0.11368683772E-12  0.17120000000E+03  0.17120000000E+03 0.  0.
         13    1    1    2    0    0 -0.10423041558E+02 -0.42121295218E+01  0.43868476837E+02  0.45286159634E+02  0.10566000000E+00 0.  1.
        994    1    1    2    0    0  0.40937779026E+01 -0.33680970871E+01  0.15748714101E+01  0.17128929714E+03  0.17120000000E+03 0.  0.
        998    1    1    2    0    0  0.63292636557E+01  0.75802266089E+01  0.14545566480E+04  0.14546245432E+04  0.10000000000E+02 0.  1.
</event>
<event>
 5    1  0.1294251E-008  0.3732198E+03  0.7957747E-01  0.3481223E+00
         13   -1    0    0    0    0  0.00000000000E+00  0.00000000000E+00  0.14999999963E+04  0.15000000000E+04  0.10566000000E+00 0. -1.
        994   -1    0    0    0    0 -0.00000000000E+00 -0.00000000000E+00  0.11368683772E-12  0.17120000000E+03  0.17120000000E+03 0.  0.
         13    1    1    2    0    0  0.19616367962E+02  0.17947092069E+00  0.21890003494E+02  0.29394174913E+02  0.10566000000E+00 0. -1.
        994    1    1    2    0    0 -0.17859302830E+02 -0.62965276472E+00  0.86886197285E+01  0.17234930598E+03  0.17120000000E+03 0.  0.
        998    1    1    2    0    0 -0.17570651319E+01  0.45018184402E+00  0.14694213731E+04  0.14694565191E+04  0.10000000000E+02 0.  0.
</event>
<event>
 5    1  0.1294251E-008  0.3760305E+03  0.7957747E-01  0.3468627E+00
         13   -1    0    0    0    0  0.00000000000E+00  0.00000000000E+00  0.14999999963E+04  0.15000000000E+04  0.10566000000E+00 0.  1.
        994   -1    0    0    0    0 -0.00000000000E+00 -0.00000000000E+00  0.11368683772E-12  0.17120000000E+03  0.17120000000E+03 0.  0.
         13    1    1    2    0    0  0.16411885641E+02  0.24527301374E+02  0.80981001138E+02  0.86190905625E+02  0.10566000000E+00 0.  1.
        994    1    1    2    0    0  0.11801748891E+02  0.19876339250E+02  0.79626513563E+01  0.17293696527E+03  0.17120000000E+03 0.  0.
        998    1    1    2    0    0 -0.28213634532E+02 -0.44403640624E+02  0.14110563438E+04  0.14120721291E+04  0.10000000000E+02 0.  1.
</event>
<event>
 5    1  0.1294251E-008  0.4367591E+03  0.7957747E-01  0.3236017E+00
         13   -1    0    0    0    0  0.00000000000E+00  0.00000000000E+00  0.14999999963E+04  0.15000000000E+04  0.10566000000E+00 0.  1.
        994   -1    0    0    0    0 -0.00000000000E+00 -0.00000000000E+00  0.11368683772E-12  0.17120000000E+03  0.17120000000E+03 0.  0.
         13    1    1    2    0    0  0.21763873153E+02  0.95733817039E+02  0.74390054997E+02  0.12317678899E+03  0.10566000000E+00 0.  1.
        994    1    1    2    0    0 -0.34620083561E+02 -0.91152278998E+02  0.97534837839E+02  0.21984033466E+03  0.17120000000E+03 0.  0.
        998    1    1    2    0    0  0.12856210409E+02 -0.45815380414E+01  0.13280751034E+04  0.13281828763E+04  0.10000000000E+02 0.  1.
</event>
<event>
 5    1  0.1294251E-008  0.3849102E+03  0.7957747E-01  0.3430053E+00
         13   -1    0    0    0    0  0.00000000000E+00  0.00000000000E+00  0.14999999963E+04  0.15000000000E+04  0.10566000000E+00 0. -1.
        994   -1    0    0    0    0 -0.00000000000E+00 -0.00000000000E+00  0.11368683772E-12  0.17120000000E+03  0.17120000000E+03 0.  0.
         13    1    1    2    0    0 -0.13076271364E+02 -0.16938768260E+01  0.50670887650E+02  0.52358457872E+02  0.10566000000E+00 0. -1.
        994    1    1    2    0    0  0.12305144652E+02  0.50597119547E+01  0.22572856903E+01  0.17173104731E+03  0.17120000000E+03 0.  0.
        998    1    1    2    0    0  0.77112671225E+00 -0.33658351288E+01  0.14470718229E+04  0.14471104948E+04  0.10000000000E+02 0. -1.
</event>
<event>
 5    1  0.1294251E-008  0.3565999E+03  0.7957747E-01  0.3559837E+00
         13   -1    0    0    0    0  0.00000000000E+00  0.00000000000E+00  0.14999999963E+04  0.15000000000E+04  0.10566000000E+00 0. -1.
        994   -1    0    0    0    0 -0.00000000000E+00 -0.00000000000E+00  0.11368683772E-12  0.17120000000E+03  0.17120000000E+03 0.  0.
         13    1    1    2    0    0 -0.19309416009E+03  0.18574018490E+03  0.10168640409E+04  0.10515689515E+04  0.10566000000E+00 0. -1.
        994    1    1    2    0    0  0.15410480606E+03 -0.17061694614E+03  0.24333349001E+03  0.37600407035E+03  0.17120000000E+03 0.  0.
        998    1    1    2    0    0  0.38989354028E+02 -0.15123238761E+02  0.23980246542E+03  0.24362697818E+03  0.10000000000E+02 0. -1.
</event>
<event>
 5    1  0.1294251E-008  0.3819811E+03  0.7957747E-01  0.3442578E+00
         13   -1    0    0    0    0  0.00000000000E+00  0.00000000000E+00  0.14999999963E+04  0.15000000000E+04  0.10566000000E+00 0. -1.
        994   -1    0    0    0    0 -0.00000000000E+00 -0.00000000000E+00  0.11368683772E-12  0.17120000000E+03  0.17120000000E+03 0.  0.
         13    1    1    2    0    0 -0.51222842750E+01 -0.11014847567E+02  0.22041515228E+02  0.25167523134E+02  0.10566000000E+00 0. -1.
        994    1    1    2    0    0  0.83782860674E+01  0.97628241769E+01  0.36863138821E+01  0.17172226799E+03  0.17120000000E+03 0.  0.
        998    1    1    2    0    0 -0.32560017925E+01  0.12520233903E+01  0.14742721672E+04  0.14743102089E+04  0.10000000000E+02 0. -1.
</event>
<event>
 5    1  0.1294251E-008  0.3725207E+03  0.7957747E-01  0.3484386E+00
         13   -1    0    0    0    0  0.00000000000E+00  0.00000000000E+00  0.14999999963E+04  0.15000000000E+04  0.10566000000E+00 0. -1.
        994   -1    0    0    0    0 -0.00000000000E+00 -0.00000000000E+00  0.11368683772E-12  0.17120000000E+03  0.17120000000E+03 0.  0.
         13    1    1    2    0    0  0.86105304065E+01  0.94760930713E+02  0.48385272162E+03  0.49311990693E+03  0.10566000000E+00 0. -1.
        994    1    1    2    0    0 -0.20262466345E+02 -0.70470656679E+02  0.26619147850E+02  0.18813479218E+03  0.17120000000E+03 0.  0.
        998    1    1    2    0    0  0.11651935939E+02 -0.24290274034E+02  0.98952812681E+03  0.98994530090E+03  0.10000000000E+02 0. -1.
</event>
<event>
 5    1  0.1294251E-008  0.3835607E+03  0.7957747E-01  0.3435800E+00
         13   -1    0    0    0    0  0.00000000000E+00  0.00000000000E+00  0.14999999963E+04  0.15000000000E+04  0.10566000000E+00 0. -1.
        994   -1    0    0    0    0 -0.00000000000E+00 -0.00000000000E+00  0.11368683772E-12  0.17120000000E+03  0.17120000000E+03 0.  0.
         13    1    1    2    0    0  0.99325244314E+01  0.85081044341E+01  0.38270416115E+02  0.40443526012E+02  0.10566000000E+00 0. -1.
        994    1    1    2    0    0  0.11187063288E+02 -0.21142639592E+01  0.27748187798E+01  0.17160058309E+03  0.17120000000E+03 0.  0.
        998    1    1    2    0    0 -0.21119587719E+02 -0.63938404750E+01  0.14589547614E+04  0.14591558909E+04  0.10000000000E+02 0. -1.
</event>
<event>
 5    1  0.1294251E-008  0.2880436E+03  0.7957747E-01  0.3985257E+00
         13   -1    0    0    0    0  0.00000000000E+00  0.00000000000E+00  0.14999999963E+04  0.15000000000E+04  0.10566000000E+00 0. -1.
        994   -1    0    0    0    0 -0.00000000000E+00 -0.00000000000E+00  0.11368683772E-12  0.17120000000E+03  0.17120000000E+03 0.  0.
         13    1    1    2    0    0 -0.21641541392E+03 -0.88245951594E+02  0.29920788892E+03  0.37966873892E+03  0.10566000000E+00 0. -1.
        994    1    1    2    0    0  0.19400369467E+03  0.12436857271E+03  0.41552025714E+03  0.50504603703E+03  0.17120000000E+03 0.  0.
        998    1    1    2    0    0  0.22411719250E+02 -0.36122621116E+02  0.78527185021E+03  0.78648522405E+03  0.10000000000E+02 0. -1.
</event>
<event>
 5    1  0.1294251E-008  0.3852346E+03  0.7957747E-01  0.3428678E+00
         13   -1    0    0    0    0  0.00000000000E+00  0.00000000000E+00  0.14999999963E+04  0.15000000000E+04  0.10566000000E+00 0.  1.
        994   -1    0    0    0    0 -0.00000000000E+00 -0.00000000000E+00  0.11368683772E-12  0.17120000000E+03  0.17120000000E+03 0.  0.
         13    1    1    2    0    0  0.11183495861E+01 -0.13927301851E+02  0.62936948942E+02  0.64469303927E+02  0.10566000000E+00 0.  1.
        994    1    1    2    0    0 -0.33289150907E+01  0.13160871179E+02  0.21195693770E+01  0.17175046661E+03  0.17120000000E+03 0.  0.
        998    1    1    2    0    0  0.22105655046E+01  0.76643067128E+00  0.14349434780E+04  0.14349802295E+04  0.10000000000E+02 0.  1.
</event>
<event>
 5    1  0.2197589E-008  0.3865181E+03  0.7957747E-01  0.3423259E+00
         13   -1    0    0    0    0  0.00000000000E+00  0.00000000000E+00  0.14999999963E+04  0.15000000000E+04  0.10566000000E+00 0.  1.
        994   -1    0    0    0    0 -0.00000000000E+00 -0.00000000000E+00  0.11368683772E-12  0.17120000000E+03  0.17120000000E+03 0.  0.
         13    1    1    2    0    0  0.73417080493E+01 -0.71104627008E+01  0.60949214784E+02  0.61800301810E+02  0.10566000000E+00 0.  1.
        994    1    1    2    0    0 -0.46786439431E+01  0.46055094282E+01  0.10193637646E+01  0.17132886368E+03  0.17120000000E+03 0.  0.
        998    1    1    2    0    0 -0.26630641062E+01  0.25049532726E+01  0.14380314177E+04  0.14380708345E+04  0.10000000000E+02 0.  1.
</event>
<event>
 5    1  0.1294251E-008  0.3740426E+03  0.7957747E-01  0.3477516E+00
         13   -1    0    0    0    0  0.00000000000E+00  0.00000000000E+00  0.14999999963E+04  0.15000000000E+04  0.10566000000E+00 0. -1.
        994   -1    0    0    0    0 -0.00000000000E+00 -0.00000000000E+00  0.11368683772E-12  0.17120000000E+03  0.17120000000E+03 0.  0.
         13    1    1    2    0    0 -0.44311530749E+02  0.75731994251E+01  0.20639530021E+03  0.21123422124E+03  0.10566000000E+00 0. -1.
        994    1    1    2    0    0 -0.42287704386E+02 -0.46913887310E+02  0.20899385672E+02  0.18367195509E+03  0.17120000000E+03 0.  0.
        998    1    1    2    0    0  0.86599235135E+02  0.39340687885E+02  0.12727053104E+04  0.12762938237E+04  0.10000000000E+02 0. -1.
</event>
<event>
 5    1  0.1294251E-008  0.3688199E+03  0.7957747E-01  0.3501332E+00
         13   -1    0    0    0    0  0.00000000000E+00  0.00000000000E+00  0.14999999963E+04  0.15000000000E+04  0.10566000000E+00 0.  1.
        994   -1    0    0    0    0 -0.00000000000E+00 -0.00000000000E+00  0.11368683772E-12  0.17120000000E+03  0.17120000000E+03 0.  0.
         13    1    1    2    0    0  0.14351147337E+02 -0.24219159544E+02  0.35286629441E+02  0.45140674565E+02  0.10566000000E+00 0.  1.
        994    1    1    2    0    0 -0.13178921938E+02  0.25150298168E+02  0.12691350472E+02  0.17400210303E+03  0.17120000000E+03 0.  0.
        998    1    1    2    0    0 -0.11722253990E+01 -0.93113862421E+00  0.14520220164E+04  0.14520572224E+04  0.10000000000E+02 0.  1.
</event>
<event>
 5    1  0.1294251E-008  0.3800483E+03  0.7957747E-01  0.3450948E+00
         13   -1    0    0    0    0  0.00000000000E+00  0.00000000000E+00  0.14999999963E+04  0.15000000000E+04  0.10566000000E+00 0.  1.
        994   -1    0    0    0    0 -0.00000000000E+00 -0.00000000000E+00  0.11368683772E-12  0.17120000000E+03  0.17120000000E+03 0.  0.
         13    1    1    2    0    0  0.71819603943E+01  0.33428622035E+02  0.12969690393E+03  0.13412811555E+03  0.10566000000E+00 0.  1.
        994    1    1    2    0    0 -0.14308251869E+02 -0.32259098162E+02  0.82825358308E+01  0.17499547390E+03  0.17120000000E+03 0.  0.
        998    1    1    2    0    0  0.71262914746E+01 -0.11695238738E+01  0.13620205565E+04  0.13620764106E+04  0.10000000000E+02 0.  1.
</event>
<event>
 5    1  0.1294251E-008  0.3838834E+03  0.7957747E-01  0.3434422E+00
         13   -1    0    0    0    0  0.00000000000E+00  0.00000000000E+00  0.14999999963E+04  0.15000000000E+04  0.10566000000E+00 0. -1.
        994   -1    0    0    0    0 -0.00000000000E+00 -0.00000000000E+00  0.11368683772E-12  0.17120000000E+03  0.17120000000E+03 0.  0.
         13    1    1    2    0    0 -0.14285589927E+02  0.27302521295E+01  0.46025218104E+02  0.48268667081E+02  0.10566000000E+00 0. -1.
        994    1    1    2    0    0  0.17867368783E+02 -0.28578548789E+01  0.32668983220E+01  0.17218456036E+03  0.17120000000E+03 0.  0.
        998    1    1    2    0    0 -0.35817788560E+01  0.12760274937E+00  0.14507078799E+04  0.14507467726E+04  0.10000000000E+02 0. -1.
</event>
<event>
 5    1  0.1294251E-008  0.3839724E+03  0.7957747E-01  0.3434042E+00
         13   -1    0    0    0    0  0.00000000000E+00  0.00000000000E+00  0.14999999963E+04  0.15000000000E+04  0.10566000000E+00 0.  1.
        994   -1    0    0    0    0 -0.00000000000E+00 -0.00000000000E+00  0.11368683772E-12  0.17120000000E+03  0.17120000000E+03 0.  0.
         13    1    1    2    0    0 -0.14005297946E+02  0.94696284993E+01  0.71183382283E+02  0.73163565467E+02  0.10566000000E+00 0.  1.
        994    1    1    2    0    0 -0.30427336036E+01 -0.26597637462E+01  0.21950953538E+01  0.17126176168E+03  0.17120000000E+03 0.  0.
        998    1    1    2    0    0  0.17048031549E+02 -0.68098647531E+01  0.14266215186E+04  0.14267746729E+04  0.10000000000E+02 0.  1.
</event>
<event>
 5    1  0.1294251E-008  0.3802139E+03  0.7957747E-01  0.3450227E+00
         13   -1    0    0    0    0  0.00000000000E+00  0.00000000000E+00  0.14999999963E+04  0.15000000000E+04  0.10566000000E+00 0.  1.
        994   -1    0    0    0    0 -0.00000000000E+00 -0.00000000000E+00  0.11368683772E-12  0.17120000000E+03  0.17120000000E+03 0.  0.
         13    1    1    2    0    0  0.22854459610E+02 -0.13050961207E+02  0.13866586712E+02  0.29748063862E+02  0.10566000000E+00 0.  1.
        994    1    1    2    0    0 -0.23409363195E+02  0.12156540643E+02  0.18971931155E+02  0.17425600115E+03  0.17120000000E+03 0.  0.
        998    1    1    2    0    0  0.55490358517E+00  0.89442056421E+00  0.14671614784E+04  0.14671959350E+04  0.10000000000E+02 0.  1.
</event>
<event>
 5    1  0.1294251E-008  0.3851429E+03  0.7957747E-01  0.3429066E+00
         13   -1    0    0    0    0  0.00000000000E+00  0.00000000000E+00  0.14999999963E+04  0.15000000000E+04  0.10566000000E+00 0.  1.
        994   -1    0    0    0    0 -0.00000000000E+00 -0.00000000000E+00  0.11368683772E-12  0.17120000000E+03  0.17120000000E+03 0.  0.
         13    1    1    2    0    0  0.10841921169E+02 -0.46524993454E+00  0.37253615298E+02  0.38802148509E+02  0.10566000000E+00 0.  1.
        994    1    1    2    0    0 -0.95537969085E+01  0.18081955151E+01  0.18700377950E+01  0.17148609753E+03  0.17120000000E+03 0.  0.
        998    1    1    2    0    0 -0.12881242601E+01 -0.13429455806E+01  0.14608763432E+04  0.14609117540E+04  0.10000000000E+02 0.  1.
</event>
<event>
 5    1  0.1294251E-008  0.3839736E+03  0.7957747E-01  0.3434037E+00
         13   -1    0    0    0    0  0.00000000000E+00  0.00000000000E+00  0.14999999963E+04  0.15000000000E+04  0.10566000000E+00 0. -1.
        994   -1    0    0    0    0 -0.00000000000E+00 -0.00000000000E+00  0.11368683772E-12  0.17120000000E+03  0.17120000000E+03 0.  0.
         13    1    1    2    0    0 -0.81630446651E+01  0.60302944325E+01  0.23214055084E+02  0.25335809966E+02  0.10566000000E+00 0. -1.
        994    1    1    2    0    0  0.74116710335E+01 -0.54855578121E+01  0.24211894742E+01  0.17146523371E+03  0.17120000000E+03 0.  0.
        998    1    1    2    0    0  0.75137363161E+00 -0.54473662043E+00  0.14743647517E+04  0.14743989563E+04  0.10000000000E+02 0. -1.
</event>
<event>
 5    1  0.1294251E-008  0.3697756E+03  0.7957747E-01  0.3496923E+00
         13   -1    0    0    0    0  0.00000000000E+00  0.00000000000E+00  0.14999999963E+04  0.15000000000E+04  0.10566000000E+00 0. -1.
        994   -1    0    0    0    0 -0.00000000000E+00 -0.00000000000E+00  0.11368683772E-12  0.17120000000E+03  0.17120000000E+03 0.  0.
         13    1    1    2    0    0 -0.75266789204E+01 -0.27544253033E+02  0.40332957122E+02  0.49417561301E+02  0.10566000000E+00 0. -1.
        994    1    1    2    0    0  0.12393153595E+02  0.10739904174E+02  0.10317533521E+02  0.17229285329E+03  0.17120000000E+03 0.  0.
        998    1    1    2    0    0 -0.48664746748E+01  0.16804348858E+02  0.14493495056E+04  0.14494895854E+04  0.10000000000E+02 0. -1.
</event>
<event>
 5    1  0.1294251E-008  0.4087480E+03  0.7957747E-01  0.3334803E+00
         13   -1    0    0    0    0  0.00000000000E+00  0.00000000000E+00  0.14999999963E+04  0.15000000000E+04  0.10566000000E+00 0.  1.
        994   -1    0    0    0    0 -0.00000000000E+00 -0.00000000000E+00  0.11368683772E-12  0.17120000000E+03  0.17120000000E+03 0.  0.
         13    1    1    2    0    0 -0.12082457594E+03 -0.35565601207E+02  0.26163172036E+03  0.29036986483E+03  0.10566000000E+00 0.  1.
        994    1    1    2    0    0  0.67411156697E+01  0.16399367907E+03  0.15374359790E+03  0.28264094415E+03  0.17120000000E+03 0.  0.
        998    1    1    2    0    0  0.11408346027E+03 -0.12842807786E+03  0.10846246780E+04  0.10981891910E+04  0.10000000000E+02 0.  1.
</event>
<event>
 5    1  0.1294251E-008  0.3855563E+03  0.7957747E-01  0.3427316E+00
         13   -1    0    0    0    0  0.00000000000E+00  0.00000000000E+00  0.14999999963E+04  0.15000000000E+04  0.10566000000E+00 0.  1.
        994   -1    0    0    0    0 -0.00000000000E+00 -0.00000000000E+00  0.11368683772E-12  0.17120000000E+03  0.17120000000E+03 0.  0.
         13    1    1    2    0    0 -0.12008458599E+02  0.71827285057E+01  0.72140417714E+02  0.73485003223E+02  0.10566000000E+00 0.  1.
        994    1    1    2    0    0  0.65906132079E+01 -0.90772027764E+01  0.17674006547E+01  0.17157620901E+03  0.17120000000E+03 0.  0.
        998    1    1    2    0    0  0.54178453908E+01  0.18944742707E+01  0.14260921779E+04  0.14261387878E+04  0.10000000000E+02 0.  1.
</event>
<event>
 5    1  0.1294251E-008  0.3764090E+03  0.7957747E-01  0.3466945E+00
         13   -1    0    0    0    0  0.00000000000E+00  0.00000000000E+00  0.14999999963E+04  0.15000000000E+04  0.10566000000E+00 0. -1.
        994   -1    0    0    0    0 -0.00000000000E+00 -0.00000000000E+00  0.11368683772E-12  0.17120000000E+03  0.17120000000E+03 0.  0.
         13    1    1    2    0    0 -0.25293836611E+02 -0.32937351702E+01  0.51461253905E+02  0.57436039899E+02  0.10566000000E+00 0. -1.
        994    1    1    2    0    0  0.22009614355E+02 -0.19426220581E+01  0.76103369133E+01  0.17278759832E+03  0.17120000000E+03 0.  0.
        998    1    1    2    0    0  0.32842222562E+01  0.52363572282E+01  0.14409284055E+04  0.14409763618E+04  0.10000000000E+02 0. -1.
</event>
<event>
 5    1  0.1294251E-008  0.3840590E+03  0.7957747E-01  0.3433673E+00
         13   -1    0    0    0    0  0.00000000000E+00  0.00000000000E+00  0.14999999963E+04  0.15000000000E+04  0.10566000000E+00 0.  1.
        994   -1    0    0    0    0 -0.00000000000E+00 -0.00000000000E+00  0.11368683772E-12  0.17120000000E+03  0.17120000000E+03 0.  0.
         13    1    1    2    0    0  0.24123661556E+02 -0.55728328574E+01  0.14542612125E+03  0.14751872904E+03  0.10566000000E+00 0.  1.
        994    1    1    2    0    0 -0.15323544714E+02  0.12586896390E+01  0.28782399817E+01  0.17191311639E+03  0.17120000000E+03 0.  0.
        998    1    1    2    0    0 -0.88001168417E+01  0.43141432184E+01  0.13516956351E+04  0.13517681546E+04  0.10000000000E+02 0.  1.
</event>
<event>
 5    1  0.1294251E-008  0.3751664E+03  0.7957747E-01  0.3472479E+00
         13   -1    0    0    0    0  0.00000000000E+00  0.00000000000E+00  0.14999999963E+04  0.15000000000E+04  0.10566000000E+00 0.  1.
        994   -1    0    0    0    0 -0.00000000000E+00 -0.00000000000E+00  0.11368683772E-12  0.17120000000E+03  0.17120000000E+03 0.  0.
         13    1    1    2    0    0 -0.16636539176E+02  0.19784298410E+00  0.18307377717E+02  0.24738326955E+02  0.10566000000E+00 0.  1.
        994    1    1    2    0    0  0.80692970983E+01 -0.40489409394E+01  0.68702451447E+01  0.17157548702E+03  0.17120000000E+03 0.  0.
        998    1    1    2    0    0  0.85672420779E+01  0.38510979553E+01  0.14748223734E+04  0.14748861860E+04  0.10000000000E+02 0.  1.
</event>
<event>
 5    1  0.1294251E-008  0.3849999E+03  0.7957747E-01  0.3429673E+00
         13   -1    0    0    0    0  0.00000000000E+00  0.00000000000E+00  0.14999999963E+04  0.15000000000E+04  0.10566000000E+00 0.  1.
        994   -1    0    0    0    0 -0.00000000000E+00 -0.00000000000E+00  0.11368683772E-12  0.17120000000E+03  0.17120000000E+03 0.  0.
         13    1    1    2    0    0  0.16517938656E+02 -0.25491463608E+02  0.15624348640E+03  0.15916876334E+03  0.10566000000E+00 0.  1.
        994    1    1    2    0    0 -0.55809362952E+02  0.65428048181E+02  0.26341701967E+02  0.19338779627E+03  0.17120000000E+03 0.  0.
        998    1    1    2    0    0  0.39291424296E+02 -0.39936584574E+02  0.13174148079E+04  0.13186434404E+04  0.10000000000E+02 0.  1.
</event>
<event>
 5    1  0.1294251E-008  0.3833983E+03  0.7957747E-01  0.3436494E+00
         13   -1    0    0    0    0  0.00000000000E+00  0.00000000000E+00  0.14999999963E+04  0.15000000000E+04  0.10566000000E+00 0.  1.
        994   -1    0    0    0    0 -0.00000000000E+00 -0.00000000000E+00  0.11368683772E-12  0.17120000000E+03  0.17120000000E+03 0.  0.
         13    1    1    2    0    0  0.11352292623E+02 -0.64104664891E+01  0.34026804276E+02  0.36439034039E+02  0.10566000000E+00 0.  1.
        994    1    1    2    0    0 -0.67048592186E+01  0.97289593559E+01  0.28891112292E+01  0.17163156688E+03  0.17120000000E+03 0.  0.
        998    1    1    2    0    0 -0.46474334040E+01 -0.33184928668E+01  0.14630840808E+04  0.14631293991E+04  0.10000000000E+02 0.  1.
</event>
<event>
 5    1  0.1294251E-008  0.3707955E+03  0.7957747E-01  0.3492243E+00
         13   -1    0    0    0    0  0.00000000000E+00  0.00000000000E+00  0.14999999963E+04  0.15000000000E+04  0.10566000000E+00 0. -1.
        994   -1    0    0    0    0 -0.00000000000E+00 -0.00000000000E+00  0.11368683772E-12  0.17120000000E+03  0.17120000000E+03 0.  0.
         13    1    1    2    0    0 -0.36788755337E+02 -0.38985613851E+02  0.11422174226E+03  0.12617411849E+03  0.10566000000E+00 0. -1.
        994    1    1    2    0    0  0.31704005911E+02  0.42604343730E+02  0.21313635281E+02  0.18051034636E+03  0.17120000000E+03 0.  0.
        998    1    1    2    0    0  0.50847494259E+01 -0.36187298789E+01  0.13644646187E+04  0.13645155351E+04  0.10000000000E+02 0. -1.
</event>
<event>
 5    1  0.1294251E-008  0.3784618E+03  0.7957747E-01  0.3457884E+00
         13   -1    0    0    0    0  0.00000000000E+00  0.00000000000E+00  0.14999999963E+04  0.15000000000E+04  0.10566000000E+00 0. -1.
        994   -1    0    0    0    0 -0.00000000000E+00 -0.00000000000E+00  0.11368683772E-12  0.17120000000E+03  0.17120000000E+03 0.  0.
         13    1    1    2    0    0  0.61121720986E+01  0.10992150608E+02  0.13481458748E+02  0.18437649437E+02  0.10566000000E+00 0. -1.
        994    1    1    2    0    0 -0.11899133993E+02 -0.20112876667E+02  0.67487516818E+01  0.17291935359E+03  0.17120000000E+03 0.  0.
        998    1    1    2    0    0  0.57869618946E+01  0.91207260588E+01  0.14797697858E+04  0.14798429970E+04  0.10000000000E+02 0. -1.
</event>
<event>
 5    1  0.1294251E-008  0.3775128E+03  0.7957747E-01  0.3462060E+00
         13   -1    0    0    0    0  0.00000000000E+00  0.00000000000E+00  0.14999999963E+04  0.15000000000E+04  0.10566000000E+00 0. -1.
        994   -1    0    0    0    0 -0.00000000000E+00 -0.00000000000E+00  0.11368683772E-12  0.17120000000E+03  0.17120000000E+03 0.  0.
         13    1    1    2    0    0  0.11395396291E+02 -0.30097997643E+02  0.10743569000E+03  0.11215249961E+03  0.10566000000E+00 0. -1.
        994    1    1    2    0    0 -0.76242312887E+01 -0.11180725876E+02  0.60115041351E+01  0.17183921472E+03  0.17120000000E+03 0.  0.
        998    1    1    2    0    0 -0.37711650021E+01  0.41278723518E+02  0.13865528021E+04  0.13872082857E+04  0.10000000000E+02 0. -1.
</event>
<event>
 5    1  0.1294251E-008  0.3766265E+03  0.7957747E-01  0.3465980E+00
         13   -1    0    0    0    0  0.00000000000E+00  0.00000000000E+00  0.14999999963E+04  0.15000000000E+04  0.10566000000E+00 0.  1.
        994   -1    0    0    0    0 -0.00000000000E+00 -0.00000000000E+00  0.11368683772E-12  0.17120000000E+03  0.17120000000E+03 0.  0.
         13    1    1    2    0    0 -0.36976407843E+02  0.11155305505E+02  0.11945579479E+03  0.12554438916E+03  0.10566000000E+00 0.  1.
        994    1    1    2    0    0  0.41669184235E+02  0.20155656201E+02  0.13123688303E+02  0.17783206288E+03  0.17120000000E+03 0.  0.
        998    1    1    2    0    0 -0.46927763918E+01 -0.31310961706E+02  0.13674205132E+04  0.13678235480E+04  0.10000000000E+02 0.  1.
</event>
<event>
 5    1  0.1294251E-008  0.3846006E+03  0.7957747E-01  0.3431368E+00
         13   -1    0    0    0    0  0.00000000000E+00  0.00000000000E+00  0.14999999963E+04  0.15000000000E+04  0.10566000000E+00 0. -1.
        994   -1    0    0    0    0 -0.00000000000E+00 -0.00000000000E+00  0.11368683772E-12  0.17120000000E+03  0.17120000000E+03 0.  0.
         13    1    1    2    0    0 -0.12243345868E+02  0.19554093109E+02  0.13362004754E+03  0.13559716200E+03  0.10566000000E+00 0. -1.
        994    1    1    2    0    0  0.14272951094E+02 -0.19445651430E+02  0.37468949471E+01  0.17293157524E+03  0.17120000000E+03 0.  0.
        998    1    1    2    0    0 -0.20296052261E+01 -0.10844167981E+00  0.13626330538E+04  0.13626712628E+04  0.10000000000E+02 0. -1.
</event>
<event>
 5    1  0.1294251E-008  0.3771638E+03  0.7957747E-01  0.3463602E+00
         13   -1    0    0    0    0  0.00000000000E+00  0.00000000000E+00  0.14999999963E+04  0.15000000000E+04  0.10566000000E+00 0.  1.
        994   -1    0    0    0    0 -0.00000000000E+00 -0.00000000000E+00  0.11368683772E-12  0.17120000000E+03  0.17120000000E+03 0.  0.
         13    1    1    2    0    0  0.33461219008E+02 -0.13656881237E+02  0.10934082011E+03  0.11515897572E+03  0.10566000000E+00 0.  1.
        994    1    1    2    0    0 -0.31645480564E+02  0.97494568751E+01  0.92808312128E+01  0.17461976457E+03  0.17120000000E+03 0.  0.
        998    1    1    2    0    0 -0.18157384441E+01  0.39074243623E+01  0.13813783450E+04  0.13814212597E+04  0.10000000000E+02 0.  1.
</event>
<event>
 5    1  0.1294251E-008  0.3729197E+03  0.7957747E-01  0.3482579E+00
         13   -1    0    0    0    0  0.00000000000E+00  0.00000000000E+00  0.14999999963E+04  0.15000000000E+04  0.10566000000E+00 0. -1.
        994   -1    0    0    0    0 -0.00000000000E+00 -0.00000000000E+00  0.11368683772E-12  0.17120000000E+03  0.17120000000E+03 0.  0.
         13    1    1    2    0    0  0.61933548332E+02  0.12352198393E+03  0.67551452392E+03  0.68950223213E+03  0.10566000000E+00 0. -1.
        994    1    1    2    0    0 -0.61274568930E+02 -0.11828514759E+03  0.71172668385E+02  0.22830010439E+03  0.17120000000E+03 0.  0.
        998    1    1    2    0    0 -0.65897940114E+00 -0.52368363388E+01  0.75331280397E+03  0.75339766348E+03  0.10000000000E+02 0. -1.
</event>
<event>
 5    1  0.1294251E-008  0.3859191E+03  0.7957747E-01  0.3425783E+00
         13   -1    0    0    0    0  0.00000000000E+00  0.00000000000E+00  0.14999999963E+04  0.15000000000E+04  0.10566000000E+00 0.  1.
        994   -1    0    0    0    0 -0.00000000000E+00 -0.00000000000E+00  0.11368683772E-12  0.17120000000E+03  0.17120000000E+03 0.  0.
         13    1    1    2    0    0 -0.93372087805E+01  0.64489506444E+01  0.64376345501E+02  0.65368933419E+02  0.10566000000E+00 0.  1.
        994    1    1    2    0    0 -0.11784978557E+02  0.43096164055E+01  0.16909415572E+01  0.17166757934E+03  0.17120000000E+03 0.  0.
        998    1    1    2    0    0  0.21122187337E+02 -0.10758567050E+02  0.14339327092E+04  0.14341634872E+04  0.10000000000E+02 0.  1.
</event>
<event>
 5    1  0.1294251E-008  0.3772437E+03  0.7957747E-01  0.3463248E+00
         13   -1    0    0    0    0  0.00000000000E+00  0.00000000000E+00  0.14999999963E+04  0.15000000000E+04  0.10566000000E+00 0. -1.
        994   -1    0    0    0    0 -0.00000000000E+00 -0.00000000000E+00  0.11368683772E-12  0.17120000000E+03  0.17120000000E+03 0.  0.
         13    1    1    2    0    0 -0.92350491480E+02  0.46691007348E+01  0.50665171648E+03  0.51502076342E+03  0.10566000000E+00 0. -1.
        994    1    1    2    0    0  0.91692164502E+02 -0.21583878475E+02  0.36077617139E+02  0.19870669667E+03  0.17120000000E+03 0.  0.
        998    1    1    2    0    0  0.65832697707E+00  0.16914777740E+02  0.95727066266E+03  0.95747253992E+03  0.10000000000E+02 0. -1.
</event>
<event>
 5    1  0.1294251E-008  0.3720555E+03  0.7957747E-01  0.3486497E+00
         13   -1    0    0    0    0  0.00000000000E+00  0.00000000000E+00  0.14999999963E+04  0.15000000000E+04  0.10566000000E+00 0. -1.
        994   -1    0    0    0    0 -0.00000000000E+00 -0.00000000000E+00  0.11368683772E-12  0.17120000000E+03  0.17120000000E+03 0.  0.
         13    1    1    2    0    0 -0.33968187012E+02  0.96835833625E+02  0.53969287205E+03  0.54936274328E+03  0.10566000000E+00 0. -1.
        994    1    1    2    0    0  0.83104749492E+01 -0.78916358757E+02  0.30137811824E+02  0.19108789437E+03  0.17120000000E+03 0.  0.
        998    1    1    2    0    0  0.25657712062E+02 -0.17919474869E+02  0.93016931241E+03  0.93074936235E+03  0.10000000000E+02 0. -1.
</event>
<event>
 5    1  0.1294251E-008  0.3853244E+03  0.7957747E-01  0.3428298E+00
         13   -1    0    0    0    0  0.00000000000E+00  0.00000000000E+00  0.14999999963E+04  0.15000000000E+04  0.10566000000E+00 0. -1.
        994   -1    0    0    0    0 -0.00000000000E+00 -0.00000000000E+00  0.11368683772E-12  0.17120000000E+03  0.17120000000E+03 0.  0.
         13    1    1    2    0    0  0.93115871533E+01  0.68605262317E+01  0.45341904491E+02  0.46793930615E+02  0.10566000000E+00 0. -1.
        994    1    1    2    0    0 -0.64045951505E+01 -0.61750548832E+01  0.17292331438E+01  0.17143972815E+03  0.17120000000E+03 0.  0.
        998    1    1    2    0    0 -0.29069920028E+01 -0.68547134854E+00  0.14529288586E+04  0.14529663412E+04  0.10000000000E+02 0. -1.
</event>
<event>
 5    1  0.1294251E-008  0.3829339E+03  0.7957747E-01  0.3438482E+00
         13   -1    0    0    0    0  0.00000000000E+00  0.00000000000E+00  0.14999999963E+04  0.15000000000E+04  0.10566000000E+00 0. -1.
        994   -1    0    0    0    0 -0.00000000000E+00 -0.00000000000E+00  0.11368683772E-12  0.17120000000E+03  0.17120000000E+03 0.  0.
         13    1    1    2    0    0  0.23981492613E+02  0.66990250152E+01  0.11185644731E+03  0.11459434931E+03  0.10566000000E+00 0. -1.
        994    1    1    2    0    0 -0.20137227160E+02 -0.40333377386E+01  0.40570729512E+01  0.17247514479E+03  0.17120000000E+03 0.  0.
        998    1    1    2    0    0 -0.38442654534E+01 -0.26656872766E+01  0.13840864760E+04  0.13841305059E+04  0.10000000000E+02 0. -1.
</event>
<event>
 5    1  0.1294251E-008  0.3856459E+03  0.7957747E-01  0.3426938E+00
         13   -1    0    0    0    0  0.00000000000E+00  0.00000000000E+00  0.14999999963E+04  0.15000000000E+04  0.10566000000E+00 0. -1.
        994   -1    0    0    0    0 -0.00000000000E+00 -0.00000000000E+00  0.11368683772E-12  0.17120000000E+03  0.17120000000E+03 0.  0.
         13    1    1    2    0    0  0.75641034684E+01 -0.10047997775E+02  0.66170792553E+02  0.67355496225E+02  0.10566000000E+00 0. -1.
        994    1    1    2    0    0 -0.18790184446E+02 -0.17209271379E+02  0.34433517534E+01  0.17311997783E+03  0.17120000000E+03 0.  0.
        998    1    1    2    0    0  0.11226080977E+02  0.27257269154E+02  0.14303858520E+04  0.14307245259E+04  0.10000000000E+02 0. -1.
</event>
<event>
 5    1  0.1294251E-008  0.2888591E+03  0.7957747E-01  0.3978912E+00
         13   -1    0    0    0    0  0.00000000000E+00  0.00000000000E+00  0.14999999963E+04  0.15000000000E+04  0.10566000000E+00 0. -1.
        994   -1    0    0    0    0 -0.00000000000E+00 -0.00000000000E+00  0.11368683772E-12  0.17120000000E+03  0.17120000000E+03 0.  0.
         13    1    1    2    0    0 -0.16469002175E+03  0.67956654674E+02  0.56462128296E+03  0.59206259341E+03  0.10566000000E+00 0. -1.
        994    1    1    2    0    0  0.16469318498E+03 -0.76319645859E+02  0.14487278539E+03  0.28852399808E+03  0.17120000000E+03 0.  0.
        998    1    1    2    0    0 -0.31632288215E-02  0.83629911851E+01  0.79050592793E+03  0.79061340851E+03  0.10000000000E+02 0.  1.
</event>
<event>
 5    1  0.1294251E-008  0.3781115E+03  0.7957747E-01  0.3459423E+00
         13   -1    0    0    0    0  0.00000000000E+00  0.00000000000E+00  0.14999999963E+04  0.15000000000E+04  0.10566000000E+00 0.  1.
        994   -1    0    0    0    0 -0.00000000000E+00 -0.00000000000E+00  0.11368683772E-12  0.17120000000E+03  0.17120000000E+03 0.  0.
         13    1    1    2    0    0 -0.14132562780E+02 -0.25496392893E+02  0.21579302271E+02  0.36269447636E+02  0.10566000000E+00 0.  1.
        994    1    1    2    0    0  0.13385629593E+02  0.15050185462E+02  0.16754973642E+02  0.17319310698E+03  0.17120000000E+03 0.  0.
        998    1    1    2    0    0  0.74693318688E+00  0.10446207431E+02  0.14616657204E+04  0.14617374454E+04  0.10000000000E+02 0.  1.
</event>
<event>
 5    1  0.1294251E-008  0.3851823E+03  0.7957747E-01  0.3428900E+00
         13   -1    0    0    0    0  0.00000000000E+00  0.00000000000E+00  0.14999999963E+04  0.15000000000E+04  0.10566000000E+00 0. -1.
        994   -1    0    0    0    0 -0.00000000000E+00 -0.00000000000E+00  0.11368683772E-12  0.17120000000E+03  0.17120000000E+03 0.  0.
         13    1    1    2    0    0  0.71103024506E+00  0.12712860811E+02  0.51054024949E+02  0.52617934410E+02  0.10566000000E+00 0. -1.
        994    1    1    2    0    0 -0.15620948926E+02 -0.13402189286E+02  0.29332656686E+01  0.17245775358E+03  0.17120000000E+03 0.  0.
        998    1    1    2    0    0  0.14909918681E+02  0.68932847557E+00  0.14460127057E+04  0.14461243120E+04  0.10000000000E+02 0. -1.
</event>
<event>
 5    1  0.1294251E-008  0.3798335E+03  0.7957747E-01  0.3451884E+00
         13   -1    0    0    0    0  0.00000000000E+00  0.00000000000E+00  0.14999999963E+04  0.15000000000E+04  0.10566000000E+00 0.  1.
        994   -1    0    0    0    0 -0.00000000000E+00 -0.00000000000E+00  0.11368683772E-12  0.17120000000E+03  0.17120000000E+03 0.  0.
         13    1    1    2    0    0  0.13349146681E+03  0.92032943838E+02  0.68980917526E+03  0.70860902048E+03  0.10566000000E+00 0.  1.
        994    1    1    2    0    0 -0.16360793942E+03 -0.12610958390E+03  0.16341641870E+03  0.31414256461E+03  0.17120000000E+03 0.  0.
        998    1    1    2    0    0  0.30116472613E+02  0.34076640067E+02  0.64677440231E+03  0.64844841492E+03  0.10000000000E+02 0.  1.
</event>
<event>
 5    1  0.1294251E-008  0.3829539E+03  0.7957747E-01  0.3438397E+00
         13   -1    0    0    0    0  0.00000000000E+00  0.00000000000E+00  0.14999999963E+04  0.15000000000E+04  0.10566000000E+00 0. -1.
        994   -1    0    0    0    0 -0.00000000000E+00 -0.00000000000E+00  0.11368683772E-12  0.17120000000E+03  0.17120000000E+03 0.  0.
         13    1    1    2    0    0 -0.84273296941E+01  0.12567948403E+02  0.42669446374E+02  0.45273237467E+02  0.10566000000E+00 0. -1.
        994    1    1    2    0    0 -0.16522083265E+01 -0.11357448568E+02  0.30856141857E+01  0.17161201137E+03  0.17120000000E+03 0.  0.
        998    1    1    2    0    0  0.10079538021E+02 -0.12104998349E+01  0.14542449357E+04  0.14543147512E+04  0.10000000000E+02 0. -1.
</event>
<event>
 5    1  0.1294251E-008  0.3852749E+03  0.7957747E-01  0.3428507E+00
         13   -1    0    0    0    0  0.00000000000E+00  0.00000000000E+00  0.14999999963E+04  0.15000000000E+04  0.10566000000E+00 0. -1.
        994   -1    0    0    0    0 -0.00000000000E+00 -0.00000000000E+00  0.11368683772E-12  0.17120000000E+03  0.17120000000E+03 0.  0.
         13    1    1    2    0    0  0.13807415264E+02 -0.43866536736E+01  0.74499976355E+02  0.75895619687E+02  0.10566000000E+00 0. -1.
        994    1    1    2    0    0 -0.17014805985E+00  0.51891536737E+01  0.15822985047E+01  0.17128601792E+03  0.17120000000E+03 0.  0.
        998    1    1    2    0    0 -0.13637267204E+02 -0.80250000007E+00  0.14239177214E+04  0.14240183624E+04  0.10000000000E+02 0. -1.
</event>
<event>
 5    1  0.1294251E-008  0.3708508E+03  0.7957747E-01  0.3491990E+00
         13   -1    0    0    0    0  0.00000000000E+00  0.00000000000E+00  0.14999999963E+04  0.15000000000E+04  0.10566000000E+00 0.  1.
        994   -1    0    0    0    0 -0.00000000000E+00 -0.00000000000E+00  0.11368683772E-12  0.17120000000E+03  0.17120000000E+03 0.  0.
         13    1    1    2    0    0  0.22999839404E+00  0.16494518026E+02  0.12182535686E+02  0.20507251496E+02  0.10566000000E+00 0.  1.
        994    1    1    2    0    0 -0.33720018319E+02  0.15470434102E+02  0.13585014689E+02  0.17569964881E+03  0.17120000000E+03 0.  0.
        998    1    1    2    0    0  0.33490019925E+02 -0.31964952128E+02  0.14742324459E+04  0.14749930997E+04  0.10000000000E+02 0.  1.
</event>
<event>
 5    1  0.1294251E-008  0.3896876E+03  0.7957747E-01  0.3410032E+00
         13   -1    0    0    0    0  0.00000000000E+00  0.00000000000E+00  0.14999999963E+04  0.15000000000E+04  0.10566000000E+00 0. -1.
        994   -1    0    0    0    0 -0.00000000000E+00 -0.00000000000E+00  0.11368683772E-12  0.17120000000E+03  0.17120000000E+03 0.  0.
         13    1    1    2    0    0 -0.10839241575E+03 -0.43444890964E+02  0.35371802676E+03  0.37249540663E+03  0.10566000000E+00 0. -1.
        994    1    1    2    0    0  0.59329468325E+02 -0.24414893751E+02  0.37390296990E+02  0.18661068340E+03  0.17120000000E+03 0.  0.
        998    1    1    2    0    0  0.49062947426E+02  0.67859784715E+02  0.11088916725E+04  0.11120939100E+04  0.10000000000E+02 0. -1.
</event>
<event>
 5    1  0.1294251E-008  0.3858262E+03  0.7957747E-01  0.3426176E+00
         13   -1    0    0    0    0  0.00000000000E+00  0.00000000000E+00  0.14999999963E+04  0.15000000000E+04  0.10566000000E+00 0.  1.
        994   -1    0    0    0    0 -0.00000000000E+00 -0.00000000000E+00  0.11368683772E-12  0.17120000000E+03  0.17120000000E+03 0.  0.
         13    1    1    2    0    0  0.11619672630E+02  0.24055683525E+01  0.56657303030E+02  0.57886653918E+02  0.10566000000E+00 0.  1.
        994    1    1    2    0    0 -0.11713678465E+02 -0.22961446491E+01  0.16879617011E+01  0.17162392537E+03  0.17120000000E+03 0.  0.
        998    1    1    2    0    0  0.94005834339E-01 -0.10942370331E+00  0.14416547315E+04  0.14416894207E+04  0.10000000000E+02 0.  1.
</event>
<event>
 5    1  0.1294251E-008  0.3805157E+03  0.7957747E-01  0.3448916E+00
         13   -1    0    0    0    0  0.00000000000E+00  0.00000000000E+00  0.14999999963E+04  0.15000000000E+04  0.10566000000E+00 0. -1.
        994   -1    0    0    0    0 -0.00000000000E+00 -0.00000000000E+00  0.11368683772E-12  0.17120000000E+03  0.17120000000E+03 0.  0.
         13    1    1    2    0    0 -0.18453803700E+01  0.13525944274E+02  0.22679986321E+02  0.26471674310E+02  0.10566000000E+00 0. -1.
        994    1    1    2    0    0  0.10868340826E+02 -0.49704764167E+01  0.43498530989E+01  0.17167174401E+03  0.17120000000E+03 0.  0.
        998    1    1    2    0    0 -0.90229604556E+01 -0.85554678576E+01  0.14729701569E+04  0.14730565817E+04  0.10000000000E+02 0. -1.
</event>
<event>
 5    1  0.1294251E-008  0.3703833E+03  0.7957747E-01  0.3494131E+00
         13   -1    0    0    0    0  0.00000000000E+00  0.00000000000E+00  0.14999999963E+04  0.15000000000E+04  0.10566000000E+00 0. -1.
        994   -1    0    0    0    0 -0.00000000000E+00 -0.00000000000E+00  0.11368683772E-12  0.17120000000E+03  0.17120000000E+03 0.  0.
         13    1    1    2    0    0  0.34814332697E+02 -0.82275364979E+00  0.51165261214E+02  0.61891920344E+02  0.10566000000E+00 0. -1.
        994    1    1    2    0    0 -0.16521998483E+02  0.11578117237E+01  0.12102491059E+02  0.17242455525E+03  0.17120000000E+03 0.  0.
        998    1    1    2    0    0 -0.18292334215E+02 -0.33505807389E+00  0.14367322440E+04  0.14368835244E+04  0.10000000000E+02 0. -1.
</event>
<event>
 5    1  0.1294251E-008  0.3775988E+03  0.7957747E-01  0.3461681E+00
         13   -1    0    0    0    0  0.00000000000E+00  0.00000000000E+00  0.14999999963E+04  0.15000000000E+04  0.10566000000E+00 0.  1.
        994   -1    0    0    0    0 -0.00000000000E+00 -0.00000000000E+00  0.11368683772E-12  0.17120000000E+03  0.17120000000E+03 0.  0.
         13    1    1    2    0    0  0.90836433708E+01  0.49253190944E+01  0.75567763532E+01  0.12801850568E+02  0.10566000000E+00 0.  1.
        994    1    1    2    0    0 -0.56259165341E+01 -0.39797563187E+01  0.55102383037E+01  0.17142722107E+03  0.17120000000E+03 0.  0.
        998    1    1    2    0    0 -0.34577268366E+01 -0.94556277561E+00  0.14869329816E+04  0.14869709284E+04  0.10000000000E+02 0.  1.
</event>
<event>
 5    1  0.1294251E-008  0.3738333E+03  0.7957747E-01  0.3478457E+00
         13   -1    0    0    0    0  0.00000000000E+00  0.00000000000E+00  0.14999999963E+04  0.15000000000E+04  0.10566000000E+00 0. -1.
        994   -1    0    0    0    0 -0.00000000000E+00 -0.00000000000E+00  0.11368683772E-12  0.17120000000E+03  0.17120000000E+03 0.  0.
         13    1    1    2    0    0 -0.15834907641E+02  0.91817810727E+01  0.77174074129E+01  0.19865018119E+02  0.10566000000E+00 0. -1.
        994    1    1    2    0    0 -0.75321032766E+01  0.20126959569E+02  0.14618452080E+02  0.17316167654E+03  0.17120000000E+03 0.  0.
        998    1    1    2    0    0  0.23367010918E+02 -0.29308740641E+02  0.14776641368E+04  0.14781733053E+04  0.10000000000E+02 0. -1.
</event>
<event>
 5    1  0.1294251E-008  0.3774760E+03  0.7957747E-01  0.3462223E+00
         13   -1    0    0    0    0  0.00000000000E+00  0.00000000000E+00  0.14999999963E+04  0.15000000000E+04  0.10566000000E+00 0. -1.
        994   -1    0    0    0    0 -0.00000000000E+00 -0.00000000000E+00  0.11368683772E-12  0.17120000000E+03  0.17120000000E+03 0.  0.
         13    1    1    2    0    0 -0.18542413520E+02  0.31962183448E+01  0.30173394625E+02  0.35559553120E+02  0.10566000000E+00 0. -1.
        994    1    1    2    0    0  0.16494354444E+02 -0.18546069673E+01  0.63419889097E+01  0.17211962154E+03  0.17120000000E+03 0.  0.
        998    1    1    2    0    0  0.20480590763E+01 -0.13416113775E+01  0.14634846127E+04  0.14635208253E+04  0.10000000000E+02 0. -1.
</event>
<event>
 5    1  0.1294251E-008  0.3848712E+03  0.7957747E-01  0.3430219E+00
         13   -1    0    0    0    0  0.00000000000E+00  0.00000000000E+00  0.14999999963E+04  0.15000000000E+04  0.10566000000E+00 0. -1.
        994   -1    0    0    0    0 -0.00000000000E+00 -0.00000000000E+00  0.11368683772E-12  0.17120000000E+03  0.17120000000E+03 0.  0.
         13    1    1    2    0    0 -0.14131887786E+02 -0.16255807934E+02  0.12833675228E+03  0.13013183582E+03  0.10566000000E+00 0. -1.
        994    1    1    2    0    0 -0.16375952475E+01  0.30112145437E+02  0.46918708440E+01  0.17389904161E+03  0.17120000000E+03 0.  0.
        998    1    1    2    0    0  0.15769483033E+02 -0.13856337503E+02  0.13669713732E+04  0.13671691226E+04  0.10000000000E+02 0. -1.
</event>
<event>
 5    1  0.1294251E-008  0.3831922E+03  0.7957747E-01  0.3437376E+00
         13   -1    0    0    0    0  0.00000000000E+00  0.00000000000E+00  0.14999999963E+04  0.15000000000E+04  0.10566000000E+00 0.  1.
        994   -1    0    0    0    0 -0.00000000000E+00 -0.00000000000E+00  0.11368683772E-12  0.17120000000E+03  0.17120000000E+03 0.  0.
         13    1    1    2    0    0  0.15641713609E+02 -0.19653030960E+02  0.13029033156E+03  0.13268943625E+03  0.10566000000E+00 0.  1.
        994    1    1    2    0    0 -0.40180588460E+01  0.77097073269E+01  0.27804237641E+01  0.17144315425E+03  0.17120000000E+03 0.  0.
        998    1    1    2    0    0 -0.11623654763E+02  0.11943323633E+02  0.13669292410E+04  0.13670674095E+04  0.10000000000E+02 0.  1.
</event>
<event>
 5    1  0.1294251E-008  0.3827783E+03  0.7957747E-01  0.3439150E+00
         13   -1    0    0    0    0  0.00000000000E+00  0.00000000000E+00  0.14999999963E+04  0.15000000000E+04  0.10566000000E+00 0. -1.
        994   -1    0    0    0    0 -0.00000000000E+00 -0.00000000000E+00  0.11368683772E-12  0.17120000000E+03  0.17120000000E+03 0.  0.
         13    1    1    2    0    0  0.54215792569E+00 -0.18848954084E+02  0.61069128803E+02  0.63914213302E+02  0.10566000000E+00 0. -1.
        994    1    1    2    0    0 -0.22775399971E+01  0.22232304719E+02  0.43934123559E+01  0.17270843822E+03  0.17120000000E+03 0.  0.
        998    1    1    2    0    0  0.17353820714E+01 -0.33833506346E+01  0.14345374551E+04  0.14345773485E+04  0.10000000000E+02 0. -1.
</event>
<event>
 5    1  0.1294251E-008  0.3800964E+03  0.7957747E-01  0.3450739E+00
         13   -1    0    0    0    0  0.00000000000E+00  0.00000000000E+00  0.14999999963E+04  0.15000000000E+04  0.10566000000E+00 0.  1.
        994   -1    0    0    0    0 -0.00000000000E+00 -0.00000000000E+00  0.11368683772E-12  0.17120000000E+03  0.17120000000E+03 0.  0.
         13    1    1    2    0    0  0.10082675831E+02 -0.12738742419E+02  0.31221863508E+02  0.35195906513E+02  0.10566000000E+00 0.  1.
        994    1    1    2    0    0 -0.36578955549E+01  0.42873107535E+01  0.41906427714E+01  0.17134398945E+03  0.17120000000E+03 0.  0.
        998    1    1    2    0    0 -0.64247802759E+01  0.84514316654E+01  0.14645874900E+04  0.14646601040E+04  0.10000000000E+02 0.  1.
</event>
<event>
 5    1  0.1294251E-008  0.3855706E+03  0.7957747E-01  0.3427256E+00
         13   -1    0    0    0    0  0.00000000000E+00  0.00000000000E+00  0.14999999963E+04  0.15000000000E+04  0.10566000000E+00 0.  1.
        994   -1    0    0    0    0 -0.00000000000E+00 -0.00000000000E+00  0.11368683772E-12  0.17120000000E+03  0.17120000000E+03 0.  0.
         13    1    1    2    0    0 -0.13858693612E+02  0.96308649824E+01  0.93679934057E+02  0.95188014781E+02  0.10566000000E+00 0.  1.
        994    1    1    2    0    0  0.30403059046E+01 -0.45801075059E+02  0.82942378887E+01  0.17744074030E+03  0.17120000000E+03 0.  0.
        998    1    1    2    0    0  0.10818387707E+02  0.36170210076E+02  0.13980258243E+04  0.13985712449E+04  0.10000000000E+02 0.  1.
</event>
<event>
 5    1  0.1294251E-008  0.3750175E+03  0.7957747E-01  0.3473145E+00
         13   -1    0    0    0    0  0.00000000000E+00  0.00000000000E+00  0.14999999963E+04  0.15000000000E+04  0.10566000000E+00 0.  1.
        994   -1    0    0    0    0 -0.00000000000E+00 -0.00000000000E+00  0.11368683772E-12  0.17120000000E+03  0.17120000000E+03 0.  0.
         13    1    1    2    0    0  0.81655280675E+00  0.26392796902E+02  0.46920105844E+02  0.53840077853E+02  0.10566000000E+00 0.  1.
        994    1    1    2    0    0  0.67092786251E+01 -0.35895810483E+02  0.11215859304E+02  0.17541025948E+03  0.17120000000E+03 0.  0.
        998    1    1    2    0    0 -0.75258314319E+01  0.95030135810E+01  0.14418640311E+04  0.14419496627E+04  0.10000000000E+02 0.  1.
</event>
<event>
 5    1  0.1294251E-008  0.3804738E+03  0.7957747E-01  0.3449098E+00
         13   -1    0    0    0    0  0.00000000000E+00  0.00000000000E+00  0.14999999963E+04  0.15000000000E+04  0.10566000000E+00 0.  1.
        994   -1    0    0    0    0 -0.00000000000E+00 -0.00000000000E+00  0.11368683772E-12  0.17120000000E+03  0.17120000000E+03 0.  0.
         13    1    1    2    0    0 -0.11648789537E+02  0.15783855927E+01  0.17107548788E+02  0.20757287596E+02  0.10566000000E+00 0.  1.
        994    1    1    2    0    0 -0.15276442051E+02  0.10494541091E+00  0.46734843970E+01  0.17194377614E+03  0.17120000000E+03 0.  0.
        998    1    1    2    0    0  0.26925231588E+02 -0.16833310036E+01  0.14782189631E+04  0.14784989363E+04  0.10000000000E+02 0.  1.
</event>
<event>
 5    1  0.1294251E-008  0.3790919E+03  0.7957747E-01  0.3455122E+00
         13   -1    0    0    0    0  0.00000000000E+00  0.00000000000E+00  0.14999999963E+04  0.15000000000E+04  0.10566000000E+00 0. -1.
        994   -1    0    0    0    0 -0.00000000000E+00 -0.00000000000E+00  0.11368683772E-12  0.17120000000E+03  0.17120000000E+03 0.  0.
         13    1    1    2    0    0 -0.42268989495E+01 -0.14157093918E+02  0.21251986709E+02  0.25883355386E+02  0.10566000000E+00 0. -1.
        994    1    1    2    0    0  0.75998994797E+01  0.19256824377E+02  0.60305840022E+01  0.17255257663E+03  0.17120000000E+03 0.  0.
        998    1    1    2    0    0 -0.33730005302E+01 -0.50997304586E+01  0.14727174256E+04  0.14727640680E+04  0.10000000000E+02 0. -1.
</event>
<event>
 5    1  0.1294251E-008  0.3803238E+03  0.7957747E-01  0.3449750E+00
         13   -1    0    0    0    0  0.00000000000E+00  0.00000000000E+00  0.14999999963E+04  0.15000000000E+04  0.10566000000E+00 0.  1.
        994   -1    0    0    0    0 -0.00000000000E+00 -0.00000000000E+00  0.11368683772E-12  0.17120000000E+03  0.17120000000E+03 0.  0.
         13    1    1    2    0    0  0.45807025584E+02 -0.58074275020E+02  0.13725958858E+03  0.15592020663E+03  0.10566000000E+00 0.  1.
        994    1    1    2    0    0 -0.38755110039E+02  0.84203934939E+02  0.48382854128E+02  0.20060558763E+03  0.17120000000E+03 0.  0.
        998    1    1    2    0    0 -0.70519155456E+01 -0.26129659918E+02  0.13143575536E+04  0.13146742057E+04  0.10000000000E+02 0.  1.
</event>
<event>
 5    1  0.1294251E-008  0.3845581E+03  0.7957747E-01  0.3431549E+00
         13   -1    0    0    0    0  0.00000000000E+00  0.00000000000E+00  0.14999999963E+04  0.15000000000E+04  0.10566000000E+00 0.  1.
        994   -1    0    0    0    0 -0.00000000000E+00 -0.00000000000E+00  0.11368683772E-12  0.17120000000E+03  0.17120000000E+03 0.  0.
         13    1    1    2    0    0  0.12507299484E+02  0.13129756515E+02  0.87085194856E+02  0.88953163933E+02  0.10566000000E+00 0.  1.
        994    1    1    2    0    0 -0.68647311957E+01 -0.13231132922E+02  0.25817880305E+01  0.17186707958E+03  0.17120000000E+03 0.  0.
        998    1    1    2    0    0 -0.56425682886E+01  0.10137640646E+00  0.14103330134E+04  0.14103797565E+04  0.10000000000E+02 0.  1.
</event>
<event>
 5    1  0.1294251E-008  0.3808201E+03  0.7957747E-01  0.3447595E+00
         13   -1    0    0    0    0  0.00000000000E+00  0.00000000000E+00  0.14999999963E+04  0.15000000000E+04  0.10566000000E+00 0. -1.
        994   -1    0    0    0    0 -0.00000000000E+00 -0.00000000000E+00  0.11368683772E-12  0.17120000000E+03  0.17120000000E+03 0.  0.
         13    1    1    2    0    0 -0.19406924903E+02 -0.22789602882E+02  0.12425800199E+03  0.12781258528E+03  0.10566000000E+00 0. -1.
        994    1    1    2    0    0  0.94282688693E+01  0.64957656704E+01  0.41568711297E+01  0.17163276728E+03  0.17120000000E+03 0.  0.
        998    1    1    2    0    0  0.99786560334E+01  0.16293837212E+02  0.13715851232E+04  0.13717546474E+04  0.10000000000E+02 0. -1.
</event>
<event>
 5    1  0.1294251E-008  0.3828667E+03  0.7957747E-01  0.3438770E+00
         13   -1    0    0    0    0  0.00000000000E+00  0.00000000000E+00  0.14999999963E+04  0.15000000000E+04  0.10566000000E+00 0. -1.
        994   -1    0    0    0    0 -0.00000000000E+00 -0.00000000000E+00  0.11368683772E-12  0.17120000000E+03  0.17120000000E+03 0.  0.
         13    1    1    2    0    0  0.99313624280E+01  0.29802271033E+01  0.19009578217E+02  0.21653843569E+02  0.10566000000E+00 0. -1.
        994    1    1    2    0    0 -0.66200509608E+01  0.93806453396E+00  0.28410574505E+01  0.17135406808E+03  0.17120000000E+03 0.  0.
        998    1    1    2    0    0 -0.33113114672E+01 -0.39182916373E+01  0.14781493606E+04  0.14781920884E+04  0.10000000000E+02 0. -1.
</event>
<event>
 5    1  0.1294251E-008  0.3793046E+03  0.7957747E-01  0.3454192E+00
         13   -1    0    0    0    0  0.00000000000E+00  0.00000000000E+00  0.14999999963E+04  0.15000000000E+04  0.10566000000E+00 0.  1.
        994   -1    0    0    0    0 -0.00000000000E+00 -0.00000000000E+00  0.11368683772E-12  0.17120000000E+03  0.17120000000E+03 0.  0.
         13    1    1    2    0    0  0.19838468464E+02 -0.70439215932E+02  0.42883693751E+03  0.43503606530E+03  0.10566000000E+00 0.  1.
        994    1    1    2    0    0 -0.12577704793E+02  0.71831277173E+02  0.22514215678E+02  0.18744135335E+03  0.17120000000E+03 0.  0.
        998    1    1    2    0    0 -0.72607636707E+01 -0.13920612415E+01  0.10486488431E+04  0.10487225814E+04  0.10000000000E+02 0.  1.
</event>
<event>
 5    1  0.1294251E-008  0.3804342E+03  0.7957747E-01  0.3449270E+00
         13   -1    0    0    0    0  0.00000000000E+00  0.00000000000E+00  0.14999999963E+04  0.15000000000E+04  0.10566000000E+00 0. -1.
        994   -1    0    0    0    0 -0.00000000000E+00 -0.00000000000E+00  0.11368683772E-12  0.17120000000E+03  0.17120000000E+03 0.  0.
         13    1    1    2    0    0 -0.39844684367E+01 -0.19587806294E+02  0.49332400508E+02  0.53228329376E+02  0.10566000000E+00 0. -1.
        994    1    1    2    0    0  0.60813879207E+01  0.13534003515E+02  0.46493453924E+01  0.17190465073E+03  0.17120000000E+03 0.  0.
        998    1    1    2    0    0 -0.20969194840E+01  0.60538027789E+01  0.14460182504E+04  0.14460670199E+04  0.10000000000E+02 0. -1.
</event>
<event>
 5    1  0.1294251E-008  0.3876171E+03  0.7957747E-01  0.3418648E+00
         13   -1    0    0    0    0  0.00000000000E+00  0.00000000000E+00  0.14999999963E+04  0.15000000000E+04  0.10566000000E+00 0. -1.
        994   -1    0    0    0    0 -0.00000000000E+00 -0.00000000000E+00  0.11368683772E-12  0.17120000000E+03  0.17120000000E+03 0.  0.
         13    1    1    2    0    0  0.37450537027E+01 -0.22585409571E+02  0.36842534931E+01  0.23188597210E+02  0.10566000000E+00 0. -1.
        994    1    1    2    0    0 -0.58958285831E+01  0.21845607213E+02  0.22486755395E+02  0.17414673559E+03  0.17120000000E+03 0.  0.
        998    1    1    2    0    0  0.21507748804E+01  0.73980235863E+00  0.14738289874E+04  0.14738646672E+04  0.10000000000E+02 0. -1.
</event>
<event>
 5    1  0.1294251E-008  0.3785675E+03  0.7957747E-01  0.3457420E+00
         13   -1    0    0    0    0  0.00000000000E+00  0.00000000000E+00  0.14999999963E+04  0.15000000000E+04  0.10566000000E+00 0.  1.
        994   -1    0    0    0    0 -0.00000000000E+00 -0.00000000000E+00  0.11368683772E-12  0.17120000000E+03  0.17120000000E+03 0.  0.
         13    1    1    2    0    0  0.19090308966E+02 -0.33637756381E+02  0.16763587147E+03  0.17203992303E+03  0.10566000000E+00 0.  1.
        994    1    1    2    0    0  0.14230173230E+02  0.17260941785E+02  0.65407115115E+01  0.17277921996E+03  0.17120000000E+03 0.  0.
        998    1    1    2    0    0 -0.33320482196E+02  0.16376814595E+02  0.13258234133E+04  0.13263808570E+04  0.10000000000E+02 0.  1.
</event>
<event>
 5    1  0.1294251E-008  0.3807866E+03  0.7957747E-01  0.3447740E+00
         13   -1    0    0    0    0  0.00000000000E+00  0.00000000000E+00  0.14999999963E+04  0.15000000000E+04  0.10566000000E+00 0.  1.
        994   -1    0    0    0    0 -0.00000000000E+00 -0.00000000000E+00  0.11368683772E-12  0.17120000000E+03  0.17120000000E+03 0.  0.
         13    1    1    2    0    0 -0.48473887109E+02 -0.19126097933E+00  0.63833880765E+02  0.80153164690E+02  0.10566000000E+00 0.  1.
        994    1    1    2    0    0  0.35534102827E+02  0.26406658014E+01  0.21387767164E+02  0.17617185406E+03  0.17120000000E+03 0.  0.
        998    1    1    2    0    0  0.12939784282E+02 -0.24494048220E+01  0.14147783483E+04  0.14148749812E+04  0.10000000000E+02 0.  1.
</event>
<event>
 5    1  0.1294251E-008  0.3705886E+03  0.7957747E-01  0.3493190E+00
         13   -1    0    0    0    0  0.00000000000E+00  0.00000000000E+00  0.14999999963E+04  0.15000000000E+04  0.10566000000E+00 0. -1.
        994   -1    0    0    0    0 -0.00000000000E+00 -0.00000000000E+00  0.11368683772E-12  0.17120000000E+03  0.17120000000E+03 0.  0.
         13    1    1    2    0    0 -0.66922741459E+02  0.13653854676E+02  0.23535098109E+03  0.24506157703E+03  0.10566000000E+00 0. -1.
        994    1    1    2    0    0  0.59001183723E+02  0.10236089411E+02  0.21439035805E+02  0.18263348396E+03  0.17120000000E+03 0.  0.
        998    1    1    2    0    0  0.79215577363E+01 -0.23889944087E+02  0.12432099794E+04  0.12435049390E+04  0.10000000000E+02 0. -1.
</event>
<event>
 5    1  0.1294251E-008  0.3728392E+03  0.7957747E-01  0.3482944E+00
         13   -1    0    0    0    0  0.00000000000E+00  0.00000000000E+00  0.14999999963E+04  0.15000000000E+04  0.10566000000E+00 0. -1.
        994   -1    0    0    0    0 -0.00000000000E+00 -0.00000000000E+00  0.11368683772E-12  0.17120000000E+03  0.17120000000E+03 0.  0.
         13    1    1    2    0    0  0.14624625808E+01  0.17240869774E+02  0.62798803402E+01  0.18407456329E+02  0.10566000000E+00 0. -1.
        994    1    1    2    0    0 -0.13540859882E+02 -0.20463198515E+02  0.14576937271E+02  0.17356273932E+03  0.17120000000E+03 0.  0.
        998    1    1    2    0    0  0.12078397301E+02  0.32223287408E+01  0.14791431787E+04  0.14792298044E+04  0.10000000000E+02 0. -1.
</event>
<event>
 5    1  0.1294251E-008  0.3849036E+03  0.7957747E-01  0.3430081E+00
         13   -1    0    0    0    0  0.00000000000E+00  0.00000000000E+00  0.14999999963E+04  0.15000000000E+04  0.10566000000E+00 0. -1.
        994   -1    0    0    0    0 -0.00000000000E+00 -0.00000000000E+00  0.11368683772E-12  0.17120000000E+03  0.17120000000E+03 0.  0.
         13    1    1    2    0    0  0.60561355319E+01  0.13718952592E+02  0.66666720862E+02  0.68332636948E+02  0.10566000000E+00 0. -1.
        994    1    1    2    0    0  0.88573717280E-01 -0.11647790216E+02  0.21244881222E+01  0.17160895172E+03  0.17120000000E+03 0.  0.
        998    1    1    2    0    0 -0.61447092492E+01 -0.20711623765E+01  0.14312087873E+04  0.14312584113E+04  0.10000000000E+02 0. -1.
</event>
<event>
 5    1  0.1294251E-008  0.3864862E+03  0.7957747E-01  0.3423394E+00
         13   -1    0    0    0    0  0.00000000000E+00  0.00000000000E+00  0.14999999963E+04  0.15000000000E+04  0.10566000000E+00 0.  1.
        994   -1    0    0    0    0 -0.00000000000E+00 -0.00000000000E+00  0.11368683772E-12  0.17120000000E+03  0.17120000000E+03 0.  0.
         13    1    1    2    0    0 -0.76072811215E+01  0.80892821926E+01  0.56339362401E+02  0.57423358768E+02  0.10566000000E+00 0.  1.
        994    1    1    2    0    0  0.90239697348E+01 -0.43442060192E+02  0.73638629435E+01  0.17700935315E+03  0.17120000000E+03 0.  0.
        998    1    1    2    0    0 -0.14166886133E+01  0.35352777999E+02  0.14362967709E+04  0.14367672881E+04  0.10000000000E+02 0.  1.
</event>
<event>
 5    1  0.1294251E-008  0.3715920E+03  0.7957747E-01  0.3488606E+00
         13   -1    0    0    0    0  0.00000000000E+00  0.00000000000E+00  0.14999999963E+04  0.15000000000E+04  0.10566000000E+00 0.  1.
        994   -1    0    0    0    0 -0.00000000000E+00 -0.00000000000E+00  0.11368683772E-12  0.17120000000E+03  0.17120000000E+03 0.  0.
         13    1    1    2    0    0  0.89254664688E+02  0.23835877885E+02  0.41379804538E+03  0.42398511503E+03  0.10566000000E+00 0.  1.
        994    1    1    2    0    0 -0.95600606020E+02  0.36876675290E+02  0.45458107688E+02  0.20463441696E+03  0.17120000000E+03 0.  0.
        998    1    1    2    0    0  0.63459413312E+01 -0.60712553175E+02  0.10407438432E+04  0.10425804680E+04  0.10000000000E+02 0.  1.
</event>
<event>
 5    1  0.1518559E-008  0.3858917E+03  0.7957747E-01  0.3425899E+00
         13   -1    0    0    0    0  0.00000000000E+00  0.00000000000E+00  0.14999999963E+04  0.15000000000E+04  0.10566000000E+00 0. -1.
        994   -1    0    0    0    0 -0.00000000000E+00 -0.00000000000E+00  0.11368683772E-12  0.17120000000E+03  0.17120000000E+03 0.  0.
         13    1    1    2    0    0 -0.36977879044E+01  0.98954376630E+01  0.50561448573E+02  0.51653311296E+02  0.10566000000E+00 0. -1.
        994    1    1    2    0    0 -0.42807130977E+01  0.11580247016E+01  0.12525482034E+01  0.17126200513E+03  0.17120000000E+03 0.  0.
        998    1    1    2    0    0  0.79785010020E+01 -0.11053462365E+02  0.14481859995E+04  0.14482846836E+04  0.10000000000E+02 0. -1.
</event>
<event>
 5    1  0.1294251E-008  0.3687284E+03  0.7957747E-01  0.3501756E+00
         13   -1    0    0    0    0  0.00000000000E+00  0.00000000000E+00  0.14999999963E+04  0.15000000000E+04  0.10566000000E+00 0.  1.
        994   -1    0    0    0    0 -0.00000000000E+00 -0.00000000000E+00  0.11368683772E-12  0.17120000000E+03  0.17120000000E+03 0.  0.
         13    1    1    2    0    0  0.32797331475E+02  0.24172872008E+02  0.69010117379E+02  0.80139878698E+02  0.10566000000E+00 0.  1.
        994    1    1    2    0    0 -0.46521139575E+02 -0.40377422791E+02  0.23593900997E+02  0.18346843015E+03  0.17120000000E+03 0.  0.
        998    1    1    2    0    0  0.13723808101E+02  0.16204550783E+02  0.14073959779E+04  0.14075916911E+04  0.10000000000E+02 0.  1.
</event>
<event>
 5    1  0.1294251E-008  0.3885237E+03  0.7957747E-01  0.3414864E+00
         13   -1    0    0    0    0  0.00000000000E+00  0.00000000000E+00  0.14999999963E+04  0.15000000000E+04  0.10566000000E+00 0. -1.
        994   -1    0    0    0    0 -0.00000000000E+00 -0.00000000000E+00  0.11368683772E-12  0.17120000000E+03  0.17120000000E+03 0.  0.
         13    1    1    2    0    0 -0.24472268145E+01 -0.38018517314E+02  0.25638585934E+02  0.45921071748E+02  0.10566000000E+00 0. -1.
        994    1    1    2    0    0  0.14425883824E+01  0.36791082057E+02  0.26178348176E+02  0.17706047185E+03  0.17120000000E+03 0.  0.
        998    1    1    2    0    0  0.10046384322E+01  0.12274352567E+01  0.14481830622E+04  0.14482184564E+04  0.10000000000E+02 0. -1.
</event>
<event>
 5    1  0.1294251E-008  0.3582977E+03  0.7957747E-01  0.3551464E+00
         13   -1    0    0    0    0  0.00000000000E+00  0.00000000000E+00  0.14999999963E+04  0.15000000000E+04  0.10566000000E+00 0. -1.
        994   -1    0    0    0    0 -0.00000000000E+00 -0.00000000000E+00  0.11368683772E-12  0.17120000000E+03  0.17120000000E+03 0.  0.
         13    1    1    2    0    0 -0.29452980925E+03  0.11359155292E+02  0.89058754287E+03  0.93809542245E+03  0.10566000000E+00 0. -1.
        994    1    1    2    0    0  0.27304836103E+03  0.94887592493E+01  0.36644182479E+03  0.48809271145E+03  0.17120000000E+03 0.  0.
        998    1    1    2    0    0  0.21481448218E+02 -0.20847914541E+02  0.24297062862E+03  0.24501186610E+03  0.10000000000E+02 0. -1.
</event>
<event>
 5    1  0.1294251E-008  0.3845742E+03  0.7957747E-01  0.3431480E+00
         13   -1    0    0    0    0  0.00000000000E+00  0.00000000000E+00  0.14999999963E+04  0.15000000000E+04  0.10566000000E+00 0.  1.
        994   -1    0    0    0    0 -0.00000000000E+00 -0.00000000000E+00  0.11368683772E-12  0.17120000000E+03  0.17120000000E+03 0.  0.
         13    1    1    2    0    0 -0.12050663550E+02  0.26700172519E+01  0.49051275345E+02  0.50580492891E+02  0.10566000000E+00 0.  1.
        994    1    1    2    0    0 -0.25726878980E+02 -0.21501170730E+01  0.40396557690E+01  0.17318271890E+03  0.17120000000E+03 0.  0.
        998    1    1    2    0    0  0.37777542530E+02 -0.51990017892E+00  0.14469090652E+04  0.14474367882E+04  0.10000000000E+02 0.  1.
</event>
<event>
 5    1  0.1294251E-008  0.3831247E+03  0.7957747E-01  0.3437665E+00
         13   -1    0    0    0    0  0.00000000000E+00  0.00000000000E+00  0.14999999963E+04  0.15000000000E+04  0.10566000000E+00 0. -1.
        994   -1    0    0    0    0 -0.00000000000E+00 -0.00000000000E+00  0.11368683772E-12  0.17120000000E+03  0.17120000000E+03 0.  0.
         13    1    1    2    0    0  0.38409936419E+01  0.11041037298E+02  0.26744667118E+02  0.29188116076E+02  0.10566000000E+00 0. -1.
        994    1    1    2    0    0  0.73661026125E+01  0.22032545146E+00  0.27437699551E+01  0.17138050147E+03  0.17120000000E+03 0.  0.
        998    1    1    2    0    0 -0.11207096254E+02 -0.11261362750E+02  0.14705115592E+04  0.14706313825E+04  0.10000000000E+02 0. -1.
</event>
<event>
 5    1  0.1294251E-008  0.3845854E+03  0.7957747E-01  0.3431432E+00
         13   -1    0    0    0    0  0.00000000000E+00  0.00000000000E+00  0.14999999963E+04  0.15000000000E+04  0.10566000000E+00 0. -1.
        994   -1    0    0    0    0 -0.00000000000E+00 -0.00000000000E+00  0.11368683772E-12  0.17120000000E+03  0.17120000000E+03 0.  0.
         13    1    1    2    0    0  0.82516021204E+01 -0.66630845685E+01  0.30090436944E+02  0.31905033977E+02  0.10566000000E+00 0. -1.
        994    1    1    2    0    0 -0.11164725612E+02 -0.36065316323E+00  0.22471172965E+01  0.17157875948E+03  0.17120000000E+03 0.  0.
        998    1    1    2    0    0  0.29131234915E+01  0.70237377318E+01  0.14676624420E+04  0.14677162065E+04  0.10000000000E+02 0. -1.
</event>
<event>
 5    1  0.1294251E-008  0.3861054E+03  0.7957747E-01  0.3424997E+00
         13   -1    0    0    0    0  0.00000000000E+00  0.00000000000E+00  0.14999999963E+04  0.15000000000E+04  0.10566000000E+00 0.  1.
        994   -1    0    0    0    0 -0.00000000000E+00 -0.00000000000E+00  0.11368683772E-12  0.17120000000E+03  0.17120000000E+03 0.  0.
         13    1    1    2    0    0  0.91110953191E+01  0.77789851422E+01  0.66930518769E+02  0.67994339282E+02  0.10566000000E+00 0.  1.
        994    1    1    2    0    0 -0.53040184439E+01 -0.68550534878E+01  0.13285112963E+01  0.17142441282E+03  0.17120000000E+03 0.  0.
        998    1    1    2    0    0 -0.38070768752E+01 -0.92393165439E+00  0.14317409662E+04  0.14317812479E+04  0.10000000000E+02 0.  1.
</event>
<event>
 5    1  0.1526422E-008  0.3841068E+03  0.7957747E-01  0.3433469E+00
         13   -1    0    0    0    0  0.00000000000E+00  0.00000000000E+00  0.14999999963E+04  0.15000000000E+04  0.10566000000E+00 0. -1.
        994   -1    0    0    0    0 -0.00000000000E+00 -0.00000000000E+00  0.11368683772E-12  0.17120000000E+03  0.17120000000E+03 0.  0.
         13    1    1    2    0    0 -0.10676128139E+02  0.52847214468E+00  0.26702459216E+02  0.28762675242E+02  0.10566000000E+00 0. -1.
        994    1    1    2    0    0  0.98969422915E+01  0.81678523780E+00  0.23995878216E+01  0.17150456153E+03  0.17120000000E+03 0.  0.
        998    1    1    2    0    0  0.77918584793E+00 -0.13452573825E+01  0.14708979492E+04  0.14709327632E+04  0.10000000000E+02 0. -1.
</event>
<event>
 5    1  0.1294251E-008  0.3906674E+03  0.7957747E-01  0.3405986E+00
         13   -1    0    0    0    0  0.00000000000E+00  0.00000000000E+00  0.14999999963E+04  0.15000000000E+04  0.10566000000E+00 0.  1.
        994   -1    0    0    0    0 -0.00000000000E+00 -0.00000000000E+00  0.11368683772E-12  0.17120000000E+03  0.17120000000E+03 0.  0.
         13    1    1    2    0    0  0.15194583684E+03  0.49613430096E+02  0.37771374677E+03  0.41014231121E+03  0.10566000000E+00 0.  1.
        994    1    1    2    0    0 -0.16675450055E+03 -0.25437094697E+02  0.13966079783E+03  0.27797245851E+03  0.17120000000E+03 0.  0.
        998    1    1    2    0    0  0.14808663704E+02 -0.24176335400E+02  0.98262545168E+03  0.98308523028E+03  0.10000000000E+02 0.  1.
</event>
<event>
 5    1  0.1294251E-008  0.3859264E+03  0.7957747E-01  0.3425753E+00
         13   -1    0    0    0    0  0.00000000000E+00  0.00000000000E+00  0.14999999963E+04  0.15000000000E+04  0.10566000000E+00 0. -1.
        994   -1    0    0    0    0 -0.00000000000E+00 -0.00000000000E+00  0.11368683772E-12  0.17120000000E+03  0.17120000000E+03 0.  0.
         13    1    1    2    0    0  0.69986029243E+01 -0.12120691906E+02  0.83752774339E+02  0.84914250799E+02  0.10566000000E+00 0. -1.
        994    1    1    2    0    0 -0.69362643053E+01  0.77892316064E+01  0.15276658765E+01  0.17152421886E+03  0.17120000000E+03 0.  0.
        998    1    1    2    0    0 -0.62338618926E-01  0.43314602993E+01  0.14147195561E+04  0.14147615303E+04  0.10000000000E+02 0. -1.
</event>
<event>
 5    1  0.1294251E-008  0.3813957E+03  0.7957747E-01  0.3445104E+00
         13   -1    0    0    0    0  0.00000000000E+00  0.00000000000E+00  0.14999999963E+04  0.15000000000E+04  0.10566000000E+00 0.  1.
        994   -1    0    0    0    0 -0.00000000000E+00 -0.00000000000E+00  0.11368683772E-12  0.17120000000E+03  0.17120000000E+03 0.  0.
         13    1    1    2    0    0  0.45664828490E+00  0.33764353823E+02  0.15242735243E+03  0.15612286523E+03  0.10566000000E+00 0.  1.
        994    1    1    2    0    0  0.45158455425E+01 -0.31590411477E+02  0.68262701978E+01  0.17428248599E+03  0.17120000000E+03 0.  0.
        998    1    1    2    0    0 -0.49724938274E+01 -0.21739423459E+01  0.13407463737E+04  0.13407946488E+04  0.10000000000E+02 0.  1.
</event>
<event>
 5    1  0.1294251E-008  0.3707639E+03  0.7957747E-01  0.3492387E+00
         13   -1    0    0    0    0  0.00000000000E+00  0.00000000000E+00  0.14999999963E+04  0.15000000000E+04  0.10566000000E+00 0.  1.
        994   -1    0    0    0    0 -0.00000000000E+00 -0.00000000000E+00  0.11368683772E-12  0.17120000000E+03  0.17120000000E+03 0.  0.
         13    1    1    2    0    0  0.46058126563E+01  0.33441975613E+02  0.45064546268E+02  0.56306338342E+02  0.10566000000E+00 0.  1.
        994    1    1    2    0    0  0.28880863572E+01 -0.30219817943E+02  0.14580577617E+02  0.17448097800E+03  0.17120000000E+03 0.  0.
        998    1    1    2    0    0 -0.74938990135E+01 -0.32221576694E+01  0.14403548724E+04  0.14404126837E+04  0.10000000000E+02 0.  1.
</event>
<event>
 5    1  0.1294251E-008  0.3800196E+03  0.7957747E-01  0.3451073E+00
         13   -1    0    0    0    0  0.00000000000E+00  0.00000000000E+00  0.14999999963E+04  0.15000000000E+04  0.10566000000E+00 0. -1.
        994   -1    0    0    0    0 -0.00000000000E+00 -0.00000000000E+00  0.11368683772E-12  0.17120000000E+03  0.17120000000E+03 0.  0.
         13    1    1    2    0    0 -0.38028078879E+02 -0.18467308958E+02  0.22824842458E+03  0.23213041760E+03  0.10566000000E+00 0. -1.
        994    1    1    2    0    0  0.17256144339E+02  0.35253231488E+01  0.51608358941E+01  0.17218094159E+03  0.17120000000E+03 0.  0.
        998    1    1    2    0    0  0.20771934540E+02  0.14941985809E+02  0.12665907358E+04  0.12668886408E+04  0.10000000000E+02 0. -1.
</event>
<event>
 5    1  0.1294251E-008  0.3815652E+03  0.7957747E-01  0.3444372E+00
         13   -1    0    0    0    0  0.00000000000E+00  0.00000000000E+00  0.14999999963E+04  0.15000000000E+04  0.10566000000E+00 0.  1.
        994   -1    0    0    0    0 -0.00000000000E+00 -0.00000000000E+00  0.11368683772E-12  0.17120000000E+03  0.17120000000E+03 0.  0.
         13    1    1    2    0    0  0.11400965961E+02 -0.11432398204E+02  0.37125606420E+02  0.40484609046E+02  0.10566000000E+00 0.  1.
        994    1    1    2    0    0 -0.13142168115E+02  0.86647201497E+01  0.41696709604E+01  0.17197273073E+03  0.17120000000E+03 0.  0.
        998    1    1    2    0    0  0.17412021532E+01  0.27676780546E+01  0.14587047189E+04  0.14587426602E+04  0.10000000000E+02 0.  1.
</event>
<event>
 5    1  0.1294251E-008  0.3756754E+03  0.7957747E-01  0.3470208E+00
         13   -1    0    0    0    0  0.00000000000E+00  0.00000000000E+00  0.14999999963E+04  0.15000000000E+04  0.10566000000E+00 0. -1.
        994   -1    0    0    0    0 -0.00000000000E+00 -0.00000000000E+00  0.11368683772E-12  0.17120000000E+03  0.17120000000E+03 0.  0.
         13    1    1    2    0    0 -0.16355302669E+02  0.19469654277E+02  0.48201076297E+02  0.54496956642E+02  0.10566000000E+00 0. -1.
        994    1    1    2    0    0  0.18275470142E+02 -0.97514749585E+01  0.77889010539E+01  0.17262442195E+03  0.17120000000E+03 0.  0.
        998    1    1    2    0    0 -0.19201674730E+01 -0.97181793180E+01  0.14440100189E+04  0.14440786214E+04  0.10000000000E+02 0. -1.
</event>
<event>
 5    1  0.1294251E-008  0.3691097E+03  0.7957747E-01  0.3499993E+00
         13   -1    0    0    0    0  0.00000000000E+00  0.00000000000E+00  0.14999999963E+04  0.15000000000E+04  0.10566000000E+00 0. -1.
        994   -1    0    0    0    0 -0.00000000000E+00 -0.00000000000E+00  0.11368683772E-12  0.17120000000E+03  0.17120000000E+03 0.  0.
         13    1    1    2    0    0 -0.23472737736E+02  0.42335015500E+01  0.23262035803E+02  0.33317044076E+02  0.10566000000E+00 0. -1.
        994    1    1    2    0    0  0.64505292487E+01 -0.98944637782E+01  0.10955169828E+02  0.17195628947E+03  0.17120000000E+03 0.  0.
        998    1    1    2    0    0  0.17022208487E+02  0.56609622282E+01  0.14657827906E+04  0.14659266665E+04  0.10000000000E+02 0. -1.
</event>
<event>
 5    1  0.1294251E-008  0.3838524E+03  0.7957747E-01  0.3434554E+00
         13   -1    0    0    0    0  0.00000000000E+00  0.00000000000E+00  0.14999999963E+04  0.15000000000E+04  0.10566000000E+00 0.  1.
        994   -1    0    0    0    0 -0.00000000000E+00 -0.00000000000E+00  0.11368683772E-12  0.17120000000E+03  0.17120000000E+03 0.  0.
         13    1    1    2    0    0 -0.27094269621E+01  0.14077114556E+02  0.50977033050E+02  0.52954463563E+02  0.10566000000E+00 0.  1.
        994    1    1    2    0    0 -0.10658158850E+02  0.84689317853E+01  0.28129150758E+01  0.17176341766E+03  0.17120000000E+03 0.  0.
        998    1    1    2    0    0  0.13367585812E+02 -0.22546046342E+02  0.14462100482E+04  0.14464821188E+04  0.10000000000E+02 0.  1.
</event>
<event>
 5    1  0.1294251E-008  0.3907947E+03  0.7957747E-01  0.3405462E+00
         13   -1    0    0    0    0  0.00000000000E+00  0.00000000000E+00  0.14999999963E+04  0.15000000000E+04  0.10566000000E+00 0. -1.
        994   -1    0    0    0    0 -0.00000000000E+00 -0.00000000000E+00  0.11368683772E-12  0.17120000000E+03  0.17120000000E+03 0.  0.
         13    1    1    2    0    0 -0.37533283718E+02  0.36366699750E+02  0.51765883258E+02  0.73559513803E+02  0.10566000000E+00 0. -1.
        994    1    1    2    0    0  0.28365533222E+02 -0.39897341928E+02  0.31486818771E+02  0.18082384003E+03  0.17120000000E+03 0.  0.
        998    1    1    2    0    0  0.91677504963E+01  0.35306421782E+01  0.14167472943E+04  0.14168166462E+04  0.10000000000E+02 0. -1.
</event>
<event>
 5    1  0.1294251E-008  0.3829826E+03  0.7957747E-01  0.3438273E+00
         13   -1    0    0    0    0  0.00000000000E+00  0.00000000000E+00  0.14999999963E+04  0.15000000000E+04  0.10566000000E+00 0.  1.
        994   -1    0    0    0    0 -0.00000000000E+00 -0.00000000000E+00  0.11368683772E-12  0.17120000000E+03  0.17120000000E+03 0.  0.
         13    1    1    2    0    0  0.89356918487E+01 -0.23326161170E+02  0.11671813513E+03  0.11936117717E+03  0.10566000000E+00 0.  1.
        994    1    1    2    0    0 -0.12811491883E+02  0.12726600585E+02  0.37152920374E+01  0.17218984895E+03  0.17120000000E+03 0.  0.
        998    1    1    2    0    0  0.38758000341E+01  0.10599560585E+02  0.13795665691E+04  0.13796489739E+04  0.10000000000E+02 0.  1.
</event>
<event>
 5    1  0.1294251E-008  0.3806399E+03  0.7957747E-01  0.3448377E+00
         13   -1    0    0    0    0  0.00000000000E+00  0.00000000000E+00  0.14999999963E+04  0.15000000000E+04  0.10566000000E+00 0. -1.
        994   -1    0    0    0    0 -0.00000000000E+00 -0.00000000000E+00  0.11368683772E-12  0.17120000000E+03  0.17120000000E+03 0.  0.
         13    1    1    2    0    0 -0.26074440085E+02  0.23420072874E+02  0.14851478175E+03  0.15259432428E+03  0.10566000000E+00 0. -1.
        994    1    1    2    0    0  0.25626662360E+02 -0.19455632355E+02  0.72716271934E+01  0.17434897194E+03  0.17120000000E+03 0.  0.
        998    1    1    2    0    0  0.44777772522E+00 -0.39644405185E+01  0.13442135873E+04  0.13442567038E+04  0.10000000000E+02 0. -1.
</event>
<event>
 5    1  0.1294251E-008  0.3817040E+03  0.7957747E-01  0.3443772E+00
         13   -1    0    0    0    0  0.00000000000E+00  0.00000000000E+00  0.14999999963E+04  0.15000000000E+04  0.10566000000E+00 0. -1.
        994   -1    0    0    0    0 -0.00000000000E+00 -0.00000000000E+00  0.11368683772E-12  0.17120000000E+03  0.17120000000E+03 0.  0.
         13    1    1    2    0    0 -0.21058059407E+02 -0.12678632146E+02  0.97780983252E+01  0.26453959060E+02  0.10566000000E+00 0. -1.
        994    1    1    2    0    0  0.27241207412E+02  0.11279964902E+02  0.20442553133E+02  0.17491900688E+03  0.17120000000E+03 0.  0.
        998    1    1    2    0    0 -0.61831480050E+01  0.13986672445E+01  0.14697793448E+04  0.14698270341E+04  0.10000000000E+02 0. -1.
</event>
<event>
 5    1  0.1294251E-008  0.3726603E+03  0.7957747E-01  0.3483753E+00
         13   -1    0    0    0    0  0.00000000000E+00  0.00000000000E+00  0.14999999963E+04  0.15000000000E+04  0.10566000000E+00 0. -1.
        994   -1    0    0    0    0 -0.00000000000E+00 -0.00000000000E+00  0.11368683772E-12  0.17120000000E+03  0.17120000000E+03 0.  0.
         13    1    1    2    0    0  0.82251993444E+02 -0.67551305887E+02  0.33945522300E+03  0.35575051502E+03  0.10566000000E+00 0. -1.
        994    1    1    2    0    0 -0.81100765331E+02  0.73231531666E+02  0.55775040047E+02  0.21061929271E+03  0.17120000000E+03 0.  0.
        998    1    1    2    0    0 -0.11512281126E+01 -0.56802257787E+01  0.11047697332E+04  0.11048301923E+04  0.10000000000E+02 0.  0.
</event>
<event>
 5    1  0.1294251E-008  0.3782382E+03  0.7957747E-01  0.3458866E+00
         13   -1    0    0    0    0  0.00000000000E+00  0.00000000000E+00  0.14999999963E+04  0.15000000000E+04  0.10566000000E+00 0. -1.
        994   -1    0    0    0    0 -0.00000000000E+00 -0.00000000000E+00  0.11368683772E-12  0.17120000000E+03  0.17120000000E+03 0.  0.
         13    1    1    2    0    0  0.11143140178E+02 -0.16811091522E+02  0.40241232157E+02  0.45012779304E+02  0.10566000000E+00 0. -1.
        994    1    1    2    0    0  0.10251012532E+02  0.62972433381E+01  0.55119716282E+01  0.17171068797E+03  0.17120000000E+03 0.  0.
        998    1    1    2    0    0 -0.21394152710E+02  0.10513848184E+02  0.14542467925E+04  0.14544765327E+04  0.10000000000E+02 0. -1.
</event>
<event>
 5    1  0.1294251E-008  0.3704137E+03  0.7957747E-01  0.3493992E+00
         13   -1    0    0    0    0  0.00000000000E+00  0.00000000000E+00  0.14999999963E+04  0.15000000000E+04  0.10566000000E+00 0. -1.
        994   -1    0    0    0    0 -0.00000000000E+00 -0.00000000000E+00  0.11368683772E-12  0.17120000000E+03  0.17120000000E+03 0.  0.
         13    1    1    2    0    0  0.24710939008E+02 -0.19775726045E+02  0.48568934729E+02  0.57971220722E+02  0.10566000000E+00 0. -1.
        994    1    1    2    0    0 -0.40044643213E+02  0.19522866493E+02  0.15936998177E+02  0.17761797115E+03  0.17120000000E+03 0.  0.
        998    1    1    2    0    0  0.15333704205E+02  0.25285955178E+00  0.14354940634E+04  0.14356108081E+04  0.10000000000E+02 0. -1.
</event>
<event>
 5    1  0.1294251E-008  0.2734419E+03  0.7957747E-01  0.4105990E+00
         13   -1    0    0    0    0  0.00000000000E+00  0.00000000000E+00  0.14999999963E+04  0.15000000000E+04  0.10566000000E+00 0. -1.
        994   -1    0    0    0    0 -0.00000000000E+00 -0.00000000000E+00  0.11368683772E-12  0.17120000000E+03  0.17120000000E+03 0.  0.
         13    1    1    2    0    0 -0.11027852285E+03 -0.18270718493E+03  0.32299240125E+03  0.38712707275E+03  0.10566000000E+00 0. -1.
        994    1    1    2    0    0  0.97651248739E+02  0.18266314697E+03  0.28422705891E+03  0.39114709849E+03  0.17120000000E+03 0.  0.
        998    1    1    2    0    0  0.12627274107E+02  0.44037957726E-01  0.89278053612E+03  0.89292582876E+03  0.10000000000E+02 0. -1.
</event>
<event>
 5    1  0.1294251E-008  0.3855349E+03  0.7957747E-01  0.3427407E+00
         13   -1    0    0    0    0  0.00000000000E+00  0.00000000000E+00  0.14999999963E+04  0.15000000000E+04  0.10566000000E+00 0.  1.
        994   -1    0    0    0    0 -0.00000000000E+00 -0.00000000000E+00  0.11368683772E-12  0.17120000000E+03  0.17120000000E+03 0.  0.
         13    1    1    2    0    0  0.14122070101E+02 -0.58363209056E+01  0.75787353245E+02  0.77312544788E+02  0.10566000000E+00 0.  1.
        994    1    1    2    0    0 -0.27658689699E+02  0.49186684409E+01  0.39599693909E+01  0.17353477396E+03  0.17120000000E+03 0.  0.
        998    1    1    2    0    0  0.13536619598E+02  0.91765246472E+00  0.14202526736E+04  0.14203526813E+04  0.10000000000E+02 0.  1.
</event>
<event>
 5    1  0.1294251E-008  0.3790703E+03  0.7957747E-01  0.3455217E+00
         13   -1    0    0    0    0  0.00000000000E+00  0.00000000000E+00  0.14999999963E+04  0.15000000000E+04  0.10566000000E+00 0. -1.
        994   -1    0    0    0    0 -0.00000000000E+00 -0.00000000000E+00  0.11368683772E-12  0.17120000000E+03  0.17120000000E+03 0.  0.
         13    1    1    2    0    0 -0.97205558770E+01 -0.19843946791E+02  0.51059690072E+02  0.55636090311E+02  0.10566000000E+00 0. -1.
        994    1    1    2    0    0 -0.26079070359E+01  0.18719202311E+02  0.58019234278E+01  0.17233778468E+03  0.17120000000E+03 0.  0.
        998    1    1    2    0    0  0.12328462913E+02  0.11247444802E+01  0.14431383828E+04  0.14432261250E+04  0.10000000000E+02 0. -1.
</event>
<event>
 5    1  0.1294251E-008  0.3848642E+03  0.7957747E-01  0.3430248E+00
         13   -1    0    0    0    0  0.00000000000E+00  0.00000000000E+00  0.14999999963E+04  0.15000000000E+04  0.10566000000E+00 0. -1.
        994   -1    0    0    0    0 -0.00000000000E+00 -0.00000000000E+00  0.11368683772E-12  0.17120000000E+03  0.17120000000E+03 0.  0.
         13    1    1    2    0    0  0.17393037090E+02  0.22685453152E+01  0.10507860834E+03  0.10653257310E+03  0.10566000000E+00 0. -1.
        994    1    1    2    0    0  0.69068744344E+01  0.97765908454E+00  0.18576782802E+01  0.17135212780E+03  0.17120000000E+03 0.  0.
        998    1    1    2    0    0 -0.24299911524E+02 -0.32462043997E+01  0.13930637097E+04  0.13933152991E+04  0.10000000000E+02 0. -1.
</event>
<event>
 5    1  0.1294251E-008  0.3845797E+03  0.7957747E-01  0.3431457E+00
         13   -1    0    0    0    0  0.00000000000E+00  0.00000000000E+00  0.14999999963E+04  0.15000000000E+04  0.10566000000E+00 0.  1.
        994   -1    0    0    0    0 -0.00000000000E+00 -0.00000000000E+00  0.11368683772E-12  0.17120000000E+03  0.17120000000E+03 0.  0.
         13    1    1    2    0    0 -0.18019868248E+01  0.18186800623E+02  0.95067904025E+02  0.96808700090E+02  0.10566000000E+00 0.  1.
        994    1    1    2    0    0  0.10937942135E+01 -0.50508944415E+01  0.19269224114E+01  0.17128882319E+03  0.17120000000E+03 0.  0.
        998    1    1    2    0    0  0.70819261126E+00 -0.13135906181E+02  0.14030051698E+04  0.14031024767E+04  0.10000000000E+02 0.  1.
</event>
<event>
 5    1  0.1294251E-008  0.3856611E+03  0.7957747E-01  0.3426873E+00
         13   -1    0    0    0    0  0.00000000000E+00  0.00000000000E+00  0.14999999963E+04  0.15000000000E+04  0.10566000000E+00 0. -1.
        994   -1    0    0    0    0 -0.00000000000E+00 -0.00000000000E+00  0.11368683772E-12  0.17120000000E+03  0.17120000000E+03 0.  0.
         13    1    1    2    0    0  0.87188440589E+01  0.71181531768E+01  0.48770585444E+02  0.50052647432E+02  0.10566000000E+00 0. -1.
        994    1    1    2    0    0 -0.63793475877E+01 -0.51177078573E+01  0.15218075317E+01  0.17140199213E+03  0.17120000000E+03 0.  0.
        998    1    1    2    0    0 -0.23394964712E+01 -0.20004453195E+01  0.14497076033E+04  0.14497453604E+04  0.10000000000E+02 0. -1.
</event>
<event>
 5    1  0.1294251E-008  0.3172024E+03  0.7957747E-01  0.3780381E+00
         13   -1    0    0    0    0  0.00000000000E+00  0.00000000000E+00  0.14999999963E+04  0.15000000000E+04  0.10566000000E+00 0.  1.
        994   -1    0    0    0    0 -0.00000000000E+00 -0.00000000000E+00  0.11368683772E-12  0.17120000000E+03  0.17120000000E+03 0.  0.
         13    1    1    2    0    0 -0.18114082086E+03  0.17819294467E+03  0.71582964247E+03  0.75958989640E+03  0.10566000000E+00 0.  1.
        994    1    1    2    0    0  0.19397306817E+03 -0.98716837417E+02  0.25557860284E+03  0.37682944072E+03  0.17120000000E+03 0.  0.
        998    1    1    2    0    0 -0.12832247312E+02 -0.79476107257E+02  0.52859175097E+03  0.53478066288E+03  0.10000000000E+02 0.  1.
</event>
<event>
 5    1  0.1294251E-008  0.3848821E+03  0.7957747E-01  0.3430172E+00
         13   -1    0    0    0    0  0.00000000000E+00  0.00000000000E+00  0.14999999963E+04  0.15000000000E+04  0.10566000000E+00 0. -1.
        994   -1    0    0    0    0 -0.00000000000E+00 -0.00000000000E+00  0.11368683772E-12  0.17120000000E+03  0.17120000000E+03 0.  0.
         13    1    1    2    0    0  0.11106547405E+02 -0.31738661365E+01  0.38435429963E+02  0.40133804479E+02  0.10566000000E+00 0. -1.
        994    1    1    2    0    0 -0.11794226683E+02  0.41787219140E+01  0.22039378066E+01  0.17167079787E+03  0.17120000000E+03 0.  0.
        998    1    1    2    0    0  0.68767927811E+00 -0.10048557775E+01  0.14593606285E+04  0.14593953976E+04  0.10000000000E+02 0. -1.
</event>
<event>
 5    1  0.1294251E-008  0.3835122E+03  0.7957747E-01  0.3436007E+00
         13   -1    0    0    0    0  0.00000000000E+00  0.00000000000E+00  0.14999999963E+04  0.15000000000E+04  0.10566000000E+00 0. -1.
        994   -1    0    0    0    0 -0.00000000000E+00 -0.00000000000E+00  0.11368683772E-12  0.17120000000E+03  0.17120000000E+03 0.  0.
         13    1    1    2    0    0  0.12727335591E+02 -0.35421814738E+01  0.38406405956E+02  0.40615210246E+02  0.10566000000E+00 0. -1.
        994    1    1    2    0    0  0.68479894799E+01  0.35593726501E+01  0.25674827964E+01  0.17139310389E+03  0.17120000000E+03 0.  0.
        998    1    1    2    0    0 -0.19575325071E+02 -0.17191176324E-01  0.14590261075E+04  0.14591916859E+04  0.10000000000E+02 0. -1.
</event>
<event>
 5    1  0.1294251E-008  0.3740595E+03  0.7957747E-01  0.3477440E+00
         13   -1    0    0    0    0  0.00000000000E+00  0.00000000000E+00  0.14999999963E+04  0.15000000000E+04  0.10566000000E+00 0. -1.
        994   -1    0    0    0    0 -0.00000000000E+00 -0.00000000000E+00  0.11368683772E-12  0.17120000000E+03  0.17120000000E+03 0.  0.
         13    1    1    2    0    0 -0.15266562484E+02 -0.63874778677E+01  0.15159823360E+02  0.22443244239E+02  0.10566000000E+00 0. -1.
        994    1    1    2    0    0  0.23798858381E+02  0.30934068574E+02  0.12374726415E+02  0.17602805490E+03  0.17120000000E+03 0.  0.
        998    1    1    2    0    0 -0.85322958970E+01 -0.24546590706E+02  0.14724654465E+04  0.14727287009E+04  0.10000000000E+02 0. -1.
</event>
<event>
 5    1  0.1294251E-008  0.3684282E+03  0.7957747E-01  0.3503146E+00
         13   -1    0    0    0    0  0.00000000000E+00  0.00000000000E+00  0.14999999963E+04  0.15000000000E+04  0.10566000000E+00 0. -1.
        994   -1    0    0    0    0 -0.00000000000E+00 -0.00000000000E+00  0.11368683772E-12  0.17120000000E+03  0.17120000000E+03 0.  0.
         13    1    1    2    0    0  0.10070097705E+03 -0.66286775266E+01  0.34121216301E+03  0.35582352016E+03  0.10566000000E+00 0. -1.
        994    1    1    2    0    0 -0.11630965956E+03 -0.97710030522E+00  0.58742688416E+02  0.21514886724E+03  0.17120000000E+03 0.  0.
        998    1    1    2    0    0  0.15608682514E+02  0.76057778319E+01  0.11000451449E+04  0.11002276126E+04  0.10000000000E+02 0. -1.
</event>
<event>
 5    1  0.1294251E-008  0.3791263E+03  0.7957747E-01  0.3454972E+00
         13   -1    0    0    0    0  0.00000000000E+00  0.00000000000E+00  0.14999999963E+04  0.15000000000E+04  0.10566000000E+00 0. -1.
        994   -1    0    0    0    0 -0.00000000000E+00 -0.00000000000E+00  0.11368683772E-12  0.17120000000E+03  0.17120000000E+03 0.  0.
         13    1    1    2    0    0 -0.89222012344E+01  0.48869458796E+02  0.22027777873E+03  0.22580996577E+03  0.10566000000E+00 0. -1.
        994    1    1    2    0    0  0.90272722737E+01 -0.54959293438E+02  0.15045822073E+02  0.18065943746E+03  0.17120000000E+03 0.  0.
        998    1    1    2    0    0 -0.10507103930E+00  0.60898346423E+01  0.12646763955E+04  0.12647305968E+04  0.10000000000E+02 0.  0.
</event>
<event>
 5    1  0.1294251E-008  0.3780350E+03  0.7957747E-01  0.3459759E+00
         13   -1    0    0    0    0  0.00000000000E+00  0.00000000000E+00  0.14999999963E+04  0.15000000000E+04  0.10566000000E+00 0.  1.
        994   -1    0    0    0    0 -0.00000000000E+00 -0.00000000000E+00  0.11368683772E-12  0.17120000000E+03  0.17120000000E+03 0.  0.
         13    1    1    2    0    0 -0.19836183391E+02  0.28508160153E+02  0.12205380682E+03  0.12689890579E+03  0.10566000000E+00 0.  1.
        994    1    1    2    0    0  0.16103226161E+02 -0.20143805842E+01  0.60150380328E+01  0.17207263671E+03  0.17120000000E+03 0.  0.
        998    1    1    2    0    0  0.37329572299E+01 -0.26493779569E+02  0.13719311514E+04  0.13722284575E+04  0.10000000000E+02 0.  1.
</event>
<event>
 5    1  0.1294251E-008  0.3853251E+03  0.7957747E-01  0.3428295E+00
         13   -1    0    0    0    0  0.00000000000E+00  0.00000000000E+00  0.14999999963E+04  0.15000000000E+04  0.10566000000E+00 0. -1.
        994   -1    0    0    0    0 -0.00000000000E+00 -0.00000000000E+00  0.11368683772E-12  0.17120000000E+03  0.17120000000E+03 0.  0.
         13    1    1    2    0    0  0.11503121021E+01  0.13419744225E+02  0.59397269364E+02  0.60905332484E+02  0.10566000000E+00 0. -1.
        994    1    1    2    0    0  0.88851294857E+01 -0.16538541804E+02  0.26276023286E+01  0.17224637350E+03  0.17120000000E+03 0.  0.
        998    1    1    2    0    0 -0.10035441588E+02  0.31187975781E+01  0.14379751246E+04  0.14380482940E+04  0.10000000000E+02 0. -1.
</event>
<event>
 5    1  0.1294251E-008  0.3808746E+03  0.7957747E-01  0.3447359E+00
         13   -1    0    0    0    0  0.00000000000E+00  0.00000000000E+00  0.14999999963E+04  0.15000000000E+04  0.10566000000E+00 0.  1.
        994   -1    0    0    0    0 -0.00000000000E+00 -0.00000000000E+00  0.11368683772E-12  0.17120000000E+03  0.17120000000E+03 0.  0.
         13    1    1    2    0    0 -0.20723256107E+03 -0.23400898224E+03  0.75964943180E+03  0.82144556030E+03  0.10566000000E+00 0.  1.
        994    1    1    2    0    0  0.21131254936E+03  0.25335908386E+03  0.58680099199E+03  0.69461403894E+03  0.17120000000E+03 0.  0.
        998    1    1    2    0    0 -0.40799882923E+01 -0.19350101613E+02  0.15354957248E+03  0.15514040075E+03  0.10000000000E+02 0.  1.
</event>
<event>
 5    1  0.1294251E-008  0.3821106E+03  0.7957747E-01  0.3442020E+00
         13   -1    0    0    0    0  0.00000000000E+00  0.00000000000E+00  0.14999999963E+04  0.15000000000E+04  0.10566000000E+00 0. -1.
        994   -1    0    0    0    0 -0.00000000000E+00 -0.00000000000E+00  0.11368683772E-12  0.17120000000E+03  0.17120000000E+03 0.  0.
         13    1    1    2    0    0  0.99371983973E+01 -0.35499540960E+01  0.17231928302E+02  0.20206449542E+02  0.10566000000E+00 0. -1.
        994    1    1    2    0    0  0.14740194635E+01  0.49237237643E+01  0.31592143805E+01  0.17130626499E+03  0.17120000000E+03 0.  0.
        998    1    1    2    0    0 -0.11411217861E+02 -0.13737696684E+01  0.14796088536E+04  0.14796872855E+04  0.10000000000E+02 0. -1.
</event>
<event>
 5    1  0.1294251E-008  0.3840623E+03  0.7957747E-01  0.3433659E+00
         13   -1    0    0    0    0  0.00000000000E+00  0.00000000000E+00  0.14999999963E+04  0.15000000000E+04  0.10566000000E+00 0. -1.
        994   -1    0    0    0    0 -0.00000000000E+00 -0.00000000000E+00  0.11368683772E-12  0.17120000000E+03  0.17120000000E+03 0.  0.
         13    1    1    2    0    0 -0.16673877161E+01  0.10461944616E+02  0.27265846074E+02  0.29251837432E+02  0.10566000000E+00 0. -1.
        994    1    1    2    0    0  0.23717240150E+01  0.39461938774E+01  0.21663343055E+01  0.17127559816E+03  0.17120000000E+03 0.  0.
        998    1    1    2    0    0 -0.70433629882E+00 -0.14408138493E+02  0.14705678159E+04  0.14706725644E+04  0.10000000000E+02 0. -1.
</event>
<event>
 5    1  0.1294251E-008  0.3813804E+03  0.7957747E-01  0.3445170E+00
         13   -1    0    0    0    0  0.00000000000E+00  0.00000000000E+00  0.14999999963E+04  0.15000000000E+04  0.10566000000E+00 0. -1.
        994   -1    0    0    0    0 -0.00000000000E+00 -0.00000000000E+00  0.11368683772E-12  0.17120000000E+03  0.17120000000E+03 0.  0.
         13    1    1    2    0    0 -0.73960675939E-02 -0.20013274272E+02  0.55966467785E+02  0.59437260049E+02  0.10566000000E+00 0. -1.
        994    1    1    2    0    0  0.52013591118E+01  0.17495821090E+02  0.45473955278E+01  0.17223030134E+03  0.17120000000E+03 0.  0.
        998    1    1    2    0    0 -0.51939630442E+01  0.25174531819E+01  0.14394861330E+04  0.14395324386E+04  0.10000000000E+02 0. -1.
</event>
<event>
 5    1  0.1294251E-008  0.3834660E+03  0.7957747E-01  0.3436204E+00
         13   -1    0    0    0    0  0.00000000000E+00  0.00000000000E+00  0.14999999963E+04  0.15000000000E+04  0.10566000000E+00 0. -1.
        994   -1    0    0    0    0 -0.00000000000E+00 -0.00000000000E+00  0.11368683772E-12  0.17120000000E+03  0.17120000000E+03 0.  0.
         13    1    1    2    0    0 -0.10991838288E+02 -0.64662660087E+01  0.27301435448E+02  0.30133248192E+02  0.10566000000E+00 0. -1.
        994    1    1    2    0    0  0.53421905971E+02  0.33433694222E+02  0.15633005857E+02  0.18309981655E+03  0.17120000000E+03 0.  0.
        998    1    1    2    0    0 -0.42430067683E+02 -0.26967428213E+02  0.14570655550E+04  0.14579669353E+04  0.10000000000E+02 0. -1.
</event>
<event>
 5    1  0.1294251E-008  0.3856816E+03  0.7957747E-01  0.3426787E+00
         13   -1    0    0    0    0  0.00000000000E+00  0.00000000000E+00  0.14999999963E+04  0.15000000000E+04  0.10566000000E+00 0. -1.
        994   -1    0    0    0    0 -0.00000000000E+00 -0.00000000000E+00  0.11368683772E-12  0.17120000000E+03  0.17120000000E+03 0.  0.
         13    1    1    2    0    0  0.10859592849E+02  0.87946280770E+00  0.46998591238E+02  0.48245030356E+02  0.10566000000E+00 0. -1.
        994    1    1    2    0    0 -0.44561433348E+01 -0.23202906015E+01  0.13749378824E+01  0.17127922062E+03  0.17120000000E+03 0.  0.
        998    1    1    2    0    0 -0.64034495143E+01  0.14408277938E+01  0.14516264672E+04  0.14516757490E+04  0.10000000000E+02 0. -1.
</event>
<event>
 5    1  0.1294251E-008  0.3853110E+03  0.7957747E-01  0.3428354E+00
         13   -1    0    0    0    0  0.00000000000E+00  0.00000000000E+00  0.14999999963E+04  0.15000000000E+04  0.10566000000E+00 0. -1.
        994   -1    0    0    0    0 -0.00000000000E+00 -0.00000000000E+00  0.11368683772E-12  0.17120000000E+03  0.17120000000E+03 0.  0.
         13    1    1    2    0    0  0.15763475220E+02  0.68843286726E+01  0.95611610971E+02  0.97146654336E+02  0.10566000000E+00 0. -1.
        994    1    1    2    0    0 -0.13788994929E+02 -0.11875636734E+02  0.25645599606E+01  0.17218357673E+03  0.17120000000E+03 0.  0.
        998    1    1    2    0    0 -0.19744802908E+01  0.49913080613E+01  0.14018238253E+04  0.14018697689E+04  0.10000000000E+02 0. -1.
</event>
<event>
 5    1  0.1294251E-008  0.3831010E+03  0.7957747E-01  0.3437766E+00
         13   -1    0    0    0    0  0.00000000000E+00  0.00000000000E+00  0.14999999963E+04  0.15000000000E+04  0.10566000000E+00 0.  1.
        994   -1    0    0    0    0 -0.00000000000E+00 -0.00000000000E+00  0.11368683772E-12  0.17120000000E+03  0.17120000000E+03 0.  0.
         13    1    1    2    0    0 -0.90390072961E+01  0.20015342870E+02  0.88948458229E+02  0.91619632112E+02  0.10566000000E+00 0.  1.
        994    1    1    2    0    0 -0.74910225072E+01 -0.26859963689E+02  0.51531797712E+01  0.17353261460E+03  0.17120000000E+03 0.  0.
        998    1    1    2    0    0  0.16530029803E+02  0.68446208190E+01  0.14058983583E+04  0.14060477533E+04  0.10000000000E+02 0.  1.
</event>
<event>
 5    1  0.1294251E-008  0.3724779E+03  0.7957747E-01  0.3484580E+00
         13   -1    0    0    0    0  0.00000000000E+00  0.00000000000E+00  0.14999999963E+04  0.15000000000E+04  0.10566000000E+00 0. -1.
        994   -1    0    0    0    0 -0.00000000000E+00 -0.00000000000E+00  0.11368683772E-12  0.17120000000E+03  0.17120000000E+03 0.  0.
         13    1    1    2    0    0 -0.12351909483E+02 -0.30753186352E+02  0.65749586280E+02  0.73629799665E+02  0.10566000000E+00 0. -1.
        994    1    1    2    0    0  0.14608295667E+02  0.17605228711E+02  0.97759072347E+01  0.17299813508E+03  0.17120000000E+03 0.  0.
        998    1    1    2    0    0 -0.22563861844E+01  0.13147957641E+02  0.14244745028E+04  0.14245720653E+04  0.10000000000E+02 0. -1.
</event>
<event>
 5    1  0.1294251E-008  0.3806315E+03  0.7957747E-01  0.3448414E+00
         13   -1    0    0    0    0  0.00000000000E+00  0.00000000000E+00  0.14999999963E+04  0.15000000000E+04  0.10566000000E+00 0. -1.
        994   -1    0    0    0    0 -0.00000000000E+00 -0.00000000000E+00  0.11368683772E-12  0.17120000000E+03  0.17120000000E+03 0.  0.
         13    1    1    2    0    0  0.80170422983E+01  0.98492414616E+01  0.18803873829E+02  0.22690909184E+02  0.10566000000E+00 0. -1.
        994    1    1    2    0    0 -0.20331136047E+02 -0.13616577787E+02  0.58147359231E+01  0.17303761856E+03  0.17120000000E+03 0.  0.
        998    1    1    2    0    0  0.12314093749E+02  0.37673363254E+01  0.14753813865E+04  0.14754714723E+04  0.10000000000E+02 0. -1.
</event>
<event>
 5    1  0.1294251E-008  0.3775129E+03  0.7957747E-01  0.3462060E+00
         13   -1    0    0    0    0  0.00000000000E+00  0.00000000000E+00  0.14999999963E+04  0.15000000000E+04  0.10566000000E+00 0. -1.
        994   -1    0    0    0    0 -0.00000000000E+00 -0.00000000000E+00  0.11368683772E-12  0.17120000000E+03  0.17120000000E+03 0.  0.
         13    1    1    2    0    0 -0.14718598363E+02 -0.25708246244E+02  0.89727647092E+02  0.94491337589E+02  0.10566000000E+00 0. -1.
        994    1    1    2    0    0 -0.27558448453E+01 -0.91546445755E+01  0.57020552865E+01  0.17156152142E+03  0.17120000000E+03 0.  0.
        998    1    1    2    0    0  0.17474443209E+02  0.34862890820E+02  0.14045702939E+04  0.14051471410E+04  0.10000000000E+02 0. -1.
</event>
<event>
 5    1  0.1294251E-008  0.3820543E+03  0.7957747E-01  0.3442262E+00
         13   -1    0    0    0    0  0.00000000000E+00  0.00000000000E+00  0.14999999963E+04  0.15000000000E+04  0.10566000000E+00 0. -1.
        994   -1    0    0    0    0 -0.00000000000E+00 -0.00000000000E+00  0.11368683772E-12  0.17120000000E+03  0.17120000000E+03 0.  0.
         13    1    1    2    0    0  0.18656439005E+02  0.18823722231E+01  0.56520111469E+02  0.59549476958E+02  0.10566000000E+00 0. -1.
        994    1    1    2    0    0 -0.82835835321E+01 -0.60646325946E+01  0.34497480719E+01  0.17154223470E+03  0.17120000000E+03 0.  0.
        998    1    1    2    0    0 -0.10372855473E+02  0.41822603715E+01  0.14400301367E+04  0.14401082883E+04  0.10000000000E+02 0. -1.
</event>
<event>
 5    1  0.1294251E-008  0.3732755E+03  0.7957747E-01  0.3480971E+00
         13   -1    0    0    0    0  0.00000000000E+00  0.00000000000E+00  0.14999999963E+04  0.15000000000E+04  0.10566000000E+00 0. -1.
        994   -1    0    0    0    0 -0.00000000000E+00 -0.00000000000E+00  0.11368683772E-12  0.17120000000E+03  0.17120000000E+03 0.  0.
         13    1    1    2    0    0 -0.22286237265E+02 -0.22672869372E+02  0.61284346842E+02  0.69039971820E+02  0.10566000000E+00 0. -1.
        994    1    1    2    0    0  0.21845702256E+02  0.25360725786E+02  0.11407348132E+02  0.17481409757E+03  0.17120000000E+03 0.  0.
        998    1    1    2    0    0  0.44053500921E+00 -0.26878564136E+01  0.14273083013E+04  0.14273459306E+04  0.10000000000E+02 0. -1.
</event>
<event>
 5    1  0.1294251E-008  0.3714264E+03  0.7957747E-01  0.3489361E+00
         13   -1    0    0    0    0  0.00000000000E+00  0.00000000000E+00  0.14999999963E+04  0.15000000000E+04  0.10566000000E+00 0.  1.
        994   -1    0    0    0    0 -0.00000000000E+00 -0.00000000000E+00  0.11368683772E-12  0.17120000000E+03  0.17120000000E+03 0.  0.
         13    1    1    2    0    0  0.15155456820E+02  0.69258682619E+00  0.45130965607E+01  0.15828668692E+02  0.10566000000E+00 0.  1.
        994    1    1    2    0    0 -0.12396596695E+02 -0.11481915320E+01  0.12239818721E+02  0.17208790520E+03  0.17120000000E+03 0.  0.
        998    1    1    2    0    0 -0.27588601252E+01  0.45560470583E+00  0.14832470810E+04  0.14832834261E+04  0.10000000000E+02 0.  1.
</event>
<event>
 5    1  0.1294251E-008  0.3842912E+03  0.7957747E-01  0.3432684E+00
         13   -1    0    0    0    0  0.00000000000E+00  0.00000000000E+00  0.14999999963E+04  0.15000000000E+04  0.10566000000E+00 0. -1.
        994   -1    0    0    0    0 -0.00000000000E+00 -0.00000000000E+00  0.11368683772E-12  0.17120000000E+03  0.17120000000E+03 0.  0.
         13    1    1    2    0    0 -0.13019538193E+02 -0.80741632468E+01  0.61031120225E+02  0.62924631797E+02  0.10566000000E+00 0. -1.
        994    1    1    2    0    0  0.56288726181E+00  0.61000649609E+01  0.21061679730E+01  0.17132251334E+03  0.17120000000E+03 0.  0.
        998    1    1    2    0    0  0.12456650931E+02  0.19740982859E+01  0.14368627081E+04  0.14369528549E+04  0.10000000000E+02 0. -1.
</event>
<event>
 5    1  0.1294251E-008  0.3769620E+03  0.7957747E-01  0.3464494E+00
         13   -1    0    0    0    0  0.00000000000E+00  0.00000000000E+00  0.14999999963E+04  0.15000000000E+04  0.10566000000E+00 0.  1.
        994   -1    0    0    0    0 -0.00000000000E+00 -0.00000000000E+00  0.11368683772E-12  0.17120000000E+03  0.17120000000E+03 0.  0.
         13    1    1    2    0    0  0.90763333463E+01  0.20916152286E+02  0.42899729101E+02  0.48582539810E+02  0.10566000000E+00 0.  1.
        994    1    1    2    0    0 -0.25191257685E+01 -0.20766173530E+02  0.71536614235E+01  0.17262153640E+03  0.17120000000E+03 0.  0.
        998    1    1    2    0    0 -0.65572075778E+01 -0.14997875636E+00  0.14499466058E+04  0.14499959238E+04  0.10000000000E+02 0.  1.
</event>
<event>
 5    1  0.1294251E-008  0.3853960E+03  0.7957747E-01  0.3427994E+00
         13   -1    0    0    0    0  0.00000000000E+00  0.00000000000E+00  0.14999999963E+04  0.15000000000E+04  0.10566000000E+00 0.  1.
        994   -1    0    0    0    0 -0.00000000000E+00 -0.00000000000E+00  0.11368683772E-12  0.17120000000E+03  0.17120000000E+03 0.  0.
         13    1    1    2    0    0  0.14134203529E+02 -0.43203212673E+01  0.71624310010E+02  0.73133397526E+02  0.10566000000E+00 0.  1.
        994    1    1    2    0    0 -0.17711927111E+02  0.74876979647E+01  0.26491007960E+01  0.17229694054E+03  0.17120000000E+03 0.  0.
        998    1    1    2    0    0  0.35777235815E+01 -0.31673766974E+01  0.14257265855E+04  0.14257696619E+04  0.10000000000E+02 0.  1.
</event>
<event>
 5    1  0.1294251E-008  0.3772474E+03  0.7957747E-01  0.3463232E+00
         13   -1    0    0    0    0  0.00000000000E+00  0.00000000000E+00  0.14999999963E+04  0.15000000000E+04  0.10566000000E+00 0. -1.
        994   -1    0    0    0    0 -0.00000000000E+00 -0.00000000000E+00  0.11368683772E-12  0.17120000000E+03  0.17120000000E+03 0.  0.
         13    1    1    2    0    0 -0.43817998004E+02  0.36363800072E+02  0.23816596870E+03  0.24487830185E+03  0.10566000000E+00 0. -1.
        994    1    1    2    0    0  0.38720078887E+02 -0.50140076213E+02  0.19190419610E+02  0.18355103910E+03  0.17120000000E+03 0.  0.
        998    1    1    2    0    0  0.50979191170E+01  0.13776276141E+02  0.12426436080E+04  0.12427706590E+04  0.10000000000E+02 0. -1.
</event>
<event>
 5    1  0.1294251E-008  0.3859089E+03  0.7957747E-01  0.3425826E+00
         13   -1    0    0    0    0  0.00000000000E+00  0.00000000000E+00  0.14999999963E+04  0.15000000000E+04  0.10566000000E+00 0.  1.
        994   -1    0    0    0    0 -0.00000000000E+00 -0.00000000000E+00  0.11368683772E-12  0.17120000000E+03  0.17120000000E+03 0.  0.
         13    1    1    2    0    0 -0.11192082853E+02  0.16641904288E+01  0.55800734154E+02  0.56936502742E+02  0.10566000000E+00 0.  1.
        994    1    1    2    0    0  0.29721001037E+01 -0.16786625842E+02  0.21330645535E+01  0.17205991442E+03  0.17120000000E+03 0.  0.
        998    1    1    2    0    0  0.82199827495E+01  0.15122435413E+02  0.14420661976E+04  0.14422035828E+04  0.10000000000E+02 0.  1.
</event>
<event>
 5    1  0.1294251E-008  0.3851610E+03  0.7957747E-01  0.3428990E+00
         13   -1    0    0    0    0  0.00000000000E+00  0.00000000000E+00  0.14999999963E+04  0.15000000000E+04  0.10566000000E+00 0. -1.
        994   -1    0    0    0    0 -0.00000000000E+00 -0.00000000000E+00  0.11368683772E-12  0.17120000000E+03  0.17120000000E+03 0.  0.
         13    1    1    2    0    0 -0.20084719518E+00  0.10282507287E+02  0.34325305677E+02  0.35833058333E+02  0.10566000000E+00 0. -1.
        994    1    1    2    0    0 -0.69723700529E+01 -0.51430117754E+01  0.17970096926E+01  0.17142850918E+03  0.17120000000E+03 0.  0.
        998    1    1    2    0    0  0.71732172481E+01 -0.51394955115E+01  0.14638776809E+04  0.14639384325E+04  0.10000000000E+02 0. -1.
</event>
<event>
 5    1  0.1294251E-008  0.3771257E+03  0.7957747E-01  0.3463770E+00
         13   -1    0    0    0    0  0.00000000000E+00  0.00000000000E+00  0.14999999963E+04  0.15000000000E+04  0.10566000000E+00 0. -1.
        994   -1    0    0    0    0 -0.00000000000E+00 -0.00000000000E+00  0.11368683772E-12  0.17120000000E+03  0.17120000000E+03 0.  0.
         13    1    1    2    0    0  0.44784629297E+01 -0.10300974281E+02  0.88964107785E+01  0.14329130823E+02  0.10566000000E+00 0. -1.
        994    1    1    2    0    0 -0.10508255265E+02 -0.34372158849E+01  0.60038197725E+01  0.17166165481E+03  0.17120000000E+03 0.  0.
        998    1    1    2    0    0  0.60297923349E+01  0.13738190166E+02  0.14850997657E+04  0.14852092144E+04  0.10000000000E+02 0. -1.
</event>
<event>
 5    1  0.1294251E-008  0.3853763E+03  0.7957747E-01  0.3428078E+00
         13   -1    0    0    0    0  0.00000000000E+00  0.00000000000E+00  0.14999999963E+04  0.15000000000E+04  0.10566000000E+00 0.  1.
        994   -1    0    0    0    0 -0.00000000000E+00 -0.00000000000E+00  0.11368683772E-12  0.17120000000E+03  0.17120000000E+03 0.  0.
         13    1    1    2    0    0  0.13326817014E+02  0.11666011190E+01  0.66037555301E+02  0.67379038907E+02  0.10566000000E+00 0.  1.
        994    1    1    2    0    0  0.48205293695E+00 -0.84502380090E+01  0.16787896712E+01  0.17141731894E+03  0.17120000000E+03 0.  0.
        998    1    1    2    0    0 -0.13808869951E+02  0.72836368900E+01  0.14322836513E+04  0.14324036422E+04  0.10000000000E+02 0.  1.
</event>
<event>
 5    1  0.1294251E-008  0.3857693E+03  0.7957747E-01  0.3426416E+00
         13   -1    0    0    0    0  0.00000000000E+00  0.00000000000E+00  0.14999999963E+04  0.15000000000E+04  0.10566000000E+00 0. -1.
        994   -1    0    0    0    0 -0.00000000000E+00 -0.00000000000E+00  0.11368683772E-12  0.17120000000E+03  0.17120000000E+03 0.  0.
         13    1    1    2    0    0  0.15460884156E+02  0.24973192130E+01  0.94198215313E+02  0.95491310989E+02  0.10566000000E+00 0. -1.
        994    1    1    2    0    0 -0.15311972346E+02 -0.47401467122E+01  0.20919654543E+01  0.17196145442E+03  0.17120000000E+03 0.  0.
        998    1    1    2    0    0 -0.14891181010E+00  0.22428274992E+01  0.14037098155E+04  0.14037472346E+04  0.10000000000E+02 0. -1.
</event>
<event>
 5    1  0.2348300E-008  0.3864239E+03  0.7957747E-01  0.3423656E+00
         13   -1    0    0    0    0  0.00000000000E+00  0.00000000000E+00  0.14999999963E+04  0.15000000000E+04  0.10566000000E+00 0.  1.
        994   -1    0    0    0    0 -0.00000000000E+00 -0.00000000000E+00  0.11368683772E-12  0.17120000000E+03  0.17120000000E+03 0.  0.
         13    1    1    2    0    0 -0.10158091123E+02  0.23766567247E+00  0.54733068616E+02  0.55668332689E+02  0.10566000000E+00 0.  1.
        994    1    1    2    0    0  0.12044115317E+02 -0.89498760064E+00  0.14024701013E+01  0.17163119949E+03  0.17120000000E+03 0.  0.
        998    1    1    2    0    0 -0.18860241937E+01  0.65732192817E+00  0.14438644576E+04  0.14439004678E+04  0.10000000000E+02 0.  1.
</event>
<event>
 5    1  0.1294251E-008  0.3815704E+03  0.7957747E-01  0.3444349E+00
         13   -1    0    0    0    0  0.00000000000E+00  0.00000000000E+00  0.14999999963E+04  0.15000000000E+04  0.10566000000E+00 0.  1.
        994   -1    0    0    0    0 -0.00000000000E+00 -0.00000000000E+00  0.11368683772E-12  0.17120000000E+03  0.17120000000E+03 0.  0.
         13    1    1    2    0    0  0.33548241525E+02 -0.68380863410E+01  0.19364259449E+03  0.19664615303E+03  0.10566000000E+00 0.  1.
        994    1    1    2    0    0 -0.97883028832E+01 -0.11477681144E+02  0.40996196742E+01  0.17191217211E+03  0.17120000000E+03 0.  0.
        998    1    1    2    0    0 -0.23759938642E+02  0.18315767485E+02  0.13022577821E+04  0.13026416749E+04  0.10000000000E+02 0.  1.
</event>
<event>
 5    1  0.1294251E-008  0.3834803E+03  0.7957747E-01  0.3436143E+00
         13   -1    0    0    0    0  0.00000000000E+00  0.00000000000E+00  0.14999999963E+04  0.15000000000E+04  0.10566000000E+00 0. -1.
        994   -1    0    0    0    0 -0.00000000000E+00 -0.00000000000E+00  0.11368683772E-12  0.17120000000E+03  0.17120000000E+03 0.  0.
         13    1    1    2    0    0  0.13787494166E+02 -0.21983000456E+02  0.14811017252E+03  0.15036615866E+03  0.10566000000E+00 0. -1.
        994    1    1    2    0    0 -0.13555680347E+02  0.24712358902E+01  0.30142396440E+01  0.17178006030E+03  0.17120000000E+03 0.  0.
        998    1    1    2    0    0 -0.23181381935E+00  0.19511764566E+02  0.13488755841E+04  0.13490537810E+04  0.10000000000E+02 0. -1.
</event>
<event>
 5    1  0.1294251E-008  0.3836334E+03  0.7957747E-01  0.3435489E+00
         13   -1    0    0    0    0  0.00000000000E+00  0.00000000000E+00  0.14999999963E+04  0.15000000000E+04  0.10566000000E+00 0.  1.
        994   -1    0    0    0    0 -0.00000000000E+00 -0.00000000000E+00  0.11368683772E-12  0.17120000000E+03  0.17120000000E+03 0.  0.
         13    1    1    2    0    0  0.16129067306E+01  0.10130800180E+02  0.21930012901E+02  0.24210972931E+02  0.10566000000E+00 0.  1.
        994    1    1    2    0    0  0.28823408031E+00 -0.81967101717E+01  0.25323922516E+01  0.17141505811E+03  0.17120000000E+03 0.  0.
        998    1    1    2    0    0 -0.19011408109E+01 -0.19340900085E+01  0.14755375911E+04  0.14755739690E+04  0.10000000000E+02 0.  1.
</event>
<event>
 5    1  0.1294251E-008  0.3860185E+03  0.7957747E-01  0.3425364E+00
         13   -1    0    0    0    0  0.00000000000E+00  0.00000000000E+00  0.14999999963E+04  0.15000000000E+04  0.10566000000E+00 0. -1.
        994   -1    0    0    0    0 -0.00000000000E+00 -0.00000000000E+00  0.11368683772E-12  0.17120000000E+03  0.17120000000E+03 0.  0.
         13    1    1    2    0    0 -0.69968327548E+01 -0.85469913664E+01  0.56681701211E+02  0.57748014219E+02  0.10566000000E+00 0. -1.
        994    1    1    2    0    0  0.74531025476E+01 -0.23337586543E+01  0.13252764342E+01  0.17138317165E+03  0.17120000000E+03 0.  0.
        998    1    1    2    0    0 -0.45626979282E+00  0.10880750021E+02  0.14419930186E+04  0.14420688141E+04  0.10000000000E+02 0. -1.
</event>
<event>
 5    1  0.1294251E-008  0.3783961E+03  0.7957747E-01  0.3458172E+00
         13   -1    0    0    0    0  0.00000000000E+00  0.00000000000E+00  0.14999999963E+04  0.15000000000E+04  0.10566000000E+00 0.  1.
        994   -1    0    0    0    0 -0.00000000000E+00 -0.00000000000E+00  0.11368683772E-12  0.17120000000E+03  0.17120000000E+03 0.  0.
         13    1    1    2    0    0 -0.76478016081E+02  0.18365648629E+02  0.29068627075E+03  0.30113900970E+03  0.10566000000E+00 0.  1.
        994    1    1    2    0    0 -0.23328041313E+02  0.92733600064E+01  0.17722376197E+02  0.17393595182E+03  0.17120000000E+03 0.  0.
        998    1    1    2    0    0  0.99806057394E+02 -0.27639008635E+02  0.11915913493E+04  0.11961250385E+04  0.10000000000E+02 0.  1.
</event>
<event>
 5    1  0.1294251E-008  0.3831710E+03  0.7957747E-01  0.3437467E+00
         13   -1    0    0    0    0  0.00000000000E+00  0.00000000000E+00  0.14999999963E+04  0.15000000000E+04  0.10566000000E+00 0.  1.
        994   -1    0    0    0    0 -0.00000000000E+00 -0.00000000000E+00  0.11368683772E-12  0.17120000000E+03  0.17120000000E+03 0.  0.
         13    1    1    2    0    0  0.12439696230E+02 -0.62467803863E+01  0.36704293325E+02  0.39255376957E+02  0.10566000000E+00 0.  1.
        994    1    1    2    0    0 -0.11374929846E+02  0.77889048021E+01  0.31699493641E+01  0.17178342366E+03  0.17120000000E+03 0.  0.
        998    1    1    2    0    0 -0.10647663839E+01 -0.15421244158E+01  0.14601257536E+04  0.14601611994E+04  0.10000000000E+02 0.  1.
</event>
<event>
 5    1  0.1294251E-008  0.3809384E+03  0.7957747E-01  0.3447083E+00
         13   -1    0    0    0    0  0.00000000000E+00  0.00000000000E+00  0.14999999963E+04  0.15000000000E+04  0.10566000000E+00 0.  1.
        994   -1    0    0    0    0 -0.00000000000E+00 -0.00000000000E+00  0.11368683772E-12  0.17120000000E+03  0.17120000000E+03 0.  0.
         13    1    1    2    0    0  0.11387967722E+02 -0.57161907797E+02  0.25432764997E+03  0.26092093479E+03  0.10566000000E+00 0.  1.
        994    1    1    2    0    0 -0.22045465783E+02  0.10441574074E+03  0.42595041328E+02  0.20618541903E+03  0.17120000000E+03 0.  0.
        998    1    1    2    0    0  0.10657498060E+02 -0.47253832941E+02  0.12030773050E+04  0.12040936462E+04  0.10000000000E+02 0.  1.
</event>
<event>
 5    1  0.1294251E-008  0.3759594E+03  0.7957747E-01  0.3468943E+00
         13   -1    0    0    0    0  0.00000000000E+00  0.00000000000E+00  0.14999999963E+04  0.15000000000E+04  0.10566000000E+00 0.  1.
        994   -1    0    0    0    0 -0.00000000000E+00 -0.00000000000E+00  0.11368683772E-12  0.17120000000E+03  0.17120000000E+03 0.  0.
         13    1    1    2    0    0  0.21211747383E+02 -0.15277505921E+02  0.60559400844E+02  0.65960538269E+02  0.10566000000E+00 0.  1.
        994    1    1    2    0    0  0.27447776506E+02  0.72520078437E+00  0.87455350259E+01  0.17360826805E+03  0.17120000000E+03 0.  0.
        998    1    1    2    0    0 -0.48659523889E+02  0.14552305137E+02  0.14306950604E+04  0.14316311937E+04  0.10000000000E+02 0.  1.
</event>
<event>
 5    1  0.1294251E-008  0.3832417E+03  0.7957747E-01  0.3437164E+00
         13   -1    0    0    0    0  0.00000000000E+00  0.00000000000E+00  0.14999999963E+04  0.15000000000E+04  0.10566000000E+00 0. -1.
        994   -1    0    0    0    0 -0.00000000000E+00 -0.00000000000E+00  0.11368683772E-12  0.17120000000E+03  0.17120000000E+03 0.  0.
         13    1    1    2    0    0 -0.15942268432E+02  0.30567299434E+01  0.49900799891E+02  0.52474760738E+02  0.10566000000E+00 0. -1.
        994    1    1    2    0    0  0.18684336258E+02 -0.41743816341E+01  0.37188393701E+01  0.17230728264E+03  0.17120000000E+03 0.  0.
        998    1    1    2    0    0 -0.27420678258E+01  0.11176516907E+01  0.14463803570E+04  0.14464179566E+04  0.10000000000E+02 0. -1.
</event>
<event>
 5    1  0.1294251E-008  0.3834395E+03  0.7957747E-01  0.3436317E+00
         13   -1    0    0    0    0  0.00000000000E+00  0.00000000000E+00  0.14999999963E+04  0.15000000000E+04  0.10566000000E+00 0.  1.
        994   -1    0    0    0    0 -0.00000000000E+00 -0.00000000000E+00  0.11368683772E-12  0.17120000000E+03  0.17120000000E+03 0.  0.
         13    1    1    2    0    0 -0.25038768367E+01  0.12742822146E+02  0.33371218811E+02  0.35809193295E+02  0.10566000000E+00 0.  1.
        994    1    1    2    0    0  0.56314077400E+01 -0.15034386638E+02  0.32592745278E+01  0.17198200024E+03  0.17120000000E+03 0.  0.
        998    1    1    2    0    0 -0.31275309033E+01  0.22915644916E+01  0.14633695029E+04  0.14634088065E+04  0.10000000000E+02 0.  1.
</event>
<event>
 5    1  0.1294251E-008  0.3730248E+03  0.7957747E-01  0.3482104E+00
         13   -1    0    0    0    0  0.00000000000E+00  0.00000000000E+00  0.14999999963E+04  0.15000000000E+04  0.10566000000E+00 0.  1.
        994   -1    0    0    0    0 -0.00000000000E+00 -0.00000000000E+00  0.11368683772E-12  0.17120000000E+03  0.17120000000E+03 0.  0.
         13    1    1    2    0    0 -0.47033565277E+02 -0.16494920989E+02  0.14846528637E+03  0.15660840049E+03  0.10566000000E+00 0.  1.
        994    1    1    2    0    0  0.40356089420E+02  0.16869212573E+02  0.14271901071E+02  0.17727467796E+03  0.17120000000E+03 0.  0.
        998    1    1    2    0    0  0.66774758566E+01 -0.37429158373E+00  0.13372628088E+04  0.13373169216E+04  0.10000000000E+02 0.  1.
</event>
<event>
 5    1  0.1294251E-008  0.3856271E+03  0.7957747E-01  0.3427017E+00
         13   -1    0    0    0    0  0.00000000000E+00  0.00000000000E+00  0.14999999963E+04  0.15000000000E+04  0.10566000000E+00 0. -1.
        994   -1    0    0    0    0 -0.00000000000E+00 -0.00000000000E+00  0.11368683772E-12  0.17120000000E+03  0.17120000000E+03 0.  0.
         13    1    1    2    0    0  0.71266339729E+01 -0.15355817230E+02  0.97491787110E+02  0.98950744072E+02  0.10566000000E+00 0. -1.
        994    1    1    2    0    0 -0.66505407266E+01  0.23866255905E+02  0.33362523301E+01  0.17301560173E+03  0.17120000000E+03 0.  0.
        998    1    1    2    0    0 -0.47609324635E+00 -0.85104386754E+01  0.13991719568E+04  0.13992336542E+04  0.10000000000E+02 0. -1.
</event>
<event>
 5    1  0.1294251E-008  0.3847530E+03  0.7957747E-01  0.3430721E+00
         13   -1    0    0    0    0  0.00000000000E+00  0.00000000000E+00  0.14999999963E+04  0.15000000000E+04  0.10566000000E+00 0.  1.
        994   -1    0    0    0    0 -0.00000000000E+00 -0.00000000000E+00  0.11368683772E-12  0.17120000000E+03  0.17120000000E+03 0.  0.
         13    1    1    2    0    0  0.12624582861E+01 -0.14562803341E+02  0.62463160847E+02  0.64150811913E+02  0.10566000000E+00 0.  1.
        994    1    1    2    0    0  0.66608340795E+01  0.58917337470E+01  0.20131498567E+01  0.17144262017E+03  0.17120000000E+03 0.  0.
        998    1    1    2    0    0 -0.79232923656E+01  0.86710695938E+01  0.14355236856E+04  0.14356065679E+04  0.10000000000E+02 0.  1.
</event>
<event>
 5    1  0.1294251E-008  0.3777250E+03  0.7957747E-01  0.3461125E+00
         13   -1    0    0    0    0  0.00000000000E+00  0.00000000000E+00  0.14999999963E+04  0.15000000000E+04  0.10566000000E+00 0.  1.
        994   -1    0    0    0    0 -0.00000000000E+00 -0.00000000000E+00  0.11368683772E-12  0.17120000000E+03  0.17120000000E+03 0.  0.
         13    1    1    2    0    0  0.27357966042E+02 -0.12044630545E+02  0.98879073889E+02  0.10329866334E+03  0.10566000000E+00 0.  1.
        994    1    1    2    0    0  0.26055346358E+02  0.10821677129E+02  0.79717361236E+01  0.17369219426E+03  0.17120000000E+03 0.  0.
        998    1    1    2    0    0 -0.53413312400E+02  0.12229534159E+01  0.13931491863E+04  0.13942091424E+04  0.10000000000E+02 0.  1.
</event>
<event>
 5    1  0.1294251E-008  0.3844577E+03  0.7957747E-01  0.3431976E+00
         13   -1    0    0    0    0  0.00000000000E+00  0.00000000000E+00  0.14999999963E+04  0.15000000000E+04  0.10566000000E+00 0.  1.
        994   -1    0    0    0    0 -0.00000000000E+00 -0.00000000000E+00  0.11368683772E-12  0.17120000000E+03  0.17120000000E+03 0.  0.
         13    1    1    2    0    0  0.21789921866E+02  0.37059030391E+01  0.11147492779E+03  0.11364508393E+03  0.10566000000E+00 0.  1.
        994    1    1    2    0    0 -0.29835271704E+02 -0.20034623314E+02  0.61661339600E+01  0.17503996908E+03  0.17120000000E+03 0.  0.
        998    1    1    2    0    0  0.80453498378E+01  0.16328720275E+02  0.13823589345E+04  0.13825149470E+04  0.10000000000E+02 0.  1.
</event>
<event>
 5    1  0.1294251E-008  0.3837144E+03  0.7957747E-01  0.3435143E+00
         13   -1    0    0    0    0  0.00000000000E+00  0.00000000000E+00  0.14999999963E+04  0.15000000000E+04  0.10566000000E+00 0.  1.
        994   -1    0    0    0    0 -0.00000000000E+00 -0.00000000000E+00  0.11368683772E-12  0.17120000000E+03  0.17120000000E+03 0.  0.
         13    1    1    2    0    0 -0.19780539250E+02 -0.13658263305E+02  0.13260646687E+03  0.13476759295E+03  0.10566000000E+00 0.  1.
        994    1    1    2    0    0  0.86636348539E+01  0.31516794060E+01  0.25504788298E+01  0.17146701314E+03  0.17120000000E+03 0.  0.
        998    1    1    2    0    0  0.11116904396E+02  0.10506583899E+02  0.13648430506E+04  0.13649653939E+04  0.10000000000E+02 0.  1.
</event>
<event>
 5    1  0.1294251E-008  0.3827996E+03  0.7957747E-01  0.3439058E+00
         13   -1    0    0    0    0  0.00000000000E+00  0.00000000000E+00  0.14999999963E+04  0.15000000000E+04  0.10566000000E+00 0.  1.
        994   -1    0    0    0    0 -0.00000000000E+00 -0.00000000000E+00  0.11368683772E-12  0.17120000000E+03  0.17120000000E+03 0.  0.
         13    1    1    2    0    0  0.22013630399E+01  0.11974907683E+02  0.25594433170E+02  0.28343087104E+02  0.10566000000E+00 0.  1.
        994    1    1    2    0    0  0.13052236715E+01 -0.16000019182E+02  0.35806014855E+01  0.17198826974E+03  0.17120000000E+03 0.  0.
        998    1    1    2    0    0 -0.35065867114E+01  0.40251114991E+01  0.14708249616E+04  0.14708686432E+04  0.10000000000E+02 0.  1.
</event>
<event>
 5    1  0.1644353E-008  0.3857840E+03  0.7957747E-01  0.3426354E+00
         13   -1    0    0    0    0  0.00000000000E+00  0.00000000000E+00  0.14999999963E+04  0.15000000000E+04  0.10566000000E+00 0.  1.
        994   -1    0    0    0    0 -0.00000000000E+00 -0.00000000000E+00  0.11368683772E-12  0.17120000000E+03  0.17120000000E+03 0.  0.
         13    1    1    2    0    0  0.43945271783E+01 -0.13706966687E+02  0.85980756777E+02  0.87177373813E+02  0.10566000000E+00 0.  1.
        994    1    1    2    0    0 -0.41644612274E+01  0.58120282900E+01  0.14091234219E+01  0.17135503506E+03  0.17120000000E+03 0.  0.
        998    1    1    2    0    0 -0.23006595088E+00  0.78949383973E+01  0.14126101161E+04  0.14126675911E+04  0.10000000000E+02 0.  1.
</event>
<event>
 5    1  0.1336435E-008  0.3860580E+03  0.7957747E-01  0.3425197E+00
         13   -1    0    0    0    0  0.00000000000E+00  0.00000000000E+00  0.14999999963E+04  0.15000000000E+04  0.10566000000E+00 0. -1.
        994   -1    0    0    0    0 -0.00000000000E+00 -0.00000000000E+00  0.11368683772E-12  0.17120000000E+03  0.17120000000E+03 0.  0.
         13    1    1    2    0    0  0.84815221900E+01 -0.66544968420E+01  0.51566077890E+02  0.52681022198E+02  0.10566000000E+00 0. -1.
        994    1    1    2    0    0 -0.86392416752E+01  0.83109266227E+01  0.15768936729E+01  0.17162643908E+03  0.17120000000E+03 0.  0.
        998    1    1    2    0    0  0.15771948514E+00 -0.16564297807E+01  0.14468570247E+04  0.14468925387E+04  0.10000000000E+02 0. -1.
</event>
<event>
 5    1  0.1294251E-008  0.2878649E+03  0.7957747E-01  0.3986652E+00
         13   -1    0    0    0    0  0.00000000000E+00  0.00000000000E+00  0.14999999963E+04  0.15000000000E+04  0.10566000000E+00 0.  1.
        994   -1    0    0    0    0 -0.00000000000E+00 -0.00000000000E+00  0.11368683772E-12  0.17120000000E+03  0.17120000000E+03 0.  0.
         13    1    1    2    0    0 -0.79524420911E+02 -0.18164608558E+03  0.76757120837E+03  0.79277046174E+03  0.10566000000E+00 0.  1.
        994    1    1    2    0    0  0.28908238263E+02  0.59734467714E+02  0.60108425983E+02  0.19320029955E+03  0.17120000000E+03 0.  0.
        998    1    1    2    0    0  0.50616182648E+02  0.12191161787E+03  0.67232036193E+03  0.68522923871E+03  0.10000000000E+02 0. -1.
</event>
<event>
 5    1  0.1294251E-008  0.3708463E+03  0.7957747E-01  0.3492011E+00
         13   -1    0    0    0    0  0.00000000000E+00  0.00000000000E+00  0.14999999963E+04  0.15000000000E+04  0.10566000000E+00 0.  1.
        994   -1    0    0    0    0 -0.00000000000E+00 -0.00000000000E+00  0.11368683772E-12  0.17120000000E+03  0.17120000000E+03 0.  0.
         13    1    1    2    0    0  0.26254283425E+02  0.26885402093E+02  0.58055214024E+02  0.69155847788E+02  0.10566000000E+00 0.  1.
        994    1    1    2    0    0 -0.12266317906E+02 -0.20726357949E+02  0.13423485164E+02  0.17340609684E+03  0.17120000000E+03 0.  0.
        998    1    1    2    0    0 -0.13987965519E+02 -0.61590441438E+01  0.14285212971E+04  0.14286380554E+04  0.10000000000E+02 0.  1.
</event>
<event>
 5    1  0.1294251E-008  0.3779336E+03  0.7957747E-01  0.3460206E+00
         13   -1    0    0    0    0  0.00000000000E+00  0.00000000000E+00  0.14999999963E+04  0.15000000000E+04  0.10566000000E+00 0. -1.
        994   -1    0    0    0    0 -0.00000000000E+00 -0.00000000000E+00  0.11368683772E-12  0.17120000000E+03  0.17120000000E+03 0.  0.
         13    1    1    2    0    0 -0.38584543547E+02 -0.11639199787E+02  0.16913722872E+03  0.17387251444E+03  0.10566000000E+00 0. -1.
        994    1    1    2    0    0  0.92436790046E+01  0.20426697414E+01  0.54815948119E+01  0.17154913577E+03  0.17120000000E+03 0.  0.
        998    1    1    2    0    0  0.29340864543E+02  0.95965300452E+01  0.13253811727E+04  0.13257783498E+04  0.10000000000E+02 0. -1.
</event>
<event>
 5    1  0.1294251E-008  0.3740310E+03  0.7957747E-01  0.3477568E+00
         13   -1    0    0    0    0  0.00000000000E+00  0.00000000000E+00  0.14999999963E+04  0.15000000000E+04  0.10566000000E+00 0.  1.
        994   -1    0    0    0    0 -0.00000000000E+00 -0.00000000000E+00  0.11368683772E-12  0.17120000000E+03  0.17120000000E+03 0.  0.
         13    1    1    2    0    0 -0.22449249828E+02  0.38257758782E+02  0.12461011118E+03  0.13226986012E+03  0.10566000000E+00 0.  1.
        994    1    1    2    0    0  0.85402167742E+01 -0.45785586575E+02  0.14611387753E+02  0.17802299821E+03  0.17120000000E+03 0.  0.
        998    1    1    2    0    0  0.13909033054E+02  0.75278277924E+01  0.13607784973E+04  0.13609071417E+04  0.10000000000E+02 0.  1.
</event>
<event>
 5    1  0.1294251E-008  0.3854968E+03  0.7957747E-01  0.3427568E+00
         13   -1    0    0    0    0  0.00000000000E+00  0.00000000000E+00  0.14999999963E+04  0.15000000000E+04  0.10566000000E+00 0.  1.
        994   -1    0    0    0    0 -0.00000000000E+00 -0.00000000000E+00  0.11368683772E-12  0.17120000000E+03  0.17120000000E+03 0.  0.
         13    1    1    2    0    0 -0.73340409055E+01 -0.15354648310E+02  0.98632631863E+02  0.10008976278E+03  0.10566000000E+00 0.  1.
        994    1    1    2    0    0  0.37961980233E+01  0.18769437941E+02  0.25886112852E+01  0.17228709710E+03  0.17120000000E+03 0.  0.
        998    1    1    2    0    0  0.35378428822E+01 -0.34147896304E+01  0.13987787531E+04  0.13988231401E+04  0.10000000000E+02 0.  1.
</event>
<event>
 5    1  0.1294251E-008  0.3810109E+03  0.7957747E-01  0.3446769E+00
         13   -1    0    0    0    0  0.00000000000E+00  0.00000000000E+00  0.14999999963E+04  0.15000000000E+04  0.10566000000E+00 0.  1.
        994   -1    0    0    0    0 -0.00000000000E+00 -0.00000000000E+00  0.11368683772E-12  0.17120000000E+03  0.17120000000E+03 0.  0.
         13    1    1    2    0    0 -0.10945927572E+01  0.13264700454E+02  0.22668445544E+02  0.26287259249E+02  0.10566000000E+00 0.  1.
        994    1    1    2    0    0  0.20711505677E+01 -0.13943799148E+02  0.42860871933E+01  0.17183285408E+03  0.17120000000E+03 0.  0.
        998    1    1    2    0    0 -0.97655781046E+00  0.67909869411E+00  0.14730454635E+04  0.14730798867E+04  0.10000000000E+02 0.  1.
</event>
<event>
 5    1  0.1294251E-008  0.3800472E+03  0.7957747E-01  0.3450953E+00
         13   -1    0    0    0    0  0.00000000000E+00  0.00000000000E+00  0.14999999963E+04  0.15000000000E+04  0.10566000000E+00 0. -1.
        994   -1    0    0    0    0 -0.00000000000E+00 -0.00000000000E+00  0.11368683772E-12  0.17120000000E+03  0.17120000000E+03 0.  0.
         13    1    1    2    0    0  0.12989692227E+02 -0.46657238444E+02  0.26920469147E+03  0.27352661128E+03  0.10566000000E+00 0. -1.
        994    1    1    2    0    0 -0.13509886059E+02  0.31311072304E+02  0.80059842948E+01  0.17474677695E+03  0.17120000000E+03 0.  0.
        998    1    1    2    0    0  0.52019383250E+00  0.15346166140E+02  0.12227893205E+04  0.12229266118E+04  0.10000000000E+02 0.  1.
</event>
<event>
 5    1  0.1294251E-008  0.3787324E+03  0.7957747E-01  0.3456697E+00
         13   -1    0    0    0    0  0.00000000000E+00  0.00000000000E+00  0.14999999963E+04  0.15000000000E+04  0.10566000000E+00 0. -1.
        994   -1    0    0    0    0 -0.00000000000E+00 -0.00000000000E+00  0.11368683772E-12  0.17120000000E+03  0.17120000000E+03 0.  0.
         13    1    1    2    0    0  0.37105119456E+02 -0.33558083560E+02  0.22093843905E+03  0.22653198422E+03  0.10566000000E+00 0. -1.
        994    1    1    2    0    0 -0.54596423754E+02  0.17893869267E+02  0.15936682802E+02  0.18128534939E+03  0.17120000000E+03 0.  0.
        998    1    1    2    0    0  0.17491304298E+02  0.15664214293E+02  0.12631248744E+04  0.12633826664E+04  0.10000000000E+02 0. -1.
</event>
<event>
 5    1  0.1294251E-008  0.3835280E+03  0.7957747E-01  0.3435939E+00
         13   -1    0    0    0    0  0.00000000000E+00  0.00000000000E+00  0.14999999963E+04  0.15000000000E+04  0.10566000000E+00 0.  1.
        994   -1    0    0    0    0 -0.00000000000E+00 -0.00000000000E+00  0.11368683772E-12  0.17120000000E+03  0.17120000000E+03 0.  0.
         13    1    1    2    0    0  0.10074032802E+02  0.84073355899E+01  0.36209295228E+02  0.38513551558E+02  0.10566000000E+00 0.  1.
        994    1    1    2    0    0 -0.51817173607E+01 -0.26705468473E+01  0.24750144348E+01  0.17131709696E+03  0.17120000000E+03 0.  0.
        998    1    1    2    0    0 -0.48923154415E+01 -0.57367887426E+01  0.14613156866E+04  0.14613693515E+04  0.10000000000E+02 0.  1.
</event>
<event>
 5    1  0.1294251E-008  0.3791824E+03  0.7957747E-01  0.3454726E+00
         13   -1    0    0    0    0  0.00000000000E+00  0.00000000000E+00  0.14999999963E+04  0.15000000000E+04  0.10566000000E+00 0.  1.
        994   -1    0    0    0    0 -0.00000000000E+00 -0.00000000000E+00  0.11368683772E-12  0.17120000000E+03  0.17120000000E+03 0.  0.
         13    1    1    2    0    0  0.49208635659E+02  0.29870645762E+02  0.34482362353E+03  0.34959560611E+03  0.10566000000E+00 0.  1.
        994    1    1    2    0    0 -0.36601887547E+02 -0.13141857250E+02  0.96327019440E+01  0.17582558270E+03  0.17120000000E+03 0.  0.
        998    1    1    2    0    0 -0.12606748112E+02 -0.16728788511E+02  0.11455436708E+04  0.11457788112E+04  0.10000000000E+02 0.  1.
</event>
<event>
 5    1  0.1294251E-008  0.3792713E+03  0.7957747E-01  0.3454338E+00
         13   -1    0    0    0    0  0.00000000000E+00  0.00000000000E+00  0.14999999963E+04  0.15000000000E+04  0.10566000000E+00 0.  1.
        994   -1    0    0    0    0 -0.00000000000E+00 -0.00000000000E+00  0.11368683772E-12  0.17120000000E+03  0.17120000000E+03 0.  0.
         13    1    1    2    0    0 -0.36755685061E+02 -0.41972611069E+01  0.16460139310E+03  0.16870751957E+03  0.10566000000E+00 0.  1.
        994    1    1    2    0    0  0.62356579698E+01  0.17289684805E+02  0.56342845355E+01  0.17227594665E+03  0.17120000000E+03 0.  0.
        998    1    1    2    0    0  0.30520027091E+02 -0.13092423698E+02  0.13297643186E+04  0.13302165338E+04  0.10000000000E+02 0.  1.
</event>
<event>
 5    1  0.1294251E-008  0.3796436E+03  0.7957747E-01  0.3452712E+00
         13   -1    0    0    0    0  0.00000000000E+00  0.00000000000E+00  0.14999999963E+04  0.15000000000E+04  0.10566000000E+00 0. -1.
        994   -1    0    0    0    0 -0.00000000000E+00 -0.00000000000E+00  0.11368683772E-12  0.17120000000E+03  0.17120000000E+03 0.  0.
         13    1    1    2    0    0  0.22871634181E+02  0.36610215692E+02  0.21262199896E+03  0.21695977772E+03  0.10566000000E+00 0. -1.
        994    1    1    2    0    0 -0.20628916877E+02 -0.17916782524E+02  0.68158150781E+01  0.17350060127E+03  0.17120000000E+03 0.  0.
        998    1    1    2    0    0 -0.22427173034E+01 -0.18693433168E+02  0.12805621822E+04  0.12807396210E+04  0.10000000000E+02 0. -1.
</event>
<event>
 5    1  0.1294251E-008  0.3789700E+03  0.7957747E-01  0.3455656E+00
         13   -1    0    0    0    0  0.00000000000E+00  0.00000000000E+00  0.14999999963E+04  0.15000000000E+04  0.10566000000E+00 0.  1.
        994   -1    0    0    0    0 -0.00000000000E+00 -0.00000000000E+00  0.11368683772E-12  0.17120000000E+03  0.17120000000E+03 0.  0.
         13    1    1    2    0    0 -0.88004526915E+01  0.10848801625E+02  0.19193224497E+02  0.23738902563E+02  0.10566000000E+00 0.  1.
        994    1    1    2    0    0  0.21205066792E+01 -0.57253752922E+01  0.47790368250E+01  0.17137548151E+03  0.17120000000E+03 0.  0.
        998    1    1    2    0    0  0.66799460124E+01 -0.51234263328E+01  0.14760277350E+04  0.14760856159E+04  0.10000000000E+02 0.  1.
</event>
<event>
 5    1  0.1294251E-008  0.3727495E+03  0.7957747E-01  0.3483349E+00
         13   -1    0    0    0    0  0.00000000000E+00  0.00000000000E+00  0.14999999963E+04  0.15000000000E+04  0.10566000000E+00 0.  1.
        994   -1    0    0    0    0 -0.00000000000E+00 -0.00000000000E+00  0.11368683772E-12  0.17120000000E+03  0.17120000000E+03 0.  0.
         13    1    1    2    0    0  0.26544768970E+01  0.40824970741E+02  0.61248957368E+02  0.73655756234E+02  0.10566000000E+00 0.  1.
        994    1    1    2    0    0  0.37967704287E+02 -0.38842273591E+02  0.22888501757E+02  0.18106239891E+03  0.17120000000E+03 0.  0.
        998    1    1    2    0    0 -0.40622181183E+02 -0.19826971508E+01  0.14158625372E+04  0.14164818449E+04  0.10000000000E+02 0.  1.
</event>
<event>
 5    1  0.1294251E-008  0.3744890E+03  0.7957747E-01  0.3475511E+00
         13   -1    0    0    0    0  0.00000000000E+00  0.00000000000E+00  0.14999999963E+04  0.15000000000E+04  0.10566000000E+00 0. -1.
        994   -1    0    0    0    0 -0.00000000000E+00 -0.00000000000E+00  0.11368683772E-12  0.17120000000E+03  0.17120000000E+03 0.  0.
         13    1    1    2    0    0  0.18278012632E+02 -0.84448160005E+01  0.91244727139E+01  0.22105832475E+02  0.10566000000E+00 0. -1.
        994    1    1    2    0    0 -0.19729438920E+02  0.13860475956E+02  0.15399980500E+02  0.17357408491E+03  0.17120000000E+03 0.  0.
        998    1    1    2    0    0  0.14514262876E+01 -0.54156599553E+01  0.14754755431E+04  0.14755200826E+04  0.10000000000E+02 0. -1.
</event>
<event>
 5    1  0.1294251E-008  0.3859371E+03  0.7957747E-01  0.3425707E+00
         13   -1    0    0    0    0  0.00000000000E+00  0.00000000000E+00  0.14999999963E+04  0.15000000000E+04  0.10566000000E+00 0. -1.
        994   -1    0    0    0    0 -0.00000000000E+00 -0.00000000000E+00  0.11368683772E-12  0.17120000000E+03  0.17120000000E+03 0.  0.
         13    1    1    2    0    0  0.11910876580E+02 -0.18719971462E+01  0.62237141803E+02  0.63394371501E+02  0.10566000000E+00 0. -1.
        994    1    1    2    0    0 -0.99251390489E+01 -0.51616167592E-01  0.14886258091E+01  0.17149392717E+03  0.17120000000E+03 0.  0.
        998    1    1    2    0    0 -0.19857375315E+01  0.19236133138E+01  0.14362742287E+04  0.14363117013E+04  0.10000000000E+02 0. -1.
</event>
<event>
 5    1  0.1294251E-008  0.3817542E+03  0.7957747E-01  0.3443556E+00
         13   -1    0    0    0    0  0.00000000000E+00  0.00000000000E+00  0.14999999963E+04  0.15000000000E+04  0.10566000000E+00 0.  1.
        994   -1    0    0    0    0 -0.00000000000E+00 -0.00000000000E+00  0.11368683772E-12  0.17120000000E+03  0.17120000000E+03 0.  0.
         13    1    1    2    0    0 -0.61394846294E+01  0.11515852318E+02  0.25262584292E+02  0.28434441356E+02  0.10566000000E+00 0.  1.
        994    1    1    2    0    0  0.29187145143E+01 -0.41006016006E+01  0.33344720558E+01  0.17130642875E+03  0.17120000000E+03 0.  0.
        998    1    1    2    0    0  0.32207701152E+01 -0.74152507170E+01  0.14714029399E+04  0.14714591299E+04  0.10000000000E+02 0.  1.
</event>
<event>
 5    1  0.1294251E-008  0.3696622E+03  0.7957747E-01  0.3497445E+00
         13   -1    0    0    0    0  0.00000000000E+00  0.00000000000E+00  0.14999999963E+04  0.15000000000E+04  0.10566000000E+00 0.  1.
        994   -1    0    0    0    0 -0.00000000000E+00 -0.00000000000E+00  0.11368683772E-12  0.17120000000E+03  0.17120000000E+03 0.  0.
         13    1    1    2    0    0  0.56055736413E+01  0.12997924262E+03  0.69813187588E+03  0.71015079614E+03  0.10566000000E+00 0.  1.
        994    1    1    2    0    0  0.28103831205E+02 -0.91790617405E+02  0.43670779776E+02  0.20107690016E+03  0.17120000000E+03 0.  0.
        998    1    1    2    0    0 -0.33709404846E+02 -0.38188625212E+02  0.75819734062E+03  0.75997230370E+03  0.10000000000E+02 0.  1.
</event>
<event>
 5    1  0.1294251E-008  0.3787822E+03  0.7957747E-01  0.3456478E+00
         13   -1    0    0    0    0  0.00000000000E+00  0.00000000000E+00  0.14999999963E+04  0.15000000000E+04  0.10566000000E+00 0. -1.
        994   -1    0    0    0    0 -0.00000000000E+00 -0.00000000000E+00  0.11368683772E-12  0.17120000000E+03  0.17120000000E+03 0.  0.
         13    1    1    2    0    0 -0.53468936006E+02  0.25133407868E+01  0.24303375351E+03  0.24885871596E+03  0.10566000000E+00 0. -1.
        994    1    1    2    0    0  0.58572165320E+02 -0.35133327891E+01  0.16393613752E+02  0.18171745274E+03  0.17120000000E+03 0.  0.
        998    1    1    2    0    0 -0.51032293148E+01  0.99999200230E+00  0.12405726290E+04  0.12406238313E+04  0.10000000000E+02 0. -1.
</event>
<event>
 5    1  0.1294251E-008  0.3821493E+03  0.7957747E-01  0.3441853E+00
         13   -1    0    0    0    0  0.00000000000E+00  0.00000000000E+00  0.14999999963E+04  0.15000000000E+04  0.10566000000E+00 0.  1.
        994   -1    0    0    0    0 -0.00000000000E+00 -0.00000000000E+00  0.11368683772E-12  0.17120000000E+03  0.17120000000E+03 0.  0.
         13    1    1    2    0    0 -0.11945712123E+02  0.12338340302E+02  0.47756122173E+02  0.50750300970E+02  0.10566000000E+00 0.  1.
        994    1    1    2    0    0  0.74401013457E+01 -0.52398705822E+01  0.33270407337E+01  0.17147396465E+03  0.17120000000E+03 0.  0.
        998    1    1    2    0    0  0.45056107771E+01 -0.70984697200E+01  0.14489168334E+04  0.14489757344E+04  0.10000000000E+02 0.  1.
</event>
<event>
 5    1  0.1294251E-008  0.3839653E+03  0.7957747E-01  0.3434072E+00
         13   -1    0    0    0    0  0.00000000000E+00  0.00000000000E+00  0.14999999963E+04  0.15000000000E+04  0.10566000000E+00 0. -1.
        994   -1    0    0    0    0 -0.00000000000E+00 -0.00000000000E+00  0.11368683772E-12  0.17120000000E+03  0.17120000000E+03 0.  0.
         13    1    1    2    0    0 -0.77746031674E+01 -0.81821224622E+01  0.29180420306E+02  0.31287372463E+02  0.10566000000E+00 0. -1.
        994    1    1    2    0    0  0.11297725677E+02 -0.11532829703E+01  0.25704062021E+01  0.17159550010E+03  0.17120000000E+03 0.  0.
        998    1    1    2    0    0 -0.35231225099E+01  0.93354054324E+01  0.14682491698E+04  0.14683171274E+04  0.10000000000E+02 0. -1.
</event>
<event>
 5    1  0.1294251E-008  0.3728584E+03  0.7957747E-01  0.3482856E+00
         13   -1    0    0    0    0  0.00000000000E+00  0.00000000000E+00  0.14999999963E+04  0.15000000000E+04  0.10566000000E+00 0. -1.
        994   -1    0    0    0    0 -0.00000000000E+00 -0.00000000000E+00  0.11368683772E-12  0.17120000000E+03  0.17120000000E+03 0.  0.
         13    1    1    2    0    0 -0.46816028000E+02  0.21226119457E+02  0.14686991867E+03  0.15560550376E+03  0.10566000000E+00 0. -1.
        994    1    1    2    0    0  0.39945862511E+02 -0.53275229811E+02  0.23119880984E+02  0.18514289330E+03  0.17120000000E+03 0.  0.
        998    1    1    2    0    0  0.68701654885E+01  0.32049110354E+02  0.13300101966E+04  0.13304516029E+04  0.10000000000E+02 0. -1.
</event>
<event>
 5    1  0.1294251E-008  0.3852769E+03  0.7957747E-01  0.3428499E+00
         13   -1    0    0    0    0  0.00000000000E+00  0.00000000000E+00  0.14999999963E+04  0.15000000000E+04  0.10566000000E+00 0.  1.
        994   -1    0    0    0    0 -0.00000000000E+00 -0.00000000000E+00  0.11368683772E-12  0.17120000000E+03  0.17120000000E+03 0.  0.
         13    1    1    2    0    0  0.44604648997E+02  0.40334041953E+01  0.46319797794E+02  0.64431187272E+02  0.10566000000E+00 0.  1.
        994    1    1    2    0    0 -0.21357064900E+02  0.35379815898E+01  0.20990046729E+02  0.17383516214E+03  0.17120000000E+03 0.  0.
        998    1    1    2    0    0 -0.23247584097E+02 -0.75713857851E+01  0.14326901518E+04  0.14329336506E+04  0.10000000000E+02 0.  1.
</event>
<event>
 5    1  0.1294251E-008  0.3736496E+03  0.7957747E-01  0.3479284E+00
         13   -1    0    0    0    0  0.00000000000E+00  0.00000000000E+00  0.14999999963E+04  0.15000000000E+04  0.10566000000E+00 0.  1.
        994   -1    0    0    0    0 -0.00000000000E+00 -0.00000000000E+00  0.11368683772E-12  0.17120000000E+03  0.17120000000E+03 0.  0.
         13    1    1    2    0    0  0.18472340153E+02  0.51724968089E+02  0.14439368984E+03  0.15448704964E+03  0.10566000000E+00 0.  1.
        994    1    1    2    0    0  0.40127223161E+02  0.14696452073E+02  0.19376851397E+02  0.17751361106E+03  0.17120000000E+03 0.  0.
        998    1    1    2    0    0 -0.58599563314E+02 -0.66421420162E+02  0.13362294550E+04  0.13391993393E+04  0.10000000000E+02 0.  1.
</event>
<event>
 5    1  0.1294251E-008  0.3848604E+03  0.7957747E-01  0.3430265E+00
         13   -1    0    0    0    0  0.00000000000E+00  0.00000000000E+00  0.14999999963E+04  0.15000000000E+04  0.10566000000E+00 0.  1.
        994   -1    0    0    0    0 -0.00000000000E+00 -0.00000000000E+00  0.11368683772E-12  0.17120000000E+03  0.17120000000E+03 0.  0.
         13    1    1    2    0    0  0.11400381243E+02  0.53578418886E+01  0.46573257329E+02  0.48246809475E+02  0.10566000000E+00 0.  1.
        994    1    1    2    0    0 -0.72634078531E+01 -0.40855124535E+01  0.19279997629E+01  0.17141355165E+03  0.17120000000E+03 0.  0.
        998    1    1    2    0    0 -0.41369733897E+01 -0.12723294351E+01  0.14514987392E+04  0.14515396389E+04  0.10000000000E+02 0.  1.
</event>
<event>
 5    1  0.1294251E-008  0.3843418E+03  0.7957747E-01  0.3432468E+00
         13   -1    0    0    0    0  0.00000000000E+00  0.00000000000E+00  0.14999999963E+04  0.15000000000E+04  0.10566000000E+00 0.  1.
        994   -1    0    0    0    0 -0.00000000000E+00 -0.00000000000E+00  0.11368683772E-12  0.17120000000E+03  0.17120000000E+03 0.  0.
         13    1    1    2    0    0  0.10961820919E+03  0.17141502058E+03  0.11138956071E+04  0.11323262321E+04  0.10566000000E+00 0.  1.
        994    1    1    2    0    0 -0.99543942155E+02 -0.19619868443E+03  0.18231619716E+03  0.33309391459E+03  0.17120000000E+03 0.  0.
        998    1    1    2    0    0 -0.10074267031E+02  0.24783663845E+02  0.20378819199E+03  0.20577985335E+03  0.10000000000E+02 0.  1.
</event>
<event>
 5    1  0.1294251E-008  0.3706696E+03  0.7957747E-01  0.3492819E+00
         13   -1    0    0    0    0  0.00000000000E+00  0.00000000000E+00  0.14999999963E+04  0.15000000000E+04  0.10566000000E+00 0. -1.
        994   -1    0    0    0    0 -0.00000000000E+00 -0.00000000000E+00  0.11368683772E-12  0.17120000000E+03  0.17120000000E+03 0.  0.
         13    1    1    2    0    0  0.23768085628E+02  0.63389592502E+02  0.32474929401E+03  0.33173073035E+03  0.10566000000E+00 0. -1.
        994    1    1    2    0    0  0.23750818456E+01 -0.64904401474E+01  0.90842765167E+01  0.17158010056E+03  0.17120000000E+03 0.  0.
        998    1    1    2    0    0 -0.26143167474E+02 -0.56899152355E+02  0.11661664257E+04  0.11678891691E+04  0.10000000000E+02 0. -1.
</event>
<event>
 5    1  0.1294251E-008  0.3790589E+03  0.7957747E-01  0.3455267E+00
         13   -1    0    0    0    0  0.00000000000E+00  0.00000000000E+00  0.14999999963E+04  0.15000000000E+04  0.10566000000E+00 0.  1.
        994   -1    0    0    0    0 -0.00000000000E+00 -0.00000000000E+00  0.11368683772E-12  0.17120000000E+03  0.17120000000E+03 0.  0.
         13    1    1    2    0    0 -0.36666553827E+02  0.31221166627E+02  0.21642766494E+03  0.22172086670E+03  0.10566000000E+00 0.  1.
        994    1    1    2    0    0  0.38294662219E+02 -0.28629083525E+02  0.12313567725E+02  0.17817735414E+03  0.17120000000E+03 0.  0.
        998    1    1    2    0    0 -0.16281083929E+01 -0.25920831028E+01  0.12712587636E+04  0.12713017792E+04  0.10000000000E+02 0.  1.
</event>
<event>
 5    1  0.1294251E-008  0.3830245E+03  0.7957747E-01  0.3438094E+00
         13   -1    0    0    0    0  0.00000000000E+00  0.00000000000E+00  0.14999999963E+04  0.15000000000E+04  0.10566000000E+00 0.  1.
        994   -1    0    0    0    0 -0.00000000000E+00 -0.00000000000E+00  0.11368683772E-12  0.17120000000E+03  0.17120000000E+03 0.  0.
         13    1    1    2    0    0  0.16382132380E+02  0.43330704644E+01  0.53368031525E+02  0.55993818533E+02  0.10566000000E+00 0.  1.
        994    1    1    2    0    0 -0.13681734655E+02 -0.39694197777E+01  0.32861169251E+01  0.17182312045E+03  0.17120000000E+03 0.  0.
        998    1    1    2    0    0 -0.27003977251E+01 -0.36365068666E+00  0.14433458478E+04  0.14433830610E+04  0.10000000000E+02 0.  1.
</event>
<event>
 5    1  0.1294251E-008  0.3844107E+03  0.7957747E-01  0.3432175E+00
         13   -1    0    0    0    0  0.00000000000E+00  0.00000000000E+00  0.14999999963E+04  0.15000000000E+04  0.10566000000E+00 0.  1.
        994   -1    0    0    0    0 -0.00000000000E+00 -0.00000000000E+00  0.11368683772E-12  0.17120000000E+03  0.17120000000E+03 0.  0.
         13    1    1    2    0    0  0.39926391705E+01 -0.11290448950E+02  0.38659519471E+02  0.40472027560E+02  0.10566000000E+00 0.  1.
        994    1    1    2    0    0 -0.34618099135E+01 -0.33153408771E+01  0.19987004669E+01  0.17127875063E+03  0.17120000000E+03 0.  0.
        998    1    1    2    0    0 -0.53082925701E+00  0.14605789827E+02  0.14593417763E+04  0.14594492218E+04  0.10000000000E+02 0.  1.
</event>
<event>
 5    1  0.1294251E-008  0.3840769E+03  0.7957747E-01  0.3433597E+00
         13   -1    0    0    0    0  0.00000000000E+00  0.00000000000E+00  0.14999999963E+04  0.15000000000E+04  0.10566000000E+00 0. -1.
        994   -1    0    0    0    0 -0.00000000000E+00 -0.00000000000E+00  0.11368683772E-12  0.17120000000E+03  0.17120000000E+03 0.  0.
         13    1    1    2    0    0  0.17668207964E+02 -0.11761040141E+02  0.10985025587E+03  0.11188198030E+03  0.10566000000E+00 0. -1.
        994    1    1    2    0    0 -0.96462451939E+01  0.39260591220E+01  0.24469913778E+01  0.17153393761E+03  0.17120000000E+03 0.  0.
        998    1    1    2    0    0 -0.80219627699E+01  0.78349810186E+01  0.13877027490E+04  0.13877840821E+04  0.10000000000E+02 0. -1.
</event>
<event>
 5    1  0.1294251E-008  0.3710244E+03  0.7957747E-01  0.3491196E+00
         13   -1    0    0    0    0  0.00000000000E+00  0.00000000000E+00  0.14999999963E+04  0.15000000000E+04  0.10566000000E+00 0. -1.
        994   -1    0    0    0    0 -0.00000000000E+00 -0.00000000000E+00  0.11368683772E-12  0.17120000000E+03  0.17120000000E+03 0.  0.
         13    1    1    2    0    0  0.11008024730E+02 -0.44215991329E+02  0.11095171954E+03  0.11994384407E+03  0.10566000000E+00 0. -1.
        994    1    1    2    0    0 -0.17250871876E+02  0.35706684793E+02  0.14172292118E+02  0.17630330055E+03  0.17120000000E+03 0.  0.
        998    1    1    2    0    0  0.62428471456E+01  0.85093065357E+01  0.13748759846E+04  0.13749528554E+04  0.10000000000E+02 0. -1.
</event>
<event>
 5    1  0.1294251E-008  0.3705951E+03  0.7957747E-01  0.3493160E+00
         13   -1    0    0    0    0  0.00000000000E+00  0.00000000000E+00  0.14999999963E+04  0.15000000000E+04  0.10566000000E+00 0.  1.
        994   -1    0    0    0    0 -0.00000000000E+00 -0.00000000000E+00  0.11368683772E-12  0.17120000000E+03  0.17120000000E+03 0.  0.
         13    1    1    2    0    0  0.13363427299E+02 -0.23823831794E+02  0.39811442681E+02  0.48281655760E+02  0.10566000000E+00 0.  1.
        994    1    1    2    0    0 -0.17560440045E+02 -0.77480575380E+01  0.10230530383E+02  0.17257608526E+03  0.17120000000E+03 0.  0.
        998    1    1    2    0    0  0.41970127460E+01  0.31571889332E+02  0.14499580232E+04  0.14503422590E+04  0.10000000000E+02 0.  1.
</event>
<event>
 5    1  0.1294251E-008  0.3751244E+03  0.7957747E-01  0.3472667E+00
         13   -1    0    0    0    0  0.00000000000E+00  0.00000000000E+00  0.14999999963E+04  0.15000000000E+04  0.10566000000E+00 0. -1.
        994   -1    0    0    0    0 -0.00000000000E+00 -0.00000000000E+00  0.11368683772E-12  0.17120000000E+03  0.17120000000E+03 0.  0.
         13    1    1    2    0    0  0.10460232273E+02 -0.55242988214E+02  0.20824039923E+03  0.21569719340E+03  0.10566000000E+00 0. -1.
        994    1    1    2    0    0 -0.21528657984E+02  0.50744091573E+02  0.17009736307E+02  0.18065773461E+03  0.17120000000E+03 0.  0.
        998    1    1    2    0    0  0.11068425710E+02  0.44988966408E+01  0.12747498607E+04  0.12748450720E+04  0.10000000000E+02 0. -1.
</event>
<event>
 5    1  0.1294251E-008  0.3743766E+03  0.7957747E-01  0.3476016E+00
         13   -1    0    0    0    0  0.00000000000E+00  0.00000000000E+00  0.14999999963E+04  0.15000000000E+04  0.10566000000E+00 0. -1.
        994   -1    0    0    0    0 -0.00000000000E+00 -0.00000000000E+00  0.11368683772E-12  0.17120000000E+03  0.17120000000E+03 0.  0.
         13    1    1    2    0    0  0.43284015787E+02  0.66237505005E+02  0.36579689549E+03  0.37425698792E+03  0.10566000000E+00 0. -1.
        994    1    1    2    0    0 -0.36567403111E+02 -0.58853354783E+02  0.23533028701E+02  0.18618307060E+03  0.17120000000E+03 0.  0.
        998    1    1    2    0    0 -0.67166126753E+01 -0.73841502225E+01  0.11106700721E+04  0.11107599415E+04  0.10000000000E+02 0.  0.
</event>
<event>
 5    1  0.1294251E-008  0.3826935E+03  0.7957747E-01  0.3439514E+00
         13   -1    0    0    0    0  0.00000000000E+00  0.00000000000E+00  0.14999999963E+04  0.15000000000E+04  0.10566000000E+00 0. -1.
        994   -1    0    0    0    0 -0.00000000000E+00 -0.00000000000E+00  0.11368683772E-12  0.17120000000E+03  0.17120000000E+03 0.  0.
         13    1    1    2    0    0 -0.54863260044E+01 -0.17491352713E+02  0.60514902835E+02  0.63230624083E+02  0.10566000000E+00 0. -1.
        994    1    1    2    0    0  0.86209775969E+01  0.64461048744E+01  0.31636687600E+01  0.17156725306E+03  0.17120000000E+03 0.  0.
        998    1    1    2    0    0 -0.31346515925E+01  0.11045247839E+02  0.14363214247E+04  0.14364021229E+04  0.10000000000E+02 0. -1.
</event>
<event>
 5    1  0.1294251E-008  0.3849361E+03  0.7957747E-01  0.3429943E+00
         13   -1    0    0    0    0  0.00000000000E+00  0.00000000000E+00  0.14999999963E+04  0.15000000000E+04  0.10566000000E+00 0. -1.
        994   -1    0    0    0    0 -0.00000000000E+00 -0.00000000000E+00  0.11368683772E-12  0.17120000000E+03  0.17120000000E+03 0.  0.
         13    1    1    2    0    0 -0.13997688325E+02 -0.21311147995E+01  0.61164536262E+02  0.62782072194E+02  0.10566000000E+00 0. -1.
        994    1    1    2    0    0  0.63709493479E+01  0.46522766131E+01  0.18666004012E+01  0.17139182265E+03  0.17120000000E+03 0.  0.
        998    1    1    2    0    0  0.76267389774E+01 -0.25211618136E+01  0.14369688596E+04  0.14370261052E+04  0.10000000000E+02 0. -1.
</event>
<event>
 5    1  0.1294251E-008  0.3838336E+03  0.7957747E-01  0.3434634E+00
         13   -1    0    0    0    0  0.00000000000E+00  0.00000000000E+00  0.14999999963E+04  0.15000000000E+04  0.10566000000E+00 0.  1.
        994   -1    0    0    0    0 -0.00000000000E+00 -0.00000000000E+00  0.11368683772E-12  0.17120000000E+03  0.17120000000E+03 0.  0.
         13    1    1    2    0    0  0.32792288518E+02  0.20033017434E+02  0.22693750365E+03  0.23016797714E+03  0.10566000000E+00 0.  1.
        994    1    1    2    0    0 -0.44381865160E+02 -0.46167937955E+02  0.15868640950E+02  0.18347338285E+03  0.17120000000E+03 0.  0.
        998    1    1    2    0    0  0.11589576642E+02  0.26134920521E+02  0.12571938517E+04  0.12575586400E+04  0.10000000000E+02 0.  1.
</event>
<event>
 5    1  0.1294251E-008  0.3785479E+03  0.7957747E-01  0.3457506E+00
         13   -1    0    0    0    0  0.00000000000E+00  0.00000000000E+00  0.14999999963E+04  0.15000000000E+04  0.10566000000E+00 0.  1.
        994   -1    0    0    0    0 -0.00000000000E+00 -0.00000000000E+00  0.11368683772E-12  0.17120000000E+03  0.17120000000E+03 0.  0.
         13    1    1    2    0    0  0.87820436686E+02 -0.75273177030E+02  0.56375620156E+03  0.57549938856E+03  0.10566000000E+00 0.  1.
        994    1    1    2    0    0 -0.12876562742E+02  0.40868286107E+02  0.22178880490E+02  0.17786895574E+03  0.17120000000E+03 0.  0.
        998    1    1    2    0    0 -0.74943873945E+02  0.34404890923E+02  0.91406491423E+03  0.91783165569E+03  0.10000000000E+02 0.  1.
</event>
<event>
 5    1  0.1294251E-008  0.3847521E+03  0.7957747E-01  0.3430724E+00
         13   -1    0    0    0    0  0.00000000000E+00  0.00000000000E+00  0.14999999963E+04  0.15000000000E+04  0.10566000000E+00 0. -1.
        994   -1    0    0    0    0 -0.00000000000E+00 -0.00000000000E+00  0.11368683772E-12  0.17120000000E+03  0.17120000000E+03 0.  0.
         13    1    1    2    0    0 -0.77404658546E+01 -0.93177106118E+01  0.48325212812E+02  0.49820396426E+02  0.10566000000E+00 0. -1.
        994    1    1    2    0    0 -0.15435938568E+02 -0.12212753444E+02  0.30294326621E+01  0.17235439364E+03  0.17120000000E+03 0.  0.
        998    1    1    2    0    0  0.23176404423E+02  0.21530464056E+02  0.14486453508E+04  0.14490252099E+04  0.10000000000E+02 0. -1.
</event>
<event>
 5    1  0.1294251E-008  0.3823971E+03  0.7957747E-01  0.3440787E+00
         13   -1    0    0    0    0  0.00000000000E+00  0.00000000000E+00  0.14999999963E+04  0.15000000000E+04  0.10566000000E+00 0. -1.
        994   -1    0    0    0    0 -0.00000000000E+00 -0.00000000000E+00  0.11368683772E-12  0.17120000000E+03  0.17120000000E+03 0.  0.
         13    1    1    2    0    0  0.12025626525E+02 -0.14790045852E+02  0.71241563167E+02  0.73747763601E+02  0.10566000000E+00 0. -1.
        994    1    1    2    0    0 -0.57258041908E+01 -0.26417170867E+02  0.53550734536E+01  0.17340348486E+03  0.17120000000E+03 0.  0.
        998    1    1    2    0    0 -0.62998223344E+01  0.41207216719E+02  0.14234033597E+04  0.14240487515E+04  0.10000000000E+02 0. -1.
</event>
<event>
 5    1  0.1294251E-008  0.3896241E+03  0.7957747E-01  0.3410295E+00
         13   -1    0    0    0    0  0.00000000000E+00  0.00000000000E+00  0.14999999963E+04  0.15000000000E+04  0.10566000000E+00 0. -1.
        994   -1    0    0    0    0 -0.00000000000E+00 -0.00000000000E+00  0.11368683772E-12  0.17120000000E+03  0.17120000000E+03 0.  0.
         13    1    1    2    0    0  0.21313692383E+02 -0.35793652022E+02  0.31288364747E+02  0.52100210562E+02  0.10566000000E+00 0. -1.
        994    1    1    2    0    0 -0.21329864745E+02  0.29593758160E+02  0.26732815452E+02  0.17707297104E+03  0.17120000000E+03 0.  0.
        998    1    1    2    0    0  0.16172362011E-01  0.61998938625E+01  0.14419788161E+04  0.14420268184E+04  0.10000000000E+02 0. -1.
</event>
<event>
 5    1  0.1294251E-008  0.3774613E+03  0.7957747E-01  0.3462288E+00
         13   -1    0    0    0    0  0.00000000000E+00  0.00000000000E+00  0.14999999963E+04  0.15000000000E+04  0.10566000000E+00 0. -1.
        994   -1    0    0    0    0 -0.00000000000E+00 -0.00000000000E+00  0.11368683772E-12  0.17120000000E+03  0.17120000000E+03 0.  0.
         13    1    1    2    0    0 -0.22989232342E+02  0.35573755168E+02  0.17913290595E+03  0.18407228477E+03  0.10566000000E+00 0. -1.
        994    1    1    2    0    0  0.11113875186E+02 -0.50242446094E+01  0.59218652759E+01  0.17173604672E+03  0.17120000000E+03 0.  0.
        998    1    1    2    0    0  0.11875357156E+02 -0.30549510559E+02  0.13149452251E+04  0.13153916685E+04  0.10000000000E+02 0. -1.
</event>
<event>
 5    1  0.1294251E-008  0.3820867E+03  0.7957747E-01  0.3442123E+00
         13   -1    0    0    0    0  0.00000000000E+00  0.00000000000E+00  0.14999999963E+04  0.15000000000E+04  0.10566000000E+00 0. -1.
        994   -1    0    0    0    0 -0.00000000000E+00 -0.00000000000E+00  0.11368683772E-12  0.17120000000E+03  0.17120000000E+03 0.  0.
         13    1    1    2    0    0  0.15392399346E+02  0.24226642438E+02  0.14700503322E+03  0.14978099718E+03  0.10566000000E+00 0. -1.
        994    1    1    2    0    0  0.66310776900E+00 -0.39246860247E+01  0.31361039388E+01  0.17127497780E+03  0.17120000000E+03 0.  0.
        998    1    1    2    0    0 -0.16055507115E+02 -0.20301956413E+02  0.13498588591E+04  0.13501440250E+04  0.10000000000E+02 0. -1.
</event>
<event>
 5    1  0.1294251E-008  0.3791453E+03  0.7957747E-01  0.3454888E+00
         13   -1    0    0    0    0  0.00000000000E+00  0.00000000000E+00  0.14999999963E+04  0.15000000000E+04  0.10566000000E+00 0.  1.
        994   -1    0    0    0    0 -0.00000000000E+00 -0.00000000000E+00  0.11368683772E-12  0.17120000000E+03  0.17120000000E+03 0.  0.
         13    1    1    2    0    0 -0.34441608761E+02 -0.17161356331E+02  0.19744520900E+03  0.20116003153E+03  0.10566000000E+00 0.  1.
        994    1    1    2    0    0  0.49878550494E+01 -0.22007365874E+02  0.62741149297E+01  0.17279469717E+03  0.17120000000E+03 0.  0.
        998    1    1    2    0    0  0.29453753711E+02  0.39168722205E+02  0.12962806724E+04  0.12972452713E+04  0.10000000000E+02 0.  1.
</event>
<event>
 5    1  0.1294251E-008  0.3802735E+03  0.7957747E-01  0.3449969E+00
         13   -1    0    0    0    0  0.00000000000E+00  0.00000000000E+00  0.14999999963E+04  0.15000000000E+04  0.10566000000E+00 0.  1.
        994   -1    0    0    0    0 -0.00000000000E+00 -0.00000000000E+00  0.11368683772E-12  0.17120000000E+03  0.17120000000E+03 0.  0.
         13    1    1    2    0    0  0.27905239351E+02 -0.84155296527E+01  0.10761181276E+03  0.11148917854E+03  0.10566000000E+00 0.  1.
        994    1    1    2    0    0 -0.15840203273E+02 -0.69596420305E+01  0.49955898609E+01  0.17214454559E+03  0.17120000000E+03 0.  0.
        998    1    1    2    0    0 -0.12065036078E+02  0.15375171683E+02  0.13873925937E+04  0.13875662759E+04  0.10000000000E+02 0.  1.
</event>
<event>
 5    1  0.1294251E-008  0.3954247E+03  0.7957747E-01  0.3386628E+00
         13   -1    0    0    0    0  0.00000000000E+00  0.00000000000E+00  0.14999999963E+04  0.15000000000E+04  0.10566000000E+00 0. -1.
        994   -1    0    0    0    0 -0.00000000000E+00 -0.00000000000E+00  0.11368683772E-12  0.17120000000E+03  0.17120000000E+03 0.  0.
         13    1    1    2    0    0  0.18122664468E+02  0.20044278044E+02  0.38553814246E+01  0.27296138549E+02  0.10566000000E+00 0. -1.
        994    1    1    2    0    0 -0.46031425405E+01 -0.27629096189E+02  0.28092826960E+02  0.17573617386E+03  0.17120000000E+03 0.  0.
        998    1    1    2    0    0 -0.13519521927E+02  0.75848181449E+01  0.14680517879E+04  0.14681676876E+04  0.10000000000E+02 0. -1.
</event>
<event>
 5    1  0.1294251E-008  0.3858990E+03  0.7957747E-01  0.3425868E+00
         13   -1    0    0    0    0  0.00000000000E+00  0.00000000000E+00  0.14999999963E+04  0.15000000000E+04  0.10566000000E+00 0.  1.
        994   -1    0    0    0    0 -0.00000000000E+00 -0.00000000000E+00  0.11368683772E-12  0.17120000000E+03  0.17120000000E+03 0.  0.
         13    1    1    2    0    0  0.54896777872E+01  0.12644489619E+02  0.82193536141E+02  0.83341515629E+02  0.10566000000E+00 0.  1.
        994    1    1    2    0    0 -0.37575844869E+01 -0.63141295294E+01  0.13614897186E+01  0.17136301038E+03  0.17120000000E+03 0.  0.
        998    1    1    2    0    0 -0.17320933002E+01 -0.63303600901E+01  0.14164449704E+04  0.14164954740E+04  0.10000000000E+02 0.  1.
</event>
<event>
 5    1  0.1294251E-008  0.3844853E+03  0.7957747E-01  0.3431858E+00
         13   -1    0    0    0    0  0.00000000000E+00  0.00000000000E+00  0.14999999963E+04  0.15000000000E+04  0.10566000000E+00 0.  1.
        994   -1    0    0    0    0 -0.00000000000E+00 -0.00000000000E+00  0.11368683772E-12  0.17120000000E+03  0.17120000000E+03 0.  0.
         13    1    1    2    0    0 -0.43862861808E+00 -0.16800541688E+02  0.77191819204E+02  0.79000245013E+02  0.10566000000E+00 0.  1.
        994    1    1    2    0    0  0.63072344407E+01  0.56320755311E+01  0.21214588597E+01  0.17142182495E+03  0.17120000000E+03 0.  0.
        998    1    1    2    0    0 -0.58686058226E+01  0.11168466157E+02  0.14206867182E+04  0.14207779300E+04  0.10000000000E+02 0.  1.
</event>
<event>
 5    1  0.1294251E-008  0.3784277E+03  0.7957747E-01  0.3458033E+00
         13   -1    0    0    0    0  0.00000000000E+00  0.00000000000E+00  0.14999999963E+04  0.15000000000E+04  0.10566000000E+00 0. -1.
        994   -1    0    0    0    0 -0.00000000000E+00 -0.00000000000E+00  0.11368683772E-12  0.17120000000E+03  0.17120000000E+03 0.  0.
         13    1    1    2    0    0  0.16373883894E+02  0.13765353778E+02  0.72413235172E+01  0.22583998068E+02  0.10566000000E+00 0. -1.
        994    1    1    2    0    0 -0.47662415165E+02 -0.16367345006E+02  0.24672849153E+02  0.18016044318E+03  0.17120000000E+03 0.  0.
        998    1    1    2    0    0  0.31288531271E+02  0.26019912278E+01  0.14680858236E+04  0.14684555588E+04  0.10000000000E+02 0. -1.
</event>
<event>
 5    1  0.1294251E-008  0.3800500E+03  0.7957747E-01  0.3450941E+00
         13   -1    0    0    0    0  0.00000000000E+00  0.00000000000E+00  0.14999999963E+04  0.15000000000E+04  0.10566000000E+00 0. -1.
        994   -1    0    0    0    0 -0.00000000000E+00 -0.00000000000E+00  0.11368683772E-12  0.17120000000E+03  0.17120000000E+03 0.  0.
         13    1    1    2    0    0  0.19956518755E+02 -0.46001157745E+02  0.74892373165E+02  0.90129062333E+02  0.10566000000E+00 0. -1.
        994    1    1    2    0    0 -0.28337080689E+02  0.53498394610E+01  0.19374353913E+02  0.17468948599E+03  0.17120000000E+03 0.  0.
        998    1    1    2    0    0  0.83805619338E+01  0.40651318284E+02  0.14057332692E+04  0.14063814517E+04  0.10000000000E+02 0. -1.
</event>
<event>
 5    1  0.1294251E-008  0.3851293E+03  0.7957747E-01  0.3429124E+00
         13   -1    0    0    0    0  0.00000000000E+00  0.00000000000E+00  0.14999999963E+04  0.15000000000E+04  0.10566000000E+00 0.  1.
        994   -1    0    0    0    0 -0.00000000000E+00 -0.00000000000E+00  0.11368683772E-12  0.17120000000E+03  0.17120000000E+03 0.  0.
         13    1    1    2    0    0 -0.96388222841E+01 -0.39448928170E+01  0.33946698167E+02  0.35508570160E+02  0.10566000000E+00 0.  1.
        994    1    1    2    0    0  0.78453579091E+01  0.86375759561E+01  0.20136484512E+01  0.17160900949E+03  0.17120000000E+03 0.  0.
        998    1    1    2    0    0  0.17934643750E+01 -0.46926831390E+01  0.14640396497E+04  0.14640824203E+04  0.10000000000E+02 0.  1.
</event>
<event>
 5    1  0.1294251E-008  0.3820586E+03  0.7957747E-01  0.3442244E+00
         13   -1    0    0    0    0  0.00000000000E+00  0.00000000000E+00  0.14999999963E+04  0.15000000000E+04  0.10566000000E+00 0. -1.
        994   -1    0    0    0    0 -0.00000000000E+00 -0.00000000000E+00  0.11368683772E-12  0.17120000000E+03  0.17120000000E+03 0.  0.
         13    1    1    2    0    0  0.97841058789E+01 -0.14146650977E+02  0.44856448010E+02  0.48041321316E+02  0.10566000000E+00 0. -1.
        994    1    1    2    0    0 -0.13145042019E+02  0.16921110474E+02  0.46234901468E+01  0.17259760361E+03  0.17120000000E+03 0.  0.
        998    1    1    2    0    0  0.33609361402E+01 -0.27744594969E+01  0.14505200581E+04  0.14505610751E+04  0.10000000000E+02 0. -1.
</event>
<event>
 5    1  0.1294251E-008  0.4324917E+03  0.7957747E-01  0.3250258E+00
         13   -1    0    0    0    0  0.00000000000E+00  0.00000000000E+00  0.14999999963E+04  0.15000000000E+04  0.10566000000E+00 0.  1.
        994   -1    0    0    0    0 -0.00000000000E+00 -0.00000000000E+00  0.11368683772E-12  0.17120000000E+03  0.17120000000E+03 0.  0.
         13    1    1    2    0    0 -0.35491909073E+02  0.57870984989E+02  0.30974129394E+02  0.74619932786E+02  0.10566000000E+00 0.  1.
        994    1    1    2    0    0  0.37977922586E+02 -0.46765038692E+02  0.65463205443E+02  0.19293564397E+03  0.17120000000E+03 0.  0.
        998    1    1    2    0    0 -0.24860135128E+01 -0.11105946297E+02  0.14035626614E+04  0.14036444232E+04  0.10000000000E+02 0.  1.
</event>
<event>
 5    1  0.1294251E-008  0.3834690E+03  0.7957747E-01  0.3436191E+00
         13   -1    0    0    0    0  0.00000000000E+00  0.00000000000E+00  0.14999999963E+04  0.15000000000E+04  0.10566000000E+00 0.  1.
        994   -1    0    0    0    0 -0.00000000000E+00 -0.00000000000E+00  0.11368683772E-12  0.17120000000E+03  0.17120000000E+03 0.  0.
         13    1    1    2    0    0 -0.31704174369E+01  0.12171949330E+02  0.33730215096E+02  0.35999256544E+02  0.10566000000E+00 0.  1.
        994    1    1    2    0    0  0.55122793501E+01  0.36086658081E+01  0.25356216226E+01  0.17134549037E+03  0.17120000000E+03 0.  0.
        998    1    1    2    0    0 -0.23418619132E+01 -0.15780615138E+02  0.14637341596E+04  0.14638552531E+04  0.10000000000E+02 0.  1.
</event>
<event>
 5    1  0.1294251E-008  0.3847710E+03  0.7957747E-01  0.3430644E+00
         13   -1    0    0    0    0  0.00000000000E+00  0.00000000000E+00  0.14999999963E+04  0.15000000000E+04  0.10566000000E+00 0. -1.
        994   -1    0    0    0    0 -0.00000000000E+00 -0.00000000000E+00  0.11368683772E-12  0.17120000000E+03  0.17120000000E+03 0.  0.
         13    1    1    2    0    0  0.49128038347E+00 -0.11011024757E+02  0.36625777058E+02  0.38248434370E+02  0.10566000000E+00 0. -1.
        994    1    1    2    0    0 -0.25159591495E+01 -0.49490018408E+01  0.18453396919E+01  0.17129993563E+03  0.17120000000E+03 0.  0.
        998    1    1    2    0    0  0.20246787660E+01  0.15960026598E+02  0.14615288795E+04  0.14616516300E+04  0.10000000000E+02 0. -1.
</event>
<event>
 5    1  0.1294251E-008  0.3829972E+03  0.7957747E-01  0.3438211E+00
         13   -1    0    0    0    0  0.00000000000E+00  0.00000000000E+00  0.14999999963E+04  0.15000000000E+04  0.10566000000E+00 0.  1.
        994   -1    0    0    0    0 -0.00000000000E+00 -0.00000000000E+00  0.11368683772E-12  0.17120000000E+03  0.17120000000E+03 0.  0.
         13    1    1    2    0    0  0.22725738376E+02  0.14401384846E+02  0.16104414858E+03  0.16327610978E+03  0.10566000000E+00 0.  1.
        994    1    1    2    0    0 -0.24589738904E+01  0.97995259718E+01  0.29657418785E+01  0.17152350535E+03  0.17120000000E+03 0.  0.
        998    1    1    2    0    0 -0.20266764486E+02 -0.24200910818E+02  0.13359901058E+04  0.13364003849E+04  0.10000000000E+02 0.  1.
</event>
<event>
 5    1  0.1294251E-008  0.3787707E+03  0.7957747E-01  0.3456529E+00
         13   -1    0    0    0    0  0.00000000000E+00  0.00000000000E+00  0.14999999963E+04  0.15000000000E+04  0.10566000000E+00 0.  1.
        994   -1    0    0    0    0 -0.00000000000E+00 -0.00000000000E+00  0.11368683772E-12  0.17120000000E+03  0.17120000000E+03 0.  0.
         13    1    1    2    0    0 -0.13741197185E+02 -0.31774558390E+02  0.14001388781E+03  0.14423017370E+03  0.10566000000E+00 0.  1.
        994    1    1    2    0    0  0.41699235237E+01 -0.15127774231E+01  0.48210184189E+01  0.17132530162E+03  0.17120000000E+03 0.  0.
        998    1    1    2    0    0  0.95712736611E+01  0.33287335813E+02  0.13551650900E+04  0.13556445247E+04  0.10000000000E+02 0.  1.
</event>
<event>
 5    1  0.1294251E-008  0.3845146E+03  0.7957747E-01  0.3431733E+00
         13   -1    0    0    0    0  0.00000000000E+00  0.00000000000E+00  0.14999999963E+04  0.15000000000E+04  0.10566000000E+00 0. -1.
        994   -1    0    0    0    0 -0.00000000000E+00 -0.00000000000E+00  0.11368683772E-12  0.17120000000E+03  0.17120000000E+03 0.  0.
         13    1    1    2    0    0 -0.98800869440E+01 -0.38774757829E+01  0.30666408388E+02  0.32451359046E+02  0.10566000000E+00 0. -1.
        994    1    1    2    0    0 -0.21137727306E+01  0.40148149663E+01  0.19391335423E+01  0.17127109217E+03  0.17120000000E+03 0.  0.
        998    1    1    2    0    0  0.11993859675E+02 -0.13733918345E+00  0.14673944543E+04  0.14674775488E+04  0.10000000000E+02 0. -1.
</event>
<event>
 5    1  0.1294251E-008  0.3836978E+03  0.7957747E-01  0.3435214E+00
         13   -1    0    0    0    0  0.00000000000E+00  0.00000000000E+00  0.14999999963E+04  0.15000000000E+04  0.10566000000E+00 0.  1.
        994   -1    0    0    0    0 -0.00000000000E+00 -0.00000000000E+00  0.11368683772E-12  0.17120000000E+03  0.17120000000E+03 0.  0.
         13    1    1    2    0    0 -0.63498411847E+01  0.14008158264E+02  0.47888976972E+02  0.50298253056E+02  0.10566000000E+00 0.  1.
        994    1    1    2    0    0  0.82704964777E+01 -0.23824197237E+02  0.43813036669E+01  0.17310294425E+03  0.17120000000E+03 0.  0.
        998    1    1    2    0    0 -0.19206552930E+01  0.98160389729E+01  0.14477297156E+04  0.14477988027E+04  0.10000000000E+02 0.  1.
</event>
<event>
 5    1  0.1294251E-008  0.3732922E+03  0.7957747E-01  0.3480896E+00
         13   -1    0    0    0    0  0.00000000000E+00  0.00000000000E+00  0.14999999963E+04  0.15000000000E+04  0.10566000000E+00 0. -1.
        994   -1    0    0    0    0 -0.00000000000E+00 -0.00000000000E+00  0.11368683772E-12  0.17120000000E+03  0.17120000000E+03 0.  0.
         13    1    1    2    0    0 -0.53549247067E+02  0.23951945900E+02  0.21586298652E+03  0.22369188113E+03  0.10566000000E+00 0. -1.
        994    1    1    2    0    0  0.33037450541E+02 -0.27342890406E+02  0.13872224028E+02  0.17703385381E+03  0.17120000000E+03 0.  0.
        998    1    1    2    0    0  0.20511796526E+02  0.33909445060E+01  0.12702647857E+04  0.12704742651E+04  0.10000000000E+02 0. -1.
</event>
<event>
 5    1  0.1294251E-008  0.4075749E+03  0.7957747E-01  0.3339231E+00
         13   -1    0    0    0    0  0.00000000000E+00  0.00000000000E+00  0.14999999963E+04  0.15000000000E+04  0.10566000000E+00 0. -1.
        994   -1    0    0    0    0 -0.00000000000E+00 -0.00000000000E+00  0.11368683772E-12  0.17120000000E+03  0.17120000000E+03 0.  0.
         13    1    1    2    0    0 -0.10538163824E+03  0.77088106976E+02  0.20701284257E+03  0.24474924733E+03  0.10566000000E+00 0. -1.
        994    1    1    2    0    0  0.12073732471E+03 -0.69076486412E+02  0.11587676959E+03  0.24917048036E+03  0.17120000000E+03 0.  0.
        998    1    1    2    0    0 -0.15355686466E+02 -0.80116205643E+01  0.11771103841E+04  0.11772802723E+04  0.10000000000E+02 0. -1.
</event>
<event>
 5    1  0.1294251E-008  0.3771742E+03  0.7957747E-01  0.3463556E+00
         13   -1    0    0    0    0  0.00000000000E+00  0.00000000000E+00  0.14999999963E+04  0.15000000000E+04  0.10566000000E+00 0.  1.
        994   -1    0    0    0    0 -0.00000000000E+00 -0.00000000000E+00  0.11368683772E-12  0.17120000000E+03  0.17120000000E+03 0.  0.
         13    1    1    2    0    0  0.41789687523E+02 -0.35295930559E+02  0.30264955166E+03  0.30755315473E+03  0.10566000000E+00 0.  1.
        994    1    1    2    0    0 -0.21311395543E+02  0.39598086006E+00  0.71010921020E+01  0.17266788320E+03  0.17120000000E+03 0.  0.
        998    1    1    2    0    0 -0.20478291979E+02  0.34899949699E+02  0.11902493525E+04  0.11909789621E+04  0.10000000000E+02 0.  1.
</event>
<event>
 5    1  0.1294251E-008  0.3843397E+03  0.7957747E-01  0.3432477E+00
         13   -1    0    0    0    0  0.00000000000E+00  0.00000000000E+00  0.14999999963E+04  0.15000000000E+04  0.10566000000E+00 0. -1.
        994   -1    0    0    0    0 -0.00000000000E+00 -0.00000000000E+00  0.11368683772E-12  0.17120000000E+03  0.17120000000E+03 0.  0.
         13    1    1    2    0    0  0.74387144436E+01 -0.10870747695E+02  0.44145948350E+02  0.46069334137E+02  0.10566000000E+00 0. -1.
        994    1    1    2    0    0 -0.71683243540E+01  0.45602228555E+01  0.21962471891E+01  0.17142474736E+03  0.17120000000E+03 0.  0.
        998    1    1    2    0    0 -0.27039008959E+00  0.63105248392E+01  0.14536578007E+04  0.14537059185E+04  0.10000000000E+02 0. -1.
</event>
<event>
 5    1  0.1294251E-008  0.3747456E+03  0.7957747E-01  0.3474361E+00
         13   -1    0    0    0    0  0.00000000000E+00  0.00000000000E+00  0.14999999963E+04  0.15000000000E+04  0.10566000000E+00 0.  1.
        994   -1    0    0    0    0 -0.00000000000E+00 -0.00000000000E+00  0.11368683772E-12  0.17120000000E+03  0.17120000000E+03 0.  0.
         13    1    1    2    0    0  0.68700444342E+02 -0.30080603961E+01  0.36292093767E+03  0.36937842065E+03  0.10566000000E+00 0.  1.
        994    1    1    2    0    0 -0.33295084952E+02  0.27700034830E+02  0.13218162233E+02  0.17708758970E+03  0.17120000000E+03 0.  0.
        998    1    1    2    0    0 -0.35405359389E+02 -0.24691974434E+02  0.11238608964E+04  0.11247339897E+04  0.10000000000E+02 0.  1.
</event>
<event>
 5    1  0.1294251E-008  0.3747898E+03  0.7957747E-01  0.3474164E+00
         13   -1    0    0    0    0  0.00000000000E+00  0.00000000000E+00  0.14999999963E+04  0.15000000000E+04  0.10566000000E+00 0. -1.
        994   -1    0    0    0    0 -0.00000000000E+00 -0.00000000000E+00  0.11368683772E-12  0.17120000000E+03  0.17120000000E+03 0.  0.
         13    1    1    2    0    0  0.14796247739E+01 -0.11365003725E+02  0.65415922758E+01  0.13196825098E+02  0.10566000000E+00 0. -1.
        994    1    1    2    0    0  0.20665057229E+01  0.10647249302E+02  0.71869745649E+01  0.17169370101E+03  0.17120000000E+03 0.  0.
        998    1    1    2    0    0 -0.35461304968E+01  0.71775442285E+00  0.14862714294E+04  0.14863094739E+04  0.10000000000E+02 0. -1.
</event>
<event>
 5    1  0.1294251E-008  0.3802877E+03  0.7957747E-01  0.3449907E+00
         13   -1    0    0    0    0  0.00000000000E+00  0.00000000000E+00  0.14999999963E+04  0.15000000000E+04  0.10566000000E+00 0. -1.
        994   -1    0    0    0    0 -0.00000000000E+00 -0.00000000000E+00  0.11368683772E-12  0.17120000000E+03  0.17120000000E+03 0.  0.
         13    1    1    2    0    0 -0.10011572294E+02  0.11661013780E+02  0.27539073396E+02  0.31537637034E+02  0.10566000000E+00 0. -1.
        994    1    1    2    0    0  0.11762884085E+02 -0.11434500659E+02  0.48872845790E+01  0.17205359281E+03  0.17120000000E+03 0.  0.
        998    1    1    2    0    0 -0.17513117909E+01 -0.22651312149E+00  0.14675736383E+04  0.14676087702E+04  0.10000000000E+02 0. -1.
</event>
<event>
 5    1  0.1294251E-008  0.3856812E+03  0.7957747E-01  0.3426788E+00
         13   -1    0    0    0    0  0.00000000000E+00  0.00000000000E+00  0.14999999963E+04  0.15000000000E+04  0.10566000000E+00 0. -1.
        994   -1    0    0    0    0 -0.00000000000E+00 -0.00000000000E+00  0.11368683772E-12  0.17120000000E+03  0.17120000000E+03 0.  0.
         13    1    1    2    0    0 -0.11889199170E+02  0.33597613716E+01  0.61279743152E+02  0.62512871780E+02  0.10566000000E+00 0. -1.
        994    1    1    2    0    0  0.11430760312E+01 -0.10931040545E+02  0.16887771551E+01  0.17156073630E+03  0.17120000000E+03 0.  0.
        998    1    1    2    0    0  0.10746123139E+02  0.75712791738E+01  0.14370314760E+04  0.14371263919E+04  0.10000000000E+02 0. -1.
</event>
<event>
 5    1  0.1294251E-008  0.3708333E+03  0.7957747E-01  0.3492070E+00
         13   -1    0    0    0    0  0.00000000000E+00  0.00000000000E+00  0.14999999963E+04  0.15000000000E+04  0.10566000000E+00 0. -1.
        994   -1    0    0    0    0 -0.00000000000E+00 -0.00000000000E+00  0.11368683772E-12  0.17120000000E+03  0.17120000000E+03 0.  0.
         13    1    1    2    0    0  0.91172178356E+02 -0.26510014209E+02  0.34639657411E+03  0.35917369708E+03  0.10566000000E+00 0. -1.
        994    1    1    2    0    0 -0.71835749402E+02  0.19054189202E+02  0.31006726083E+02  0.18919380032E+03  0.17120000000E+03 0.  0.
        998    1    1    2    0    0 -0.19336428954E+02  0.74558250072E+01  0.11225966961E+04  0.11228325026E+04  0.10000000000E+02 0. -1.
</event>
<event>
 5    1  0.1294251E-008  0.3695416E+03  0.7957747E-01  0.3498000E+00
         13   -1    0    0    0    0  0.00000000000E+00  0.00000000000E+00  0.14999999963E+04  0.15000000000E+04  0.10566000000E+00 0. -1.
        994   -1    0    0    0    0 -0.00000000000E+00 -0.00000000000E+00  0.11368683772E-12  0.17120000000E+03  0.17120000000E+03 0.  0.
         13    1    1    2    0    0 -0.10861063716E+02  0.29354058490E+02  0.45015408301E+02  0.54827197661E+02  0.10566000000E+00 0. -1.
        994    1    1    2    0    0  0.48828870230E+01 -0.43532833831E+02  0.16183904577E+02  0.17745509002E+03  0.17120000000E+03 0.  0.
        998    1    1    2    0    0  0.59781766928E+01  0.14178775341E+02  0.14388006834E+04  0.14389177123E+04  0.10000000000E+02 0. -1.
</event>
<event>
 5    1  0.1294251E-008  0.3827952E+03  0.7957747E-01  0.3439077E+00
         13   -1    0    0    0    0  0.00000000000E+00  0.00000000000E+00  0.14999999963E+04  0.15000000000E+04  0.10566000000E+00 0. -1.
        994   -1    0    0    0    0 -0.00000000000E+00 -0.00000000000E+00  0.11368683772E-12  0.17120000000E+03  0.17120000000E+03 0.  0.
         13    1    1    2    0    0  0.82814928330E+01  0.13581913681E+02  0.47836256897E+02  0.50412003935E+02  0.10566000000E+00 0. -1.
        994    1    1    2    0    0  0.11329129257E+02 -0.59993381224E+01  0.32732953995E+01  0.17171049965E+03  0.17120000000E+03 0.  0.
        998    1    1    2    0    0 -0.19610622090E+02 -0.75825755585E+01  0.14488904440E+04  0.14490774964E+04  0.10000000000E+02 0. -1.
</event>
<event>
 5    1  0.1294251E-008  0.3706400E+03  0.7957747E-01  0.3492955E+00
         13   -1    0    0    0    0  0.00000000000E+00  0.00000000000E+00  0.14999999963E+04  0.15000000000E+04  0.10566000000E+00 0. -1.
        994   -1    0    0    0    0 -0.00000000000E+00 -0.00000000000E+00  0.11368683772E-12  0.17120000000E+03  0.17120000000E+03 0.  0.
         13    1    1    2    0    0  0.19872355973E+02  0.13354710084E+02  0.20733476322E+02  0.31672496235E+02  0.10566000000E+00 0. -1.
        994    1    1    2    0    0 -0.31920809243E+02  0.21755080801E+02  0.16524313475E+02  0.17628021596E+03  0.17120000000E+03 0.  0.
        998    1    1    2    0    0  0.12048453270E+02 -0.35109790884E+02  0.14627422065E+04  0.14632472878E+04  0.10000000000E+02 0. -1.
</event>
<event>
 5    1  0.1294251E-008  0.3727923E+03  0.7957747E-01  0.3483156E+00
         13   -1    0    0    0    0  0.00000000000E+00  0.00000000000E+00  0.14999999963E+04  0.15000000000E+04  0.10566000000E+00 0. -1.
        994   -1    0    0    0    0 -0.00000000000E+00 -0.00000000000E+00  0.11368683772E-12  0.17120000000E+03  0.17120000000E+03 0.  0.
         13    1    1    2    0    0  0.25013285842E+02 -0.11777274757E+02  0.23396508888E+02  0.36218454709E+02  0.10566000000E+00 0. -1.
        994    1    1    2    0    0  0.14087635168E+02  0.12622126509E+03  0.71780540327E+02  0.22492699970E+03  0.17120000000E+03 0.  0.
        998    1    1    2    0    0 -0.39100921010E+02 -0.11444399033E+03  0.14048229471E+04  0.14100545456E+04  0.10000000000E+02 0. -1.
</event>
<event>
 5    1  0.1294251E-008  0.3838199E+03  0.7957747E-01  0.3434693E+00
         13   -1    0    0    0    0  0.00000000000E+00  0.00000000000E+00  0.14999999963E+04  0.15000000000E+04  0.10566000000E+00 0. -1.
        994   -1    0    0    0    0 -0.00000000000E+00 -0.00000000000E+00  0.11368683772E-12  0.17120000000E+03  0.17120000000E+03 0.  0.
         13    1    1    2    0    0  0.11079713021E+01  0.11016537793E+02  0.26984701349E+02  0.29168081464E+02  0.10566000000E+00 0. -1.
        994    1    1    2    0    0  0.95384798820E+01 -0.85048011903E+01  0.27565091929E+01  0.17169843501E+03  0.17120000000E+03 0.  0.
        998    1    1    2    0    0 -0.10646451184E+02 -0.25117366030E+01  0.14702587857E+04  0.14703334835E+04  0.10000000000E+02 0. -1.
</event>
<event>
 5    1  0.1294251E-008  0.3835417E+03  0.7957747E-01  0.3435881E+00
         13   -1    0    0    0    0  0.00000000000E+00  0.00000000000E+00  0.14999999963E+04  0.15000000000E+04  0.10566000000E+00 0. -1.
        994   -1    0    0    0    0 -0.00000000000E+00 -0.00000000000E+00  0.11368683772E-12  0.17120000000E+03  0.17120000000E+03 0.  0.
         13    1    1    2    0    0 -0.10605338155E+02  0.19328192616E+02  0.11014898295E+03  0.11233370748E+03  0.10566000000E+00 0. -1.
        994    1    1    2    0    0 -0.28191111843E+01 -0.56458851682E+01  0.24874925901E+01  0.17133432530E+03  0.17120000000E+03 0.  0.
        998    1    1    2    0    0  0.13424449340E+02 -0.13682307448E+02  0.13873635207E+04  0.13875319672E+04  0.10000000000E+02 0. -1.
</event>
<event>
 5    1  0.1294251E-008  0.3844131E+03  0.7957747E-01  0.3432165E+00
         13   -1    0    0    0    0  0.00000000000E+00  0.00000000000E+00  0.14999999963E+04  0.15000000000E+04  0.10566000000E+00 0.  1.
        994   -1    0    0    0    0 -0.00000000000E+00 -0.00000000000E+00  0.11368683772E-12  0.17120000000E+03  0.17120000000E+03 0.  0.
         13    1    1    2    0    0  0.54815883315E+01 -0.13758634513E+02  0.45790674800E+02  0.48126343067E+02  0.10566000000E+00 0.  1.
        994    1    1    2    0    0 -0.29255807798E+02  0.46663066186E+02  0.11981167326E+02  0.18023965270E+03  0.17120000000E+03 0.  0.
        998    1    1    2    0    0  0.23774219466E+02 -0.32904431673E+02  0.14422281542E+04  0.14428340042E+04  0.10000000000E+02 0.  1.
</event>
<event>
 5    1  0.1294251E-008  0.3766279E+03  0.7957747E-01  0.3465974E+00
         13   -1    0    0    0    0  0.00000000000E+00  0.00000000000E+00  0.14999999963E+04  0.15000000000E+04  0.10566000000E+00 0. -1.
        994   -1    0    0    0    0 -0.00000000000E+00 -0.00000000000E+00  0.11368683772E-12  0.17120000000E+03  0.17120000000E+03 0.  0.
         13    1    1    2    0    0  0.25067057890E+02 -0.11251937361E+02  0.56941313464E+02  0.63224107971E+02  0.10566000000E+00 0. -1.
        994    1    1    2    0    0 -0.43648601055E+02  0.94951889501E+01  0.12620676170E+02  0.17738117277E+03  0.17120000000E+03 0.  0.
        998    1    1    2    0    0  0.18581543165E+02  0.17567484107E+01  0.14304380066E+04  0.14305947193E+04  0.10000000000E+02 0. -1.
</event>
<event>
 5    1  0.1294251E-008  0.3778060E+03  0.7957747E-01  0.3460768E+00
         13   -1    0    0    0    0  0.00000000000E+00  0.00000000000E+00  0.14999999963E+04  0.15000000000E+04  0.10566000000E+00 0. -1.
        994   -1    0    0    0    0 -0.00000000000E+00 -0.00000000000E+00  0.11368683772E-12  0.17120000000E+03  0.17120000000E+03 0.  0.
         13    1    1    2    0    0  0.79932920919E+01 -0.37358090652E+02  0.13385200136E+03  0.13919730273E+03  0.10566000000E+00 0. -1.
        994    1    1    2    0    0 -0.10776210602E+02  0.25781696775E+02  0.78785648480E+01  0.17364427542E+03  0.17120000000E+03 0.  0.
        998    1    1    2    0    0  0.27829185099E+01  0.11576393877E+02  0.13582694301E+04  0.13583584218E+04  0.10000000000E+02 0. -1.
</event>
<event>
 5    1  0.1294251E-008  0.3779368E+03  0.7957747E-01  0.3460192E+00
         13   -1    0    0    0    0  0.00000000000E+00  0.00000000000E+00  0.14999999963E+04  0.15000000000E+04  0.10566000000E+00 0.  1.
        994   -1    0    0    0    0 -0.00000000000E+00 -0.00000000000E+00  0.11368683772E-12  0.17120000000E+03  0.17120000000E+03 0.  0.
         13    1    1    2    0    0 -0.81716107248E+01  0.30018631641E+02  0.91358008750E+02  0.96510053332E+02  0.10566000000E+00 0.  1.
        994    1    1    2    0    0  0.44260817987E+01 -0.19221816722E+02  0.64889439183E+01  0.17245467472E+03  0.17120000000E+03 0.  0.
        998    1    1    2    0    0  0.37455289261E+01 -0.10796814919E+02  0.14021530436E+04  0.14022352720E+04  0.10000000000E+02 0.  1.
</event>
<event>
 5    1  0.1294251E-008  0.3851675E+03  0.7957747E-01  0.3428962E+00
         13   -1    0    0    0    0  0.00000000000E+00  0.00000000000E+00  0.14999999963E+04  0.15000000000E+04  0.10566000000E+00 0.  1.
        994   -1    0    0    0    0 -0.00000000000E+00 -0.00000000000E+00  0.11368683772E-12  0.17120000000E+03  0.17120000000E+03 0.  0.
         13    1    1    2    0    0  0.16035097771E+02  0.28532177781E+01  0.89313040324E+02  0.90785987620E+02  0.10566000000E+00 0.  1.
        994    1    1    2    0    0 -0.53390081998E+01 -0.11571829448E+01  0.16450835048E+01  0.17129503898E+03  0.17120000000E+03 0.  0.
        998    1    1    2    0    0 -0.10696089571E+02 -0.16960348333E+01  0.14090418725E+04  0.14091189734E+04  0.10000000000E+02 0.  1.
</event>
<event>
 5    1  0.1294251E-008  0.3835288E+03  0.7957747E-01  0.3435936E+00
         13   -1    0    0    0    0  0.00000000000E+00  0.00000000000E+00  0.14999999963E+04  0.15000000000E+04  0.10566000000E+00 0.  1.
        994   -1    0    0    0    0 -0.00000000000E+00 -0.00000000000E+00  0.11368683772E-12  0.17120000000E+03  0.17120000000E+03 0.  0.
         13    1    1    2    0    0 -0.30464928751E+01  0.30820268736E+02  0.17608230497E+03  0.17878523253E+03  0.10566000000E+00 0.  1.
        994    1    1    2    0    0  0.13284341771E+02 -0.33332016427E+02  0.66284014537E+01  0.17504534487E+03  0.17120000000E+03 0.  0.
        998    1    1    2    0    0 -0.10237848896E+02  0.25117476904E+01  0.13172892899E+04  0.13173694226E+04  0.10000000000E+02 0.  1.
</event>
<event>
 5    1  0.1294251E-008  0.3857201E+03  0.7957747E-01  0.3426624E+00
         13   -1    0    0    0    0  0.00000000000E+00  0.00000000000E+00  0.14999999963E+04  0.15000000000E+04  0.10566000000E+00 0. -1.
        994   -1    0    0    0    0 -0.00000000000E+00 -0.00000000000E+00  0.11368683772E-12  0.17120000000E+03  0.17120000000E+03 0.  0.
         13    1    1    2    0    0  0.11524894548E+02  0.35167370344E+01  0.56945794036E+02  0.58206745796E+02  0.10566000000E+00 0. -1.
        994    1    1    2    0    0 -0.75903425537E+01 -0.74548059037E+01  0.16445205110E+01  0.17153813535E+03  0.17120000000E+03 0.  0.
        998    1    1    2    0    0 -0.39345519938E+01  0.39380688694E+01  0.14414096817E+04  0.14414551189E+04  0.10000000000E+02 0. -1.
</event>
<event>
 5    1  0.1294251E-008  0.3861890E+03  0.7957747E-01  0.3424645E+00
         13   -1    0    0    0    0  0.00000000000E+00  0.00000000000E+00  0.14999999963E+04  0.15000000000E+04  0.10566000000E+00 0. -1.
        994   -1    0    0    0    0 -0.00000000000E+00 -0.00000000000E+00  0.11368683772E-12  0.17120000000E+03  0.17120000000E+03 0.  0.
         13    1    1    2    0    0  0.11061156202E+02  0.10767185034E+01  0.59247023428E+02  0.60280423426E+02  0.10566000000E+00 0. -1.
        994    1    1    2    0    0 -0.10215058546E+02  0.49941544173E+01  0.14646188567E+01  0.17158343192E+03  0.17120000000E+03 0.  0.
        998    1    1    2    0    0 -0.84609765638E+00 -0.60708729207E+01  0.14392883540E+04  0.14393361447E+04  0.10000000000E+02 0. -1.
</event>
<event>
 5    1  0.1294251E-008  0.3742027E+03  0.7957747E-01  0.3476796E+00
         13   -1    0    0    0    0  0.00000000000E+00  0.00000000000E+00  0.14999999963E+04  0.15000000000E+04  0.10566000000E+00 0.  1.
        994   -1    0    0    0    0 -0.00000000000E+00 -0.00000000000E+00  0.11368683772E-12  0.17120000000E+03  0.17120000000E+03 0.  0.
         13    1    1    2    0    0 -0.33174637189E+02  0.12545966037E+02  0.79359254903E+02  0.86924451791E+02  0.10566000000E+00 0.  1.
        994    1    1    2    0    0  0.50515899838E+02  0.83051090365E+01  0.16074571622E+02  0.17941199187E+03  0.17120000000E+03 0.  0.
        998    1    1    2    0    0 -0.17341262650E+02 -0.20851075073E+02  0.14045661698E+04  0.14048635563E+04  0.10000000000E+02 0.  1.
</event>
<event>
 5    1  0.1294251E-008  0.3774950E+03  0.7957747E-01  0.3462139E+00
         13   -1    0    0    0    0  0.00000000000E+00  0.00000000000E+00  0.14999999963E+04  0.15000000000E+04  0.10566000000E+00 0.  1.
        994   -1    0    0    0    0 -0.00000000000E+00 -0.00000000000E+00  0.11368683772E-12  0.17120000000E+03  0.17120000000E+03 0.  0.
         13    1    1    2    0    0 -0.66199789175E+02 -0.16847880530E+02  0.34404489227E+03  0.35076083337E+03  0.10566000000E+00 0.  1.
        994    1    1    2    0    0  0.64906809274E+02  0.69850506275E+01  0.19905879287E+02  0.18430238428E+03  0.17120000000E+03 0.  0.
        998    1    1    2    0    0  0.12929799003E+01  0.98628299025E+01  0.11360492247E+04  0.11361367823E+04  0.10000000000E+02 0.  1.
</event>
<event>
 5    1  0.1294251E-008  0.3729511E+03  0.7957747E-01  0.3482437E+00
         13   -1    0    0    0    0  0.00000000000E+00  0.00000000000E+00  0.14999999963E+04  0.15000000000E+04  0.10566000000E+00 0.  1.
        994   -1    0    0    0    0 -0.00000000000E+00 -0.00000000000E+00  0.11368683772E-12  0.17120000000E+03  0.17120000000E+03 0.  0.
         13    1    1    2    0    0 -0.50268914921E+02 -0.96379069809E+02  0.55476579998E+03  0.56531495018E+03  0.10566000000E+00 0.  1.
        994    1    1    2    0    0  0.56773488026E+02  0.76951152329E+02  0.39714566356E+02  0.20007847353E+03  0.17120000000E+03 0.  0.
        998    1    1    2    0    0 -0.65045731049E+01  0.19427917480E+02  0.90551962995E+03  0.90580657630E+03  0.10000000000E+02 0.  1.
</event>
<event>
 5    1  0.1294251E-008  0.3719104E+03  0.7957747E-01  0.3487157E+00
         13   -1    0    0    0    0  0.00000000000E+00  0.00000000000E+00  0.14999999963E+04  0.15000000000E+04  0.10566000000E+00 0.  1.
        994   -1    0    0    0    0 -0.00000000000E+00 -0.00000000000E+00  0.11368683772E-12  0.17120000000E+03  0.17120000000E+03 0.  0.
         13    1    1    2    0    0  0.21857820268E+02 -0.42482304316E+02  0.13021003245E+03  0.13869814058E+03  0.10566000000E+00 0.  1.
        994    1    1    2    0    0 -0.10038800870E+02  0.36817197513E+02  0.13292866172E+02  0.17590458734E+03  0.17120000000E+03 0.  0.
        998    1    1    2    0    0 -0.11819019398E+02  0.56651068036E+01  0.13564970977E+04  0.13565972721E+04  0.10000000000E+02 0.  1.
</event>
<event>
 5    1  0.1294251E-008  0.3810681E+03  0.7957747E-01  0.3446521E+00
         13   -1    0    0    0    0  0.00000000000E+00  0.00000000000E+00  0.14999999963E+04  0.15000000000E+04  0.10566000000E+00 0. -1.
        994   -1    0    0    0    0 -0.00000000000E+00 -0.00000000000E+00  0.11368683772E-12  0.17120000000E+03  0.17120000000E+03 0.  0.
         13    1    1    2    0    0 -0.18971865517E+02 -0.73180683926E+01  0.54973098914E+02  0.58613467517E+02  0.10566000000E+00 0. -1.
        994    1    1    2    0    0  0.16258246786E+02  0.97009713910E+01  0.47898583403E+01  0.17231024977E+03  0.17120000000E+03 0.  0.
        998    1    1    2    0    0  0.27136187308E+01 -0.23829029984E+01  0.14402370390E+04  0.14402762827E+04  0.10000000000E+02 0. -1.
</event>
<event>
 5    1  0.1294251E-008  0.3855754E+03  0.7957747E-01  0.3427235E+00
         13   -1    0    0    0    0  0.00000000000E+00  0.00000000000E+00  0.14999999963E+04  0.15000000000E+04  0.10566000000E+00 0.  1.
        994   -1    0    0    0    0 -0.00000000000E+00 -0.00000000000E+00  0.11368683772E-12  0.17120000000E+03  0.17120000000E+03 0.  0.
         13    1    1    2    0    0  0.87418518023E+01  0.10787736900E+02  0.77818305403E+02  0.79047422856E+02  0.10566000000E+00 0.  1.
        994    1    1    2    0    0  0.10568059670E+02 -0.79691940868E+01  0.19200045937E+01  0.17172163043E+03  0.17120000000E+03 0.  0.
        998    1    1    2    0    0 -0.19309911473E+02 -0.28185428134E+01  0.14202616863E+04  0.14204309467E+04  0.10000000000E+02 0.  1.
</event>
<event>
 5    1  0.1294251E-008  0.3760070E+03  0.7957747E-01  0.3468732E+00
         13   -1    0    0    0    0  0.00000000000E+00  0.00000000000E+00  0.14999999963E+04  0.15000000000E+04  0.10566000000E+00 0.  1.
        994   -1    0    0    0    0 -0.00000000000E+00 -0.00000000000E+00  0.11368683772E-12  0.17120000000E+03  0.17120000000E+03 0.  0.
         13    1    1    2    0    0 -0.25092621960E+02  0.51377041201E+02  0.13381615773E+03  0.14551981059E+03  0.10566000000E+00 0.  1.
        994    1    1    2    0    0 -0.21248492083E+02  0.58004811430E+01  0.15885405390E+02  0.17334050335E+03  0.17120000000E+03 0.  0.
        998    1    1    2    0    0  0.46341114043E+02 -0.57177522344E+02  0.13502984332E+04  0.13523396861E+04  0.10000000000E+02 0.  1.
</event>
<event>
 5    1  0.2520313E-008  0.3859304E+03  0.7957747E-01  0.3425736E+00
         13   -1    0    0    0    0  0.00000000000E+00  0.00000000000E+00  0.14999999963E+04  0.15000000000E+04  0.10566000000E+00 0. -1.
        994   -1    0    0    0    0 -0.00000000000E+00 -0.00000000000E+00  0.11368683772E-12  0.17120000000E+03  0.17120000000E+03 0.  0.
         13    1    1    2    0    0  0.18171031986E+01  0.12633179448E+02  0.66519781486E+02  0.67733238369E+02  0.10566000000E+00 0. -1.
        994    1    1    2    0    0 -0.40419045092E+01 -0.15714654291E+02  0.20326682449E+01  0.17197924029E+03  0.17120000000E+03 0.  0.
        998    1    1    2    0    0  0.22248013106E+01  0.30814748428E+01  0.14314475465E+04  0.14314875213E+04  0.10000000000E+02 0. -1.
</event>
<event>
 5    1  0.1294251E-008  0.2305175E+03  0.7957747E-01  0.4564285E+00
         13   -1    0    0    0    0  0.00000000000E+00  0.00000000000E+00  0.14999999963E+04  0.15000000000E+04  0.10566000000E+00 0. -1.
        994   -1    0    0    0    0 -0.00000000000E+00 -0.00000000000E+00  0.11368683772E-12  0.17120000000E+03  0.17120000000E+03 0.  0.
         13    1    1    2    0    0 -0.76533363644E+02 -0.15919629808E+03  0.34226361802E+03  0.38515608843E+03  0.10566000000E+00 0. -1.
        994    1    1    2    0    0 -0.11524280913E+03  0.11271906971E+03  0.20170060372E+03  0.30980488581E+03  0.17120000000E+03 0.  0.
        998    1    1    2    0    0  0.19177617278E+03  0.46477228378E+02  0.95603577454E+03  0.97623902575E+03  0.10000000000E+02 0. -1.
</event>
<event>
 5    1  0.1294251E-008  0.3801890E+03  0.7957747E-01  0.3450336E+00
         13   -1    0    0    0    0  0.00000000000E+00  0.00000000000E+00  0.14999999963E+04  0.15000000000E+04  0.10566000000E+00 0. -1.
        994   -1    0    0    0    0 -0.00000000000E+00 -0.00000000000E+00  0.11368683772E-12  0.17120000000E+03  0.17120000000E+03 0.  0.
         13    1    1    2    0    0  0.23816706036E+01  0.22314276156E+02  0.68142049152E+02  0.71742242102E+02  0.10566000000E+00 0. -1.
        994    1    1    2    0    0 -0.39291745990E+02  0.14636529746E+02  0.99336449716E+01  0.17653947606E+03  0.17120000000E+03 0.  0.
        998    1    1    2    0    0  0.36910075386E+02 -0.36950805901E+02  0.14219243022E+04  0.14229182818E+04  0.10000000000E+02 0. -1.
</event>
<event>
 5    1  0.1294251E-008  0.3858335E+03  0.7957747E-01  0.3426145E+00
         13   -1    0    0    0    0  0.00000000000E+00  0.00000000000E+00  0.14999999963E+04  0.15000000000E+04  0.10566000000E+00 0.  1.
        994   -1    0    0    0    0 -0.00000000000E+00 -0.00000000000E+00  0.11368683772E-12  0.17120000000E+03  0.17120000000E+03 0.  0.
         13    1    1    2    0    0 -0.11326057597E+02 -0.60537072775E+01  0.69120965604E+02  0.70303954388E+02  0.10566000000E+00 0.  1.
        994    1    1    2    0    0 -0.44140517344E+00  0.16626858647E+02  0.21247470212E+01  0.17201919026E+03  0.17120000000E+03 0.  0.
        998    1    1    2    0    0  0.11767462770E+02 -0.10573151370E+02  0.14287542837E+04  0.14288768554E+04  0.10000000000E+02 0.  1.
</event>
<event>
 5    1  0.1294251E-008  0.3806018E+03  0.7957747E-01  0.3448542E+00
         13   -1    0    0    0    0  0.00000000000E+00  0.00000000000E+00  0.14999999963E+04  0.15000000000E+04  0.10566000000E+00 0.  1.
        994   -1    0    0    0    0 -0.00000000000E+00 -0.00000000000E+00  0.11368683772E-12  0.17120000000E+03  0.17120000000E+03 0.  0.
         13    1    1    2    0    0 -0.27166965525E+02  0.25598537895E+02  0.20507202180E+03  0.20844153724E+03  0.10566000000E+00 0.  1.
        994    1    1    2    0    0 -0.17082283572E+00 -0.84645140622E+01  0.40688580618E+01  0.17145749556E+03  0.17120000000E+03 0.  0.
        998    1    1    2    0    0  0.27337788361E+02 -0.17134023833E+02  0.12908591164E+04  0.12913009672E+04  0.10000000000E+02 0.  1.
</event>
<event>
 5    1  0.1294251E-008  0.3851011E+03  0.7957747E-01  0.3429244E+00
         13   -1    0    0    0    0  0.00000000000E+00  0.00000000000E+00  0.14999999963E+04  0.15000000000E+04  0.10566000000E+00 0. -1.
        994   -1    0    0    0    0 -0.00000000000E+00 -0.00000000000E+00  0.11368683772E-12  0.17120000000E+03  0.17120000000E+03 0.  0.
         13    1    1    2    0    0 -0.84977742641E+01 -0.14975645671E+02  0.93139363230E+02  0.94717655575E+02  0.10566000000E+00 0. -1.
        994    1    1    2    0    0  0.48712404291E+01  0.11270557523E+02  0.20757213403E+01  0.17165227371E+03  0.17120000000E+03 0.  0.
        998    1    1    2    0    0  0.36265338350E+01  0.37050881487E+01  0.14047849117E+04  0.14048300707E+04  0.10000000000E+02 0. -1.
</event>
<event>
 5    1  0.1294251E-008  0.3825565E+03  0.7957747E-01  0.3440102E+00
         13   -1    0    0    0    0  0.00000000000E+00  0.00000000000E+00  0.14999999963E+04  0.15000000000E+04  0.10566000000E+00 0.  1.
        994   -1    0    0    0    0 -0.00000000000E+00 -0.00000000000E+00  0.11368683772E-12  0.17120000000E+03  0.17120000000E+03 0.  0.
         13    1    1    2    0    0  0.14749245840E+02  0.76947533274E+01  0.48274234436E+02  0.51060379513E+02  0.10566000000E+00 0.  1.
        994    1    1    2    0    0 -0.59342619927E+01 -0.59636529609E+01  0.30828241496E+01  0.17143431520E+03  0.17120000000E+03 0.  0.
        998    1    1    2    0    0 -0.88149838478E+01 -0.17311003665E+01  0.14486429377E+04  0.14487053053E+04  0.10000000000E+02 0.  1.
</event>
<event>
 5    1  0.1294251E-008  0.3850641E+03  0.7957747E-01  0.3429400E+00
         13   -1    0    0    0    0  0.00000000000E+00  0.00000000000E+00  0.14999999963E+04  0.15000000000E+04  0.10566000000E+00 0.  1.
        994   -1    0    0    0    0 -0.00000000000E+00 -0.00000000000E+00  0.11368683772E-12  0.17120000000E+03  0.17120000000E+03 0.  0.
         13    1    1    2    0    0 -0.15969072895E+02  0.26323539829E+01  0.78754505197E+02  0.80400396949E+02  0.10566000000E+00 0.  1.
        994    1    1    2    0    0  0.15347174874E+02 -0.77569409528E+01  0.25711932932E+01  0.17208066987E+03  0.17120000000E+03 0.  0.
        998    1    1    2    0    0  0.62189802117E+00  0.51245869699E+01  0.14186742978E+04  0.14187189332E+04  0.10000000000E+02 0.  1.
</event>
<event>
 5    1  0.1294251E-008  0.3860904E+03  0.7957747E-01  0.3425061E+00
         13   -1    0    0    0    0  0.00000000000E+00  0.00000000000E+00  0.14999999963E+04  0.15000000000E+04  0.10566000000E+00 0.  1.
        994   -1    0    0    0    0 -0.00000000000E+00 -0.00000000000E+00  0.11368683772E-12  0.17120000000E+03  0.17120000000E+03 0.  0.
         13    1    1    2    0    0 -0.23558812980E+01 -0.97728612623E+01  0.45338307065E+02  0.46439554751E+02  0.10566000000E+00 0.  1.
        994    1    1    2    0    0 -0.64567445830E+01  0.14378807970E+02  0.19042884889E+01  0.17193459798E+03  0.17120000000E+03 0.  0.
        998    1    1    2    0    0  0.88126258810E+01 -0.46059467075E+01  0.14527574007E+04  0.14528258473E+04  0.10000000000E+02 0.  1.
</event>
<event>
 5    1  0.1294251E-008  0.3858374E+03  0.7957747E-01  0.3426128E+00
         13   -1    0    0    0    0  0.00000000000E+00  0.00000000000E+00  0.14999999963E+04  0.15000000000E+04  0.10566000000E+00 0. -1.
        994   -1    0    0    0    0 -0.00000000000E+00 -0.00000000000E+00  0.11368683772E-12  0.17120000000E+03  0.17120000000E+03 0.  0.
         13    1    1    2    0    0  0.65914403553E+01 -0.79918749440E+01  0.42570069852E+02  0.43812545719E+02  0.10566000000E+00 0. -1.
        994    1    1    2    0    0 -0.24578115161E+02 -0.69205559800E+00  0.32002616755E+01  0.17298625483E+03  0.17120000000E+03 0.  0.
        998    1    1    2    0    0  0.17986674805E+02  0.86839305420E+01  0.14542296648E+04  0.14544011994E+04  0.10000000000E+02 0. -1.
</event>
<event>
 5    1  0.1294251E-008  0.3775452E+03  0.7957747E-01  0.3461917E+00
         13   -1    0    0    0    0  0.00000000000E+00  0.00000000000E+00  0.14999999963E+04  0.15000000000E+04  0.10566000000E+00 0. -1.
        994   -1    0    0    0    0 -0.00000000000E+00 -0.00000000000E+00  0.11368683772E-12  0.17120000000E+03  0.17120000000E+03 0.  0.
         13    1    1    2    0    0 -0.14806036151E+02 -0.12293869825E+02  0.30313737410E+02  0.35906709423E+02  0.10566000000E+00 0. -1.
        994    1    1    2    0    0  0.18083559662E+02  0.32345976489E+02  0.10019795928E+02  0.17545117166E+03  0.17120000000E+03 0.  0.
        998    1    1    2    0    0 -0.32775235109E+01 -0.20052106664E+02  0.14596664629E+04  0.14598421189E+04  0.10000000000E+02 0. -1.
</event>
<event>
 5    1  0.1294251E-008  0.3835697E+03  0.7957747E-01  0.3435761E+00
         13   -1    0    0    0    0  0.00000000000E+00  0.00000000000E+00  0.14999999963E+04  0.15000000000E+04  0.10566000000E+00 0. -1.
        994   -1    0    0    0    0 -0.00000000000E+00 -0.00000000000E+00  0.11368683772E-12  0.17120000000E+03  0.17120000000E+03 0.  0.
         13    1    1    2    0    0 -0.10715666152E+02  0.25065484214E+01  0.27040565555E+02  0.29194376781E+02  0.10566000000E+00 0. -1.
        994    1    1    2    0    0 -0.91103518710E+01  0.17490256949E+02  0.36279044519E+01  0.17237026800E+03  0.17120000000E+03 0.  0.
        998    1    1    2    0    0  0.19826018023E+02 -0.19996805370E+02  0.14693315263E+04  0.14696353552E+04  0.10000000000E+02 0. -1.
</event>
<event>
 5    1  0.1294251E-008  0.3805840E+03  0.7957747E-01  0.3448620E+00
         13   -1    0    0    0    0  0.00000000000E+00  0.00000000000E+00  0.14999999963E+04  0.15000000000E+04  0.10566000000E+00 0.  1.
        994   -1    0    0    0    0 -0.00000000000E+00 -0.00000000000E+00  0.11368683772E-12  0.17120000000E+03  0.17120000000E+03 0.  0.
         13    1    1    2    0    0  0.15709793936E+03 -0.20248099889E+03  0.95181407234E+03  0.98571210651E+03  0.10566000000E+00 0.  1.
        994    1    1    2    0    0 -0.15203855369E+03  0.22471019556E+03  0.31037343890E+03  0.44637596863E+03  0.17120000000E+03 0.  0.
        998    1    1    2    0    0 -0.50593856736E+01 -0.22229196667E+02  0.23781248504E+03  0.23911192486E+03  0.10000000000E+02 0.  1.
</event>
<event>
 5    1  0.1294251E-008  0.3844958E+03  0.7957747E-01  0.3431813E+00
         13   -1    0    0    0    0  0.00000000000E+00  0.00000000000E+00  0.14999999963E+04  0.15000000000E+04  0.10566000000E+00 0. -1.
        994   -1    0    0    0    0 -0.00000000000E+00 -0.00000000000E+00  0.11368683772E-12  0.17120000000E+03  0.17120000000E+03 0.  0.
         13    1    1    2    0    0  0.14340241656E+02 -0.86086541677E+01  0.73439367923E+02  0.75320006520E+02  0.10566000000E+00 0. -1.
        994    1    1    2    0    0 -0.10022997096E+02  0.74107003331E+01  0.23926585288E+01  0.17166986854E+03  0.17120000000E+03 0.  0.
        998    1    1    2    0    0 -0.43172445599E+01  0.11979538346E+01  0.14241679698E+04  0.14242101249E+04  0.10000000000E+02 0. -1.
</event>
<event>
 5    1  0.1294251E-008  0.3821144E+03  0.7957747E-01  0.3442003E+00
         13   -1    0    0    0    0  0.00000000000E+00  0.00000000000E+00  0.14999999963E+04  0.15000000000E+04  0.10566000000E+00 0.  1.
        994   -1    0    0    0    0 -0.00000000000E+00 -0.00000000000E+00  0.11368683772E-12  0.17120000000E+03  0.17120000000E+03 0.  0.
         13    1    1    2    0    0  0.87587769781E+01 -0.16953652057E+02  0.56457542106E+02  0.59595366572E+02  0.10566000000E+00 0.  1.
        994    1    1    2    0    0 -0.34098712667E+01  0.20305819607E+02  0.44782896108E+01  0.17249187984E+03  0.17120000000E+03 0.  0.
        998    1    1    2    0    0 -0.53489057114E+01 -0.33521675493E+01  0.14390641646E+04  0.14391127536E+04  0.10000000000E+02 0.  1.
</event>
<event>
 5    1  0.1294251E-008  0.3837300E+03  0.7957747E-01  0.3435076E+00
         13   -1    0    0    0    0  0.00000000000E+00  0.00000000000E+00  0.14999999963E+04  0.15000000000E+04  0.10566000000E+00 0.  1.
        994   -1    0    0    0    0 -0.00000000000E+00 -0.00000000000E+00  0.11368683772E-12  0.17120000000E+03  0.17120000000E+03 0.  0.
         13    1    1    2    0    0 -0.12588027621E+02 -0.68483955195E+01  0.48442325669E+02  0.50517611195E+02  0.10566000000E+00 0.  1.
        994    1    1    2    0    0 -0.69199877954E+01 -0.12622267880E+01  0.24253888149E+01  0.17136161168E+03  0.17120000000E+03 0.  0.
        998    1    1    2    0    0  0.19508015416E+02  0.81106223075E+01  0.14491322818E+04  0.14493207771E+04  0.10000000000E+02 0.  1.
</event>
<event>
 5    1  0.1294251E-008  0.3701730E+03  0.7957747E-01  0.3495096E+00
         13   -1    0    0    0    0  0.00000000000E+00  0.00000000000E+00  0.14999999963E+04  0.15000000000E+04  0.10566000000E+00 0. -1.
        994   -1    0    0    0    0 -0.00000000000E+00 -0.00000000000E+00  0.11368683772E-12  0.17120000000E+03  0.17120000000E+03 0.  0.
         13    1    1    2    0    0 -0.25051377786E+02  0.40220169515E+01  0.24523356452E+02  0.35286744325E+02  0.10566000000E+00 0. -1.
        994    1    1    2    0    0  0.19293273780E+02 -0.19915809231E+01  0.12347362591E+02  0.17273706658E+03  0.17120000000E+03 0.  0.
        998    1    1    2    0    0  0.57581040059E+01 -0.20304360284E+01  0.14631292772E+04  0.14631761891E+04  0.10000000000E+02 0. -1.
</event>
<event>
 5    1  0.1294251E-008  0.3852102E+03  0.7957747E-01  0.3428781E+00
         13   -1    0    0    0    0  0.00000000000E+00  0.00000000000E+00  0.14999999963E+04  0.15000000000E+04  0.10566000000E+00 0. -1.
        994   -1    0    0    0    0 -0.00000000000E+00 -0.00000000000E+00  0.11368683772E-12  0.17120000000E+03  0.17120000000E+03 0.  0.
         13    1    1    2    0    0  0.68203363564E+01 -0.91567689903E+01  0.42953689145E+02  0.44445404504E+02  0.10566000000E+00 0. -1.
        994    1    1    2    0    0 -0.30426689134E+01  0.60260764305E+01  0.16755720531E+01  0.17134123547E+03  0.17120000000E+03 0.  0.
        998    1    1    2    0    0 -0.37776674431E+01  0.31306925599E+01  0.14553707351E+04  0.14554133600E+04  0.10000000000E+02 0. -1.
</event>
<event>
 5    1  0.1294251E-008  0.3778994E+03  0.7957747E-01  0.3460356E+00
         13   -1    0    0    0    0  0.00000000000E+00  0.00000000000E+00  0.14999999963E+04  0.15000000000E+04  0.10566000000E+00 0.  1.
        994   -1    0    0    0    0 -0.00000000000E+00 -0.00000000000E+00  0.11368683772E-12  0.17120000000E+03  0.17120000000E+03 0.  0.
         13    1    1    2    0    0  0.25993535740E+01  0.29872296252E+02  0.90488090358E+02  0.95326892234E+02  0.10566000000E+00 0.  1.
        994    1    1    2    0    0 -0.53484601089E+01 -0.31320077504E+01  0.53266266218E+01  0.17139494873E+03  0.17120000000E+03 0.  0.
        998    1    1    2    0    0  0.27491065349E+01 -0.26740288502E+02  0.14041852793E+04  0.14044781590E+04  0.10000000000E+02 0.  1.
</event>
<event>
 5    1  0.1294251E-008  0.3687322E+03  0.7957747E-01  0.3501738E+00
         13   -1    0    0    0    0  0.00000000000E+00  0.00000000000E+00  0.14999999963E+04  0.15000000000E+04  0.10566000000E+00 0.  1.
        994   -1    0    0    0    0 -0.00000000000E+00 -0.00000000000E+00  0.11368683772E-12  0.17120000000E+03  0.17120000000E+03 0.  0.
         13    1    1    2    0    0  0.12885829578E+02 -0.35305475997E+01  0.40185038791E+01  0.13952380002E+02  0.10566000000E+00 0.  1.
        994    1    1    2    0    0 -0.62231757746E+01  0.43155292784E+01  0.10469616436E+02  0.17168693770E+03  0.17120000000E+03 0.  0.
        998    1    1    2    0    0 -0.66626538029E+01 -0.78498167869E+00  0.14855118760E+04  0.14855606823E+04  0.10000000000E+02 0.  1.
</event>
<event>
 5    1  0.1294251E-008  0.3850566E+03  0.7957747E-01  0.3429432E+00
         13   -1    0    0    0    0  0.00000000000E+00  0.00000000000E+00  0.14999999963E+04  0.15000000000E+04  0.10566000000E+00 0. -1.
        994   -1    0    0    0    0 -0.00000000000E+00 -0.00000000000E+00  0.11368683772E-12  0.17120000000E+03  0.17120000000E+03 0.  0.
         13    1    1    2    0    0  0.16211354711E+02 -0.11591386919E+02  0.11974487282E+03  0.12139198492E+03  0.10566000000E+00 0. -1.
        994    1    1    2    0    0 -0.14567524552E+02  0.81797677711E+01  0.25203260036E+01  0.17203172212E+03  0.17120000000E+03 0.  0.
        998    1    1    2    0    0 -0.16438301593E+01  0.34116191474E+01  0.13777347975E+04  0.13777762930E+04  0.10000000000E+02 0.  0.
</event>
<event>
 5    1  0.1294251E-008  0.3843015E+03  0.7957747E-01  0.3432640E+00
         13   -1    0    0    0    0  0.00000000000E+00  0.00000000000E+00  0.14999999963E+04  0.15000000000E+04  0.10566000000E+00 0.  1.
        994   -1    0    0    0    0 -0.00000000000E+00 -0.00000000000E+00  0.11368683772E-12  0.17120000000E+03  0.17120000000E+03 0.  0.
         13    1    1    2    0    0  0.40876104625E+01  0.10866275497E+02  0.35480765132E+02  0.37332028620E+02  0.10566000000E+00 0.  1.
        994    1    1    2    0    0 -0.76119091901E+01  0.74245641185E+01  0.23500930570E+01  0.17154599456E+03  0.17120000000E+03 0.  0.
        998    1    1    2    0    0  0.35242987276E+01 -0.18290839616E+02  0.14621691381E+04  0.14623219768E+04  0.10000000000E+02 0.  1.
</event>
<event>
 5    1  0.1294251E-008  0.3802583E+03  0.7957747E-01  0.3450035E+00
         13   -1    0    0    0    0  0.00000000000E+00  0.00000000000E+00  0.14999999963E+04  0.15000000000E+04  0.10566000000E+00 0.  1.
        994   -1    0    0    0    0 -0.00000000000E+00 -0.00000000000E+00  0.11368683772E-12  0.17120000000E+03  0.17120000000E+03 0.  0.
         13    1    1    2    0    0  0.30878184013E+02  0.25545375313E+02  0.41569794446E+02  0.57741557151E+02  0.10566000000E+00 0.  1.
        994    1    1    2    0    0 -0.33698592845E+02 -0.18311332413E+02  0.21822839326E+02  0.17679529510E+03  0.17120000000E+03 0.  0.
        998    1    1    2    0    0  0.28204088313E+01 -0.72340429001E+01  0.14366073625E+04  0.14366631477E+04  0.10000000000E+02 0.  1.
</event>
<event>
 5    1  0.1294251E-008  0.3840858E+03  0.7957747E-01  0.3433559E+00
         13   -1    0    0    0    0  0.00000000000E+00  0.00000000000E+00  0.14999999963E+04  0.15000000000E+04  0.10566000000E+00 0.  1.
        994   -1    0    0    0    0 -0.00000000000E+00 -0.00000000000E+00  0.11368683772E-12  0.17120000000E+03  0.17120000000E+03 0.  0.
         13    1    1    2    0    0  0.12433906956E+02  0.80996615534E+01  0.51096514238E+02  0.53207814189E+02  0.10566000000E+00 0.  1.
        994    1    1    2    0    0 -0.10008225906E+02 -0.11746064543E+02  0.28705514185E+01  0.17191804642E+03  0.17120000000E+03 0.  0.
        998    1    1    2    0    0 -0.24256810496E+01  0.36464029892E+01  0.14460329306E+04  0.14460741394E+04  0.10000000000E+02 0.  1.
</event>
<event>
 5    1  0.1294251E-008  0.3848267E+03  0.7957747E-01  0.3430407E+00
         13   -1    0    0    0    0  0.00000000000E+00  0.00000000000E+00  0.14999999963E+04  0.15000000000E+04  0.10566000000E+00 0. -1.
        994   -1    0    0    0    0 -0.00000000000E+00 -0.00000000000E+00  0.11368683772E-12  0.17120000000E+03  0.17120000000E+03 0.  0.
         13    1    1    2    0    0 -0.10677586397E+02  0.17266736101E+01  0.33973879256E+02  0.35654282895E+02  0.10566000000E+00 0. -1.
        994    1    1    2    0    0  0.63404814517E+01 -0.72659110292E+00  0.18502161804E+01  0.17132890281E+03  0.17120000000E+03 0.  0.
        998    1    1    2    0    0  0.43371049451E+01 -0.10000825072E+01  0.14641759008E+04  0.14642168143E+04  0.10000000000E+02 0. -1.
</event>
<event>
 5    1  0.1294251E-008  0.3691681E+03  0.7957747E-01  0.3499723E+00
         13   -1    0    0    0    0  0.00000000000E+00  0.00000000000E+00  0.14999999963E+04  0.15000000000E+04  0.10566000000E+00 0.  1.
        994   -1    0    0    0    0 -0.00000000000E+00 -0.00000000000E+00  0.11368683772E-12  0.17120000000E+03  0.17120000000E+03 0.  0.
         13    1    1    2    0    0  0.35678065011E+01  0.31145392334E+02  0.40842634987E+02  0.51486859523E+02  0.10566000000E+00 0.  1.
        994    1    1    2    0    0 -0.44776829753E+01 -0.37683703670E+02  0.15536356534E+02  0.17604240836E+03  0.17120000000E+03 0.  0.
        998    1    1    2    0    0  0.90987647420E+00  0.65383113360E+01  0.14436210048E+04  0.14436707321E+04  0.10000000000E+02 0.  1.
</event>
<event>
 5    1  0.1294251E-008  0.3826628E+03  0.7957747E-01  0.3439645E+00
         13   -1    0    0    0    0  0.00000000000E+00  0.00000000000E+00  0.14999999963E+04  0.15000000000E+04  0.10566000000E+00 0. -1.
        994   -1    0    0    0    0 -0.00000000000E+00 -0.00000000000E+00  0.11368683772E-12  0.17120000000E+03  0.17120000000E+03 0.  0.
         13    1    1    2    0    0 -0.34560124511E+01  0.22255404230E+02  0.89303237362E+02  0.92099546181E+02  0.10566000000E+00 0. -1.
        994    1    1    2    0    0 -0.11176488724E+02 -0.17325588786E+02  0.42048965392E+01  0.17248829259E+03  0.17120000000E+03 0.  0.
        998    1    1    2    0    0  0.14632501175E+02 -0.49298154434E+01  0.14064918624E+04  0.14066121612E+04  0.10000000000E+02 0. -1.
</event>
<event>
 5    1  0.1294251E-008  0.3687937E+03  0.7957747E-01  0.3501453E+00
         13   -1    0    0    0    0  0.00000000000E+00  0.00000000000E+00  0.14999999963E+04  0.15000000000E+04  0.10566000000E+00 0.  1.
        994   -1    0    0    0    0 -0.00000000000E+00 -0.00000000000E+00  0.11368683772E-12  0.17120000000E+03  0.17120000000E+03 0.  0.
         13    1    1    2    0    0 -0.10763018726E+02 -0.25836132296E+02  0.34865619716E+02  0.44709852452E+02  0.10566000000E+00 0.  1.
        994    1    1    2    0    0  0.17079611779E+02  0.22334003596E+02  0.12650623166E+02  0.17395401439E+03  0.17120000000E+03 0.  0.
        998    1    1    2    0    0 -0.63165930533E+01  0.35021286997E+01  0.14524837534E+04  0.14525361332E+04  0.10000000000E+02 0.  1.
</event>
<event>
 5    1  0.3084778E-008  0.3865022E+03  0.7957747E-01  0.3423326E+00
         13   -1    0    0    0    0  0.00000000000E+00  0.00000000000E+00  0.14999999963E+04  0.15000000000E+04  0.10566000000E+00 0. -1.
        994   -1    0    0    0    0 -0.00000000000E+00 -0.00000000000E+00  0.11368683772E-12  0.17120000000E+03  0.17120000000E+03 0.  0.
         13    1    1    2    0    0  0.11061837628E+02 -0.13227657398E+01  0.66069033402E+02  0.67001808181E+02  0.10566000000E+00 0. -1.
        994    1    1    2    0    0 -0.16845038293E+02  0.10202202340E+01  0.18187604186E+01  0.17203936774E+03  0.17120000000E+03 0.  0.
        998    1    1    2    0    0  0.57832006659E+01  0.30254550577E+00  0.14321122025E+04  0.14321588241E+04  0.10000000000E+02 0. -1.
</event>
<event>
 5    1  0.1294251E-008  0.3851769E+03  0.7957747E-01  0.3428922E+00
         13   -1    0    0    0    0  0.00000000000E+00  0.00000000000E+00  0.14999999963E+04  0.15000000000E+04  0.10566000000E+00 0.  1.
        994   -1    0    0    0    0 -0.00000000000E+00 -0.00000000000E+00  0.11368683772E-12  0.17120000000E+03  0.17120000000E+03 0.  0.
         13    1    1    2    0    0 -0.16982274759E+02 -0.13465979035E+00  0.80830493093E+02  0.82595372551E+02  0.10566000000E+00 0.  1.
        994    1    1    2    0    0  0.32068650351E+02 -0.78532816359E+01  0.51333812209E+01  0.17443011199E+03  0.17120000000E+03 0.  0.
        998    1    1    2    0    0 -0.15086375591E+02  0.79879414262E+01  0.14140361220E+04  0.14141745155E+04  0.10000000000E+02 0.  1.
</event>
<event>
 5    1  0.1294251E-008  0.3769785E+03  0.7957747E-01  0.3464421E+00
         13   -1    0    0    0    0  0.00000000000E+00  0.00000000000E+00  0.14999999963E+04  0.15000000000E+04  0.10566000000E+00 0. -1.
        994   -1    0    0    0    0 -0.00000000000E+00 -0.00000000000E+00  0.11368683772E-12  0.17120000000E+03  0.17120000000E+03 0.  0.
         13    1    1    2    0    0 -0.32688206985E+01 -0.22482444219E+02  0.42654715461E+02  0.48327853272E+02  0.10566000000E+00 0. -1.
        994    1    1    2    0    0  0.31049424872E+01  0.19707628841E+02  0.70113755608E+01  0.17250110344E+03  0.17120000000E+03 0.  0.
        998    1    1    2    0    0  0.16387821131E+00  0.27748153780E+01  0.14503339053E+04  0.14503710433E+04  0.10000000000E+02 0. -1.
</event>
<event>
 5    1  0.1294251E-008  0.3767372E+03  0.7957747E-01  0.3465490E+00
         13   -1    0    0    0    0  0.00000000000E+00  0.00000000000E+00  0.14999999963E+04  0.15000000000E+04  0.10566000000E+00 0. -1.
        994   -1    0    0    0    0 -0.00000000000E+00 -0.00000000000E+00  0.11368683772E-12  0.17120000000E+03  0.17120000000E+03 0.  0.
         13    1    1    2    0    0 -0.13367520763E+02 -0.11868355335E+02  0.25333675438E+02  0.31005721164E+02  0.10566000000E+00 0. -1.
        994    1    1    2    0    0  0.41399862212E+01  0.10514906449E+02  0.62210106451E+01  0.17168530431E+03  0.17120000000E+03 0.  0.
        998    1    1    2    0    0  0.92275345420E+01  0.13534488862E+01  0.14684453102E+04  0.14685089745E+04  0.10000000000E+02 0. -1.
</event>
<event>
 5    1  0.1294251E-008  0.3833223E+03  0.7957747E-01  0.3436819E+00
         13   -1    0    0    0    0  0.00000000000E+00  0.00000000000E+00  0.14999999963E+04  0.15000000000E+04  0.10566000000E+00 0.  1.
        994   -1    0    0    0    0 -0.00000000000E+00 -0.00000000000E+00  0.11368683772E-12  0.17120000000E+03  0.17120000000E+03 0.  0.
         13    1    1    2    0    0  0.34208873648E+01 -0.25672681812E+02  0.14711080239E+03  0.14937331893E+03  0.10566000000E+00 0.  1.
        994    1    1    2    0    0  0.17385646435E+02  0.82117286011E+01  0.36887714325E+01  0.17231581536E+03  0.17120000000E+03 0.  0.
        998    1    1    2    0    0 -0.20806533800E+02  0.17460953211E+02  0.13492004225E+04  0.13495108657E+04  0.10000000000E+02 0.  1.
</event>
<event>
 5    1  0.1294251E-008  0.3781703E+03  0.7957747E-01  0.3459164E+00
         13   -1    0    0    0    0  0.00000000000E+00  0.00000000000E+00  0.14999999963E+04  0.15000000000E+04  0.10566000000E+00 0.  1.
        994   -1    0    0    0    0 -0.00000000000E+00 -0.00000000000E+00  0.11368683772E-12  0.17120000000E+03  0.17120000000E+03 0.  0.
         13    1    1    2    0    0  0.62531149817E+02 -0.13859358983E+01  0.32404475831E+03  0.33002588091E+03  0.10566000000E+00 0.  1.
        994    1    1    2    0    0 -0.55402915917E+02  0.16606195309E+02  0.16394257346E+02  0.18144823088E+03  0.17120000000E+03 0.  0.
        998    1    1    2    0    0 -0.71282338998E+01 -0.15220259411E+02  0.11595609806E+04  0.11597258882E+04  0.10000000000E+02 0.  1.
</event>
<event>
 5    1  0.1294251E-008  0.3819693E+03  0.7957747E-01  0.3442628E+00
         13   -1    0    0    0    0  0.00000000000E+00  0.00000000000E+00  0.14999999963E+04  0.15000000000E+04  0.10566000000E+00 0.  1.
        994   -1    0    0    0    0 -0.00000000000E+00 -0.00000000000E+00  0.11368683772E-12  0.17120000000E+03  0.17120000000E+03 0.  0.
         13    1    1    2    0    0  0.21982747157E+01 -0.24380623876E+02  0.10466200581E+03  0.10748671479E+03  0.10566000000E+00 0.  1.
        994    1    1    2    0    0  0.13289394943E+02 -0.75688651535E+00  0.37310292788E+01  0.17175721666E+03  0.17120000000E+03 0.  0.
        998    1    1    2    0    0 -0.15487669658E+02  0.25137510391E+02  0.13916069612E+04  0.13919560686E+04  0.10000000000E+02 0.  1.
</event>
<event>
 5    1  0.1294251E-008  0.3849952E+03  0.7957747E-01  0.3429693E+00
         13   -1    0    0    0    0  0.00000000000E+00  0.00000000000E+00  0.14999999963E+04  0.15000000000E+04  0.10566000000E+00 0.  1.
        994   -1    0    0    0    0 -0.00000000000E+00 -0.00000000000E+00  0.11368683772E-12  0.17120000000E+03  0.17120000000E+03 0.  0.
         13    1    1    2    0    0 -0.16072157886E+02  0.12032179699E+01  0.84602934479E+02  0.86124501038E+02  0.10566000000E+00 0.  1.
        994    1    1    2    0    0  0.33110865606E+01  0.12594272606E+02  0.21904271372E+01  0.17170852328E+03  0.17120000000E+03 0.  0.
        998    1    1    2    0    0  0.12761071326E+02 -0.13797490576E+02  0.14132066347E+04  0.14133669757E+04  0.10000000000E+02 0.  1.
</event>
<event>
 5    1  0.1294251E-008  0.2552746E+03  0.7957747E-01  0.4278131E+00
         13   -1    0    0    0    0  0.00000000000E+00  0.00000000000E+00  0.14999999963E+04  0.15000000000E+04  0.10566000000E+00 0.  1.
        994   -1    0    0    0    0 -0.00000000000E+00 -0.00000000000E+00  0.11368683772E-12  0.17120000000E+03  0.17120000000E+03 0.  0.
         13    1    1    2    0    0  0.81731725108E+02 -0.17704241563E+03  0.53151378564E+03  0.56615457899E+03  0.10566000000E+00 0.  1.
        994    1    1    2    0    0 -0.88759134309E+02  0.23096376130E+02  0.91728460025E+02  0.21479100748E+03  0.17120000000E+03 0.  0.
        998    1    1    2    0    0  0.70274092014E+01  0.15394603950E+03  0.87675775061E+03  0.89025441353E+03  0.10000000000E+02 0.  1.
</event>
<event>
 5    1  0.1294251E-008  0.3827557E+03  0.7957747E-01  0.3439247E+00
         13   -1    0    0    0    0  0.00000000000E+00  0.00000000000E+00  0.14999999963E+04  0.15000000000E+04  0.10566000000E+00 0. -1.
        994   -1    0    0    0    0 -0.00000000000E+00 -0.00000000000E+00  0.11368683772E-12  0.17120000000E+03  0.17120000000E+03 0.  0.
         13    1    1    2    0    0  0.96741023497E+01  0.97043935007E+01  0.32231777787E+02  0.35023737277E+02  0.10566000000E+00 0. -1.
        994    1    1    2    0    0 -0.10363512486E+02 -0.14468334042E+02  0.37984891524E+01  0.17216446672E+03  0.17120000000E+03 0.  0.
        998    1    1    2    0    0  0.68941013673E+00  0.47639405416E+01  0.14639697293E+04  0.14640117960E+04  0.10000000000E+02 0. -1.
</event>
<event>
 5    1  0.1294251E-008  0.3848045E+03  0.7957747E-01  0.3430502E+00
         13   -1    0    0    0    0  0.00000000000E+00  0.00000000000E+00  0.14999999963E+04  0.15000000000E+04  0.10566000000E+00 0.  1.
        994   -1    0    0    0    0 -0.00000000000E+00 -0.00000000000E+00  0.11368683772E-12  0.17120000000E+03  0.17120000000E+03 0.  0.
         13    1    1    2    0    0  0.10858045805E+02  0.16165748804E+01  0.33794288732E+02  0.35532739663E+02  0.10566000000E+00 0.  1.
        994    1    1    2    0    0 -0.13386884309E+02  0.29534798358E+01  0.23459307444E+01  0.17176400993E+03  0.17120000000E+03 0.  0.
        998    1    1    2    0    0  0.25288385043E+01 -0.45700547162E+01  0.14638597768E+04  0.14639032504E+04  0.10000000000E+02 0.  1.
</event>
<event>
 5    1  0.1294251E-008  0.3823256E+03  0.7957747E-01  0.3441094E+00
         13   -1    0    0    0    0  0.00000000000E+00  0.00000000000E+00  0.14999999963E+04  0.15000000000E+04  0.10566000000E+00 0.  1.
        994   -1    0    0    0    0 -0.00000000000E+00 -0.00000000000E+00  0.11368683772E-12  0.17120000000E+03  0.17120000000E+03 0.  0.
         13    1    1    2    0    0 -0.64335621976E+01  0.30091691561E+02  0.17222488654E+03  0.17495234589E+03  0.10566000000E+00 0.  1.
        994    1    1    2    0    0 -0.14486434968E+01 -0.85562084636E+01  0.32136225241E+01  0.17144991875E+03  0.17120000000E+03 0.  0.
        998    1    1    2    0    0  0.78822056944E+01 -0.21535483098E+02  0.13245614872E+04  0.13247977354E+04  0.10000000000E+02 0.  1.
</event>
<event>
 5    1  0.1294251E-008  0.3756351E+03  0.7957747E-01  0.3470387E+00
         13   -1    0    0    0    0  0.00000000000E+00  0.00000000000E+00  0.14999999963E+04  0.15000000000E+04  0.10566000000E+00 0. -1.
        994   -1    0    0    0    0 -0.00000000000E+00 -0.00000000000E+00  0.11368683772E-12  0.17120000000E+03  0.17120000000E+03 0.  0.
         13    1    1    2    0    0  0.37204764311E+02 -0.14251016322E+02  0.12179395579E+03  0.12814470252E+03  0.10566000000E+00 0. -1.
        994    1    1    2    0    0 -0.22203089751E+02  0.13451425736E+02  0.86422039095E+01  0.17337256339E+03  0.17120000000E+03 0.  0.
        998    1    1    2    0    0 -0.15001674560E+02  0.79959058558E+00  0.13695638366E+04  0.13696827341E+04  0.10000000000E+02 0. -1.
</event>
<event>
 5    1  0.1294251E-008  0.3834683E+03  0.7957747E-01  0.3436195E+00
         13   -1    0    0    0    0  0.00000000000E+00  0.00000000000E+00  0.14999999963E+04  0.15000000000E+04  0.10566000000E+00 0.  1.
        994   -1    0    0    0    0 -0.00000000000E+00 -0.00000000000E+00  0.11368683772E-12  0.17120000000E+03  0.17120000000E+03 0.  0.
         13    1    1    2    0    0  0.15546226644E+02 -0.32991993813E+01  0.56793135527E+02  0.58974920826E+02  0.10566000000E+00 0.  1.
        994    1    1    2    0    0  0.76147267667E+01  0.48892234811E+01  0.26632195520E+01  0.17145967837E+03  0.17120000000E+03 0.  0.
        998    1    1    2    0    0 -0.23160953410E+02 -0.15900240998E+01  0.14405436412E+04  0.14407654008E+04  0.10000000000E+02 0.  1.
</event>
<event>
 5    1  0.1294251E-008  0.3838716E+03  0.7957747E-01  0.3434472E+00
         13   -1    0    0    0    0  0.00000000000E+00  0.00000000000E+00  0.14999999963E+04  0.15000000000E+04  0.10566000000E+00 0.  1.
        994   -1    0    0    0    0 -0.00000000000E+00 -0.00000000000E+00  0.11368683772E-12  0.17120000000E+03  0.17120000000E+03 0.  0.
         13    1    1    2    0    0  0.72518352429E+01 -0.25455809760E+02  0.13702350688E+03  0.13955658339E+03  0.10566000000E+00 0.  1.
        994    1    1    2    0    0 -0.14009960970E+02  0.32680048497E+02  0.63755723558E+01  0.17496957592E+03  0.17120000000E+03 0.  0.
        998    1    1    2    0    0  0.67581257275E+01 -0.72242387368E+01  0.13566009170E+04  0.13566738407E+04  0.10000000000E+02 0.  1.
</event>
<event>
 5    1  0.1294251E-008  0.3701865E+03  0.7957747E-01  0.3495034E+00
         13   -1    0    0    0    0  0.00000000000E+00  0.00000000000E+00  0.14999999963E+04  0.15000000000E+04  0.10566000000E+00 0.  1.
        994   -1    0    0    0    0 -0.00000000000E+00 -0.00000000000E+00  0.11368683772E-12  0.17120000000E+03  0.17120000000E+03 0.  0.
         13    1    1    2    0    0 -0.12875483464E+02  0.10875349800E+02  0.10963115288E+02  0.20106028165E+02  0.10566000000E+00 0.  1.
        994    1    1    2    0    0  0.15765494587E+02 -0.26360079874E+02  0.12438419605E+02  0.17437763306E+03  0.17120000000E+03 0.  0.
        998    1    1    2    0    0 -0.28900111225E+01  0.15484730074E+02  0.14765984614E+04  0.14767163388E+04  0.10000000000E+02 0.  1.
</event>
<event>
 5    1  0.1294251E-008  0.3850230E+03  0.7957747E-01  0.3429574E+00
         13   -1    0    0    0    0  0.00000000000E+00  0.00000000000E+00  0.14999999963E+04  0.15000000000E+04  0.10566000000E+00 0.  1.
        994   -1    0    0    0    0 -0.00000000000E+00 -0.00000000000E+00  0.11368683772E-12  0.17120000000E+03  0.17120000000E+03 0.  0.
         13    1    1    2    0    0 -0.44752972694E+00 -0.13643252671E+02  0.61287733082E+02  0.62789617109E+02  0.10566000000E+00 0.  1.
        994    1    1    2    0    0  0.47499621294E+01 -0.11333935571E+01  0.16971237188E+01  0.17127803989E+03  0.17120000000E+03 0.  0.
        998    1    1    2    0    0 -0.43024324025E+01  0.14776646228E+02  0.14370151395E+04  0.14371323430E+04  0.10000000000E+02 0.  1.
</event>
<event>
 5    1  0.1294251E-008  0.3739748E+03  0.7957747E-01  0.3477821E+00
         13   -1    0    0    0    0  0.00000000000E+00  0.00000000000E+00  0.14999999963E+04  0.15000000000E+04  0.10566000000E+00 0.  1.
        994   -1    0    0    0    0 -0.00000000000E+00 -0.00000000000E+00  0.11368683772E-12  0.17120000000E+03  0.17120000000E+03 0.  0.
         13    1    1    2    0    0 -0.10874105090E+02  0.37943148981E+02  0.98799929031E+02  0.10639250846E+03  0.10566000000E+00 0.  1.
        994    1    1    2    0    0  0.19906919734E+02 -0.36419245832E+02  0.13104863647E+02  0.17664604261E+03  0.17120000000E+03 0.  0.
        998    1    1    2    0    0 -0.90328146442E+01 -0.15239031488E+01  0.13880952036E+04  0.13881614489E+04  0.10000000000E+02 0.  1.
</event>
<event>
 5    1  0.1294251E-008  0.3808563E+03  0.7957747E-01  0.3447438E+00
         13   -1    0    0    0    0  0.00000000000E+00  0.00000000000E+00  0.14999999963E+04  0.15000000000E+04  0.10566000000E+00 0.  1.
        994   -1    0    0    0    0 -0.00000000000E+00 -0.00000000000E+00  0.11368683772E-12  0.17120000000E+03  0.17120000000E+03 0.  0.
         13    1    1    2    0    0 -0.22525530988E+02  0.67296468175E+00  0.73562516041E+02  0.76937035022E+02  0.10566000000E+00 0.  1.
        994    1    1    2    0    0 -0.48737113163E+01 -0.11351278351E+02  0.42103858726E+01  0.17169674409E+03  0.17120000000E+03 0.  0.
        998    1    1    2    0    0  0.27399242304E+02  0.10678313669E+02  0.14222270944E+04  0.14225662209E+04  0.10000000000E+02 0.  1.
</event>
<event>
 5    1  0.1294251E-008  0.3786079E+03  0.7957747E-01  0.3457243E+00
         13   -1    0    0    0    0  0.00000000000E+00  0.00000000000E+00  0.14999999963E+04  0.15000000000E+04  0.10566000000E+00 0. -1.
        994   -1    0    0    0    0 -0.00000000000E+00 -0.00000000000E+00  0.11368683772E-12  0.17120000000E+03  0.17120000000E+03 0.  0.
         13    1    1    2    0    0 -0.64430827118E+02  0.15512688192E+02  0.33931612350E+03  0.34572737498E+03  0.10566000000E+00 0. -1.
        994    1    1    2    0    0  0.69120107478E+02 -0.11065531089E+02  0.21473907743E+02  0.18620044025E+03  0.17120000000E+03 0.  0.
        998    1    1    2    0    0 -0.46892803602E+01 -0.44471571026E+01  0.11392099650E+04  0.11392721848E+04  0.10000000000E+02 0. -1.
</event>
<event>
 5    1  0.1294251E-008  0.3748045E+03  0.7957747E-01  0.3474098E+00
         13   -1    0    0    0    0  0.00000000000E+00  0.00000000000E+00  0.14999999963E+04  0.15000000000E+04  0.10566000000E+00 0. -1.
        994   -1    0    0    0    0 -0.00000000000E+00 -0.00000000000E+00  0.11368683772E-12  0.17120000000E+03  0.17120000000E+03 0.  0.
         13    1    1    2    0    0 -0.10553288417E+02 -0.11883122396E+02  0.31363694060E+01  0.16199644175E+02  0.10566000000E+00 0. -1.
        994    1    1    2    0    0  0.11970015810E+02  0.14558499887E+02  0.14766272021E+02  0.17286617363E+03  0.17120000000E+03 0.  0.
        998    1    1    2    0    0 -0.14167273935E+01 -0.26753774909E+01  0.14820973549E+04  0.14821341822E+04  0.10000000000E+02 0. -1.
</event>
<event>
 5    1  0.1294251E-008  0.3837054E+03  0.7957747E-01  0.3435181E+00
         13   -1    0    0    0    0  0.00000000000E+00  0.00000000000E+00  0.14999999963E+04  0.15000000000E+04  0.10566000000E+00 0.  1.
        994   -1    0    0    0    0 -0.00000000000E+00 -0.00000000000E+00  0.11368683772E-12  0.17120000000E+03  0.17120000000E+03 0.  0.
         13    1    1    2    0    0 -0.63567230740E+01  0.11549525812E+02  0.37210166783E+02  0.39476665902E+02  0.10566000000E+00 0.  1.
        994    1    1    2    0    0  0.68976140206E+01 -0.90551438601E+01  0.27022561560E+01  0.17159928583E+03  0.17120000000E+03 0.  0.
        998    1    1    2    0    0 -0.54089094660E+00 -0.24943819518E+01  0.14600875733E+04  0.14601240483E+04  0.10000000000E+02 0.  1.
</event>
<event>
 5    1  0.1294251E-008  0.2563631E+03  0.7957747E-01  0.4267027E+00
         13   -1    0    0    0    0  0.00000000000E+00  0.00000000000E+00  0.14999999963E+04  0.15000000000E+04  0.10566000000E+00 0. -1.
        994   -1    0    0    0    0 -0.00000000000E+00 -0.00000000000E+00  0.11368683772E-12  0.17120000000E+03  0.17120000000E+03 0.  0.
         13    1    1    2    0    0  0.39511734557E+02 -0.16239872179E+03  0.35030391724E+03  0.38813318282E+03  0.10566000000E+00 0. -1.
        994    1    1    2    0    0 -0.47521717214E+02  0.16070160538E+03  0.14865351160E+03  0.28194082019E+03  0.17120000000E+03 0.  0.
        998    1    1    2    0    0  0.80099826569E+01  0.16971164033E+01  0.10010425674E+04  0.10011259970E+04  0.10000000000E+02 0. -1.
</event>
<event>
 5    1  0.1294251E-008  0.3826198E+03  0.7957747E-01  0.3439830E+00
         13   -1    0    0    0    0  0.00000000000E+00  0.00000000000E+00  0.14999999963E+04  0.15000000000E+04  0.10566000000E+00 0.  1.
        994   -1    0    0    0    0 -0.00000000000E+00 -0.00000000000E+00  0.11368683772E-12  0.17120000000E+03  0.17120000000E+03 0.  0.
         13    1    1    2    0    0  0.22117257327E+02  0.99803832109E+01  0.13712975825E+03  0.13926005487E+03  0.10566000000E+00 0.  1.
        994    1    1    2    0    0  0.21611638437E+02  0.59511905738E+01  0.44836167492E+01  0.17271949052E+03  0.17120000000E+03 0.  0.
        998    1    1    2    0    0 -0.43728895764E+02 -0.15931573785E+02  0.13583866213E+04  0.13592204546E+04  0.10000000000E+02 0.  1.
</event>
<event>
 5    1  0.1294251E-008  0.3825637E+03  0.7957747E-01  0.3440071E+00
         13   -1    0    0    0    0  0.00000000000E+00  0.00000000000E+00  0.14999999963E+04  0.15000000000E+04  0.10566000000E+00 0. -1.
        994   -1    0    0    0    0 -0.00000000000E+00 -0.00000000000E+00  0.11368683772E-12  0.17120000000E+03  0.17120000000E+03 0.  0.
         13    1    1    2    0    0  0.70685594719E+01  0.17899626998E+02  0.67184109161E+02  0.69886170789E+02  0.10566000000E+00 0. -1.
        994    1    1    2    0    0  0.34052451750E+01 -0.50171518765E+01  0.29664453141E+01  0.17133303040E+03  0.17120000000E+03 0.  0.
        998    1    1    2    0    0 -0.10473804647E+02 -0.12882475121E+02  0.14298494418E+04  0.14299807988E+04  0.10000000000E+02 0. -1.
</event>
<event>
 5    1  0.1294251E-008  0.3841678E+03  0.7957747E-01  0.3433209E+00
         13   -1    0    0    0    0  0.00000000000E+00  0.00000000000E+00  0.14999999963E+04  0.15000000000E+04  0.10566000000E+00 0. -1.
        994   -1    0    0    0    0 -0.00000000000E+00 -0.00000000000E+00  0.11368683772E-12  0.17120000000E+03  0.17120000000E+03 0.  0.
         13    1    1    2    0    0  0.11094351524E+02  0.15058119361E+02  0.88619286238E+02  0.90571632710E+02  0.10566000000E+00 0. -1.
        994    1    1    2    0    0 -0.15222886238E+01 -0.64595527492E+01  0.21891313689E+01  0.17134256763E+03  0.17120000000E+03 0.  0.
        998    1    1    2    0    0 -0.95720629003E+01 -0.85985666115E+01  0.14091915787E+04  0.14092857997E+04  0.10000000000E+02 0. -1.
</event>
<event>
 5    1  0.1294251E-008  0.3833974E+03  0.7957747E-01  0.3436497E+00
         13   -1    0    0    0    0  0.00000000000E+00  0.00000000000E+00  0.14999999963E+04  0.15000000000E+04  0.10566000000E+00 0.  1.
        994   -1    0    0    0    0 -0.00000000000E+00 -0.00000000000E+00  0.11368683772E-12  0.17120000000E+03  0.17120000000E+03 0.  0.
         13    1    1    2    0    0  0.88375450814E+01  0.16254960563E+02  0.71065885974E+02  0.73434986616E+02  0.10566000000E+00 0.  1.
        994    1    1    2    0    0 -0.40011208196E+01 -0.78638972420E+01  0.26852807026E+01  0.17144824461E+03  0.17120000000E+03 0.  0.
        998    1    1    2    0    0 -0.48364242618E+01 -0.83910633206E+01  0.14262488296E+04  0.14263167688E+04  0.10000000000E+02 0.  1.
</event>
<event>
 5    1  0.1314438E-008  0.3855658E+03  0.7957747E-01  0.3427276E+00
         13   -1    0    0    0    0  0.00000000000E+00  0.00000000000E+00  0.14999999963E+04  0.15000000000E+04  0.10566000000E+00 0. -1.
        994   -1    0    0    0    0 -0.00000000000E+00 -0.00000000000E+00  0.11368683772E-12  0.17120000000E+03  0.17120000000E+03 0.  0.
         13    1    1    2    0    0  0.11001615684E+01 -0.11688513774E+02  0.52389906788E+02  0.53689339789E+02  0.10566000000E+00 0. -1.
        994    1    1    2    0    0 -0.42863697492E+01  0.42776855606E+01  0.14698755085E+01  0.17131337395E+03  0.17120000000E+03 0.  0.
        998    1    1    2    0    0  0.31862081808E+01  0.74108282138E+01  0.14461402140E+04  0.14461972863E+04  0.10000000000E+02 0. -1.
</event>
<event>
 5    1  0.1294251E-008  0.3827175E+03  0.7957747E-01  0.3439411E+00
         13   -1    0    0    0    0  0.00000000000E+00  0.00000000000E+00  0.14999999963E+04  0.15000000000E+04  0.10566000000E+00 0.  1.
        994   -1    0    0    0    0 -0.00000000000E+00 -0.00000000000E+00  0.11368683772E-12  0.17120000000E+03  0.17120000000E+03 0.  0.
         13    1    1    2    0    0 -0.13284410851E+02  0.62418721017E+01  0.38114341795E+02  0.40843001279E+02  0.10566000000E+00 0.  1.
        994    1    1    2    0    0  0.87459195853E+01 -0.28431048919E+01  0.30478636814E+01  0.17147391588E+03  0.17120000000E+03 0.  0.
        998    1    1    2    0    0  0.45384912654E+01 -0.33987672098E+01  0.14588377908E+04  0.14588830828E+04  0.10000000000E+02 0.  1.
</event>
<event>
 5    1  0.1294251E-008  0.3739038E+03  0.7957747E-01  0.3478140E+00
         13   -1    0    0    0    0  0.00000000000E+00  0.00000000000E+00  0.14999999963E+04  0.15000000000E+04  0.10566000000E+00 0.  1.
        994   -1    0    0    0    0 -0.00000000000E+00 -0.00000000000E+00  0.11368683772E-12  0.17120000000E+03  0.17120000000E+03 0.  0.
         13    1    1    2    0    0 -0.51085616567E+02 -0.61250681662E+01  0.17652439157E+03  0.18386986882E+03  0.10566000000E+00 0.  1.
        994    1    1    2    0    0  0.36445493973E+02 -0.14791599844E+02  0.12539387217E+02  0.17610718807E+03  0.17120000000E+03 0.  0.
        998    1    1    2    0    0  0.14640122594E+02  0.20916668010E+02  0.13109362175E+04  0.13112229431E+04  0.10000000000E+02 0.  1.
</event>
<event>
 5    1  0.1294251E-008  0.3819541E+03  0.7957747E-01  0.3442694E+00
         13   -1    0    0    0    0  0.00000000000E+00  0.00000000000E+00  0.14999999963E+04  0.15000000000E+04  0.10566000000E+00 0. -1.
        994   -1    0    0    0    0 -0.00000000000E+00 -0.00000000000E+00  0.11368683772E-12  0.17120000000E+03  0.17120000000E+03 0.  0.
         13    1    1    2    0    0  0.16302580622E+02  0.10000925223E+01  0.40379026419E+02  0.43557447797E+02  0.10566000000E+00 0. -1.
        994    1    1    2    0    0 -0.16200685445E+02 -0.41050342675E+01  0.40782399756E+01  0.17206215608E+03  0.17120000000E+03 0.  0.
        998    1    1    2    0    0 -0.10189517700E+00  0.31049417453E+01  0.14555427299E+04  0.14555803961E+04  0.10000000000E+02 0. -1.
</event>
<event>
 5    1  0.1294251E-008  0.3849498E+03  0.7957747E-01  0.3429885E+00
         13   -1    0    0    0    0  0.00000000000E+00  0.00000000000E+00  0.14999999963E+04  0.15000000000E+04  0.10566000000E+00 0.  1.
        994   -1    0    0    0    0 -0.00000000000E+00 -0.00000000000E+00  0.11368683772E-12  0.17120000000E+03  0.17120000000E+03 0.  0.
         13    1    1    2    0    0  0.37243785327E+01 -0.14631653408E+02  0.74734358370E+02  0.76244290028E+02  0.10566000000E+00 0.  1.
        994    1    1    2    0    0 -0.45584185992E+01 -0.32520205444E+01  0.17581986874E+01  0.17130057233E+03  0.17120000000E+03 0.  0.
        998    1    1    2    0    0  0.83404006648E+00  0.17883673953E+02  0.14235074392E+04  0.14236551376E+04  0.10000000000E+02 0.  1.
</event>
<event>
 5    1  0.1294251E-008  0.3826155E+03  0.7957747E-01  0.3439849E+00
         13   -1    0    0    0    0  0.00000000000E+00  0.00000000000E+00  0.14999999963E+04  0.15000000000E+04  0.10566000000E+00 0. -1.
        994   -1    0    0    0    0 -0.00000000000E+00 -0.00000000000E+00  0.11368683772E-12  0.17120000000E+03  0.17120000000E+03 0.  0.
         13    1    1    2    0    0 -0.17307368469E+02  0.25466979065E+01  0.50804125733E+02  0.53731750660E+02  0.10566000000E+00 0. -1.
        994    1    1    2    0    0  0.25128564104E+02  0.13284101388E+02  0.55009064008E+01  0.17363067717E+03  0.17120000000E+03 0.  0.
        998    1    1    2    0    0 -0.78211956355E+01 -0.15830799295E+02  0.14436949641E+04  0.14438375722E+04  0.10000000000E+02 0. -1.
</event>
<event>
 5    1  0.1294251E-008  0.3778524E+03  0.7957747E-01  0.3460563E+00
         13   -1    0    0    0    0  0.00000000000E+00  0.00000000000E+00  0.14999999963E+04  0.15000000000E+04  0.10566000000E+00 0. -1.
        994   -1    0    0    0    0 -0.00000000000E+00 -0.00000000000E+00  0.11368683772E-12  0.17120000000E+03  0.17120000000E+03 0.  0.
         13    1    1    2    0    0  0.28396580291E+02 -0.19569336458E+02  0.10795690454E+03  0.11333150093E+03  0.10566000000E+00 0. -1.
        994    1    1    2    0    0 -0.39432189660E+02 -0.60528345359E+01  0.10598374657E+02  0.17610593384E+03  0.17120000000E+03 0.  0.
        998    1    1    2    0    0  0.11035609369E+02  0.25622170994E+02  0.13814447171E+04  0.13817625652E+04  0.10000000000E+02 0. -1.
</event>
<event>
 5    1  0.1294251E-008  0.3957474E+03  0.7957747E-01  0.3385332E+00
         13   -1    0    0    0    0  0.00000000000E+00  0.00000000000E+00  0.14999999963E+04  0.15000000000E+04  0.10566000000E+00 0. -1.
        994   -1    0    0    0    0 -0.00000000000E+00 -0.00000000000E+00  0.11368683772E-12  0.17120000000E+03  0.17120000000E+03 0.  0.
         13    1    1    2    0    0  0.63421478270E+02 -0.25892587352E+02  0.77801332049E+02  0.10366179826E+03  0.10566000000E+00 0. -1.
        994    1    1    2    0    0 -0.72916118146E+02  0.31540455513E+02  0.49983021015E+02  0.19524165285E+03  0.17120000000E+03 0.  0.
        998    1    1    2    0    0  0.94946398756E+01 -0.56478681607E+01  0.13722156432E+04  0.13722965489E+04  0.10000000000E+02 0. -1.
</event>
<event>
 5    1  0.1294251E-008  0.3806401E+03  0.7957747E-01  0.3448376E+00
         13   -1    0    0    0    0  0.00000000000E+00  0.00000000000E+00  0.14999999963E+04  0.15000000000E+04  0.10566000000E+00 0.  1.
        994   -1    0    0    0    0 -0.00000000000E+00 -0.00000000000E+00  0.11368683772E-12  0.17120000000E+03  0.17120000000E+03 0.  0.
         13    1    1    2    0    0  0.73476090485E+01 -0.18178254983E+02  0.51929178233E+02  0.55507540289E+02  0.10566000000E+00 0.  1.
        994    1    1    2    0    0  0.49439232287E+02  0.19337281668E+02  0.13269212426E+02  0.17973224572E+03  0.17120000000E+03 0.  0.
        998    1    1    2    0    0 -0.56786841335E+02 -0.11590266849E+01  0.14348016056E+04  0.14359602140E+04  0.10000000000E+02 0.  1.
</event>
<event>
 5    1  0.1294251E-008  0.3810462E+03  0.7957747E-01  0.3446616E+00
         13   -1    0    0    0    0  0.00000000000E+00  0.00000000000E+00  0.14999999963E+04  0.15000000000E+04  0.10566000000E+00 0. -1.
        994   -1    0    0    0    0 -0.00000000000E+00 -0.00000000000E+00  0.11368683772E-12  0.17120000000E+03  0.17120000000E+03 0.  0.
         13    1    1    2    0    0 -0.22517386752E+01 -0.36217779016E+02  0.16676568837E+03  0.17066811016E+03  0.10566000000E+00 0. -1.
        994    1    1    2    0    0  0.31887923339E+01  0.33013573123E+02  0.72794088546E+01  0.17453508014E+03  0.17120000000E+03 0.  0.
        998    1    1    2    0    0 -0.93705365871E+00  0.32042058936E+01  0.13259548991E+04  0.13259968097E+04  0.10000000000E+02 0.  0.
</event>
<event>
 5    1  0.1294251E-008  0.3775025E+03  0.7957747E-01  0.3462106E+00
         13   -1    0    0    0    0  0.00000000000E+00  0.00000000000E+00  0.14999999963E+04  0.15000000000E+04  0.10566000000E+00 0. -1.
        994   -1    0    0    0    0 -0.00000000000E+00 -0.00000000000E+00  0.11368683772E-12  0.17120000000E+03  0.17120000000E+03 0.  0.
         13    1    1    2    0    0  0.17542268872E+02 -0.75137838166E+02  0.37048861992E+03  0.37843791377E+03  0.10566000000E+00 0. -1.
        994    1    1    2    0    0 -0.25088417615E+02  0.84810496636E+02  0.32237252717E+02  0.19537381990E+03  0.17120000000E+03 0.  0.
        998    1    1    2    0    0  0.75461487430E+01 -0.96726584693E+01  0.10972741236E+04  0.10973882663E+04  0.10000000000E+02 0. -1.
</event>
<event>
 5    1  0.1294251E-008  0.4010294E+03  0.7957747E-01  0.3364410E+00
         13   -1    0    0    0    0  0.00000000000E+00  0.00000000000E+00  0.14999999963E+04  0.15000000000E+04  0.10566000000E+00 0.  1.
        994   -1    0    0    0    0 -0.00000000000E+00 -0.00000000000E+00  0.11368683772E-12  0.17120000000E+03  0.17120000000E+03 0.  0.
         13    1    1    2    0    0 -0.22766300612E+02 -0.85065067807E+02  0.11696757938E+03  0.14640968545E+03  0.10566000000E+00 0.  1.
        994    1    1    2    0    0  0.24422753738E+02  0.87761595361E+02  0.61829562119E+02  0.20354582598E+03  0.17120000000E+03 0.  0.
        998    1    1    2    0    0 -0.16564531262E+01 -0.26965275546E+01  0.13212028548E+04  0.13212444886E+04  0.10000000000E+02 0.  1.
</event>
<event>
 5    1  0.1294251E-008  0.3844978E+03  0.7957747E-01  0.3431805E+00
         13   -1    0    0    0    0  0.00000000000E+00  0.00000000000E+00  0.14999999963E+04  0.15000000000E+04  0.10566000000E+00 0. -1.
        994   -1    0    0    0    0 -0.00000000000E+00 -0.00000000000E+00  0.11368683772E-12  0.17120000000E+03  0.17120000000E+03 0.  0.
         13    1    1    2    0    0 -0.20238706114E+02 -0.11458944351E+02  0.13685621977E+03  0.13881840182E+03  0.10566000000E+00 0. -1.
        994    1    1    2    0    0  0.14175945270E+02  0.15509177000E+02  0.33353237205E+01  0.17251682927E+03  0.17120000000E+03 0.  0.
        998    1    1    2    0    0  0.60627608444E+01 -0.40502326483E+01  0.13598084528E+04  0.13598647689E+04  0.10000000000E+02 0. -1.
</event>
<event>
 5    1  0.1294251E-008  0.3804698E+03  0.7957747E-01  0.3449116E+00
         13   -1    0    0    0    0  0.00000000000E+00  0.00000000000E+00  0.14999999963E+04  0.15000000000E+04  0.10566000000E+00 0.  1.
        994   -1    0    0    0    0 -0.00000000000E+00 -0.00000000000E+00  0.11368683772E-12  0.17120000000E+03  0.17120000000E+03 0.  0.
         13    1    1    2    0    0 -0.10380771913E+02  0.22286870633E+01  0.12713617458E+02  0.16564259852E+02  0.10566000000E+00 0.  1.
        994    1    1    2    0    0  0.96780692146E+01 -0.15158435855E+01  0.42165592027E+01  0.17153186928E+03  0.17120000000E+03 0.  0.
        998    1    1    2    0    0  0.70270269865E+00 -0.71284347782E+00  0.14830698196E+04  0.14831038709E+04  0.10000000000E+02 0.  1.
</event>
<event>
 5    1  0.1294251E-008  0.3730943E+03  0.7957747E-01  0.3481790E+00
         13   -1    0    0    0    0  0.00000000000E+00  0.00000000000E+00  0.14999999963E+04  0.15000000000E+04  0.10566000000E+00 0.  1.
        994   -1    0    0    0    0 -0.00000000000E+00 -0.00000000000E+00  0.11368683772E-12  0.17120000000E+03  0.17120000000E+03 0.  0.
         13    1    1    2    0    0  0.56068313202E+02 -0.16734834112E+03  0.96713708957E+03  0.98310898897E+03  0.10566000000E+00 0.  1.
        994    1    1    2    0    0 -0.59836348705E+02  0.14510585323E+03  0.97282653477E+02  0.25181233476E+03  0.17120000000E+03 0.  0.
        998    1    1    2    0    0  0.37680355034E+01  0.22242487883E+02  0.43558025324E+03  0.43627867627E+03  0.10000000000E+02 0.  1.
</event>
<event>
 5    1  0.1294251E-008  0.3849104E+03  0.7957747E-01  0.3430052E+00
         13   -1    0    0    0    0  0.00000000000E+00  0.00000000000E+00  0.14999999963E+04  0.15000000000E+04  0.10566000000E+00 0.  1.
        994   -1    0    0    0    0 -0.00000000000E+00 -0.00000000000E+00  0.11368683772E-12  0.17120000000E+03  0.17120000000E+03 0.  0.
         13    1    1    2    0    0 -0.60405673177E+00 -0.19039996999E+02  0.10146953293E+03  0.10324225709E+03  0.10566000000E+00 0.  1.
        994    1    1    2    0    0 -0.47064878847E+01  0.20795277140E+02  0.31714728993E+01  0.17255171057E+03  0.17120000000E+03 0.  0.
        998    1    1    2    0    0  0.53105446165E+01 -0.17552801407E+01  0.13953589904E+04  0.13954060323E+04  0.10000000000E+02 0.  1.
</event>
<event>
 5    1  0.1294251E-008  0.3806838E+03  0.7957747E-01  0.3448186E+00
         13   -1    0    0    0    0  0.00000000000E+00  0.00000000000E+00  0.14999999963E+04  0.15000000000E+04  0.10566000000E+00 0.  1.
        994   -1    0    0    0    0 -0.00000000000E+00 -0.00000000000E+00  0.11368683772E-12  0.17120000000E+03  0.17120000000E+03 0.  0.
         13    1    1    2    0    0  0.36280249665E+02 -0.45874688447E+02  0.32171738467E+03  0.32699056610E+03  0.10566000000E+00 0.  1.
        994    1    1    2    0    0 -0.33993788289E+02  0.60551985717E+02  0.20042909334E+02  0.18583131822E+03  0.17120000000E+03 0.  0.
        998    1    1    2    0    0 -0.22864613758E+01 -0.14677297270E+02  0.11582397023E+04  0.11583781157E+04  0.10000000000E+02 0. -1.
</event>
<event>
 5    1  0.1294251E-008  0.3845864E+03  0.7957747E-01  0.3431428E+00
         13   -1    0    0    0    0  0.00000000000E+00  0.00000000000E+00  0.14999999963E+04  0.15000000000E+04  0.10566000000E+00 0. -1.
        994   -1    0    0    0    0 -0.00000000000E+00 -0.00000000000E+00  0.11368683772E-12  0.17120000000E+03  0.17120000000E+03 0.  0.
         13    1    1    2    0    0  0.17370362546E+02 -0.20279435712E+01  0.79303384351E+02  0.81208866411E+02  0.10566000000E+00 0. -1.
        994    1    1    2    0    0 -0.19096093352E+02 -0.37839117174E+01  0.30845958558E+01  0.17233088377E+03  0.17120000000E+03 0.  0.
        998    1    1    2    0    0  0.17257308062E+01  0.58118552886E+01  0.14176120161E+04  0.14176602498E+04  0.10000000000E+02 0. -1.
</event>
<event>
 5    1  0.1294251E-008  0.3806635E+03  0.7957747E-01  0.3448275E+00
         13   -1    0    0    0    0  0.00000000000E+00  0.00000000000E+00  0.14999999963E+04  0.15000000000E+04  0.10566000000E+00 0.  1.
        994   -1    0    0    0    0 -0.00000000000E+00 -0.00000000000E+00  0.11368683772E-12  0.17120000000E+03  0.17120000000E+03 0.  0.
         13    1    1    2    0    0  0.73142305324E+01  0.79438861811E+01  0.13786218860E+02  0.17512118388E+02  0.10566000000E+00 0.  1.
        994    1    1    2    0    0  0.10971045073E+01 -0.88716694019E+01  0.40652034399E+01  0.17148141601E+03  0.17120000000E+03 0.  0.
        998    1    1    2    0    0 -0.84113350398E+01  0.92778322077E+00  0.14821485740E+04  0.14822064656E+04  0.10000000000E+02 0.  1.
</event>
<event>
 5    1  0.1294251E-008  0.3780837E+03  0.7957747E-01  0.3459545E+00
         13   -1    0    0    0    0  0.00000000000E+00  0.00000000000E+00  0.14999999963E+04  0.15000000000E+04  0.10566000000E+00 0.  1.
        994   -1    0    0    0    0 -0.00000000000E+00 -0.00000000000E+00  0.11368683772E-12  0.17120000000E+03  0.17120000000E+03 0.  0.
         13    1    1    2    0    0  0.16544720801E+02  0.16342285326E+02  0.54191109271E+02  0.58970209124E+02  0.10566000000E+00 0.  1.
        994    1    1    2    0    0  0.63607985758E+00  0.16549631698E+01  0.51141812182E+01  0.17128554624E+03  0.17120000000E+03 0.  0.
        998    1    1    2    0    0 -0.17180800658E+02 -0.17997248496E+02  0.14406947058E+04  0.14409442446E+04  0.10000000000E+02 0.  1.
</event>
<event>
 5    1  0.1294251E-008  0.3855646E+03  0.7957747E-01  0.3427281E+00
         13   -1    0    0    0    0  0.00000000000E+00  0.00000000000E+00  0.14999999963E+04  0.15000000000E+04  0.10566000000E+00 0. -1.
        994   -1    0    0    0    0 -0.00000000000E+00 -0.00000000000E+00  0.11368683772E-12  0.17120000000E+03  0.17120000000E+03 0.  0.
         13    1    1    2    0    0  0.51404350634E+01  0.91735489885E+01  0.40632382683E+02  0.41971177732E+02  0.10566000000E+00 0. -1.
        994    1    1    2    0    0 -0.44205360960E+01 -0.81463747717E+01  0.16321043963E+01  0.17145847406E+03  0.17120000000E+03 0.  0.
        998    1    1    2    0    0 -0.71989896740E+00 -0.10271742169E+01  0.14577355092E+04  0.14577703482E+04  0.10000000000E+02 0. -1.
</event>
<event>
 5    1  0.1294251E-008  0.3696529E+03  0.7957747E-01  0.3497488E+00
         13   -1    0    0    0    0  0.00000000000E+00  0.00000000000E+00  0.14999999963E+04  0.15000000000E+04  0.10566000000E+00 0.  1.
        994   -1    0    0    0    0 -0.00000000000E+00 -0.00000000000E+00  0.11368683772E-12  0.17120000000E+03  0.17120000000E+03 0.  0.
         13    1    1    2    0    0 -0.82510028794E+02 -0.26066933998E+02  0.28052727008E+03  0.29356932796E+03  0.10566000000E+00 0.  1.
        994    1    1    2    0    0  0.67128580837E+02  0.80262821406E+02  0.50027096428E+02  0.20678616308E+03  0.17120000000E+03 0.  0.
        998    1    1    2    0    0  0.15381447957E+02 -0.54195887408E+02  0.11694456298E+04  0.11708445090E+04  0.10000000000E+02 0.  1.
</event>
<event>
 5    1  0.1294251E-008  0.3854496E+03  0.7957747E-01  0.3427767E+00
         13   -1    0    0    0    0  0.00000000000E+00  0.00000000000E+00  0.14999999963E+04  0.15000000000E+04  0.10566000000E+00 0.  1.
        994   -1    0    0    0    0 -0.00000000000E+00 -0.00000000000E+00  0.11368683772E-12  0.17120000000E+03  0.17120000000E+03 0.  0.
         13    1    1    2    0    0 -0.14069152454E+02  0.10279647210E+01  0.69012203901E+02  0.70439287429E+02  0.10566000000E+00 0.  1.
        994    1    1    2    0    0  0.13722523017E+02  0.28697894608E+01  0.20527511542E+01  0.17178532276E+03  0.17120000000E+03 0.  0.
        998    1    1    2    0    0  0.34662943658E+00 -0.38977541818E+01  0.14289350412E+04  0.14289753898E+04  0.10000000000E+02 0.  1.
</event>
<event>
 5    1  0.1294251E-008  0.3853524E+03  0.7957747E-01  0.3428179E+00
         13   -1    0    0    0    0  0.00000000000E+00  0.00000000000E+00  0.14999999963E+04  0.15000000000E+04  0.10566000000E+00 0.  1.
        994   -1    0    0    0    0 -0.00000000000E+00 -0.00000000000E+00  0.11368683772E-12  0.17120000000E+03  0.17120000000E+03 0.  0.
         13    1    1    2    0    0 -0.17865093490E+02 -0.56985039721E+01  0.11171781516E+03  0.11328069518E+03  0.10566000000E+00 0.  1.
        994    1    1    2    0    0  0.36592471601E+02 -0.33199759742E+02  0.95159474544E+01  0.17844110031E+03  0.17120000000E+03 0.  0.
        998    1    1    2    0    0 -0.18727378110E+02  0.38898263714E+02  0.13787662337E+04  0.13794782045E+04  0.10000000000E+02 0.  1.
</event>
<event>
 5    1  0.1294251E-008  0.2953888E+03  0.7957747E-01  0.3929499E+00
         13   -1    0    0    0    0  0.00000000000E+00  0.00000000000E+00  0.14999999963E+04  0.15000000000E+04  0.10566000000E+00 0. -1.
        994   -1    0    0    0    0 -0.00000000000E+00 -0.00000000000E+00  0.11368683772E-12  0.17120000000E+03  0.17120000000E+03 0.  0.
         13    1    1    2    0    0  0.18310491251E+03  0.43206229695E+02  0.58664585360E+03  0.61607431044E+03  0.10566000000E+00 0. -1.
        994    1    1    2    0    0 -0.19097248978E+03 -0.43186430040E+02  0.16792182286E+03  0.30958478351E+03  0.17120000000E+03 0.  0.
        998    1    1    2    0    0  0.78675772685E+01 -0.19799654967E-01  0.74543231982E+03  0.74554090605E+03  0.10000000000E+02 0. -1.
</event>
<event>
 5    1  0.1294251E-008  0.3694201E+03  0.7957747E-01  0.3498560E+00
         13   -1    0    0    0    0  0.00000000000E+00  0.00000000000E+00  0.14999999963E+04  0.15000000000E+04  0.10566000000E+00 0.  1.
        994   -1    0    0    0    0 -0.00000000000E+00 -0.00000000000E+00  0.11368683772E-12  0.17120000000E+03  0.17120000000E+03 0.  0.
         13    1    1    2    0    0  0.70047645621E+01 -0.21718707702E+02  0.23300828053E+02  0.32614548024E+02  0.10566000000E+00 0.  1.
        994    1    1    2    0    0  0.58500050835E+00  0.14849244202E+02  0.10338000762E+02  0.17215445547E+03  0.17120000000E+03 0.  0.
        998    1    1    2    0    0 -0.75897650705E+01  0.68694634998E+01  0.14663611675E+04  0.14664309965E+04  0.10000000000E+02 0.  0.
</event>
<event>
 5    1  0.1294251E-008  0.3717998E+03  0.7957747E-01  0.3487660E+00
         13   -1    0    0    0    0  0.00000000000E+00  0.00000000000E+00  0.14999999963E+04  0.15000000000E+04  0.10566000000E+00 0. -1.
        994   -1    0    0    0    0 -0.00000000000E+00 -0.00000000000E+00  0.11368683772E-12  0.17120000000E+03  0.17120000000E+03 0.  0.
         13    1    1    2    0    0  0.19453993446E+02  0.84857633707E+01  0.26311292706E+02  0.33804753051E+02  0.10566000000E+00 0. -1.
        994    1    1    2    0    0  0.45276347172E+02 -0.22317440893E+02  0.17138494634E+02  0.17930751178E+03  0.17120000000E+03 0.  0.
        998    1    1    2    0    0 -0.64730340618E+02  0.13831677522E+02  0.14565502089E+04  0.14580877352E+04  0.10000000000E+02 0. -1.
</event>
<event>
 5    1  0.1294251E-008  0.3814902E+03  0.7957747E-01  0.3444695E+00
         13   -1    0    0    0    0  0.00000000000E+00  0.00000000000E+00  0.14999999963E+04  0.15000000000E+04  0.10566000000E+00 0. -1.
        994   -1    0    0    0    0 -0.00000000000E+00 -0.00000000000E+00  0.11368683772E-12  0.17120000000E+03  0.17120000000E+03 0.  0.
         13    1    1    2    0    0 -0.24622059388E+01 -0.10796306603E+02  0.16457788235E+02  0.19836649213E+02  0.10566000000E+00 0. -1.
        994    1    1    2    0    0  0.54020831927E+01  0.13039545052E+02  0.40457351281E+01  0.17182846159E+03  0.17120000000E+03 0.  0.
        998    1    1    2    0    0 -0.29398772538E+01 -0.22432384490E+01  0.14794964729E+04  0.14795348892E+04  0.10000000000E+02 0. -1.
</event>
<event>
 5    1  0.1294251E-008  0.3806034E+03  0.7957747E-01  0.3448535E+00
         13   -1    0    0    0    0  0.00000000000E+00  0.00000000000E+00  0.14999999963E+04  0.15000000000E+04  0.10566000000E+00 0. -1.
        994   -1    0    0    0    0 -0.00000000000E+00 -0.00000000000E+00  0.11368683772E-12  0.17120000000E+03  0.17120000000E+03 0.  0.
         13    1    1    2    0    0  0.13794608670E+02  0.12360387006E+02  0.42584547218E+02  0.46438402439E+02  0.10566000000E+00 0. -1.
        994    1    1    2    0    0 -0.22246102189E+01 -0.23548081885E+02  0.56976111831E+01  0.17292010821E+03  0.17120000000E+03 0.  0.
        998    1    1    2    0    0 -0.11569998451E+02  0.11187694879E+02  0.14517178379E+04  0.14518414893E+04  0.10000000000E+02 0. -1.
</event>
<event>
 5    1  0.1294251E-008  0.3764143E+03  0.7957747E-01  0.3466922E+00
         13   -1    0    0    0    0  0.00000000000E+00  0.00000000000E+00  0.14999999963E+04  0.15000000000E+04  0.10566000000E+00 0.  1.
        994   -1    0    0    0    0 -0.00000000000E+00 -0.00000000000E+00  0.11368683772E-12  0.17120000000E+03  0.17120000000E+03 0.  0.
         13    1    1    2    0    0  0.40529379183E+02  0.46581657035E+02  0.12560297045E+03  0.13995927514E+03  0.10566000000E+00 0.  1.
        994    1    1    2    0    0 -0.91123845955E+01 -0.51195556722E+02  0.24106314546E+02  0.18053967703E+03  0.17120000000E+03 0.  0.
        998    1    1    2    0    0 -0.31416994587E+02  0.46138996871E+01  0.13502907113E+04  0.13507010478E+04  0.10000000000E+02 0.  1.
</event>
<event>
 5    1  0.1294251E-008  0.3843556E+03  0.7957747E-01  0.3432410E+00
         13   -1    0    0    0    0  0.00000000000E+00  0.00000000000E+00  0.14999999963E+04  0.15000000000E+04  0.10566000000E+00 0.  1.
        994   -1    0    0    0    0 -0.00000000000E+00 -0.00000000000E+00  0.11368683772E-12  0.17120000000E+03  0.17120000000E+03 0.  0.
         13    1    1    2    0    0 -0.58299683164E+02  0.71472918787E+02  0.20750598858E+03  0.22708143393E+03  0.10566000000E+00 0.  1.
        994    1    1    2    0    0  0.61766940286E+02 -0.44012675314E+02  0.40245023239E+02  0.19152381679E+03  0.17120000000E+03 0.  0.
        998    1    1    2    0    0 -0.34672571217E+01 -0.27460243473E+02  0.12522489845E+04  0.12525947493E+04  0.10000000000E+02 0.  1.
</event>
<event>
 5    1  0.1294251E-008  0.3823486E+03  0.7957747E-01  0.3440996E+00
         13   -1    0    0    0    0  0.00000000000E+00  0.00000000000E+00  0.14999999963E+04  0.15000000000E+04  0.10566000000E+00 0. -1.
        994   -1    0    0    0    0 -0.00000000000E+00 -0.00000000000E+00  0.11368683772E-12  0.17120000000E+03  0.17120000000E+03 0.  0.
         13    1    1    2    0    0 -0.19252393934E+02 -0.22096000482E+02  0.13903512049E+03  0.14209033677E+03  0.10566000000E+00 0. -1.
        994    1    1    2    0    0  0.12072301192E+02  0.20013968027E+02  0.47665511079E+01  0.17285386713E+03  0.17120000000E+03 0.  0.
        998    1    1    2    0    0  0.71800927416E+01  0.20820324550E+01  0.13561983247E+04  0.13562557961E+04  0.10000000000E+02 0. -1.
</event>
<event>
 5    1  0.1294251E-008  0.3709490E+03  0.7957747E-01  0.3491541E+00
         13   -1    0    0    0    0  0.00000000000E+00  0.00000000000E+00  0.14999999963E+04  0.15000000000E+04  0.10566000000E+00 0.  1.
        994   -1    0    0    0    0 -0.00000000000E+00 -0.00000000000E+00  0.11368683772E-12  0.17120000000E+03  0.17120000000E+03 0.  0.
         13    1    1    2    0    0 -0.18620753152E+01  0.10997961093E+02  0.30505509985E+01  0.11564579461E+02  0.10566000000E+00 0.  1.
        994    1    1    2    0    0  0.26786206257E+01 -0.49132095001E+01  0.88818377679E+01  0.17152154873E+03  0.17120000000E+03 0.  0.
        998    1    1    2    0    0 -0.81654531051E+00 -0.60847515927E+01  0.14880676075E+04  0.14881138718E+04  0.10000000000E+02 0.  1.
</event>
<event>
 5    1  0.1294251E-008  0.3801765E+03  0.7957747E-01  0.3450390E+00
         13   -1    0    0    0    0  0.00000000000E+00  0.00000000000E+00  0.14999999963E+04  0.15000000000E+04  0.10566000000E+00 0.  1.
        994   -1    0    0    0    0 -0.00000000000E+00 -0.00000000000E+00  0.11368683772E-12  0.17120000000E+03  0.17120000000E+03 0.  0.
         13    1    1    2    0    0 -0.34669130291E+02 -0.16818649544E+02  0.16713019803E+03  0.17151480935E+03  0.10566000000E+00 0.  1.
        994    1    1    2    0    0  0.33153264508E+02  0.12761393184E+02  0.82718758901E+01  0.17504244067E+03  0.17120000000E+03 0.  0.
        998    1    1    2    0    0  0.15158657825E+01  0.40572563602E+01  0.13245979224E+04  0.13246427500E+04  0.10000000000E+02 0.  1.
</event>
<event>
 5    1  0.1294251E-008  0.3857564E+03  0.7957747E-01  0.3426470E+00
         13   -1    0    0    0    0  0.00000000000E+00  0.00000000000E+00  0.14999999963E+04  0.15000000000E+04  0.10566000000E+00 0. -1.
        994   -1    0    0    0    0 -0.00000000000E+00 -0.00000000000E+00  0.11368683772E-12  0.17120000000E+03  0.17120000000E+03 0.  0.
         13    1    1    2    0    0  0.97871656181E+01  0.96230488774E+01  0.79073335757E+02  0.80255811455E+02  0.10566000000E+00 0. -1.
        994    1    1    2    0    0  0.11285689783E+00 -0.51339207562E+01  0.13415616713E+01  0.17128225146E+03  0.17120000000E+03 0.  0.
        998    1    1    2    0    0 -0.99000225159E+01 -0.44891281212E+01  0.14195850989E+04  0.14196619371E+04  0.10000000000E+02 0. -1.
</event>
<event>
 5    1  0.1294251E-008  0.3830798E+03  0.7957747E-01  0.3437857E+00
         13   -1    0    0    0    0  0.00000000000E+00  0.00000000000E+00  0.14999999963E+04  0.15000000000E+04  0.10566000000E+00 0.  1.
        994   -1    0    0    0    0 -0.00000000000E+00 -0.00000000000E+00  0.11368683772E-12  0.17120000000E+03  0.17120000000E+03 0.  0.
         13    1    1    2    0    0  0.68357384943E+01 -0.15227668251E+02  0.57111546125E+02  0.59500832481E+02  0.10566000000E+00 0.  1.
        994    1    1    2    0    0  0.99192400974E+01  0.15610894025E+00  0.29122553405E+01  0.17151191482E+03  0.17120000000E+03 0.  0.
        998    1    1    2    0    0 -0.16754978592E+02  0.15071559310E+02  0.14399761948E+04  0.14401872527E+04  0.10000000000E+02 0.  1.
</event>
<event>
 5    1  0.1294251E-008  0.3804562E+03  0.7957747E-01  0.3449175E+00
         13   -1    0    0    0    0  0.00000000000E+00  0.00000000000E+00  0.14999999963E+04  0.15000000000E+04  0.10566000000E+00 0.  1.
        994   -1    0    0    0    0 -0.00000000000E+00 -0.00000000000E+00  0.11368683772E-12  0.17120000000E+03  0.17120000000E+03 0.  0.
         13    1    1    2    0    0  0.37376226635E+01  0.57255438378E+02  0.29879197318E+03  0.30425122752E+03  0.10566000000E+00 0.  1.
        994    1    1    2    0    0 -0.14419091439E+02 -0.69839705498E+02  0.21068650200E+02  0.18665160777E+03  0.17120000000E+03 0.  0.
        998    1    1    2    0    0  0.10681468776E+02  0.12584267119E+02  0.11801393729E+04  0.11802971647E+04  0.10000000000E+02 0.  1.
</event>
<event>
 5    1  0.1294251E-008  0.3765599E+03  0.7957747E-01  0.3466276E+00
         13   -1    0    0    0    0  0.00000000000E+00  0.00000000000E+00  0.14999999963E+04  0.15000000000E+04  0.10566000000E+00 0. -1.
        994   -1    0    0    0    0 -0.00000000000E+00 -0.00000000000E+00  0.11368683772E-12  0.17120000000E+03  0.17120000000E+03 0.  0.
         13    1    1    2    0    0  0.60406813291E+02  0.47256733906E+01  0.26209057987E+03  0.26900334254E+03  0.10566000000E+00 0. -1.
        994    1    1    2    0    0 -0.57296240791E+02 -0.13791956949E+02  0.17715411562E+02  0.18192403110E+03  0.17120000000E+03 0.  0.
        998    1    1    2    0    0 -0.31105724996E+01  0.90662835580E+01  0.12201940048E+04  0.12202726264E+04  0.10000000000E+02 0. -1.
</event>
<event>
 5    1  0.1294251E-008  0.3791297E+03  0.7957747E-01  0.3454957E+00
         13   -1    0    0    0    0  0.00000000000E+00  0.00000000000E+00  0.14999999963E+04  0.15000000000E+04  0.10566000000E+00 0. -1.
        994   -1    0    0    0    0 -0.00000000000E+00 -0.00000000000E+00  0.11368683772E-12  0.17120000000E+03  0.17120000000E+03 0.  0.
         13    1    1    2    0    0 -0.38202994076E+02  0.96808222589E+02  0.27994532521E+03  0.29866485730E+03  0.10566000000E+00 0. -1.
        994    1    1    2    0    0  0.40957916184E+02 -0.89422884877E+02  0.51683585037E+02  0.20409467460E+03  0.17120000000E+03 0.  0.
        998    1    1    2    0    0 -0.27549221082E+01 -0.73853377118E+01  0.11683710860E+04  0.11684404681E+04  0.10000000000E+02 0. -1.
</event>
<event>
 5    1  0.1294251E-008  0.3740970E+03  0.7957747E-01  0.3477271E+00
         13   -1    0    0    0    0  0.00000000000E+00  0.00000000000E+00  0.14999999963E+04  0.15000000000E+04  0.10566000000E+00 0.  1.
        994   -1    0    0    0    0 -0.00000000000E+00 -0.00000000000E+00  0.11368683772E-12  0.17120000000E+03  0.17120000000E+03 0.  0.
         13    1    1    2    0    0 -0.29806962013E+02 -0.43805585838E+00  0.57001009832E+02  0.64325524975E+02  0.10566000000E+00 0.  1.
        994    1    1    2    0    0  0.32411473236E+02 -0.47398190083E+00  0.10734096019E+02  0.17457201687E+03  0.17120000000E+03 0.  0.
        998    1    1    2    0    0 -0.26045112232E+01  0.91203775920E+00  0.14322648904E+04  0.14323024582E+04  0.10000000000E+02 0.  1.
</event>
<event>
 5    1  0.1294251E-008  0.3723768E+03  0.7957747E-01  0.3485038E+00
         13   -1    0    0    0    0  0.00000000000E+00  0.00000000000E+00  0.14999999963E+04  0.15000000000E+04  0.10566000000E+00 0. -1.
        994   -1    0    0    0    0 -0.00000000000E+00 -0.00000000000E+00  0.11368683772E-12  0.17120000000E+03  0.17120000000E+03 0.  0.
         13    1    1    2    0    0 -0.37176564532E+01  0.20514126487E+02  0.22799158700E+02  0.30894387135E+02  0.10566000000E+00 0. -1.
        994    1    1    2    0    0  0.30816404648E+01 -0.29747522690E+02  0.11105562862E+02  0.17414702162E+03  0.17120000000E+03 0.  0.
        998    1    1    2    0    0  0.63601598849E+00  0.92333962032E+01  0.14660952747E+04  0.14661585912E+04  0.10000000000E+02 0. -1.
</event>
<event>
 5    1  0.1294251E-008  0.3819935E+03  0.7957747E-01  0.3442524E+00
         13   -1    0    0    0    0  0.00000000000E+00  0.00000000000E+00  0.14999999963E+04  0.15000000000E+04  0.10566000000E+00 0.  1.
        994   -1    0    0    0    0 -0.00000000000E+00 -0.00000000000E+00  0.11368683772E-12  0.17120000000E+03  0.17120000000E+03 0.  0.
         13    1    1    2    0    0  0.14417303965E+02 -0.46884039351E+01  0.33824745089E+02  0.37067024826E+02  0.10566000000E+00 0.  1.
        994    1    1    2    0    0 -0.20988396785E+02  0.14796065222E+02  0.53232837469E+01  0.17319703720E+03  0.17120000000E+03 0.  0.
        998    1    1    2    0    0  0.65710928199E+01 -0.10107661287E+02  0.14608519674E+04  0.14609359380E+04  0.10000000000E+02 0.  1.
</event>
<event>
 5    1  0.1294251E-008  0.3822699E+03  0.7957747E-01  0.3441334E+00
         13   -1    0    0    0    0  0.00000000000E+00  0.00000000000E+00  0.14999999963E+04  0.15000000000E+04  0.10566000000E+00 0.  1.
        994   -1    0    0    0    0 -0.00000000000E+00 -0.00000000000E+00  0.11368683772E-12  0.17120000000E+03  0.17120000000E+03 0.  0.
         13    1    1    2    0    0 -0.11024980634E+03 -0.36855773295E+02  0.46719232325E+03  0.48143747870E+03  0.10566000000E+00 0.  1.
        994    1    1    2    0    0  0.32121183748E+02  0.27743250348E+02  0.24191056832E+02  0.17803400129E+03  0.17120000000E+03 0.  0.
        998    1    1    2    0    0  0.78128622593E+02  0.91125229467E+01  0.10086166162E+04  0.10117285200E+04  0.10000000000E+02 0. -1.
</event>
<event>
 5    1  0.1294251E-008  0.3832682E+03  0.7957747E-01  0.3437050E+00
         13   -1    0    0    0    0  0.00000000000E+00  0.00000000000E+00  0.14999999963E+04  0.15000000000E+04  0.10566000000E+00 0.  1.
        994   -1    0    0    0    0 -0.00000000000E+00 -0.00000000000E+00  0.11368683772E-12  0.17120000000E+03  0.17120000000E+03 0.  0.
         13    1    1    2    0    0 -0.84897375995E+00 -0.17908923999E+02  0.72006652123E+02  0.74205252033E+02  0.10566000000E+00 0.  1.
        994    1    1    2    0    0 -0.42332392666E+01 -0.98626292811E+01  0.28734628796E+01  0.17156016018E+03  0.17120000000E+03 0.  0.
        998    1    1    2    0    0  0.50822130265E+01  0.27771553280E+02  0.14251198813E+04  0.14254345878E+04  0.10000000000E+02 0.  1.
</event>
<event>
 5    1  0.1294251E-008  0.3745757E+03  0.7957747E-01  0.3475122E+00
         13   -1    0    0    0    0  0.00000000000E+00  0.00000000000E+00  0.14999999963E+04  0.15000000000E+04  0.10566000000E+00 0.  1.
        994   -1    0    0    0    0 -0.00000000000E+00 -0.00000000000E+00  0.11368683772E-12  0.17120000000E+03  0.17120000000E+03 0.  0.
         13    1    1    2    0    0 -0.89987874302E+01  0.11028883736E+02  0.11429672202E+02  0.18255492936E+02  0.10566000000E+00 0.  1.
        994    1    1    2    0    0  0.83766269059E+01 -0.15530692811E+02  0.79573916565E+01  0.17229083080E+03  0.17120000000E+03 0.  0.
        998    1    1    2    0    0  0.62216052433E+00  0.45018090749E+01  0.14806129324E+04  0.14806536763E+04  0.10000000000E+02 0.  1.
</event>
<event>
 5    1  0.1294251E-008  0.3809951E+03  0.7957747E-01  0.3446837E+00
         13   -1    0    0    0    0  0.00000000000E+00  0.00000000000E+00  0.14999999963E+04  0.15000000000E+04  0.10566000000E+00 0.  1.
        994   -1    0    0    0    0 -0.00000000000E+00 -0.00000000000E+00  0.11368683772E-12  0.17120000000E+03  0.17120000000E+03 0.  0.
         13    1    1    2    0    0 -0.23963506726E+02  0.24158103919E+01  0.76458674555E+02  0.80162496675E+02  0.10566000000E+00 0.  1.
        994    1    1    2    0    0  0.21606744128E+02  0.54383674019E+01  0.52874858143E+01  0.17272470795E+03  0.17120000000E+03 0.  0.
        998    1    1    2    0    0  0.23567625984E+01 -0.78541777938E+01  0.14182538359E+04  0.14183127954E+04  0.10000000000E+02 0.  1.
</event>
<event>
 5    1  0.1294251E-008  0.3689043E+03  0.7957747E-01  0.3500942E+00
         13   -1    0    0    0    0  0.00000000000E+00  0.00000000000E+00  0.14999999963E+04  0.15000000000E+04  0.10566000000E+00 0. -1.
        994   -1    0    0    0    0 -0.00000000000E+00 -0.00000000000E+00  0.11368683772E-12  0.17120000000E+03  0.17120000000E+03 0.  0.
         13    1    1    2    0    0 -0.37664237539E+02 -0.87992736864E+01  0.69558124682E+02  0.79588729605E+02  0.10566000000E+00 0. -1.
        994    1    1    2    0    0  0.36667287604E+02  0.86146001442E+01  0.14782960012E+02  0.17591667693E+03  0.17120000000E+03 0.  0.
        998    1    1    2    0    0  0.99694993527E+00  0.18467354213E+00  0.14156589116E+04  0.14156945935E+04  0.10000000000E+02 0.  0.
</event>
<event>
 5    1  0.1294251E-008  0.3825922E+03  0.7957747E-01  0.3439949E+00
         13   -1    0    0    0    0  0.00000000000E+00  0.00000000000E+00  0.14999999963E+04  0.15000000000E+04  0.10566000000E+00 0. -1.
        994   -1    0    0    0    0 -0.00000000000E+00 -0.00000000000E+00  0.11368683772E-12  0.17120000000E+03  0.17120000000E+03 0.  0.
         13    1    1    2    0    0 -0.90330929238E+01 -0.10203391796E+02  0.31352687486E+02  0.34186373726E+02  0.10566000000E+00 0. -1.
        994    1    1    2    0    0  0.11181875269E+02  0.79870691783E+01  0.34564326650E+01  0.17178537346E+03  0.17120000000E+03 0.  0.
        998    1    1    2    0    0 -0.21487823452E+01  0.22163226177E+01  0.14651908761E+04  0.14652282528E+04  0.10000000000E+02 0. -1.
</event>
<event>
 5    1  0.1294251E-008  0.3800884E+03  0.7957747E-01  0.3450774E+00
         13   -1    0    0    0    0  0.00000000000E+00  0.00000000000E+00  0.14999999963E+04  0.15000000000E+04  0.10566000000E+00 0. -1.
        994   -1    0    0    0    0 -0.00000000000E+00 -0.00000000000E+00  0.11368683772E-12  0.17120000000E+03  0.17120000000E+03 0.  0.
         13    1    1    2    0    0  0.44108168436E+02 -0.20705011902E+02  0.61799333909E+02  0.78698137693E+02  0.10566000000E+00 0. -1.
        994    1    1    2    0    0 -0.53411829878E+02  0.29653895556E+02  0.30031038169E+02  0.18423756497E+03  0.17120000000E+03 0.  0.
        998    1    1    2    0    0  0.93036614420E+01 -0.89488836544E+01  0.14081696242E+04  0.14082642973E+04  0.10000000000E+02 0. -1.
</event>
<event>
 5    1  0.1294251E-008  0.3749046E+03  0.7957747E-01  0.3473649E+00
         13   -1    0    0    0    0  0.00000000000E+00  0.00000000000E+00  0.14999999963E+04  0.15000000000E+04  0.10566000000E+00 0. -1.
        994   -1    0    0    0    0 -0.00000000000E+00 -0.00000000000E+00  0.11368683772E-12  0.17120000000E+03  0.17120000000E+03 0.  0.
         13    1    1    2    0    0 -0.34495051602E+02 -0.39087634637E+02  0.19578005391E+03  0.20260205438E+03  0.10566000000E+00 0. -1.
        994    1    1    2    0    0  0.54225673339E+02 -0.70732855678E+00  0.16794248119E+02  0.18036743257E+03  0.17120000000E+03 0.  0.
        998    1    1    2    0    0 -0.19730621738E+02  0.39794963194E+02  0.12874256943E+04  0.12882305130E+04  0.10000000000E+02 0. -1.
</event>
<event>
 5    1  0.1294251E-008  0.3863243E+03  0.7957747E-01  0.3424075E+00
         13   -1    0    0    0    0  0.00000000000E+00  0.00000000000E+00  0.14999999963E+04  0.15000000000E+04  0.10566000000E+00 0. -1.
        994   -1    0    0    0    0 -0.00000000000E+00 -0.00000000000E+00  0.11368683772E-12  0.17120000000E+03  0.17120000000E+03 0.  0.
         13    1    1    2    0    0  0.10881057516E+02  0.41245774388E+01  0.68076070865E+02  0.69063536980E+02  0.10566000000E+00 0. -1.
        994    1    1    2    0    0 -0.12421758854E+02 -0.21400717535E+01  0.14945199455E+01  0.17166989716E+03  0.17120000000E+03 0.  0.
        998    1    1    2    0    0  0.15407013389E+01 -0.19845056853E+01  0.14304294055E+04  0.14304665659E+04  0.10000000000E+02 0. -1.
</event>
<event>
 5    1  0.1294251E-008  0.3749870E+03  0.7957747E-01  0.3473281E+00
         13   -1    0    0    0    0  0.00000000000E+00  0.00000000000E+00  0.14999999963E+04  0.15000000000E+04  0.10566000000E+00 0.  1.
        994   -1    0    0    0    0 -0.00000000000E+00 -0.00000000000E+00  0.11368683772E-12  0.17120000000E+03  0.17120000000E+03 0.  0.
         13    1    1    2    0    0  0.93367575579E+02  0.36585987899E+01  0.47425484440E+03  0.48337207006E+03  0.10566000000E+00 0.  1.
        994    1    1    2    0    0 -0.86064394154E+02 -0.10031262714E+02  0.32651027716E+02  0.19463616258E+03  0.17120000000E+03 0.  0.
        998    1    1    2    0    0 -0.73031814251E+01  0.63726639242E+01  0.99309412417E+03  0.99319176736E+03  0.10000000000E+02 0. -1.
</event>
<event>
 5    1  0.1294251E-008  0.3843782E+03  0.7957747E-01  0.3432314E+00
         13   -1    0    0    0    0  0.00000000000E+00  0.00000000000E+00  0.14999999963E+04  0.15000000000E+04  0.10566000000E+00 0. -1.
        994   -1    0    0    0    0 -0.00000000000E+00 -0.00000000000E+00  0.11368683772E-12  0.17120000000E+03  0.17120000000E+03 0.  0.
         13    1    1    2    0    0 -0.94229066186E+01 -0.18271715497E+02  0.11658744941E+03  0.11838619548E+03  0.10566000000E+00 0. -1.
        994    1    1    2    0    0 -0.25983432206E+01  0.59336146042E+01  0.20774374303E+01  0.17133509540E+03  0.17120000000E+03 0.  0.
        998    1    1    2    0    0  0.12021249839E+02  0.12338100893E+02  0.13813351094E+04  0.13814787091E+04  0.10000000000E+02 0. -1.
</event>
<event>
 5    1  0.1294251E-008  0.3839218E+03  0.7957747E-01  0.3434258E+00
         13   -1    0    0    0    0  0.00000000000E+00  0.00000000000E+00  0.14999999963E+04  0.15000000000E+04  0.10566000000E+00 0.  1.
        994   -1    0    0    0    0 -0.00000000000E+00 -0.00000000000E+00  0.11368683772E-12  0.17120000000E+03  0.17120000000E+03 0.  0.
         13    1    1    2    0    0 -0.76156877834E+01 -0.21219330985E+02  0.11176603679E+03  0.11401717788E+03  0.10566000000E+00 0.  1.
        994    1    1    2    0    0 -0.49275444653E+01  0.23369334675E+02  0.40511024642E+01  0.17290534384E+03  0.17120000000E+03 0.  0.
        998    1    1    2    0    0  0.12543232249E+02 -0.21500036906E+01  0.13841828570E+04  0.13842774783E+04  0.10000000000E+02 0.  1.
</event>
<event>
 5    1  0.1294251E-008  0.3829344E+03  0.7957747E-01  0.3438480E+00
         13   -1    0    0    0    0  0.00000000000E+00  0.00000000000E+00  0.14999999963E+04  0.15000000000E+04  0.10566000000E+00 0. -1.
        994   -1    0    0    0    0 -0.00000000000E+00 -0.00000000000E+00  0.11368683772E-12  0.17120000000E+03  0.17120000000E+03 0.  0.
         13    1    1    2    0    0  0.21718703655E+02 -0.52697184755E+00  0.86578898488E+02  0.89263075318E+02  0.10566000000E+00 0. -1.
        994    1    1    2    0    0 -0.16610509879E+02 -0.66036557230E+01  0.37177129316E+01  0.17217078352E+03  0.17120000000E+03 0.  0.
        998    1    1    2    0    0 -0.51081937763E+01  0.71306275705E+01  0.14097033849E+04  0.14097661412E+04  0.10000000000E+02 0. -1.
</event>
<event>
 5    1  0.1294251E-008  0.3831307E+03  0.7957747E-01  0.3437639E+00
         13   -1    0    0    0    0  0.00000000000E+00  0.00000000000E+00  0.14999999963E+04  0.15000000000E+04  0.10566000000E+00 0. -1.
        994   -1    0    0    0    0 -0.00000000000E+00 -0.00000000000E+00  0.11368683772E-12  0.17120000000E+03  0.17120000000E+03 0.  0.
         13    1    1    2    0    0 -0.12815437355E+02  0.79150174739E+01  0.49267483701E+02  0.51518725241E+02  0.10566000000E+00 0. -1.
        994    1    1    2    0    0 -0.63138836977E+01  0.21673059745E+02  0.42489666459E+01  0.17273413202E+03  0.17120000000E+03 0.  0.
        998    1    1    2    0    0  0.19129321053E+02 -0.29588077219E+02  0.14464835459E+04  0.14469471427E+04  0.10000000000E+02 0. -1.
</event>
<event>
 5    1  0.1294251E-008  0.3790702E+03  0.7957747E-01  0.3455217E+00
         13   -1    0    0    0    0  0.00000000000E+00  0.00000000000E+00  0.14999999963E+04  0.15000000000E+04  0.10566000000E+00 0. -1.
        994   -1    0    0    0    0 -0.00000000000E+00 -0.00000000000E+00  0.11368683772E-12  0.17120000000E+03  0.17120000000E+03 0.  0.
         13    1    1    2    0    0 -0.21280148558E+01  0.64226507844E+02  0.34137510681E+03  0.34737090763E+03  0.10566000000E+00 0. -1.
        994    1    1    2    0    0  0.12652312914E+02 -0.65584802902E+02  0.19711870466E+02  0.18482274003E+03  0.17120000000E+03 0.  0.
        998    1    1    2    0    0 -0.10524298058E+02  0.13582950585E+01  0.11389130190E+04  0.11390063523E+04  0.10000000000E+02 0.  0.
</event>
<event>
 5    1  0.1294251E-008  0.3730022E+03  0.7957747E-01  0.3482206E+00
         13   -1    0    0    0    0  0.00000000000E+00  0.00000000000E+00  0.14999999963E+04  0.15000000000E+04  0.10566000000E+00 0.  1.
        994   -1    0    0    0    0 -0.00000000000E+00 -0.00000000000E+00  0.11368683772E-12  0.17120000000E+03  0.17120000000E+03 0.  0.
         13    1    1    2    0    0  0.31174648572E+01 -0.59193770586E+02  0.23553962455E+03  0.24288381371E+03  0.10566000000E+00 0.  1.
        994    1    1    2    0    0 -0.71618040099E+01  0.26885080647E+02  0.10361982318E+02  0.17375531553E+03  0.17120000000E+03 0.  0.
        998    1    1    2    0    0  0.40443391527E+01  0.32308689940E+02  0.12540983894E+04  0.12545608708E+04  0.10000000000E+02 0.  1.
</event>
<event>
 5    1  0.2187105E-008  0.3859031E+03  0.7957747E-01  0.3425851E+00
         13   -1    0    0    0    0  0.00000000000E+00  0.00000000000E+00  0.14999999963E+04  0.15000000000E+04  0.10566000000E+00 0. -1.
        994   -1    0    0    0    0 -0.00000000000E+00 -0.00000000000E+00  0.11368683772E-12  0.17120000000E+03  0.17120000000E+03 0.  0.
         13    1    1    2    0    0 -0.64429938291E+01 -0.10904530618E+02  0.69483888789E+02  0.70628909964E+02  0.10566000000E+00 0. -1.
        994    1    1    2    0    0  0.70204506794E+01  0.35386245612E+01  0.13851197040E+01  0.17138601795E+03  0.17120000000E+03 0.  0.
        998    1    1    2    0    0 -0.57745685027E+00  0.73659060568E+01  0.14291309878E+04  0.14291850721E+04  0.10000000000E+02 0. -1.
</event>
<event>
 5    1  0.1294251E-008  0.3855735E+03  0.7957747E-01  0.3427244E+00
         13   -1    0    0    0    0  0.00000000000E+00  0.00000000000E+00  0.14999999963E+04  0.15000000000E+04  0.10566000000E+00 0.  1.
        994   -1    0    0    0    0 -0.00000000000E+00 -0.00000000000E+00  0.11368683772E-12  0.17120000000E+03  0.17120000000E+03 0.  0.
         13    1    1    2    0    0  0.12797784028E+02 -0.49277017925E+01  0.72500616817E+02  0.73786286828E+02  0.10566000000E+00 0.  1.
        994    1    1    2    0    0 -0.33459750859E+01  0.48432540591E+01  0.14594449733E+01  0.17130739225E+03  0.17120000000E+03 0.  0.
        998    1    1    2    0    0 -0.94518089425E+01  0.84447733400E-01  0.14260399345E+04  0.14261063209E+04  0.10000000000E+02 0.  1.
</event>
<event>
 5    1  0.1294251E-008  0.4131683E+03  0.7957747E-01  0.3318340E+00
         13   -1    0    0    0    0  0.00000000000E+00  0.00000000000E+00  0.14999999963E+04  0.15000000000E+04  0.10566000000E+00 0.  1.
        994   -1    0    0    0    0 -0.00000000000E+00 -0.00000000000E+00  0.11368683772E-12  0.17120000000E+03  0.17120000000E+03 0.  0.
         13    1    1    2    0    0  0.19597098928E+02 -0.92746992644E+02  0.10485374958E+03  0.14135193984E+03  0.10566000000E+00 0.  1.
        994    1    1    2    0    0 -0.97186803272E+01  0.99888815717E+02  0.78979775961E+02  0.21358715613E+03  0.17120000000E+03 0.  0.
        998    1    1    2    0    0 -0.98784186011E+01 -0.71418230732E+01  0.13161664707E+04  0.13162609040E+04  0.10000000000E+02 0.  1.
</event>
<event>
 5    1  0.1294251E-008  0.3852452E+03  0.7957747E-01  0.3428633E+00
         13   -1    0    0    0    0  0.00000000000E+00  0.00000000000E+00  0.14999999963E+04  0.15000000000E+04  0.10566000000E+00 0.  1.
        994   -1    0    0    0    0 -0.00000000000E+00 -0.00000000000E+00  0.11368683772E-12  0.17120000000E+03  0.17120000000E+03 0.  0.
         13    1    1    2    0    0  0.14830260904E+02  0.23384293183E+01  0.80836632857E+02  0.82219080911E+02  0.10566000000E+00 0.  1.
        994    1    1    2    0    0 -0.66656042983E+00  0.65925876338E+01  0.16527628960E+01  0.17133615538E+03  0.17120000000E+03 0.  0.
        998    1    1    2    0    0 -0.14163700474E+02 -0.89310169521E+01  0.14175106005E+04  0.14176447637E+04  0.10000000000E+02 0.  1.
</event>
<event>
 5    1  0.1294251E-008  0.3856793E+03  0.7957747E-01  0.3426796E+00
         13   -1    0    0    0    0  0.00000000000E+00  0.00000000000E+00  0.14999999963E+04  0.15000000000E+04  0.10566000000E+00 0. -1.
        994   -1    0    0    0    0 -0.00000000000E+00 -0.00000000000E+00  0.11368683772E-12  0.17120000000E+03  0.17120000000E+03 0.  0.
         13    1    1    2    0    0 -0.13172175180E+02 -0.34537665394E+01  0.77825633968E+02  0.79008070277E+02  0.10566000000E+00 0. -1.
        994    1    1    2    0    0  0.65291123279E+00 -0.46053054425E+01  0.13642398860E+01  0.17126860857E+03  0.17120000000E+03 0.  0.
        998    1    1    2    0    0  0.12519263947E+02  0.80590719818E+01  0.14208101224E+04  0.14209233212E+04  0.10000000000E+02 0. -1.
</event>
<event>
 5    1  0.1294251E-008  0.3701896E+03  0.7957747E-01  0.3495020E+00
         13   -1    0    0    0    0  0.00000000000E+00  0.00000000000E+00  0.14999999963E+04  0.15000000000E+04  0.10566000000E+00 0.  1.
        994   -1    0    0    0    0 -0.00000000000E+00 -0.00000000000E+00  0.11368683772E-12  0.17120000000E+03  0.17120000000E+03 0.  0.
         13    1    1    2    0    0 -0.25765240158E+02  0.28661316154E+02  0.73400631661E+02  0.82903453103E+02  0.10566000000E+00 0.  1.
        994    1    1    2    0    0  0.27717557957E+02 -0.31115182544E+02  0.15193964489E+02  0.17685223821E+03  0.17120000000E+03 0.  0.
        998    1    1    2    0    0 -0.19523177988E+01  0.24538663901E+01  0.14114054001E+04  0.14114443087E+04  0.10000000000E+02 0.  1.
</event>
<event>
 5    1  0.1294251E-008  0.3851003E+03  0.7957747E-01  0.3429247E+00
         13   -1    0    0    0    0  0.00000000000E+00  0.00000000000E+00  0.14999999963E+04  0.15000000000E+04  0.10566000000E+00 0. -1.
        994   -1    0    0    0    0 -0.00000000000E+00 -0.00000000000E+00  0.11368683772E-12  0.17120000000E+03  0.17120000000E+03 0.  0.
         13    1    1    2    0    0  0.19466879697E+02  0.77538832201E+01  0.11654719836E+03  0.11841597325E+03  0.10566000000E+00 0. -1.
        994    1    1    2    0    0 -0.34483642913E+02 -0.62401663694E+01  0.56281538401E+01  0.17484043417E+03  0.17120000000E+03 0.  0.
        998    1    1    2    0    0  0.15016763216E+02 -0.15137168507E+01  0.13778246441E+04  0.13779435926E+04  0.10000000000E+02 0. -1.
</event>
<event>
 5    1  0.1294251E-008  0.3837756E+03  0.7957747E-01  0.3434882E+00
         13   -1    0    0    0    0  0.00000000000E+00  0.00000000000E+00  0.14999999963E+04  0.15000000000E+04  0.10566000000E+00 0. -1.
        994   -1    0    0    0    0 -0.00000000000E+00 -0.00000000000E+00  0.11368683772E-12  0.17120000000E+03  0.17120000000E+03 0.  0.
         13    1    1    2    0    0 -0.15279908622E+02  0.11825254071E+02  0.84590379271E+02  0.86768978735E+02  0.10566000000E+00 0. -1.
        994    1    1    2    0    0  0.80967093149E+01 -0.42055558487E+01  0.25141671507E+01  0.17146137885E+03  0.17120000000E+03 0.  0.
        998    1    1    2    0    0  0.71831993069E+01 -0.76196982228E+01  0.14128954499E+04  0.14129696424E+04  0.10000000000E+02 0. -1.
</event>
<event>
 5    1  0.1294251E-008  0.3825162E+03  0.7957747E-01  0.3440275E+00
         13   -1    0    0    0    0  0.00000000000E+00  0.00000000000E+00  0.14999999963E+04  0.15000000000E+04  0.10566000000E+00 0. -1.
        994   -1    0    0    0    0 -0.00000000000E+00 -0.00000000000E+00  0.11368683772E-12  0.17120000000E+03  0.17120000000E+03 0.  0.
         13    1    1    2    0    0 -0.49346766385E+01  0.10211348710E+02  0.21782237195E+02  0.24558088225E+02  0.10566000000E+00 0. -1.
        994    1    1    2    0    0 -0.88924882628E+01 -0.55927435126E+01  0.32342708852E+01  0.17155248653E+03  0.17120000000E+03 0.  0.
        998    1    1    2    0    0  0.13827164901E+02 -0.46186051974E+01  0.14749834882E+04  0.14750894252E+04  0.10000000000E+02 0. -1.
</event>
<event>
 5    1  0.1294251E-008  0.3795678E+03  0.7957747E-01  0.3453043E+00
         13   -1    0    0    0    0  0.00000000000E+00  0.00000000000E+00  0.14999999963E+04  0.15000000000E+04  0.10566000000E+00 0.  1.
        994   -1    0    0    0    0 -0.00000000000E+00 -0.00000000000E+00  0.11368683772E-12  0.17120000000E+03  0.17120000000E+03 0.  0.
         13    1    1    2    0    0 -0.23342157688E+02 -0.10202041021E+02  0.78475574637E+02  0.82506756967E+02  0.10566000000E+00 0.  1.
        994    1    1    2    0    0  0.73762095904E+01 -0.16514205550E+02  0.54473704233E+01  0.17223890762E+03  0.17120000000E+03 0.  0.
        998    1    1    2    0    0  0.15965948098E+02  0.26716246571E+02  0.14160770512E+04  0.14164543354E+04  0.10000000000E+02 0.  1.
</event>
<event>
 5    1  0.1294251E-008  0.3803643E+03  0.7957747E-01  0.3449574E+00
         13   -1    0    0    0    0  0.00000000000E+00  0.00000000000E+00  0.14999999963E+04  0.15000000000E+04  0.10566000000E+00 0.  1.
        994   -1    0    0    0    0 -0.00000000000E+00 -0.00000000000E+00  0.11368683772E-12  0.17120000000E+03  0.17120000000E+03 0.  0.
         13    1    1    2    0    0  0.86645816833E+02  0.30869827041E+01  0.34022291859E+03  0.35109638639E+03  0.10566000000E+00 0.  1.
        994    1    1    2    0    0  0.19167950058E+02  0.14394500650E+02  0.18615090004E+02  0.17386941518E+03  0.17120000000E+03 0.  0.
        998    1    1    2    0    0 -0.10581376689E+03 -0.17481483354E+02  0.11411619877E+04  0.11462341984E+04  0.10000000000E+02 0.  1.
</event>
<event>
 5    1  0.1294251E-008  0.3852911E+03  0.7957747E-01  0.3428439E+00
         13   -1    0    0    0    0  0.00000000000E+00  0.00000000000E+00  0.14999999963E+04  0.15000000000E+04  0.10566000000E+00 0. -1.
        994   -1    0    0    0    0 -0.00000000000E+00 -0.00000000000E+00  0.11368683772E-12  0.17120000000E+03  0.17120000000E+03 0.  0.
         13    1    1    2    0    0  0.15648437622E+02 -0.11139111718E+02  0.11552479841E+03  0.11711081770E+03  0.10566000000E+00 0. -1.
        994    1    1    2    0    0 -0.14615816500E+02  0.15133089245E+02  0.29413331328E+01  0.17251296740E+03  0.17120000000E+03 0.  0.
        998    1    1    2    0    0 -0.10326211218E+01 -0.39939775276E+01  0.13815338647E+04  0.13815762149E+04  0.10000000000E+02 0. -1.
</event>
<event>
 5    1  0.1294251E-008  0.3841323E+03  0.7957747E-01  0.3433360E+00
         13   -1    0    0    0    0  0.00000000000E+00  0.00000000000E+00  0.14999999963E+04  0.15000000000E+04  0.10566000000E+00 0. -1.
        994   -1    0    0    0    0 -0.00000000000E+00 -0.00000000000E+00  0.11368683772E-12  0.17120000000E+03  0.17120000000E+03 0.  0.
         13    1    1    2    0    0  0.12279060036E+02  0.13910203470E+02  0.82305230418E+02  0.84370795860E+02  0.10566000000E+00 0. -1.
        994    1    1    2    0    0 -0.52186458056E+01 -0.13356737974E+02  0.27399941794E+01  0.17182137318E+03  0.17120000000E+03 0.  0.
        998    1    1    2    0    0 -0.70604142305E+01 -0.55346549551E+00  0.14149547717E+04  0.14150078310E+04  0.10000000000E+02 0. -1.
</event>
<event>
 5    1  0.1294251E-008  0.3842381E+03  0.7957747E-01  0.3432910E+00
         13   -1    0    0    0    0  0.00000000000E+00  0.00000000000E+00  0.14999999963E+04  0.15000000000E+04  0.10566000000E+00 0.  1.
        994   -1    0    0    0    0 -0.00000000000E+00 -0.00000000000E+00  0.11368683772E-12  0.17120000000E+03  0.17120000000E+03 0.  0.
         13    1    1    2    0    0  0.13430578688E+02 -0.15257816351E+02  0.11669854959E+03  0.11845566278E+03  0.10566000000E+00 0.  1.
        994    1    1    2    0    0  0.39217733535E+01 -0.14191355622E+01  0.20662214113E+01  0.17126325795E+03  0.17120000000E+03 0.  0.
        998    1    1    2    0    0 -0.17352352041E+02  0.16676951913E+02  0.13812352253E+04  0.13814810793E+04  0.10000000000E+02 0.  1.
</event>
<event>
 5    1  0.1294251E-008  0.3779921E+03  0.7957747E-01  0.3459948E+00
         13   -1    0    0    0    0  0.00000000000E+00  0.00000000000E+00  0.14999999963E+04  0.15000000000E+04  0.10566000000E+00 0. -1.
        994   -1    0    0    0    0 -0.00000000000E+00 -0.00000000000E+00  0.11368683772E-12  0.17120000000E+03  0.17120000000E+03 0.  0.
         13    1    1    2    0    0  0.69586054868E+01 -0.10502043312E+02  0.13073544608E+02  0.18156096406E+02  0.10566000000E+00 0. -1.
        994    1    1    2    0    0 -0.77741614158E+01  0.84142723465E+01  0.55919537406E+01  0.17167395700E+03  0.17120000000E+03 0.  0.
        998    1    1    2    0    0  0.81555592900E+00  0.20877709655E+01  0.14813344979E+04  0.14813699466E+04  0.10000000000E+02 0. -1.
</event>
<event>
 5    1  0.1294251E-008  0.3741511E+03  0.7957747E-01  0.3477028E+00
         13   -1    0    0    0    0  0.00000000000E+00  0.00000000000E+00  0.14999999963E+04  0.15000000000E+04  0.10566000000E+00 0.  1.
        994   -1    0    0    0    0 -0.00000000000E+00 -0.00000000000E+00  0.11368683772E-12  0.17120000000E+03  0.17120000000E+03 0.  0.
         13    1    1    2    0    0  0.27303924979E+02  0.10423873270E+01  0.49134768309E+02  0.56221237192E+02  0.10566000000E+00 0.  1.
        994    1    1    2    0    0 -0.21657737391E+02 -0.14795369844E+01  0.87234129306E+01  0.17279115878E+03  0.17120000000E+03 0.  0.
        998    1    1    2    0    0 -0.56461875879E+01  0.43714965744E+00  0.14421418150E+04  0.14421876040E+04  0.10000000000E+02 0.  1.
</event>
<event>
 5    1  0.1294251E-008  0.3732213E+03  0.7957747E-01  0.3481216E+00
         13   -1    0    0    0    0  0.00000000000E+00  0.00000000000E+00  0.14999999963E+04  0.15000000000E+04  0.10566000000E+00 0. -1.
        994   -1    0    0    0    0 -0.00000000000E+00 -0.00000000000E+00  0.11368683772E-12  0.17120000000E+03  0.17120000000E+03 0.  0.
         13    1    1    2    0    0 -0.10601108602E+02 -0.11035100936E+02  0.11989694502E+02  0.19440187616E+02  0.10566000000E+00 0. -1.
        994    1    1    2    0    0  0.81056298585E+01  0.10271217485E+02  0.81806199124E+01  0.17189404203E+03  0.17120000000E+03 0.  0.
        998    1    1    2    0    0  0.24954787432E+01  0.76388345100E+00  0.14798296819E+04  0.14798657704E+04  0.10000000000E+02 0. -1.
</event>
<event>
 5    1  0.1294251E-008  0.3854856E+03  0.7957747E-01  0.3427615E+00
         13   -1    0    0    0    0  0.00000000000E+00  0.00000000000E+00  0.14999999963E+04  0.15000000000E+04  0.10566000000E+00 0.  1.
        994   -1    0    0    0    0 -0.00000000000E+00 -0.00000000000E+00  0.11368683772E-12  0.17120000000E+03  0.17120000000E+03 0.  0.
         13    1    1    2    0    0  0.11397294870E+02  0.63588975311E+01  0.59254130230E+02  0.60674517069E+02  0.10566000000E+00 0.  1.
        994    1    1    2    0    0 -0.12901155493E+02 -0.69895887746E+01  0.20964801456E+01  0.17184041839E+03  0.17120000000E+03 0.  0.
        998    1    1    2    0    0  0.15038606228E+01  0.63069124352E+00  0.14386493859E+04  0.14386850645E+04  0.10000000000E+02 0.  1.
</event>
<event>
 5    1  0.1294251E-008  0.3770131E+03  0.7957747E-01  0.3464268E+00
         13   -1    0    0    0    0  0.00000000000E+00  0.00000000000E+00  0.14999999963E+04  0.15000000000E+04  0.10566000000E+00 0.  1.
        994   -1    0    0    0    0 -0.00000000000E+00 -0.00000000000E+00  0.11368683772E-12  0.17120000000E+03  0.17120000000E+03 0.  0.
         13    1    1    2    0    0  0.69248172147E+01  0.21458950049E+02  0.42890613355E+02  0.48456738527E+02  0.10566000000E+00 0.  1.
        994    1    1    2    0    0  0.17202884470E+01 -0.15432495263E+02  0.64630866626E+01  0.17202422153E+03  0.17120000000E+03 0.  0.
        998    1    1    2    0    0 -0.86451056617E+01 -0.60264547866E+01  0.14506462963E+04  0.14507190399E+04  0.10000000000E+02 0.  1.
</event>
<event>
 5    1  0.1294251E-008  0.3762826E+03  0.7957747E-01  0.3467506E+00
         13   -1    0    0    0    0  0.00000000000E+00  0.00000000000E+00  0.14999999963E+04  0.15000000000E+04  0.10566000000E+00 0. -1.
        994   -1    0    0    0    0 -0.00000000000E+00 -0.00000000000E+00  0.11368683772E-12  0.17120000000E+03  0.17120000000E+03 0.  0.
         13    1    1    2    0    0 -0.84555041518E+02 -0.12886221516E+03  0.65862256014E+03  0.67641608011E+03  0.10566000000E+00 0. -1.
        994    1    1    2    0    0  0.15968169595E+03  0.12705139018E+03  0.16320427471E+03  0.31238657950E+03  0.17120000000E+03 0.  0.
        998    1    1    2    0    0 -0.75126654433E+02  0.18108249779E+01  0.67817316142E+03  0.68239734039E+03  0.10000000000E+02 0. -1.
</event>
<event>
 5    1  0.1294251E-008  0.3815268E+03  0.7957747E-01  0.3444537E+00
         13   -1    0    0    0    0  0.00000000000E+00  0.00000000000E+00  0.14999999963E+04  0.15000000000E+04  0.10566000000E+00 0. -1.
        994   -1    0    0    0    0 -0.00000000000E+00 -0.00000000000E+00  0.11368683772E-12  0.17120000000E+03  0.17120000000E+03 0.  0.
         13    1    1    2    0    0  0.10941451629E+02 -0.12311304329E+01  0.16643670517E+02  0.19956301717E+02  0.10566000000E+00 0. -1.
        994    1    1    2    0    0 -0.71876112970E+01  0.32453011583E+01  0.35712978235E+01  0.17141875015E+03  0.17120000000E+03 0.  0.
        998    1    1    2    0    0 -0.37538403316E+01 -0.20141707254E+01  0.14797850279E+04  0.14798249481E+04  0.10000000000E+02 0. -1.
</event>
<event>
 5    1  0.1294251E-008  0.2350199E+03  0.7957747E-01  0.4506894E+00
         13   -1    0    0    0    0  0.00000000000E+00  0.00000000000E+00  0.14999999963E+04  0.15000000000E+04  0.10566000000E+00 0.  1.
        994   -1    0    0    0    0 -0.00000000000E+00 -0.00000000000E+00  0.11368683772E-12  0.17120000000E+03  0.17120000000E+03 0.  0.
         13    1    1    2    0    0 -0.11131687018E+03  0.15133141292E+03  0.37212441205E+03  0.41685636775E+03  0.10566000000E+00 0.  1.
        994    1    1    2    0    0  0.34063136170E+02 -0.46873188320E+02  0.78739822079E+02  0.19714662718E+03  0.17120000000E+03 0.  0.
        998    1    1    2    0    0  0.77253734011E+02 -0.10445822460E+03  0.10491357621E+04  0.10571970051E+04  0.10000000000E+02 0.  1.
</event>
<event>
 5    1  0.1294251E-008  0.3712309E+03  0.7957747E-01  0.3490253E+00
         13   -1    0    0    0    0  0.00000000000E+00  0.00000000000E+00  0.14999999963E+04  0.15000000000E+04  0.10566000000E+00 0. -1.
        994   -1    0    0    0    0 -0.00000000000E+00 -0.00000000000E+00  0.11368683772E-12  0.17120000000E+03  0.17120000000E+03 0.  0.
         13    1    1    2    0    0  0.88524722821E+01  0.74607611032E+01  0.39028861597E+00  0.11584157759E+02  0.10566000000E+00 0. -1.
        994    1    1    2    0    0 -0.24850754472E+01 -0.11052611877E+02  0.12041903316E+02  0.17199646294E+03  0.17120000000E+03 0.  0.
        998    1    1    2    0    0 -0.63673968349E+01  0.35918507734E+01  0.14875678043E+04  0.14876193793E+04  0.10000000000E+02 0. -1.
</event>
<event>
 5    1  0.1294251E-008  0.3800876E+03  0.7957747E-01  0.3450777E+00
         13   -1    0    0    0    0  0.00000000000E+00  0.00000000000E+00  0.14999999963E+04  0.15000000000E+04  0.10566000000E+00 0.  1.
        994   -1    0    0    0    0 -0.00000000000E+00 -0.00000000000E+00  0.11368683772E-12  0.17120000000E+03  0.17120000000E+03 0.  0.
         13    1    1    2    0    0 -0.39142969598E+02 -0.22659873381E+03  0.10557954939E+04  0.10805476826E+04  0.10566000000E+00 0.  1.
        994    1    1    2    0    0  0.24956397762E+02  0.23112586881E+03  0.21305766812E+03  0.35881053353E+03  0.17120000000E+03 0.  0.
        998    1    1    2    0    0  0.14186571836E+02 -0.45271349978E+01  0.23114683424E+03  0.23184178387E+03  0.10000000000E+02 0. -1.
</event>
<event>
 5    1  0.1294251E-008  0.3734872E+03  0.7957747E-01  0.3480016E+00
         13   -1    0    0    0    0  0.00000000000E+00  0.00000000000E+00  0.14999999963E+04  0.15000000000E+04  0.10566000000E+00 0. -1.
        994   -1    0    0    0    0 -0.00000000000E+00 -0.00000000000E+00  0.11368683772E-12  0.17120000000E+03  0.17120000000E+03 0.  0.
         13    1    1    2    0    0 -0.16631372179E+02  0.26581297768E+01  0.15295913599E+02  0.22751798420E+02  0.10566000000E+00 0. -1.
        994    1    1    2    0    0  0.24598880827E+02 -0.34427832318E+01  0.95683966996E+01  0.17325689571E+03  0.17120000000E+03 0.  0.
        998    1    1    2    0    0 -0.79675086474E+01  0.78465345493E+00  0.14751356860E+04  0.14751913059E+04  0.10000000000E+02 0. -1.
</event>
<event>
 5    1  0.1294251E-008  0.3811645E+03  0.7957747E-01  0.3446103E+00
         13   -1    0    0    0    0  0.00000000000E+00  0.00000000000E+00  0.14999999963E+04  0.15000000000E+04  0.10566000000E+00 0.  1.
        994   -1    0    0    0    0 -0.00000000000E+00 -0.00000000000E+00  0.11368683772E-12  0.17120000000E+03  0.17120000000E+03 0.  0.
         13    1    1    2    0    0  0.53852831436E+01 -0.17723082159E+02  0.47045842633E+02  0.50561164829E+02  0.10566000000E+00 0.  1.
        994    1    1    2    0    0 -0.11124502591E+02  0.96460423828E+01  0.42687438854E+01  0.17188502804E+03  0.17120000000E+03 0.  0.
        998    1    1    2    0    0  0.57392194471E+01  0.80770397765E+01  0.14486854098E+04  0.14487538071E+04  0.10000000000E+02 0.  1.
</event>
<event>
 5    1  0.1294251E-008  0.4017604E+03  0.7957747E-01  0.3361557E+00
         13   -1    0    0    0    0  0.00000000000E+00  0.00000000000E+00  0.14999999963E+04  0.15000000000E+04  0.10566000000E+00 0.  1.
        994   -1    0    0    0    0 -0.00000000000E+00 -0.00000000000E+00  0.11368683772E-12  0.17120000000E+03  0.17120000000E+03 0.  0.
         13    1    1    2    0    0  0.53397636618E+02  0.57438110296E+02  0.11370824099E+03  0.13813044322E+03  0.10566000000E+00 0.  1.
        994    1    1    2    0    0  0.26027199186E+02 -0.30086069991E+02  0.35099500835E+02  0.17923169827E+03  0.17120000000E+03 0.  0.
        998    1    1    2    0    0 -0.79424835804E+02 -0.27352040305E+02  0.13511922545E+04  0.13538378585E+04  0.10000000000E+02 0.  1.
</event>
<event>
 5    1  0.1294251E-008  0.3853910E+03  0.7957747E-01  0.3428016E+00
         13   -1    0    0    0    0  0.00000000000E+00  0.00000000000E+00  0.14999999963E+04  0.15000000000E+04  0.10566000000E+00 0.  1.
        994   -1    0    0    0    0 -0.00000000000E+00 -0.00000000000E+00  0.11368683772E-12  0.17120000000E+03  0.17120000000E+03 0.  0.
         13    1    1    2    0    0  0.93655834161E+01  0.61432002108E+01  0.43986722010E+02  0.45390482909E+02  0.10566000000E+00 0.  1.
        994    1    1    2    0    0 -0.91078459403E+01  0.16259011677E+01  0.17173195938E+01  0.17145840778E+03  0.17120000000E+03 0.  0.
        998    1    1    2    0    0 -0.25773747577E+00 -0.77691013785E+01  0.14542959547E+04  0.14543511093E+04  0.10000000000E+02 0.  1.
</event>
<event>
 5    1  0.1294251E-008  0.3798002E+03  0.7957747E-01  0.3452029E+00
         13   -1    0    0    0    0  0.00000000000E+00  0.00000000000E+00  0.14999999963E+04  0.15000000000E+04  0.10566000000E+00 0.  1.
        994   -1    0    0    0    0 -0.00000000000E+00 -0.00000000000E+00  0.11368683772E-12  0.17120000000E+03  0.17120000000E+03 0.  0.
         13    1    1    2    0    0 -0.13651090928E+02  0.14760504448E+02  0.48465060595E+02  0.52469972723E+02  0.10566000000E+00 0.  1.
        994    1    1    2    0    0 -0.83188716203E+01 -0.74773493422E+01  0.46526704215E+01  0.17162809129E+03  0.17120000000E+03 0.  0.
        998    1    1    2    0    0  0.21969962548E+02 -0.72831551056E+01  0.14468822653E+04  0.14471019360E+04  0.10000000000E+02 0.  1.
</event>
<event>
 5    1  0.1294251E-008  0.3825138E+03  0.7957747E-01  0.3440285E+00
         13   -1    0    0    0    0  0.00000000000E+00  0.00000000000E+00  0.14999999963E+04  0.15000000000E+04  0.10566000000E+00 0.  1.
        994   -1    0    0    0    0 -0.00000000000E+00 -0.00000000000E+00  0.11368683772E-12  0.17120000000E+03  0.17120000000E+03 0.  0.
         13    1    1    2    0    0  0.59855095142E+01  0.83021605804E+01  0.17028888821E+02  0.19868226216E+02  0.10566000000E+00 0.  1.
        994    1    1    2    0    0 -0.45238038931E+01 -0.79428379028E+01  0.31466092756E+01  0.17147272269E+03  0.17120000000E+03 0.  0.
        998    1    1    2    0    0 -0.14617056211E+01 -0.35932267758E+00  0.14798244982E+04  0.14798590511E+04  0.10000000000E+02 0.  1.
</event>
<event>
 5    1  0.1294251E-008  0.3804573E+03  0.7957747E-01  0.3449170E+00
         13   -1    0    0    0    0  0.00000000000E+00  0.00000000000E+00  0.14999999963E+04  0.15000000000E+04  0.10566000000E+00 0. -1.
        994   -1    0    0    0    0 -0.00000000000E+00 -0.00000000000E+00  0.11368683772E-12  0.17120000000E+03  0.17120000000E+03 0.  0.
         13    1    1    2    0    0  0.19889859314E+01  0.10794763047E+02  0.13672423093E+02  0.17533661669E+02  0.10566000000E+00 0. -1.
        994    1    1    2    0    0  0.28464393953E+01 -0.11093668989E+02  0.43404490899E+01  0.17163755768E+03  0.17120000000E+03 0.  0.
        998    1    1    2    0    0 -0.48354253266E+01  0.29890594244E+00  0.14819871241E+04  0.14820287806E+04  0.10000000000E+02 0. -1.
</event>
<event>
 5    1  0.1294251E-008  0.3710943E+03  0.7957747E-01  0.3490877E+00
         13   -1    0    0    0    0  0.00000000000E+00  0.00000000000E+00  0.14999999963E+04  0.15000000000E+04  0.10566000000E+00 0. -1.
        994   -1    0    0    0    0 -0.00000000000E+00 -0.00000000000E+00  0.11368683772E-12  0.17120000000E+03  0.17120000000E+03 0.  0.
         13    1    1    2    0    0 -0.34619699036E+02 -0.22719330899E+02  0.92436666083E+02  0.10128790628E+03  0.10566000000E+00 0. -1.
        994    1    1    2    0    0  0.27324503637E+02  0.21595665442E+02  0.12888078033E+02  0.17518145969E+03  0.17120000000E+03 0.  0.
        998    1    1    2    0    0  0.72951953989E+01  0.11236654575E+01  0.13946752522E+04  0.13947306340E+04  0.10000000000E+02 0. -1.
</event>
<event>
 5    1  0.1294251E-008  0.3815325E+03  0.7957747E-01  0.3444513E+00
         13   -1    0    0    0    0  0.00000000000E+00  0.00000000000E+00  0.14999999963E+04  0.15000000000E+04  0.10566000000E+00 0.  1.
        994   -1    0    0    0    0 -0.00000000000E+00 -0.00000000000E+00  0.11368683772E-12  0.17120000000E+03  0.17120000000E+03 0.  0.
         13    1    1    2    0    0 -0.10618536718E+02 -0.23416966693E+02  0.10958650265E+02  0.27950149030E+02  0.10566000000E+00 0.  1.
        994    1    1    2    0    0  0.20111373942E+02  0.44502025233E+02  0.25913477732E+02  0.17990510260E+03  0.17120000000E+03 0.  0.
        998    1    1    2    0    0 -0.94928372238E+01 -0.21085058540E+02  0.14631278683E+04  0.14633447484E+04  0.10000000000E+02 0.  1.
</event>
<event>
 5    1  0.1294251E-008  0.3825717E+03  0.7957747E-01  0.3440037E+00
         13   -1    0    0    0    0  0.00000000000E+00  0.00000000000E+00  0.14999999963E+04  0.15000000000E+04  0.10566000000E+00 0.  1.
        994   -1    0    0    0    0 -0.00000000000E+00 -0.00000000000E+00  0.11368683772E-12  0.17120000000E+03  0.17120000000E+03 0.  0.
         13    1    1    2    0    0  0.13053306640E+02  0.18086888683E+02  0.91273485305E+02  0.93959484036E+02  0.10566000000E+00 0.  1.
        994    1    1    2    0    0 -0.10951685911E+01 -0.55838218590E+01  0.29479188286E+01  0.17131990161E+03  0.17120000000E+03 0.  0.
        998    1    1    2    0    0 -0.11958138048E+02 -0.12503066824E+02  0.14057785921E+04  0.14059206144E+04  0.10000000000E+02 0.  1.
</event>
<event>
 5    1  0.1294251E-008  0.3848844E+03  0.7957747E-01  0.3430163E+00
         13   -1    0    0    0    0  0.00000000000E+00  0.00000000000E+00  0.14999999963E+04  0.15000000000E+04  0.10566000000E+00 0.  1.
        994   -1    0    0    0    0 -0.00000000000E+00 -0.00000000000E+00  0.11368683772E-12  0.17120000000E+03  0.17120000000E+03 0.  0.
         13    1    1    2    0    0 -0.13932577704E+02  0.13603755836E+02  0.11283339387E+03  0.11450137479E+03  0.10566000000E+00 0.  1.
        994    1    1    2    0    0  0.13379980851E+02 -0.32235030538E+01  0.23109461315E+01  0.17176785302E+03  0.17120000000E+03 0.  0.
        998    1    1    2    0    0  0.55259685280E+00 -0.10380252782E+02  0.13848556563E+04  0.13849307722E+04  0.10000000000E+02 0.  1.
</event>
<event>
 5    1  0.1294251E-008  0.3774990E+03  0.7957747E-01  0.3462121E+00
         13   -1    0    0    0    0  0.00000000000E+00  0.00000000000E+00  0.14999999963E+04  0.15000000000E+04  0.10566000000E+00 0. -1.
        994   -1    0    0    0    0 -0.00000000000E+00 -0.00000000000E+00  0.11368683772E-12  0.17120000000E+03  0.17120000000E+03 0.  0.
         13    1    1    2    0    0  0.23619115239E+02 -0.88713058114E+01  0.54918066311E+02  0.60436477751E+02  0.10566000000E+00 0. -1.
        994    1    1    2    0    0 -0.25829790319E+02  0.57999332118E+01  0.77668892455E+01  0.17340871334E+03  0.17120000000E+03 0.  0.
        998    1    1    2    0    0  0.22106750793E+01  0.30713725996E+01  0.14373150407E+04  0.14373548089E+04  0.10000000000E+02 0. -1.
</event>
<event>
 5    1  0.1294251E-008  0.3829792E+03  0.7957747E-01  0.3438288E+00
         13   -1    0    0    0    0  0.00000000000E+00  0.00000000000E+00  0.14999999963E+04  0.15000000000E+04  0.10566000000E+00 0.  1.
        994   -1    0    0    0    0 -0.00000000000E+00 -0.00000000000E+00  0.11368683772E-12  0.17120000000E+03  0.17120000000E+03 0.  0.
         13    1    1    2    0    0  0.49950479979E+01  0.22770606790E+02  0.11318782013E+03  0.11556359647E+03  0.10566000000E+00 0.  1.
        994    1    1    2    0    0 -0.45724736338E+01  0.14731501765E+01  0.27131405024E+01  0.17128887535E+03  0.17120000000E+03 0.  0.
        998    1    1    2    0    0 -0.42257436403E+00 -0.24243756967E+02  0.13840990356E+04  0.13843475282E+04  0.10000000000E+02 0.  1.
</event>
<event>
 5    1  0.1294251E-008  0.3816615E+03  0.7957747E-01  0.3443956E+00
         13   -1    0    0    0    0  0.00000000000E+00  0.00000000000E+00  0.14999999963E+04  0.15000000000E+04  0.10566000000E+00 0. -1.
        994   -1    0    0    0    0 -0.00000000000E+00 -0.00000000000E+00  0.11368683772E-12  0.17120000000E+03  0.17120000000E+03 0.  0.
         13    1    1    2    0    0 -0.12780719617E+02  0.42858597439E+01  0.27805958830E+02  0.30901422268E+02  0.10566000000E+00 0. -1.
        994    1    1    2    0    0 -0.98333427790E+01 -0.40708429227E+01  0.36734404508E+01  0.17156981249E+03  0.17120000000E+03 0.  0.
        998    1    1    2    0    0  0.22614062396E+02 -0.21501682123E+00  0.14685205970E+04  0.14687287652E+04  0.10000000000E+02 0. -1.
</event>
<event>
 5    1  0.1294251E-008  0.3840731E+03  0.7957747E-01  0.3433613E+00
         13   -1    0    0    0    0  0.00000000000E+00  0.00000000000E+00  0.14999999963E+04  0.15000000000E+04  0.10566000000E+00 0.  1.
        994   -1    0    0    0    0 -0.00000000000E+00 -0.00000000000E+00  0.11368683772E-12  0.17120000000E+03  0.17120000000E+03 0.  0.
         13    1    1    2    0    0 -0.12310301192E+02 -0.12118426863E+02  0.69523326686E+02  0.71637308036E+02  0.10566000000E+00 0.  1.
        994    1    1    2    0    0  0.68849166297E+01  0.14000515307E+02  0.28943575674E+01  0.17193380648E+03  0.17120000000E+03 0.  0.
        998    1    1    2    0    0  0.54253845621E+01 -0.18820884442E+01  0.14275823120E+04  0.14276288855E+04  0.10000000000E+02 0.  0.
</event>
<event>
 5    1  0.1294251E-008  0.3849562E+03  0.7957747E-01  0.3429858E+00
         13   -1    0    0    0    0  0.00000000000E+00  0.00000000000E+00  0.14999999963E+04  0.15000000000E+04  0.10566000000E+00 0. -1.
        994   -1    0    0    0    0 -0.00000000000E+00 -0.00000000000E+00  0.11368683772E-12  0.17120000000E+03  0.17120000000E+03 0.  0.
         13    1    1    2    0    0  0.18562203488E+02  0.48367432137E+01  0.11403663995E+03  0.11563873010E+03  0.10566000000E+00 0. -1.
        994    1    1    2    0    0 -0.85719284447E+01 -0.41366068673E+01  0.19498997778E+01  0.17147545475E+03  0.17120000000E+03 0.  0.
        998    1    1    2    0    0 -0.99902750430E+01 -0.70013634642E+00  0.13840134566E+04  0.13840858152E+04  0.10000000000E+02 0. -1.
</event>
<event>
 5    1  0.1508159E-008  0.3860412E+03  0.7957747E-01  0.3425268E+00
         13   -1    0    0    0    0  0.00000000000E+00  0.00000000000E+00  0.14999999963E+04  0.15000000000E+04  0.10566000000E+00 0. -1.
        994   -1    0    0    0    0 -0.00000000000E+00 -0.00000000000E+00  0.11368683772E-12  0.17120000000E+03  0.17120000000E+03 0.  0.
         13    1    1    2    0    0 -0.50788242804E+01 -0.10573828199E+02  0.69038031233E+02  0.70027574708E+02  0.10566000000E+00 0. -1.
        994    1    1    2    0    0 -0.22121807976E+01 -0.40141655068E+01  0.11829421469E+01  0.17126542739E+03  0.17120000000E+03 0.  0.
        998    1    1    2    0    0  0.72910050780E+01  0.14587993706E+02  0.14297790229E+04  0.14299069979E+04  0.10000000000E+02 0. -1.
</event>
<event>
 5    1  0.1294251E-008  0.3839126E+03  0.7957747E-01  0.3434297E+00
         13   -1    0    0    0    0  0.00000000000E+00  0.00000000000E+00  0.14999999963E+04  0.15000000000E+04  0.10566000000E+00 0.  1.
        994   -1    0    0    0    0 -0.00000000000E+00 -0.00000000000E+00  0.11368683772E-12  0.17120000000E+03  0.17120000000E+03 0.  0.
         13    1    1    2    0    0  0.78257272111E+01  0.10323379142E+02  0.37886301365E+02  0.40039944536E+02  0.10566000000E+00 0.  1.
        994    1    1    2    0    0 -0.64947075736E+01 -0.76046330738E+01  0.25011126555E+01  0.17151007911E+03  0.17120000000E+03 0.  0.
        998    1    1    2    0    0 -0.13310196375E+01 -0.27187460683E+01  0.14596125823E+04  0.14596499764E+04  0.10000000000E+02 0.  1.
</event>
<event>
 5    1  0.1294251E-008  0.3759731E+03  0.7957747E-01  0.3468882E+00
         13   -1    0    0    0    0  0.00000000000E+00  0.00000000000E+00  0.14999999963E+04  0.15000000000E+04  0.10566000000E+00 0. -1.
        994   -1    0    0    0    0 -0.00000000000E+00 -0.00000000000E+00  0.11368683772E-12  0.17120000000E+03  0.17120000000E+03 0.  0.
         13    1    1    2    0    0 -0.62505115250E+02  0.45408294155E+02  0.36925410886E+03  0.37724979878E+03  0.10566000000E+00 0. -1.
        994    1    1    2    0    0  0.62274868276E+02 -0.41828110669E+02  0.25492000847E+02  0.18864525483E+03  0.17120000000E+03 0.  0.
        998    1    1    2    0    0  0.23024697482E+00 -0.35801834864E+01  0.11052538866E+04  0.11053049464E+04  0.10000000000E+02 0.  0.
</event>
<event>
 5    1  0.1294251E-008  0.3827709E+03  0.7957747E-01  0.3439182E+00
         13   -1    0    0    0    0  0.00000000000E+00  0.00000000000E+00  0.14999999963E+04  0.15000000000E+04  0.10566000000E+00 0.  1.
        994   -1    0    0    0    0 -0.00000000000E+00 -0.00000000000E+00  0.11368683772E-12  0.17120000000E+03  0.17120000000E+03 0.  0.
         13    1    1    2    0    0  0.18617269067E+02  0.64469788385E+01  0.66269794140E+02  0.69136553451E+02  0.10566000000E+00 0.  1.
        994    1    1    2    0    0 -0.24956449528E+02  0.58318984477E-01  0.48068215141E+01  0.17307620665E+03  0.17120000000E+03 0.  0.
        998    1    1    2    0    0  0.63391804614E+01 -0.65052978229E+01  0.14289233806E+04  0.14289872399E+04  0.10000000000E+02 0.  1.
</event>
<event>
 5    1  0.1294251E-008  0.3837639E+03  0.7957747E-01  0.3434932E+00
         13   -1    0    0    0    0  0.00000000000E+00  0.00000000000E+00  0.14999999963E+04  0.15000000000E+04  0.10566000000E+00 0.  1.
        994   -1    0    0    0    0 -0.00000000000E+00 -0.00000000000E+00  0.11368683772E-12  0.17120000000E+03  0.17120000000E+03 0.  0.
         13    1    1    2    0    0 -0.10121526409E+02  0.63216510345E+01  0.31161021183E+02  0.33368083161E+02  0.10566000000E+00 0.  1.
        994    1    1    2    0    0 -0.89900000571E+01 -0.28730639062E+02  0.52432381215E+01  0.17390572523E+03  0.17120000000E+03 0.  0.
        998    1    1    2    0    0  0.19111526466E+02  0.22408988027E+02  0.14635957370E+04  0.14639261916E+04  0.10000000000E+02 0.  1.
</event>
<event>
 5    1  0.1294251E-008  0.3849609E+03  0.7957747E-01  0.3429838E+00
         13   -1    0    0    0    0  0.00000000000E+00  0.00000000000E+00  0.14999999963E+04  0.15000000000E+04  0.10566000000E+00 0.  1.
        994   -1    0    0    0    0 -0.00000000000E+00 -0.00000000000E+00  0.11368683772E-12  0.17120000000E+03  0.17120000000E+03 0.  0.
         13    1    1    2    0    0  0.87821316580E+01  0.15866957315E+02  0.91178621910E+02  0.92964716040E+02  0.10566000000E+00 0.  1.
        994    1    1    2    0    0 -0.16100157246E+02 -0.18375612029E+02  0.36151825383E+01  0.17297221663E+03  0.17120000000E+03 0.  0.
        998    1    1    2    0    0  0.73180255875E+01  0.25086547136E+01  0.14052061918E+04  0.14052630673E+04  0.10000000000E+02 0.  1.
</event>
<event>
 5    1  0.1294251E-008  0.3834290E+03  0.7957747E-01  0.3436363E+00
         13   -1    0    0    0    0  0.00000000000E+00  0.00000000000E+00  0.14999999963E+04  0.15000000000E+04  0.10566000000E+00 0.  1.
        994   -1    0    0    0    0 -0.00000000000E+00 -0.00000000000E+00  0.11368683772E-12  0.17120000000E+03  0.17120000000E+03 0.  0.
         13    1    1    2    0    0  0.19316184654E+01 -0.16299234464E+02  0.53478207441E+02  0.55940379237E+02  0.10566000000E+00 0.  1.
        994    1    1    2    0    0  0.82487444430E-01  0.17481769261E+02  0.34230093856E+01  0.17212430408E+03  0.17120000000E+03 0.  0.
        998    1    1    2    0    0 -0.20141059099E+01 -0.11825347971E+01  0.14430987795E+04  0.14431353167E+04  0.10000000000E+02 0.  1.
</event>
<event>
 5    1  0.1294251E-008  0.3810670E+03  0.7957747E-01  0.3446526E+00
         13   -1    0    0    0    0  0.00000000000E+00  0.00000000000E+00  0.14999999963E+04  0.15000000000E+04  0.10566000000E+00 0. -1.
        994   -1    0    0    0    0 -0.00000000000E+00 -0.00000000000E+00  0.11368683772E-12  0.17120000000E+03  0.17120000000E+03 0.  0.
         13    1    1    2    0    0  0.69162083626E+01  0.30735351206E+02  0.12101375948E+03  0.12504733863E+03  0.10566000000E+00 0. -1.
        994    1    1    2    0    0 -0.13961155380E+02 -0.37443701539E+02  0.89335603043E+01  0.17602895541E+03  0.17120000000E+03 0.  0.
        998    1    1    2    0    0  0.70449470174E+01  0.67083503328E+01  0.13700526765E+04  0.13701237060E+04  0.10000000000E+02 0. -1.
</event>
<event>
 5    1  0.1294251E-008  0.3776411E+03  0.7957747E-01  0.3461495E+00
         13   -1    0    0    0    0  0.00000000000E+00  0.00000000000E+00  0.14999999963E+04  0.15000000000E+04  0.10566000000E+00 0.  1.
        994   -1    0    0    0    0 -0.00000000000E+00 -0.00000000000E+00  0.11368683772E-12  0.17120000000E+03  0.17120000000E+03 0.  0.
         13    1    1    2    0    0 -0.45556041877E+01  0.15061454232E+02  0.20780058732E+02  0.26065742615E+02  0.10566000000E+00 0.  1.
        994    1    1    2    0    0  0.38724541718E+01 -0.14146516666E+02  0.60537949826E+01  0.17193373220E+03  0.17120000000E+03 0.  0.
        998    1    1    2    0    0  0.68315001593E+00 -0.91493756596E+00  0.14731661426E+04  0.14732005252E+04  0.10000000000E+02 0.  1.
</event>
<event>
 5    1  0.1294251E-008  0.3838710E+03  0.7957747E-01  0.3434475E+00
         13   -1    0    0    0    0  0.00000000000E+00  0.00000000000E+00  0.14999999963E+04  0.15000000000E+04  0.10566000000E+00 0.  1.
        994   -1    0    0    0    0 -0.00000000000E+00 -0.00000000000E+00  0.11368683772E-12  0.17120000000E+03  0.17120000000E+03 0.  0.
         13    1    1    2    0    0  0.21564151439E+01 -0.23395525291E+02  0.11856488457E+03  0.12087035926E+03  0.10566000000E+00 0.  1.
        994    1    1    2    0    0  0.12347883834E+02  0.23616286616E+02  0.45394127444E+01  0.17332122056E+03  0.17120000000E+03 0.  0.
        998    1    1    2    0    0 -0.14504298978E+02 -0.22076132451E+00  0.13768956990E+04  0.13770084202E+04  0.10000000000E+02 0.  1.
</event>
<event>
 5    1  0.1294251E-008  0.3799450E+03  0.7957747E-01  0.3451398E+00
         13   -1    0    0    0    0  0.00000000000E+00  0.00000000000E+00  0.14999999963E+04  0.15000000000E+04  0.10566000000E+00 0.  1.
        994   -1    0    0    0    0 -0.00000000000E+00 -0.00000000000E+00  0.11368683772E-12  0.17120000000E+03  0.17120000000E+03 0.  0.
         13    1    1    2    0    0 -0.35507479999E+02 -0.64891233235E+02  0.16932725367E+03  0.18477928263E+03  0.10566000000E+00 0.  1.
        994    1    1    2    0    0  0.19292327630E+02  0.31190724317E+02  0.21185460736E+02  0.17636133061E+03  0.17120000000E+03 0.  0.
        998    1    1    2    0    0  0.16215152369E+02  0.33700508919E+02  0.13094872819E+04  0.13100593868E+04  0.10000000000E+02 0.  1.
</event>
<event>
 5    1  0.1294251E-008  0.3712735E+03  0.7957747E-01  0.3490059E+00
         13   -1    0    0    0    0  0.00000000000E+00  0.00000000000E+00  0.14999999963E+04  0.15000000000E+04  0.10566000000E+00 0.  1.
        994   -1    0    0    0    0 -0.00000000000E+00 -0.00000000000E+00  0.11368683772E-12  0.17120000000E+03  0.17120000000E+03 0.  0.
         13    1    1    2    0    0 -0.78349016253E+01  0.15076966418E+02  0.15327555433E+02  0.22883306567E+02  0.10566000000E+00 0.  1.
        994    1    1    2    0    0 -0.26716761474E+02  0.59995861579E+02  0.23603194634E+02  0.18487790443E+03  0.17120000000E+03 0.  0.
        998    1    1    2    0    0  0.34551663099E+02 -0.75072827997E+02  0.14610692462E+04  0.14634387890E+04  0.10000000000E+02 0.  1.
</event>
<event>
 5    1  0.1294251E-008  0.3810309E+03  0.7957747E-01  0.3446682E+00
         13   -1    0    0    0    0  0.00000000000E+00  0.00000000000E+00  0.14999999963E+04  0.15000000000E+04  0.10566000000E+00 0.  1.
        994   -1    0    0    0    0 -0.00000000000E+00 -0.00000000000E+00  0.11368683772E-12  0.17120000000E+03  0.17120000000E+03 0.  0.
         13    1    1    2    0    0  0.18905464927E+03 -0.74228367426E+02  0.10591754691E+04  0.10784730856E+04  0.10566000000E+00 0.  1.
        994    1    1    2    0    0 -0.18892107249E+03  0.79579569698E+02  0.15931713605E+03  0.31099110821E+03  0.17120000000E+03 0.  0.
        998    1    1    2    0    0 -0.13357677091E+00 -0.53512022722E+01  0.28150739112E+03  0.28173580614E+03  0.10000000000E+02 0.  0.
</event>
<event>
 5    1  0.1294251E-008  0.3841994E+03  0.7957747E-01  0.3433075E+00
         13   -1    0    0    0    0  0.00000000000E+00  0.00000000000E+00  0.14999999963E+04  0.15000000000E+04  0.10566000000E+00 0.  1.
        994   -1    0    0    0    0 -0.00000000000E+00 -0.00000000000E+00  0.11368683772E-12  0.17120000000E+03  0.17120000000E+03 0.  0.
         13    1    1    2    0    0 -0.99685557089E+01  0.77576099729E+01  0.41368025800E+02  0.43253639593E+02  0.10566000000E+00 0.  1.
        994    1    1    2    0    0 -0.49804388581E+01  0.13474000858E+01  0.21159028207E+01  0.17129079748E+03  0.17120000000E+03 0.  0.
        998    1    1    2    0    0  0.14948994567E+02 -0.91050100587E+01  0.14565160677E+04  0.14566555629E+04  0.10000000000E+02 0.  1.
</event>
<event>
 5    1  0.1294251E-008  0.3778779E+03  0.7957747E-01  0.3460451E+00
         13   -1    0    0    0    0  0.00000000000E+00  0.00000000000E+00  0.14999999963E+04  0.15000000000E+04  0.10566000000E+00 0. -1.
        994   -1    0    0    0    0 -0.00000000000E+00 -0.00000000000E+00  0.11368683772E-12  0.17120000000E+03  0.17120000000E+03 0.  0.
         13    1    1    2    0    0  0.48568920162E+02  0.89886985214E+01  0.20907985567E+03  0.21483513194E+03  0.10566000000E+00 0. -1.
        994    1    1    2    0    0 -0.48382651572E+02  0.14905806746E+02  0.13885881585E+02  0.17906792498E+03  0.17120000000E+03 0.  0.
        998    1    1    2    0    0 -0.18626859027E+00 -0.23894505268E+02  0.12770342590E+04  0.12772969431E+04  0.10000000000E+02 0. -1.
</event>
<event>
 5    1  0.1294251E-008  0.3828362E+03  0.7957747E-01  0.3438901E+00
         13   -1    0    0    0    0  0.00000000000E+00  0.00000000000E+00  0.14999999963E+04  0.15000000000E+04  0.10566000000E+00 0. -1.
        994   -1    0    0    0    0 -0.00000000000E+00 -0.00000000000E+00  0.11368683772E-12  0.17120000000E+03  0.17120000000E+03 0.  0.
         13    1    1    2    0    0  0.60212210818E+01  0.99541714276E+01  0.23615375150E+02  0.26325609957E+02  0.10566000000E+00 0. -1.
        994    1    1    2    0    0 -0.69782277228E+01 -0.11066861141E+02  0.32753285307E+01  0.17173042495E+03  0.17120000000E+03 0.  0.
        998    1    1    2    0    0  0.95700664099E+00  0.11126897132E+01  0.14731092926E+04  0.14731439651E+04  0.10000000000E+02 0. -1.
</event>
<event>
 5    1  0.1294251E-008  0.3796941E+03  0.7957747E-01  0.3452491E+00
         13   -1    0    0    0    0  0.00000000000E+00  0.00000000000E+00  0.14999999963E+04  0.15000000000E+04  0.10566000000E+00 0.  1.
        994   -1    0    0    0    0 -0.00000000000E+00 -0.00000000000E+00  0.11368683772E-12  0.17120000000E+03  0.17120000000E+03 0.  0.
         13    1    1    2    0    0  0.38782000418E+02 -0.59272529796E+00  0.21151338315E+03  0.21504026901E+03  0.10566000000E+00 0.  1.
        994    1    1    2    0    0  0.27537018740E+01  0.66599453179E+01  0.44614423479E+01  0.17140969113E+03  0.17120000000E+03 0.  0.
        998    1    1    2    0    0 -0.41535702292E+02 -0.60672200199E+01  0.12840251708E+04  0.12847500399E+04  0.10000000000E+02 0.  1.
</event>
<event>
 5    1  0.1294251E-008  0.3838365E+03  0.7957747E-01  0.3434622E+00
         13   -1    0    0    0    0  0.00000000000E+00  0.00000000000E+00  0.14999999963E+04  0.15000000000E+04  0.10566000000E+00 0.  1.
        994   -1    0    0    0    0 -0.00000000000E+00 -0.00000000000E+00  0.11368683772E-12  0.17120000000E+03  0.17120000000E+03 0.  0.
         13    1    1    2    0    0 -0.19137047300E+02 -0.66403346848E+01  0.88858866971E+02  0.91138521095E+02  0.10566000000E+00 0.  1.
        994    1    1    2    0    0  0.21495626589E+02 -0.38122338781E+01  0.37837525396E+01  0.17262778419E+03  0.17120000000E+03 0.  0.
        998    1    1    2    0    0 -0.23585792881E+01  0.10452568563E+02  0.14073573768E+04  0.14074336947E+04  0.10000000000E+02 0.  1.
</event>
<event>
 5    1  0.1294251E-008  0.3795905E+03  0.7957747E-01  0.3452944E+00
         13   -1    0    0    0    0  0.00000000000E+00  0.00000000000E+00  0.14999999963E+04  0.15000000000E+04  0.10566000000E+00 0. -1.
        994   -1    0    0    0    0 -0.00000000000E+00 -0.00000000000E+00  0.11368683772E-12  0.17120000000E+03  0.17120000000E+03 0.  0.
         13    1    1    2    0    0 -0.33160153518E+02 -0.13416469131E+02  0.12462095137E+03  0.12965334592E+03  0.10566000000E+00 0. -1.
        994    1    1    2    0    0  0.42879990298E+02  0.27113683164E+02  0.13004456964E+02  0.17903184433E+03  0.17120000000E+03 0.  0.
        998    1    1    2    0    0 -0.97198367808E+01 -0.13697214033E+02  0.13623745879E+04  0.13625148098E+04  0.10000000000E+02 0. -1.
</event>
<event>
 5    1  0.1294251E-008  0.3842540E+03  0.7957747E-01  0.3432842E+00
         13   -1    0    0    0    0  0.00000000000E+00  0.00000000000E+00  0.14999999963E+04  0.15000000000E+04  0.10566000000E+00 0. -1.
        994   -1    0    0    0    0 -0.00000000000E+00 -0.00000000000E+00  0.11368683772E-12  0.17120000000E+03  0.17120000000E+03 0.  0.
         13    1    1    2    0    0  0.16961862735E+01  0.98844289945E+01  0.24239239503E+02  0.26232248858E+02  0.10566000000E+00 0. -1.
        994    1    1    2    0    0  0.16492395488E+01 -0.11013286227E+02  0.24099004780E+01  0.17157872853E+03  0.17120000000E+03 0.  0.
        998    1    1    2    0    0 -0.33454258223E+01  0.11288572330E+01  0.14733508563E+04  0.14733890226E+04  0.10000000000E+02 0. -1.
</event>
<event>
 5    1  0.1294251E-008  0.3817158E+03  0.7957747E-01  0.3443721E+00
         13   -1    0    0    0    0  0.00000000000E+00  0.00000000000E+00  0.14999999963E+04  0.15000000000E+04  0.10566000000E+00 0. -1.
        994   -1    0    0    0    0 -0.00000000000E+00 -0.00000000000E+00  0.11368683772E-12  0.17120000000E+03  0.17120000000E+03 0.  0.
         13    1    1    2    0    0  0.18894914573E+02  0.41098577268E+01  0.58342017121E+02  0.61463085288E+02  0.10566000000E+00 0. -1.
        994    1    1    2    0    0 -0.57312018952E+01  0.94142836264E+01  0.36734089325E+01  0.17159373341E+03  0.17120000000E+03 0.  0.
        998    1    1    2    0    0 -0.13163712678E+02 -0.13524141353E+02  0.14379845702E+04  0.14381431813E+04  0.10000000000E+02 0. -1.
</event>
<event>
 5    1  0.1294251E-008  0.3842098E+03  0.7957747E-01  0.3433030E+00
         13   -1    0    0    0    0  0.00000000000E+00  0.00000000000E+00  0.14999999963E+04  0.15000000000E+04  0.10566000000E+00 0.  1.
        994   -1    0    0    0    0 -0.00000000000E+00 -0.00000000000E+00  0.11368683772E-12  0.17120000000E+03  0.17120000000E+03 0.  0.
         13    1    1    2    0    0  0.34786274277E+01 -0.12004352482E+02  0.41855845566E+02  0.43682127917E+02  0.10566000000E+00 0.  1.
        994    1    1    2    0    0  0.54121489387E+01 -0.10073102725E+02  0.24541906990E+01  0.17159901459E+03  0.17120000000E+03 0.  0.
        998    1    1    2    0    0 -0.88907763664E+01  0.22077455206E+02  0.14556899600E+04  0.14559188575E+04  0.10000000000E+02 0.  1.
</event>
<event>
 5    1  0.1294251E-008  0.3734611E+03  0.7957747E-01  0.3480134E+00
         13   -1    0    0    0    0  0.00000000000E+00  0.00000000000E+00  0.14999999963E+04  0.15000000000E+04  0.10566000000E+00 0.  1.
        994   -1    0    0    0    0 -0.00000000000E+00 -0.00000000000E+00  0.11368683772E-12  0.17120000000E+03  0.17120000000E+03 0.  0.
         13    1    1    2    0    0 -0.21648323424E+02 -0.90534193073E+02  0.49498083787E+03  0.50365775190E+03  0.10566000000E+00 0.  1.
        994    1    1    2    0    0  0.41726442223E+02  0.62839588365E+02  0.27169933027E+02  0.18904379151E+03  0.17120000000E+03 0.  0.
        998    1    1    2    0    0 -0.20078118799E+02  0.27694604708E+02  0.97784922538E+03  0.97849845660E+03  0.10000000000E+02 0.  1.
</event>
<event>
 5    1  0.1294251E-008  0.3822737E+03  0.7957747E-01  0.3441318E+00
         13   -1    0    0    0    0  0.00000000000E+00  0.00000000000E+00  0.14999999963E+04  0.15000000000E+04  0.10566000000E+00 0. -1.
        994   -1    0    0    0    0 -0.00000000000E+00 -0.00000000000E+00  0.11368683772E-12  0.17120000000E+03  0.17120000000E+03 0.  0.
         13    1    1    2    0    0 -0.85806371167E+01 -0.30673494088E+02  0.18846173114E+03  0.19113431362E+03  0.10566000000E+00 0. -1.
        994    1    1    2    0    0  0.35403220943E+01  0.48216480610E+01  0.31085286070E+01  0.17133267383E+03  0.17120000000E+03 0.  0.
        998    1    1    2    0    0  0.50403150224E+01  0.25851846027E+02  0.13084297365E+04  0.13087330126E+04  0.10000000000E+02 0. -1.
</event>
<event>
 5    1  0.1294251E-008  0.3973500E+03  0.7957747E-01  0.3378926E+00
         13   -1    0    0    0    0  0.00000000000E+00  0.00000000000E+00  0.14999999963E+04  0.15000000000E+04  0.10566000000E+00 0.  1.
        994   -1    0    0    0    0 -0.00000000000E+00 -0.00000000000E+00  0.11368683772E-12  0.17120000000E+03  0.17120000000E+03 0.  0.
         13    1    1    2    0    0  0.44659398360E+02  0.22909498905E+01  0.14578060385E+02  0.47034469508E+02  0.10566000000E+00 0.  1.
        994    1    1    2    0    0 -0.17653458911E+03 -0.94180418440E+02  0.20516892412E+03  0.33382351594E+03  0.17120000000E+03 0.  0.
        998    1    1    2    0    0  0.13187519075E+03  0.91889468550E+02  0.12802530118E+04  0.12903420146E+04  0.10000000000E+02 0.  1.
</event>
<event>
 5    1  0.1294251E-008  0.3756847E+03  0.7957747E-01  0.3470166E+00
         13   -1    0    0    0    0  0.00000000000E+00  0.00000000000E+00  0.14999999963E+04  0.15000000000E+04  0.10566000000E+00 0. -1.
        994   -1    0    0    0    0 -0.00000000000E+00 -0.00000000000E+00  0.11368683772E-12  0.17120000000E+03  0.17120000000E+03 0.  0.
         13    1    1    2    0    0  0.12481166020E+02 -0.16358622823E+02  0.28171456164E+02  0.34885901913E+02  0.10566000000E+00 0. -1.
        994    1    1    2    0    0 -0.38824192735E+02  0.29926930384E+02  0.14520702599E+02  0.17867073042E+03  0.17120000000E+03 0.  0.
        998    1    1    2    0    0  0.26343026715E+02 -0.13568307561E+02  0.14573078375E+04  0.14576433677E+04  0.10000000000E+02 0. -1.
</event>
<event>
 5    1  0.1294251E-008  0.3788898E+03  0.7957747E-01  0.3456007E+00
         13   -1    0    0    0    0  0.00000000000E+00  0.00000000000E+00  0.14999999963E+04  0.15000000000E+04  0.10566000000E+00 0.  1.
        994   -1    0    0    0    0 -0.00000000000E+00 -0.00000000000E+00  0.11368683772E-12  0.17120000000E+03  0.17120000000E+03 0.  0.
         13    1    1    2    0    0  0.11616466183E+02  0.13865866295E+02  0.32738359052E+02  0.37403420327E+02  0.10566000000E+00 0.  1.
        994    1    1    2    0    0 -0.20601116454E+02 -0.17304956912E+01  0.61299413254E+01  0.17255264934E+03  0.17120000000E+03 0.  0.
        998    1    1    2    0    0  0.89846502715E+01 -0.12135370604E+02  0.14611316959E+04  0.14612439303E+04  0.10000000000E+02 0.  1.
</event>
<event>
 5    1  0.1294251E-008  0.3843154E+03  0.7957747E-01  0.3432581E+00
         13   -1    0    0    0    0  0.00000000000E+00  0.00000000000E+00  0.14999999963E+04  0.15000000000E+04  0.10566000000E+00 0.  1.
        994   -1    0    0    0    0 -0.00000000000E+00 -0.00000000000E+00  0.11368683772E-12  0.17120000000E+03  0.17120000000E+03 0.  0.
         13    1    1    2    0    0  0.66816753213E+01 -0.17385471629E+02  0.87208865477E+02  0.89175651333E+02  0.10566000000E+00 0.  1.
        994    1    1    2    0    0 -0.66869035833E+00  0.13467588574E+02  0.25699308458E+01  0.17174943270E+03  0.17120000000E+03 0.  0.
        998    1    1    2    0    0 -0.60129849630E+01  0.39178830553E+01  0.14102212000E+04  0.14102749160E+04  0.10000000000E+02 0.  1.
</event>
<event>
 5    1  0.1294251E-008  0.3699633E+03  0.7957747E-01  0.3496060E+00
         13   -1    0    0    0    0  0.00000000000E+00  0.00000000000E+00  0.14999999963E+04  0.15000000000E+04  0.10566000000E+00 0.  1.
        994   -1    0    0    0    0 -0.00000000000E+00 -0.00000000000E+00  0.11368683772E-12  0.17120000000E+03  0.17120000000E+03 0.  0.
         13    1    1    2    0    0 -0.11295459134E+02 -0.10828507207E+02  0.89832358767E+01  0.18043105504E+02  0.10566000000E+00 0.  1.
        994    1    1    2    0    0  0.14132415068E+02  0.38823651832E+01  0.10031390525E+02  0.17211875758E+03  0.17120000000E+03 0.  0.
        998    1    1    2    0    0 -0.28369559340E+01  0.69461420239E+01  0.14809853699E+04  0.14810381369E+04  0.10000000000E+02 0.  1.
</event>
<event>
 5    1  0.1294251E-008  0.3774540E+03  0.7957747E-01  0.3462320E+00
         13   -1    0    0    0    0  0.00000000000E+00  0.00000000000E+00  0.14999999963E+04  0.15000000000E+04  0.10566000000E+00 0.  1.
        994   -1    0    0    0    0 -0.00000000000E+00 -0.00000000000E+00  0.11368683772E-12  0.17120000000E+03  0.17120000000E+03 0.  0.
         13    1    1    2    0    0  0.17576160184E+02  0.40904100890E+01  0.27528610438E+02  0.32916385254E+02  0.10566000000E+00 0.  1.
        994    1    1    2    0    0 -0.13629872236E+02 -0.10801080500E+02  0.64441845065E+01  0.17220163841E+03  0.17120000000E+03 0.  0.
        998    1    1    2    0    0 -0.39462879480E+01  0.67106704113E+01  0.14660272013E+04  0.14660819763E+04  0.10000000000E+02 0.  1.
</event>
<event>
 5    1  0.1294251E-008  0.3773957E+03  0.7957747E-01  0.3462577E+00
         13   -1    0    0    0    0  0.00000000000E+00  0.00000000000E+00  0.14999999963E+04  0.15000000000E+04  0.10566000000E+00 0. -1.
        994   -1    0    0    0    0 -0.00000000000E+00 -0.00000000000E+00  0.11368683772E-12  0.17120000000E+03  0.17120000000E+03 0.  0.
         13    1    1    2    0    0 -0.32470943842E+02  0.19430340948E+02  0.16708967070E+03  0.17132095482E+03  0.10566000000E+00 0. -1.
        994    1    1    2    0    0 -0.17014921785E+02  0.89008873388E+01  0.66979434889E+01  0.17240370009E+03  0.17120000000E+03 0.  0.
        998    1    1    2    0    0  0.49485865627E+02 -0.28331228287E+02  0.13262123821E+04  0.13274753451E+04  0.10000000000E+02 0. -1.
</event>
<event>
 5    1  0.1294251E-008  0.3843068E+03  0.7957747E-01  0.3432618E+00
         13   -1    0    0    0    0  0.00000000000E+00  0.00000000000E+00  0.14999999963E+04  0.15000000000E+04  0.10566000000E+00 0. -1.
        994   -1    0    0    0    0 -0.00000000000E+00 -0.00000000000E+00  0.11368683772E-12  0.17120000000E+03  0.17120000000E+03 0.  0.
         13    1    1    2    0    0 -0.16271920069E+02 -0.76689702642E+01  0.81401668892E+02  0.83365648502E+02  0.10566000000E+00 0. -1.
        994    1    1    2    0    0  0.96363971636E+01  0.77216934980E+01  0.24774714547E+01  0.17166264173E+03  0.17120000000E+03 0.  0.
        998    1    1    2    0    0  0.66355229057E+01 -0.52723233800E-01  0.14161208559E+04  0.14161717098E+04  0.10000000000E+02 0. -1.
</event>
<event>
 5    1  0.1294251E-008  0.3815518E+03  0.7957747E-01  0.3444429E+00
         13   -1    0    0    0    0  0.00000000000E+00  0.00000000000E+00  0.14999999963E+04  0.15000000000E+04  0.10566000000E+00 0.  1.
        994   -1    0    0    0    0 -0.00000000000E+00 -0.00000000000E+00  0.11368683772E-12  0.17120000000E+03  0.17120000000E+03 0.  0.
         13    1    1    2    0    0 -0.18195657222E+02  0.16699417101E+02  0.93838269837E+02  0.97033934906E+02  0.10566000000E+00 0.  1.
        994    1    1    2    0    0  0.54369199573E+01 -0.50401211023E+01  0.35346879228E+01  0.17139689886E+03  0.17120000000E+03 0.  0.
        998    1    1    2    0    0  0.12758737264E+02 -0.11659295999E+02  0.14026270385E+04  0.14027691662E+04  0.10000000000E+02 0.  1.
</event>
<event>
 5    1  0.1294251E-008  0.3792937E+03  0.7957747E-01  0.3454239E+00
         13   -1    0    0    0    0  0.00000000000E+00  0.00000000000E+00  0.14999999963E+04  0.15000000000E+04  0.10566000000E+00 0.  1.
        994   -1    0    0    0    0 -0.00000000000E+00 -0.00000000000E+00  0.11368683772E-12  0.17120000000E+03  0.17120000000E+03 0.  0.
         13    1    1    2    0    0 -0.62259863823E+02  0.14503960730E+02  0.11605663158E+03  0.13249833365E+03  0.10566000000E+00 0.  1.
        994    1    1    2    0    0  0.60716725743E+02  0.18698754822E+01  0.29399629376E+02  0.18402118201E+03  0.17120000000E+03 0.  0.
        998    1    1    2    0    0  0.15431380800E+01 -0.16373836212E+02  0.13545437353E+04  0.13546804843E+04  0.10000000000E+02 0.  1.
</event>
<event>
 5    1  0.1294251E-008  0.3709310E+03  0.7957747E-01  0.3491623E+00
         13   -1    0    0    0    0  0.00000000000E+00  0.00000000000E+00  0.14999999963E+04  0.15000000000E+04  0.10566000000E+00 0. -1.
        994   -1    0    0    0    0 -0.00000000000E+00 -0.00000000000E+00  0.11368683772E-12  0.17120000000E+03  0.17120000000E+03 0.  0.
         13    1    1    2    0    0 -0.11952200439E+02 -0.70003808551E+01  0.69608320374E+01  0.15502411882E+02  0.10566000000E+00 0. -1.
        994    1    1    2    0    0  0.78110408336E+01  0.37442918580E+01  0.90419176358E+01  0.17165729916E+03  0.17120000000E+03 0.  0.
        998    1    1    2    0    0  0.41411596059E+01  0.32560889970E+01  0.14839972466E+04  0.14840402890E+04  0.10000000000E+02 0. -1.
</event>
<event>
 5    1  0.1294251E-008  0.3857697E+03  0.7957747E-01  0.3426414E+00
         13   -1    0    0    0    0  0.00000000000E+00  0.00000000000E+00  0.14999999963E+04  0.15000000000E+04  0.10566000000E+00 0.  1.
        994   -1    0    0    0    0 -0.00000000000E+00 -0.00000000000E+00  0.11368683772E-12  0.17120000000E+03  0.17120000000E+03 0.  0.
         13    1    1    2    0    0  0.97358556601E+01 -0.18431908397E+02  0.12516544515E+03  0.12688940837E+03  0.10566000000E+00 0.  1.
        994    1    1    2    0    0 -0.45295784075E+02  0.32638811736E+02  0.11541207719E+02  0.18044289834E+03  0.17120000000E+03 0.  0.
        998    1    1    2    0    0  0.35559928415E+02 -0.14206903339E+02  0.13632933434E+04  0.13638676933E+04  0.10000000000E+02 0.  1.
</event>
<event>
 5    1  0.1294251E-008  0.3809553E+03  0.7957747E-01  0.3447009E+00
         13   -1    0    0    0    0  0.00000000000E+00  0.00000000000E+00  0.14999999963E+04  0.15000000000E+04  0.10566000000E+00 0. -1.
        994   -1    0    0    0    0 -0.00000000000E+00 -0.00000000000E+00  0.11368683772E-12  0.17120000000E+03  0.17120000000E+03 0.  0.
         13    1    1    2    0    0 -0.95437435609E+01  0.52137876474E+01  0.14611490157E+02  0.18214648815E+02  0.10566000000E+00 0. -1.
        994    1    1    2    0    0  0.71615101915E+01 -0.50072913338E+01  0.39062031618E+01  0.17146736896E+03  0.17120000000E+03 0.  0.
        998    1    1    2    0    0  0.23822333693E+01 -0.20649631355E+00  0.14814823030E+04  0.14815179822E+04  0.10000000000E+02 0. -1.
</event>
<event>
 5    1  0.1294251E-008  0.3842863E+03  0.7957747E-01  0.3432705E+00
         13   -1    0    0    0    0  0.00000000000E+00  0.00000000000E+00  0.14999999963E+04  0.15000000000E+04  0.10566000000E+00 0.  1.
        994   -1    0    0    0    0 -0.00000000000E+00 -0.00000000000E+00  0.11368683772E-12  0.17120000000E+03  0.17120000000E+03 0.  0.
         13    1    1    2    0    0 -0.53524956912E+01 -0.10792552093E+02  0.37196333342E+02  0.39098679888E+02  0.10566000000E+00 0.  1.
        994    1    1    2    0    0 -0.34869731025E+01  0.34822719801E+01  0.20649671939E+01  0.17128335964E+03  0.17120000000E+03 0.  0.
        998    1    1    2    0    0  0.88394687937E+01  0.73102801126E+01  0.14607386957E+04  0.14608179605E+04  0.10000000000E+02 0.  1.
</event>
<event>
 5    1  0.1294251E-008  0.3562826E+03  0.7957747E-01  0.3561411E+00
         13   -1    0    0    0    0  0.00000000000E+00  0.00000000000E+00  0.14999999963E+04  0.15000000000E+04  0.10566000000E+00 0. -1.
        994   -1    0    0    0    0 -0.00000000000E+00 -0.00000000000E+00  0.11368683772E-12  0.17120000000E+03  0.17120000000E+03 0.  0.
         13    1    1    2    0    0  0.24594359087E+03 -0.15116281341E+03  0.78551842911E+03  0.83688569093E+03  0.10566000000E+00 0. -1.
        994    1    1    2    0    0 -0.25709711751E+03  0.15376758551E+03  0.43878176077E+03  0.55819554976E+03  0.17120000000E+03 0.  0.
        998    1    1    2    0    0  0.11153526645E+02 -0.26047720970E+01  0.27569980640E+03  0.27611875931E+03  0.10000000000E+02 0. -1.
</event>
<event>
 5    1  0.1294251E-008  0.3760798E+03  0.7957747E-01  0.3468408E+00
         13   -1    0    0    0    0  0.00000000000E+00  0.00000000000E+00  0.14999999963E+04  0.15000000000E+04  0.10566000000E+00 0.  1.
        994   -1    0    0    0    0 -0.00000000000E+00 -0.00000000000E+00  0.11368683772E-12  0.17120000000E+03  0.17120000000E+03 0.  0.
         13    1    1    2    0    0 -0.78578508719E+01  0.33338788891E+02  0.95124489132E+02  0.10110341370E+03  0.10566000000E+00 0.  1.
        994    1    1    2    0    0  0.18840748480E+02 -0.13346741797E+02  0.79329380791E+01  0.17293201215E+03  0.17120000000E+03 0.  0.
        998    1    1    2    0    0 -0.10982897608E+02 -0.19992047094E+02  0.13969425691E+04  0.13971645742E+04  0.10000000000E+02 0.  1.
</event>
<event>
 5    1  0.1294251E-008  0.3688734E+03  0.7957747E-01  0.3501085E+00
         13   -1    0    0    0    0  0.00000000000E+00  0.00000000000E+00  0.14999999963E+04  0.15000000000E+04  0.10566000000E+00 0.  1.
        994   -1    0    0    0    0 -0.00000000000E+00 -0.00000000000E+00  0.11368683772E-12  0.17120000000E+03  0.17120000000E+03 0.  0.
         13    1    1    2    0    0  0.34673429131E+02  0.49460324779E+00  0.51756988110E+02  0.62299986375E+02  0.10566000000E+00 0.  1.
        994    1    1    2    0    0 -0.39340430487E+02  0.18591561930E+01  0.15765173151E+02  0.17637773844E+03  0.17120000000E+03 0.  0.
        998    1    1    2    0    0  0.46670013556E+01 -0.23537594408E+01  0.14324778350E+04  0.14325222752E+04  0.10000000000E+02 0.  1.
</event>
<event>
 5    1  0.1294251E-008  0.3721038E+03  0.7957747E-01  0.3486278E+00
         13   -1    0    0    0    0  0.00000000000E+00  0.00000000000E+00  0.14999999963E+04  0.15000000000E+04  0.10566000000E+00 0.  1.
        994   -1    0    0    0    0 -0.00000000000E+00 -0.00000000000E+00  0.11368683772E-12  0.17120000000E+03  0.17120000000E+03 0.  0.
         13    1    1    2    0    0  0.92250330738E+02  0.24327244162E+02  0.38555317232E+03  0.39718156828E+03  0.10566000000E+00 0.  1.
        994    1    1    2    0    0 -0.98342191111E+02 -0.25221031811E+02  0.44431203257E+02  0.20393837015E+03  0.17120000000E+03 0.  0.
        998    1    1    2    0    0  0.60918603729E+01  0.89378764845E+00  0.10700156207E+04  0.10700800616E+04  0.10000000000E+02 0.  1.
</event>
<event>
 5    1  0.1294251E-008  0.3743478E+03  0.7957747E-01  0.3476145E+00
         13   -1    0    0    0    0  0.00000000000E+00  0.00000000000E+00  0.14999999963E+04  0.15000000000E+04  0.10566000000E+00 0. -1.
        994   -1    0    0    0    0 -0.00000000000E+00 -0.00000000000E+00  0.11368683772E-12  0.17120000000E+03  0.17120000000E+03 0.  0.
         13    1    1    2    0    0  0.32005989792E+02  0.35860277562E+02  0.85941217417E+02  0.98469522719E+02  0.10566000000E+00 0. -1.
        994    1    1    2    0    0 -0.55232789286E+01 -0.20141755952E+02  0.14806521775E+02  0.17310363956E+03  0.17120000000E+03 0.  0.
        998    1    1    2    0    0 -0.26482710864E+02 -0.15718521609E+02  0.13992522571E+04  0.13996268377E+04  0.10000000000E+02 0. -1.
</event>
<event>
 5    1  0.1294251E-008  0.3828531E+03  0.7957747E-01  0.3438829E+00
         13   -1    0    0    0    0  0.00000000000E+00  0.00000000000E+00  0.14999999963E+04  0.15000000000E+04  0.10566000000E+00 0. -1.
        994   -1    0    0    0    0 -0.00000000000E+00 -0.00000000000E+00  0.11368683772E-12  0.17120000000E+03  0.17120000000E+03 0.  0.
         13    1    1    2    0    0  0.10053560755E+02  0.81597031129E+01  0.29633780764E+02  0.32339248061E+02  0.10566000000E+00 0. -1.
        994    1    1    2    0    0 -0.86659853113E+01 -0.10621192740E+02  0.33223201732E+01  0.17178005370E+03  0.17120000000E+03 0.  0.
        998    1    1    2    0    0 -0.13875754441E+01  0.24614896271E+01  0.14670438953E+04  0.14670806982E+04  0.10000000000E+02 0. -1.
</event>
<event>
 5    1  0.1294251E-008  0.3846425E+03  0.7957747E-01  0.3431190E+00
         13   -1    0    0    0    0  0.00000000000E+00  0.00000000000E+00  0.14999999963E+04  0.15000000000E+04  0.10566000000E+00 0.  1.
        994   -1    0    0    0    0 -0.00000000000E+00 -0.00000000000E+00  0.11368683772E-12  0.17120000000E+03  0.17120000000E+03 0.  0.
         13    1    1    2    0    0 -0.14032060022E+03  0.17040695351E+03  0.10476585438E+04  0.10706618683E+04  0.10566000000E+00 0.  1.
        994    1    1    2    0    0  0.15665149802E+03 -0.17895804233E+03  0.21794563510E+03  0.36520598654E+03  0.17120000000E+03 0.  0.
        998    1    1    2    0    0 -0.16330897805E+02  0.85510888197E+01  0.23439581735E+03  0.23533214514E+03  0.10000000000E+02 0. -1.
</event>
<event>
 5    1  0.1294251E-008  0.3763292E+03  0.7957747E-01  0.3467299E+00
         13   -1    0    0    0    0  0.00000000000E+00  0.00000000000E+00  0.14999999963E+04  0.15000000000E+04  0.10566000000E+00 0. -1.
        994   -1    0    0    0    0 -0.00000000000E+00 -0.00000000000E+00  0.11368683772E-12  0.17120000000E+03  0.17120000000E+03 0.  0.
         13    1    1    2    0    0 -0.10569864882E+02  0.31105968168E+02  0.98739483753E+02  0.10406152082E+03  0.10566000000E+00 0. -1.
        994    1    1    2    0    0  0.42406534059E+01  0.80398907825E+01  0.62773802999E+01  0.17155602143E+03  0.17120000000E+03 0.  0.
        998    1    1    2    0    0  0.63292114757E+01 -0.39145858951E+02  0.13949831322E+04  0.13955824578E+04  0.10000000000E+02 0. -1.
</event>
<event>
 5    1  0.1294251E-008  0.3785955E+03  0.7957747E-01  0.3457297E+00
         13   -1    0    0    0    0  0.00000000000E+00  0.00000000000E+00  0.14999999963E+04  0.15000000000E+04  0.10566000000E+00 0.  1.
        994   -1    0    0    0    0 -0.00000000000E+00 -0.00000000000E+00  0.11368683772E-12  0.17120000000E+03  0.17120000000E+03 0.  0.
         13    1    1    2    0    0  0.12192420209E+03 -0.15547874466E+03  0.10801420796E+04  0.10980646950E+04  0.10566000000E+00 0.  1.
        994    1    1    2    0    0 -0.13782078525E+03  0.13762414025E+03  0.14508496969E+03  0.29714316626E+03  0.17120000000E+03 0.  0.
        998    1    1    2    0    0  0.15896583162E+02  0.17854604409E+02  0.27477294696E+03  0.27599213872E+03  0.10000000000E+02 0.  0.
</event>
<event>
 5    1  0.1294251E-008  0.3815653E+03  0.7957747E-01  0.3444371E+00
         13   -1    0    0    0    0  0.00000000000E+00  0.00000000000E+00  0.14999999963E+04  0.15000000000E+04  0.10566000000E+00 0. -1.
        994   -1    0    0    0    0 -0.00000000000E+00 -0.00000000000E+00  0.11368683772E-12  0.17120000000E+03  0.17120000000E+03 0.  0.
         13    1    1    2    0    0 -0.19704067696E+02 -0.16678431884E+02  0.99383206090E+02  0.10268131861E+03  0.10566000000E+00 0. -1.
        994    1    1    2    0    0 -0.20109701728E+00  0.22764064298E+02  0.50704945283E+01  0.17278134442E+03  0.17120000000E+03 0.  0.
        998    1    1    2    0    0  0.19905164713E+02 -0.60856324145E+01  0.13955462957E+04  0.13957373370E+04  0.10000000000E+02 0. -1.
</event>
<event>
 5    1  0.1294251E-008  0.3844936E+03  0.7957747E-01  0.3431823E+00
         13   -1    0    0    0    0  0.00000000000E+00  0.00000000000E+00  0.14999999963E+04  0.15000000000E+04  0.10566000000E+00 0.  1.
        994   -1    0    0    0    0 -0.00000000000E+00 -0.00000000000E+00  0.11368683772E-12  0.17120000000E+03  0.17120000000E+03 0.  0.
         13    1    1    2    0    0 -0.10379337593E+02 -0.15760959063E+02  0.99008662652E+02  0.10079119467E+03  0.10566000000E+00 0.  1.
        994    1    1    2    0    0  0.70299478832E+00  0.61844872889E+01  0.20094014216E+01  0.17132489539E+03  0.17120000000E+03 0.  0.
        998    1    1    2    0    0  0.96763428046E+01  0.95764717736E+01  0.13989819322E+04  0.13990839099E+04  0.10000000000E+02 0.  1.
</event>
<event>
 5    1  0.1294251E-008  0.3776601E+03  0.7957747E-01  0.3461410E+00
         13   -1    0    0    0    0  0.00000000000E+00  0.00000000000E+00  0.14999999963E+04  0.15000000000E+04  0.10566000000E+00 0. -1.
        994   -1    0    0    0    0 -0.00000000000E+00 -0.00000000000E+00  0.11368683772E-12  0.17120000000E+03  0.17120000000E+03 0.  0.
         13    1    1    2    0    0 -0.12966775034E+02 -0.81644871536E+01  0.19568335483E+02  0.24854114807E+02  0.10566000000E+00 0. -1.
        994    1    1    2    0    0  0.13881389411E+02  0.71065134985E+01  0.61387224968E+01  0.17201836943E+03  0.17120000000E+03 0.  0.
        998    1    1    2    0    0 -0.91461437752E+00  0.10579736551E+01  0.14742929383E+04  0.14743275158E+04  0.10000000000E+02 0. -1.
</event>
<event>
 5    1  0.1294251E-008  0.3840142E+03  0.7957747E-01  0.3433864E+00
         13   -1    0    0    0    0  0.00000000000E+00  0.00000000000E+00  0.14999999963E+04  0.15000000000E+04  0.10566000000E+00 0. -1.
        994   -1    0    0    0    0 -0.00000000000E+00 -0.00000000000E+00  0.11368683772E-12  0.17120000000E+03  0.17120000000E+03 0.  0.
         13    1    1    2    0    0 -0.32669311475E+01  0.12486984248E+02  0.40954066605E+02  0.42940008736E+02  0.10566000000E+00 0. -1.
        994    1    1    2    0    0  0.37438413009E+01  0.44357867490E+01  0.22315292507E+01  0.17131290750E+03  0.17120000000E+03 0.  0.
        998    1    1    2    0    0 -0.47691015335E+00 -0.16922770997E+02  0.14568144004E+04  0.14569470838E+04  0.10000000000E+02 0. -1.
</event>
<event>
 5    1  0.1294251E-008  0.3777073E+03  0.7957747E-01  0.3461203E+00
         13   -1    0    0    0    0  0.00000000000E+00  0.00000000000E+00  0.14999999963E+04  0.15000000000E+04  0.10566000000E+00 0.  1.
        994   -1    0    0    0    0 -0.00000000000E+00 -0.00000000000E+00  0.11368683772E-12  0.17120000000E+03  0.17120000000E+03 0.  0.
         13    1    1    2    0    0  0.27986288880E+02  0.35905995840E+02  0.18544478201E+03  0.19095091317E+03  0.10566000000E+00 0.  1.
        994    1    1    2    0    0 -0.10110744713E+02 -0.34789708909E+02  0.97290036753E+01  0.17526164588E+03  0.17120000000E+03 0.  0.
        998    1    1    2    0    0 -0.17875544167E+02 -0.11162869304E+01  0.13048262106E+04  0.13049874409E+04  0.10000000000E+02 0.  1.
</event>
<event>
 5    1  0.1294251E-008  0.3823652E+03  0.7957747E-01  0.3440924E+00
         13   -1    0    0    0    0  0.00000000000E+00  0.00000000000E+00  0.14999999963E+04  0.15000000000E+04  0.10566000000E+00 0. -1.
        994   -1    0    0    0    0 -0.00000000000E+00 -0.00000000000E+00  0.11368683772E-12  0.17120000000E+03  0.17120000000E+03 0.  0.
         13    1    1    2    0    0  0.23754614415E+02 -0.13588736635E+02  0.12674105060E+03  0.12966202428E+03  0.10566000000E+00 0. -1.
        994    1    1    2    0    0 -0.13462285734E+02  0.85814137281E+01  0.37898329518E+01  0.17198452440E+03  0.17120000000E+03 0.  0.
        998    1    1    2    0    0 -0.10292328681E+02  0.50073229066E+01  0.13694691127E+04  0.13695534513E+04  0.10000000000E+02 0. -1.
</event>
<event>
 5    1  0.1294251E-008  0.3707057E+03  0.7957747E-01  0.3492654E+00
         13   -1    0    0    0    0  0.00000000000E+00  0.00000000000E+00  0.14999999963E+04  0.15000000000E+04  0.10566000000E+00 0. -1.
        994   -1    0    0    0    0 -0.00000000000E+00 -0.00000000000E+00  0.11368683772E-12  0.17120000000E+03  0.17120000000E+03 0.  0.
         13    1    1    2    0    0  0.19428223656E+02  0.13252303581E+01  0.17265013290E+02  0.26025064032E+02  0.10566000000E+00 0. -1.
        994    1    1    2    0    0 -0.18617644620E+02 -0.29621056373E+01  0.10127436227E+02  0.17253230343E+03  0.17120000000E+03 0.  0.
        998    1    1    2    0    0 -0.81057903613E+00  0.16368752792E+01  0.14726075468E+04  0.14726426325E+04  0.10000000000E+02 0. -1.
</event>
<event>
 5    1  0.1294251E-008  0.3853249E+03  0.7957747E-01  0.3428295E+00
         13   -1    0    0    0    0  0.00000000000E+00  0.00000000000E+00  0.14999999963E+04  0.15000000000E+04  0.10566000000E+00 0.  1.
        994   -1    0    0    0    0 -0.00000000000E+00 -0.00000000000E+00  0.11368683772E-12  0.17120000000E+03  0.17120000000E+03 0.  0.
         13    1    1    2    0    0  0.40605664623E+01 -0.14955845330E+02  0.84611418504E+02  0.86019002637E+02  0.10566000000E+00 0.  1.
        994    1    1    2    0    0  0.30061977480E+01  0.70812879949E+01  0.16633685000E+01  0.17138082932E+03  0.17120000000E+03 0.  0.
        998    1    1    2    0    0 -0.70667642103E+01  0.78745573348E+01  0.14137252093E+04  0.14138001680E+04  0.10000000000E+02 0.  1.
</event>
<event>
 5    1  0.1294251E-008  0.3764868E+03  0.7957747E-01  0.3466600E+00
         13   -1    0    0    0    0  0.00000000000E+00  0.00000000000E+00  0.14999999963E+04  0.15000000000E+04  0.10566000000E+00 0. -1.
        994   -1    0    0    0    0 -0.00000000000E+00 -0.00000000000E+00  0.11368683772E-12  0.17120000000E+03  0.17120000000E+03 0.  0.
         13    1    1    2    0    0 -0.15064088081E+02 -0.23436018358E+02  0.67722232012E+02  0.73228994114E+02  0.10566000000E+00 0. -1.
        994    1    1    2    0    0 -0.20860248157E+02  0.13517726734E+02  0.80098361574E+01  0.17318047339E+03  0.17120000000E+03 0.  0.
        998    1    1    2    0    0  0.35924336238E+02  0.99182916238E+01  0.14242679281E+04  0.14247905325E+04  0.10000000000E+02 0. -1.
</event>
<event>
 5    1  0.1294251E-008  0.3816562E+03  0.7957747E-01  0.3443979E+00
         13   -1    0    0    0    0  0.00000000000E+00  0.00000000000E+00  0.14999999963E+04  0.15000000000E+04  0.10566000000E+00 0. -1.
        994   -1    0    0    0    0 -0.00000000000E+00 -0.00000000000E+00  0.11368683772E-12  0.17120000000E+03  0.17120000000E+03 0.  0.
         13    1    1    2    0    0 -0.37976335597E+01  0.19332137366E+02  0.61449564178E+02  0.64530718712E+02  0.10566000000E+00 0. -1.
        994    1    1    2    0    0 -0.13034270097E+02 -0.14427046104E+01  0.38714168802E+01  0.17174516431E+03  0.17120000000E+03 0.  0.
        998    1    1    2    0    0  0.16831903657E+02 -0.17889432756E+02  0.14346790152E+04  0.14349241170E+04  0.10000000000E+02 0. -1.
</event>
<event>
 5    1  0.1553873E-008  0.3864273E+03  0.7957747E-01  0.3423641E+00
         13   -1    0    0    0    0  0.00000000000E+00  0.00000000000E+00  0.14999999963E+04  0.15000000000E+04  0.10566000000E+00 0.  1.
        994   -1    0    0    0    0 -0.00000000000E+00 -0.00000000000E+00  0.11368683772E-12  0.17120000000E+03  0.17120000000E+03 0.  0.
         13    1    1    2    0    0 -0.63327502698E+01 -0.78410725705E+01  0.55106490742E+02  0.56020733938E+02  0.10566000000E+00 0.  1.
        994    1    1    2    0    0  0.50649714069E+01  0.77516022966E+01  0.12038883563E+01  0.17145445640E+03  0.17120000000E+03 0.  0.
        998    1    1    2    0    0  0.12677788630E+01  0.89470273928E-01  0.14436896172E+04  0.14437248097E+04  0.10000000000E+02 0.  1.
</event>
<event>
 5    1  0.1294251E-008  0.3823001E+03  0.7957747E-01  0.3441204E+00
         13   -1    0    0    0    0  0.00000000000E+00  0.00000000000E+00  0.14999999963E+04  0.15000000000E+04  0.10566000000E+00 0. -1.
        994   -1    0    0    0    0 -0.00000000000E+00 -0.00000000000E+00  0.11368683772E-12  0.17120000000E+03  0.17120000000E+03 0.  0.
         13    1    1    2    0    0  0.98923173248E+01  0.75869871393E+01  0.25262190348E+02  0.28171079871E+02  0.10566000000E+00 0. -1.
        994    1    1    2    0    0  0.80824099514E+00 -0.97821297103E+01  0.32962327080E+01  0.17151282303E+03  0.17120000000E+03 0.  0.
        998    1    1    2    0    0 -0.10700558320E+02  0.21951425710E+01  0.14714415732E+04  0.14715160971E+04  0.10000000000E+02 0. -1.
</event>
<event>
 5    1  0.1294251E-008  0.3811538E+03  0.7957747E-01  0.3446150E+00
         13   -1    0    0    0    0  0.00000000000E+00  0.00000000000E+00  0.14999999963E+04  0.15000000000E+04  0.10566000000E+00 0. -1.
        994   -1    0    0    0    0 -0.00000000000E+00 -0.00000000000E+00  0.11368683772E-12  0.17120000000E+03  0.17120000000E+03 0.  0.
         13    1    1    2    0    0 -0.37796854989E+00  0.16074758618E+02  0.40107148997E+02  0.43210360905E+02  0.10566000000E+00 0. -1.
        994    1    1    2    0    0 -0.24825148349E+01  0.25917026243E+02  0.58125214642E+01  0.17326592433E+03  0.17120000000E+03 0.  0.
        998    1    1    2    0    0  0.28604833848E+01 -0.41991784861E+02  0.14540803258E+04  0.14547237148E+04  0.10000000000E+02 0. -1.
</event>
<event>
 5    1  0.1294251E-008  0.3806897E+03  0.7957747E-01  0.3448161E+00
         13   -1    0    0    0    0  0.00000000000E+00  0.00000000000E+00  0.14999999963E+04  0.15000000000E+04  0.10566000000E+00 0. -1.
        994   -1    0    0    0    0 -0.00000000000E+00 -0.00000000000E+00  0.11368683772E-12  0.17120000000E+03  0.17120000000E+03 0.  0.
         13    1    1    2    0    0 -0.11003448812E+02  0.50043313326E+01  0.17506421973E+02  0.21274519787E+02  0.10566000000E+00 0. -1.
        994    1    1    2    0    0  0.12003260656E+02 -0.52716750528E+01  0.43588198113E+01  0.17175653738E+03  0.17120000000E+03 0.  0.
        998    1    1    2    0    0 -0.99981184368E+00  0.26734372021E+00  0.14781347545E+04  0.14781689428E+04  0.10000000000E+02 0. -1.
</event>
<event>
 5    1  0.1294251E-008  0.3778358E+03  0.7957747E-01  0.3460637E+00
         13   -1    0    0    0    0  0.00000000000E+00  0.00000000000E+00  0.14999999963E+04  0.15000000000E+04  0.10566000000E+00 0.  1.
        994   -1    0    0    0    0 -0.00000000000E+00 -0.00000000000E+00  0.11368683772E-12  0.17120000000E+03  0.17120000000E+03 0.  0.
         13    1    1    2    0    0 -0.47162889851E+02 -0.13004202622E+02  0.20138178411E+03  0.20723918934E+03  0.10566000000E+00 0.  1.
        994    1    1    2    0    0  0.42448164619E+02  0.21303978944E+02  0.12862545752E+02  0.17813082631E+03  0.17120000000E+03 0.  0.
        998    1    1    2    0    0  0.47147252319E+01 -0.82997763220E+01  0.12857556664E+04  0.12858299843E+04  0.10000000000E+02 0.  1.
</event>
<event>
 5    1  0.1294251E-008  0.3786478E+03  0.7957747E-01  0.3457068E+00
         13   -1    0    0    0    0  0.00000000000E+00  0.00000000000E+00  0.14999999963E+04  0.15000000000E+04  0.10566000000E+00 0.  1.
        994   -1    0    0    0    0 -0.00000000000E+00 -0.00000000000E+00  0.11368683772E-12  0.17120000000E+03  0.17120000000E+03 0.  0.
         13    1    1    2    0    0  0.26535941099E+02  0.33327639488E+02  0.17798922560E+03  0.18301656570E+03  0.10566000000E+00 0.  1.
        994    1    1    2    0    0 -0.25538860017E+02 -0.20879785370E+02  0.84800507317E+01  0.17455529230E+03  0.17120000000E+03 0.  0.
        998    1    1    2    0    0 -0.99708108191E+00 -0.12447854119E+02  0.13135307199E+04  0.13136281420E+04  0.10000000000E+02 0.  1.
</event>
<event>
 5    1  0.1294251E-008  0.3854513E+03  0.7957747E-01  0.3427761E+00
         13   -1    0    0    0    0  0.00000000000E+00  0.00000000000E+00  0.14999999963E+04  0.15000000000E+04  0.10566000000E+00 0.  1.
        994   -1    0    0    0    0 -0.00000000000E+00 -0.00000000000E+00  0.11368683772E-12  0.17120000000E+03  0.17120000000E+03 0.  0.
         13    1    1    2    0    0 -0.11652692814E+02  0.18881847610E+01  0.48713859725E+02  0.50123864425E+02  0.10566000000E+00 0.  1.
        994    1    1    2    0    0  0.11148001704E+02 -0.27451399724E+01  0.18392330148E+01  0.17159439534E+03  0.17120000000E+03 0.  0.
        998    1    1    2    0    0  0.50469110955E+00  0.85695521131E+00  0.14494469035E+04  0.14494817402E+04  0.10000000000E+02 0.  1.
</event>
<event>
 5    1  0.1294251E-008  0.3835121E+03  0.7957747E-01  0.3436007E+00
         13   -1    0    0    0    0  0.00000000000E+00  0.00000000000E+00  0.14999999963E+04  0.15000000000E+04  0.10566000000E+00 0. -1.
        994   -1    0    0    0    0 -0.00000000000E+00 -0.00000000000E+00  0.11368683772E-12  0.17120000000E+03  0.17120000000E+03 0.  0.
         13    1    1    2    0    0  0.28955782589E+01  0.10953971175E+02  0.25974345315E+02  0.28338165723E+02  0.10566000000E+00 0. -1.
        994    1    1    2    0    0 -0.17455734680E+01 -0.11268788356E+02  0.28004855565E+01  0.17160220085E+03  0.17120000000E+03 0.  0.
        998    1    1    2    0    0 -0.11500047908E+01  0.31481718191E+00  0.14712251654E+04  0.14712596334E+04  0.10000000000E+02 0. -1.
</event>
<event>
 5    1  0.1294251E-008  0.3722957E+03  0.7957747E-01  0.3485406E+00
         13   -1    0    0    0    0  0.00000000000E+00  0.00000000000E+00  0.14999999963E+04  0.15000000000E+04  0.10566000000E+00 0.  1.
        994   -1    0    0    0    0 -0.00000000000E+00 -0.00000000000E+00  0.11368683772E-12  0.17120000000E+03  0.17120000000E+03 0.  0.
         13    1    1    2    0    0  0.15970338377E+03 -0.12582724760E+03  0.97880223145E+03  0.99969569694E+03  0.10566000000E+00 0.  1.
        994    1    1    2    0    0 -0.15371937044E+03  0.10798448298E+03  0.14089478034E+03  0.29060466710E+03  0.17120000000E+03 0.  0.
        998    1    1    2    0    0 -0.59840133333E+01  0.17842764618E+02  0.38030298449E+03  0.38089963596E+03  0.10000000000E+02 0.  1.
</event>
<event>
 5    1  0.1294251E-008  0.3797777E+03  0.7957747E-01  0.3452127E+00
         13   -1    0    0    0    0  0.00000000000E+00  0.00000000000E+00  0.14999999963E+04  0.15000000000E+04  0.10566000000E+00 0. -1.
        994   -1    0    0    0    0 -0.00000000000E+00 -0.00000000000E+00  0.11368683772E-12  0.17120000000E+03  0.17120000000E+03 0.  0.
         13    1    1    2    0    0 -0.95840791750E+01 -0.14360675299E+02  0.33398010624E+02  0.37596832930E+02  0.10566000000E+00 0. -1.
        994    1    1    2    0    0  0.90945155377E+01  0.83925130882E+01  0.47579009667E+01  0.17171261488E+03  0.17120000000E+03 0.  0.
        998    1    1    2    0    0  0.48956363732E+00  0.59681622112E+01  0.14618440847E+04  0.14618905522E+04  0.10000000000E+02 0. -1.
</event>
<event>
 5    1  0.1294251E-008  0.3756563E+03  0.7957747E-01  0.3470293E+00
         13   -1    0    0    0    0  0.00000000000E+00  0.00000000000E+00  0.14999999963E+04  0.15000000000E+04  0.10566000000E+00 0.  1.
        994   -1    0    0    0    0 -0.00000000000E+00 -0.00000000000E+00  0.11368683772E-12  0.17120000000E+03  0.17120000000E+03 0.  0.
         13    1    1    2    0    0 -0.35215115282E+02 -0.18352580552E+02  0.11252062121E+03  0.11932234878E+03  0.10566000000E+00 0.  1.
        994    1    1    2    0    0  0.39550820820E+02  0.15014633457E+02  0.12436449250E+02  0.17678747669E+03  0.17120000000E+03 0.  0.
        998    1    1    2    0    0 -0.43357055376E+01  0.33379470954E+01  0.13750429258E+04  0.13750901745E+04  0.10000000000E+02 0.  1.
</event>
<event>
 5    1  0.1294251E-008  0.3825770E+03  0.7957747E-01  0.3440014E+00
         13   -1    0    0    0    0  0.00000000000E+00  0.00000000000E+00  0.14999999963E+04  0.15000000000E+04  0.10566000000E+00 0. -1.
        994   -1    0    0    0    0 -0.00000000000E+00 -0.00000000000E+00  0.11368683772E-12  0.17120000000E+03  0.17120000000E+03 0.  0.
         13    1    1    2    0    0  0.40914721367E+02  0.13566458139E+02  0.25591791229E+03  0.25952273929E+03  0.10566000000E+00 0. -1.
        994    1    1    2    0    0 -0.49384807335E+02 -0.98393084415E+01  0.11288802743E+02  0.17880869177E+03  0.17120000000E+03 0.  0.
        998    1    1    2    0    0  0.84700859675E+01 -0.37271496972E+01  0.12327932812E+04  0.12328685689E+04  0.10000000000E+02 0. -1.
</event>
<event>
 5    1  0.1294251E-008  0.4343042E+03  0.7957747E-01  0.3244176E+00
         13   -1    0    0    0    0  0.00000000000E+00  0.00000000000E+00  0.14999999963E+04  0.15000000000E+04  0.10566000000E+00 0.  1.
        994   -1    0    0    0    0 -0.00000000000E+00 -0.00000000000E+00  0.11368683772E-12  0.17120000000E+03  0.17120000000E+03 0.  0.
         13    1    1    2    0    0  0.48137228393E+02  0.12406053275E+03  0.21718261987E+03  0.25470867688E+03  0.10566000000E+00 0.  1.
        994    1    1    2    0    0 -0.53646720929E+02  0.43659669258E+01  0.63482792079E+02  0.19035896938E+03  0.17120000000E+03 0.  0.
        998    1    1    2    0    0  0.55094925355E+01 -0.12842649968E+03  0.12193345843E+04  0.12261323537E+04  0.10000000000E+02 0.  1.
</event>
<event>
 5    1  0.1294251E-008  0.3787102E+03  0.7957747E-01  0.3456794E+00
         13   -1    0    0    0    0  0.00000000000E+00  0.00000000000E+00  0.14999999963E+04  0.15000000000E+04  0.10566000000E+00 0. -1.
        994   -1    0    0    0    0 -0.00000000000E+00 -0.00000000000E+00  0.11368683772E-12  0.17120000000E+03  0.17120000000E+03 0.  0.
         13    1    1    2    0    0 -0.20463296058E+02  0.91825849597E+02  0.27894839523E+03  0.29438571892E+03  0.10566000000E+00 0. -1.
        994    1    1    2    0    0  0.36088887118E+02 -0.49829590956E+02  0.29401933891E+02  0.18428051884E+03  0.17120000000E+03 0.  0.
        998    1    1    2    0    0 -0.15625591060E+02 -0.41996258641E+02  0.11916496672E+04  0.11925337622E+04  0.10000000000E+02 0. -1.
</event>
<event>
 5    1  0.1294251E-008  0.3827690E+03  0.7957747E-01  0.3439190E+00
         13   -1    0    0    0    0  0.00000000000E+00  0.00000000000E+00  0.14999999963E+04  0.15000000000E+04  0.10566000000E+00 0.  1.
        994   -1    0    0    0    0 -0.00000000000E+00 -0.00000000000E+00  0.11368683772E-12  0.17120000000E+03  0.17120000000E+03 0.  0.
         13    1    1    2    0    0  0.74984331133E+01 -0.27674445188E+02  0.14726607732E+03  0.15003136375E+03  0.10566000000E+00 0.  1.
        994    1    1    2    0    0  0.12158099891E+01  0.19796308465E+02  0.40460392310E+01  0.17239252436E+03  0.17120000000E+03 0.  0.
        998    1    1    2    0    0 -0.87142431024E+01  0.78781367229E+01  0.13486878797E+04  0.13487761119E+04  0.10000000000E+02 0.  1.
</event>
<event>
 5    1  0.1294251E-008  0.3837925E+03  0.7957747E-01  0.3434810E+00
         13   -1    0    0    0    0  0.00000000000E+00  0.00000000000E+00  0.14999999963E+04  0.15000000000E+04  0.10566000000E+00 0.  1.
        994   -1    0    0    0    0 -0.00000000000E+00 -0.00000000000E+00  0.11368683772E-12  0.17120000000E+03  0.17120000000E+03 0.  0.
         13    1    1    2    0    0 -0.25138241252E+02  0.38323830374E+01  0.13124076723E+03  0.13368159364E+03  0.10566000000E+00 0.  1.
        994    1    1    2    0    0  0.28514605275E+02  0.16578843636E+01  0.49290186894E+01  0.17363630530E+03  0.17120000000E+03 0.  0.
        998    1    1    2    0    0 -0.33763640226E+01 -0.54902674010E+01  0.13638302104E+04  0.13638821011E+04  0.10000000000E+02 0.  1.
</event>
<event>
 5    1  0.1294251E-008  0.3832804E+03  0.7957747E-01  0.3436998E+00
         13   -1    0    0    0    0  0.00000000000E+00  0.00000000000E+00  0.14999999963E+04  0.15000000000E+04  0.10566000000E+00 0. -1.
        994   -1    0    0    0    0 -0.00000000000E+00 -0.00000000000E+00  0.11368683772E-12  0.17120000000E+03  0.17120000000E+03 0.  0.
         13    1    1    2    0    0  0.10254846496E+02 -0.12398816569E+01  0.20876397914E+02  0.23292366498E+02  0.10566000000E+00 0. -1.
        994    1    1    2    0    0 -0.19134227326E+01  0.52422015850E+01  0.25893097161E+01  0.17131049702E+03  0.17120000000E+03 0.  0.
        998    1    1    2    0    0 -0.83414237637E+01 -0.40023199280E+01  0.14765342886E+04  0.14765971365E+04  0.10000000000E+02 0. -1.
</event>
<event>
 5    1  0.1366921E-008  0.3858403E+03  0.7957747E-01  0.3426116E+00
         13   -1    0    0    0    0  0.00000000000E+00  0.00000000000E+00  0.14999999963E+04  0.15000000000E+04  0.10566000000E+00 0.  1.
        994   -1    0    0    0    0 -0.00000000000E+00 -0.00000000000E+00  0.11368683772E-12  0.17120000000E+03  0.17120000000E+03 0.  0.
         13    1    1    2    0    0 -0.67897703472E+01  0.82664450576E+01  0.47065454495E+02  0.48265963847E+02  0.10566000000E+00 0.  1.
        994    1    1    2    0    0  0.70453122799E+01 -0.57795619595E+01  0.14858966644E+01  0.17144879017E+03  0.17120000000E+03 0.  0.
        998    1    1    2    0    0 -0.25554193269E+00 -0.24868830981E+01  0.14514486451E+04  0.14514852460E+04  0.10000000000E+02 0.  1.
</event>
<event>
 5    1  0.1294251E-008  0.3704272E+03  0.7957747E-01  0.3493930E+00
         13   -1    0    0    0    0  0.00000000000E+00  0.00000000000E+00  0.14999999963E+04  0.15000000000E+04  0.10566000000E+00 0.  1.
        994   -1    0    0    0    0 -0.00000000000E+00 -0.00000000000E+00  0.11368683772E-12  0.17120000000E+03  0.17120000000E+03 0.  0.
         13    1    1    2    0    0 -0.94691763503E+01 -0.29191036790E+02  0.37574991305E+02  0.48514668558E+02  0.10566000000E+00 0.  1.
        994    1    1    2    0    0  0.96551171485E+01  0.21205424867E+02  0.13067940638E+02  0.17327175882E+03  0.17120000000E+03 0.  0.
        998    1    1    2    0    0 -0.18594079819E+00  0.79856119228E+01  0.14493570643E+04  0.14494135726E+04  0.10000000000E+02 0.  1.
</event>
<event>
 5    1  0.1621143E-008  0.3858574E+03  0.7957747E-01  0.3426044E+00
         13   -1    0    0    0    0  0.00000000000E+00  0.00000000000E+00  0.14999999963E+04  0.15000000000E+04  0.10566000000E+00 0. -1.
        994   -1    0    0    0    0 -0.00000000000E+00 -0.00000000000E+00  0.11368683772E-12  0.17120000000E+03  0.17120000000E+03 0.  0.
         13    1    1    2    0    0  0.67171281670E+01  0.80159115700E+01  0.48165821364E+02  0.49288255810E+02  0.10566000000E+00 0. -1.
        994    1    1    2    0    0 -0.30540261953E+01  0.36460918879E+01  0.12792332399E+01  0.17127083085E+03  0.17120000000E+03 0.  0.
        998    1    1    2    0    0 -0.36631019717E+01 -0.11662003458E+02  0.14505549417E+04  0.14506409133E+04  0.10000000000E+02 0. -1.
</event>
<event>
 5    1  0.1294251E-008  0.3846847E+03  0.7957747E-01  0.3431011E+00
         13   -1    0    0    0    0  0.00000000000E+00  0.00000000000E+00  0.14999999963E+04  0.15000000000E+04  0.10566000000E+00 0. -1.
        994   -1    0    0    0    0 -0.00000000000E+00 -0.00000000000E+00  0.11368683772E-12  0.17120000000E+03  0.17120000000E+03 0.  0.
         13    1    1    2    0    0  0.35282110587E+01 -0.19588300431E+02  0.10774413033E+03  0.10956714184E+03  0.10566000000E+00 0. -1.
        994    1    1    2    0    0  0.88020618037E+00  0.16488752548E+02  0.26848516355E+01  0.17201541254E+03  0.17120000000E+03 0.  0.
        998    1    1    2    0    0 -0.44084172391E+01  0.30995478832E+01  0.13895710143E+04  0.13896174456E+04  0.10000000000E+02 0. -1.
</event>
<event>
 5    1  0.1294251E-008  0.3806647E+03  0.7957747E-01  0.3448269E+00
         13   -1    0    0    0    0  0.00000000000E+00  0.00000000000E+00  0.14999999963E+04  0.15000000000E+04  0.10566000000E+00 0. -1.
        994   -1    0    0    0    0 -0.00000000000E+00 -0.00000000000E+00  0.11368683772E-12  0.17120000000E+03  0.17120000000E+03 0.  0.
         13    1    1    2    0    0  0.82012391544E+01  0.14640523039E+02  0.34787783064E+02  0.38623907791E+02  0.10566000000E+00 0. -1.
        994    1    1    2    0    0 -0.70279855315E+01 -0.17117526433E+02  0.49409068635E+01  0.17226797396E+03  0.17120000000E+03 0.  0.
        998    1    1    2    0    0 -0.11732536229E+01  0.24770033938E+01  0.14602713064E+04  0.14603081182E+04  0.10000000000E+02 0. -1.
</event>
<event>
 5    1  0.1294251E-008  0.3776829E+03  0.7957747E-01  0.3461310E+00
         13   -1    0    0    0    0  0.00000000000E+00  0.00000000000E+00  0.14999999963E+04  0.15000000000E+04  0.10566000000E+00 0.  1.
        994   -1    0    0    0    0 -0.00000000000E+00 -0.00000000000E+00  0.11368683772E-12  0.17120000000E+03  0.17120000000E+03 0.  0.
         13    1    1    2    0    0 -0.53807044323E+02 -0.35134484836E+01  0.30863951347E+03  0.31331438329E+03  0.10566000000E+00 0.  1.
        994    1    1    2    0    0  0.18334958209E+02 -0.19614882374E+02  0.77397796170E+01  0.17346543890E+03  0.17120000000E+03 0.  0.
        998    1    1    2    0    0  0.35472086114E+02  0.23128330857E+02  0.11836207032E+04  0.11844201778E+04  0.10000000000E+02 0.  1.
</event>
<event>
 5    1  0.1695075E-008  0.3857496E+03  0.7957747E-01  0.3426499E+00
         13   -1    0    0    0    0  0.00000000000E+00  0.00000000000E+00  0.14999999963E+04  0.15000000000E+04  0.10566000000E+00 0.  1.
        994   -1    0    0    0    0 -0.00000000000E+00 -0.00000000000E+00  0.11368683772E-12  0.17120000000E+03  0.17120000000E+03 0.  0.
         13    1    1    2    0    0  0.13239159847E+02  0.52709934074E+01  0.85240532045E+02  0.86423481718E+02  0.10566000000E+00 0.  1.
        994    1    1    2    0    0 -0.43848579004E+01  0.11642355780E+01  0.13259360131E+01  0.17126523445E+03  0.17120000000E+03 0.  0.
        998    1    1    2    0    0 -0.88543019467E+01 -0.64352289854E+01  0.14134335282E+04  0.14135112838E+04  0.10000000000E+02 0.  1.
</event>
<event>
 5    1  0.1294251E-008  0.4053570E+03  0.7957747E-01  0.3347672E+00
         13   -1    0    0    0    0  0.00000000000E+00  0.00000000000E+00  0.14999999963E+04  0.15000000000E+04  0.10566000000E+00 0.  1.
        994   -1    0    0    0    0 -0.00000000000E+00 -0.00000000000E+00  0.11368683772E-12  0.17120000000E+03  0.17120000000E+03 0.  0.
         13    1    1    2    0    0 -0.41131163110E+02  0.48529272687E+02  0.57947767818E+02  0.86051251272E+02  0.10566000000E+00 0.  1.
        994    1    1    2    0    0  0.22857038537E+02 -0.18141412638E+02  0.34435896479E+02  0.17705034885E+03  0.17120000000E+03 0.  0.
        998    1    1    2    0    0  0.18274124573E+02 -0.30387860049E+02  0.14076163320E+04  0.14080983999E+04  0.10000000000E+02 0.  1.
</event>
<event>
 5    1  0.1294251E-008  0.3762951E+03  0.7957747E-01  0.3467451E+00
         13   -1    0    0    0    0  0.00000000000E+00  0.00000000000E+00  0.14999999963E+04  0.15000000000E+04  0.10566000000E+00 0.  1.
        994   -1    0    0    0    0 -0.00000000000E+00 -0.00000000000E+00  0.11368683772E-12  0.17120000000E+03  0.17120000000E+03 0.  0.
         13    1    1    2    0    0  0.15629972922E+02  0.78139444866E+01  0.23096152450E+02  0.28961995857E+02  0.10566000000E+00 0.  1.
        994    1    1    2    0    0 -0.53098412835E+01 -0.69915373281E+01  0.62760843929E+01  0.17153980659E+03  0.17120000000E+03 0.  0.
        998    1    1    2    0    0 -0.10320131639E+02 -0.82240715846E+00  0.14706277594E+04  0.14706981976E+04  0.10000000000E+02 0.  1.
</event>
<event>
 5    1  0.1294251E-008  0.3720162E+03  0.7957747E-01  0.3486676E+00
         13   -1    0    0    0    0  0.00000000000E+00  0.00000000000E+00  0.14999999963E+04  0.15000000000E+04  0.10566000000E+00 0. -1.
        994   -1    0    0    0    0 -0.00000000000E+00 -0.00000000000E+00  0.11368683772E-12  0.17120000000E+03  0.17120000000E+03 0.  0.
         13    1    1    2    0    0 -0.48541917962E+01  0.44915839660E+02  0.75995484735E+02  0.88409958118E+02  0.10566000000E+00 0. -1.
        994    1    1    2    0    0  0.17105386702E+02 -0.47279355716E+02  0.20963098854E+02  0.17965751653E+03  0.17120000000E+03 0.  0.
        998    1    1    2    0    0 -0.12251194906E+02  0.23635160570E+01  0.14030414127E+04  0.14031325254E+04  0.10000000000E+02 0. -1.
</event>
<event>
 5    1  0.1294251E-008  0.3852505E+03  0.7957747E-01  0.3428610E+00
         13   -1    0    0    0    0  0.00000000000E+00  0.00000000000E+00  0.14999999963E+04  0.15000000000E+04  0.10566000000E+00 0.  1.
        994   -1    0    0    0    0 -0.00000000000E+00 -0.00000000000E+00  0.11368683772E-12  0.17120000000E+03  0.17120000000E+03 0.  0.
         13    1    1    2    0    0  0.55076082945E+01  0.13725589783E+02  0.77358677858E+02  0.78759772524E+02  0.10566000000E+00 0.  1.
        994    1    1    2    0    0 -0.54700677393E+01  0.69324167053E+00  0.16057193918E+01  0.17129629465E+03  0.17120000000E+03 0.  0.
        998    1    1    2    0    0 -0.37540555271E-01 -0.14418831454E+02  0.14210355990E+04  0.14211439328E+04  0.10000000000E+02 0.  1.
</event>
<event>
 5    1  0.1294251E-008  0.3820255E+03  0.7957747E-01  0.3442386E+00
         13   -1    0    0    0    0  0.00000000000E+00  0.00000000000E+00  0.14999999963E+04  0.15000000000E+04  0.10566000000E+00 0.  1.
        994   -1    0    0    0    0 -0.00000000000E+00 -0.00000000000E+00  0.11368683772E-12  0.17120000000E+03  0.17120000000E+03 0.  0.
         13    1    1    2    0    0 -0.90665185006E+01  0.46654938528E+01  0.15253311243E+02  0.18347840704E+02  0.10566000000E+00 0.  1.
        994    1    1    2    0    0  0.84918558606E+01 -0.79939254335E+01  0.35659602196E+01  0.17163382689E+03  0.17120000000E+03 0.  0.
        998    1    1    2    0    0  0.57466264000E+00  0.33284315807E+01  0.14811807248E+04  0.14812183324E+04  0.10000000000E+02 0.  1.
</event>
<event>
 5    1  0.1294251E-008  0.3790372E+03  0.7957747E-01  0.3455361E+00
         13   -1    0    0    0    0  0.00000000000E+00  0.00000000000E+00  0.14999999963E+04  0.15000000000E+04  0.10566000000E+00 0. -1.
        994   -1    0    0    0    0 -0.00000000000E+00 -0.00000000000E+00  0.11368683772E-12  0.17120000000E+03  0.17120000000E+03 0.  0.
         13    1    1    2    0    0 -0.11902086124E+01 -0.10609013606E+03  0.55024749212E+03  0.56038276857E+03  0.10566000000E+00 0. -1.
        994    1    1    2    0    0 -0.13728847451E+02  0.12963283964E+03  0.63897021184E+02  0.22446697682E+03  0.17120000000E+03 0.  0.
        998    1    1    2    0    0  0.14919056064E+02 -0.23542703589E+02  0.88585548298E+03  0.88635025461E+03  0.10000000000E+02 0. -1.
</event>
<event>
 5    1  0.1294251E-008  0.3749412E+03  0.7957747E-01  0.3473486E+00
         13   -1    0    0    0    0  0.00000000000E+00  0.00000000000E+00  0.14999999963E+04  0.15000000000E+04  0.10566000000E+00 0. -1.
        994   -1    0    0    0    0 -0.00000000000E+00 -0.00000000000E+00  0.11368683772E-12  0.17120000000E+03  0.17120000000E+03 0.  0.
         13    1    1    2    0    0 -0.18950309080E+02  0.17010369945E+02  0.46519335020E+02  0.53033259325E+02  0.10566000000E+00 0. -1.
        994    1    1    2    0    0 -0.45459825795E+01 -0.21549862837E+02  0.83598064167E+01  0.17281316185E+03  0.17120000000E+03 0.  0.
        998    1    1    2    0    0  0.23496291660E+02  0.45394928922E+01  0.14451208548E+04  0.14453535788E+04  0.10000000000E+02 0. -1.
</event>
<event>
 5    1  0.1294251E-008  0.3852216E+03  0.7957747E-01  0.3428733E+00
         13   -1    0    0    0    0  0.00000000000E+00  0.00000000000E+00  0.14999999963E+04  0.15000000000E+04  0.10566000000E+00 0. -1.
        994   -1    0    0    0    0 -0.00000000000E+00 -0.00000000000E+00  0.11368683772E-12  0.17120000000E+03  0.17120000000E+03 0.  0.
         13    1    1    2    0    0 -0.14747103929E+01  0.11147544508E+02  0.49007170014E+02  0.50280775612E+02  0.10566000000E+00 0. -1.
        994    1    1    2    0    0  0.25881027172E+02  0.23072272873E+02  0.54807894756E+01  0.17476165597E+03  0.17120000000E+03 0.  0.
        998    1    1    2    0    0 -0.24406316779E+02 -0.34219817381E+02  0.14455120368E+04  0.14461575684E+04  0.10000000000E+02 0. -1.
</event>
<event>
 5    1  0.1294251E-008  0.3809379E+03  0.7957747E-01  0.3447085E+00
         13   -1    0    0    0    0  0.00000000000E+00  0.00000000000E+00  0.14999999963E+04  0.15000000000E+04  0.10566000000E+00 0.  1.
        994   -1    0    0    0    0 -0.00000000000E+00 -0.00000000000E+00  0.11368683772E-12  0.17120000000E+03  0.17120000000E+03 0.  0.
         13    1    1    2    0    0 -0.37638396825E+02 -0.79152735201E+01  0.17282541659E+03  0.17705348417E+03  0.10566000000E+00 0.  1.
        994    1    1    2    0    0  0.42854935020E+02  0.86510036993E+01  0.10056678150E+02  0.17698011780E+03  0.17120000000E+03 0.  0.
        998    1    1    2    0    0 -0.52165381955E+01 -0.73573017921E+00  0.13171179015E+04  0.13171663980E+04  0.10000000000E+02 0.  1.
</event>
<event>
 5    1  0.1294251E-008  0.3731168E+03  0.7957747E-01  0.3481688E+00
         13   -1    0    0    0    0  0.00000000000E+00  0.00000000000E+00  0.14999999963E+04  0.15000000000E+04  0.10566000000E+00 0.  1.
        994   -1    0    0    0    0 -0.00000000000E+00 -0.00000000000E+00  0.11368683772E-12  0.17120000000E+03  0.17120000000E+03 0.  0.
         13    1    1    2    0    0 -0.11077498866E+03  0.11928228007E+03  0.68972363844E+03  0.70867345727E+03  0.10566000000E+00 0.  1.
        994    1    1    2    0    0  0.12181367283E+03 -0.12623599471E+03  0.12154593437E+03  0.27359998430E+03  0.17120000000E+03 0.  0.
        998    1    1    2    0    0 -0.11038684167E+02  0.69537146328E+01  0.68873042347E+03  0.68892655842E+03  0.10000000000E+02 0.  1.
</event>
<event>
 5    1  0.1294251E-008  0.3715512E+03  0.7957747E-01  0.3488792E+00
         13   -1    0    0    0    0  0.00000000000E+00  0.00000000000E+00  0.14999999963E+04  0.15000000000E+04  0.10566000000E+00 0. -1.
        994   -1    0    0    0    0 -0.00000000000E+00 -0.00000000000E+00  0.11368683772E-12  0.17120000000E+03  0.17120000000E+03 0.  0.
         13    1    1    2    0    0 -0.77843226788E+01  0.10621956242E+02  0.63774203837E+01  0.14632302920E+02  0.10566000000E+00 0. -1.
        994    1    1    2    0    0  0.82023158767E+01 -0.70624409243E+01  0.88635355680E+01  0.17177065617E+03  0.17120000000E+03 0.  0.
        998    1    1    2    0    0 -0.41799319793E+00 -0.35595153176E+01  0.14847590403E+04  0.14847970409E+04  0.10000000000E+02 0. -1.
</event>
<event>
 5    1  0.1294251E-008  0.3726264E+03  0.7957747E-01  0.3483907E+00
         13   -1    0    0    0    0  0.00000000000E+00  0.00000000000E+00  0.14999999963E+04  0.15000000000E+04  0.10566000000E+00 0.  1.
        994   -1    0    0    0    0 -0.00000000000E+00 -0.00000000000E+00  0.11368683772E-12  0.17120000000E+03  0.17120000000E+03 0.  0.
         13    1    1    2    0    0 -0.45656785955E+01  0.42849767622E+02  0.10728021407E+03  0.11561143326E+03  0.10566000000E+00 0.  1.
        994    1    1    2    0    0  0.84221963843E+01 -0.42195361577E+02  0.14273441548E+02  0.17710040391E+03  0.17120000000E+03 0.  0.
        998    1    1    2    0    0 -0.38565177888E+01 -0.65440604508E+00  0.13784463407E+04  0.13784881628E+04  0.10000000000E+02 0.  1.
</event>
<event>
 5    1  0.1294251E-008  0.3787121E+03  0.7957747E-01  0.3456785E+00
         13   -1    0    0    0    0  0.00000000000E+00  0.00000000000E+00  0.14999999963E+04  0.15000000000E+04  0.10566000000E+00 0. -1.
        994   -1    0    0    0    0 -0.00000000000E+00 -0.00000000000E+00  0.11368683772E-12  0.17120000000E+03  0.17120000000E+03 0.  0.
         13    1    1    2    0    0  0.96247542654E+01  0.18588974511E+02  0.71030636557E+01  0.22105441533E+02  0.10566000000E+00 0. -1.
        994    1    1    2    0    0 -0.92856462381E+01 -0.16105849624E+02  0.16869089510E+02  0.17303071346E+03  0.17120000000E+03 0.  0.
        998    1    1    2    0    0 -0.33910802728E+00 -0.24831248872E+01  0.14760278431E+04  0.14760638450E+04  0.10000000000E+02 0. -1.
</event>
<event>
 5    1  0.1294251E-008  0.3730487E+03  0.7957747E-01  0.3481996E+00
         13   -1    0    0    0    0  0.00000000000E+00  0.00000000000E+00  0.14999999963E+04  0.15000000000E+04  0.10566000000E+00 0. -1.
        994   -1    0    0    0    0 -0.00000000000E+00 -0.00000000000E+00  0.11368683772E-12  0.17120000000E+03  0.17120000000E+03 0.  0.
         13    1    1    2    0    0  0.36583447236E+02 -0.14524896207E+02  0.10279509420E+03  0.11007344719E+03  0.10566000000E+00 0. -1.
        994    1    1    2    0    0 -0.21930614778E+02 -0.19966544181E+02  0.10699871389E+02  0.17407912568E+03  0.17120000000E+03 0.  0.
        998    1    1    2    0    0 -0.14652832458E+02  0.34491440388E+02  0.13865050307E+04  0.13870474271E+04  0.10000000000E+02 0. -1.
</event>
<event>
 5    1  0.1462945E-008  0.3856686E+03  0.7957747E-01  0.3426842E+00
         13   -1    0    0    0    0  0.00000000000E+00  0.00000000000E+00  0.14999999963E+04  0.15000000000E+04  0.10566000000E+00 0.  1.
        994   -1    0    0    0    0 -0.00000000000E+00 -0.00000000000E+00  0.11368683772E-12  0.17120000000E+03  0.17120000000E+03 0.  0.
         13    1    1    2    0    0 -0.32003381377E+01  0.11485511436E+02  0.55021673472E+02  0.56298799746E+02  0.10566000000E+00 0.  1.
        994    1    1    2    0    0 -0.34114755129E+01 -0.95480681061E+01  0.16359926387E+01  0.17150778478E+03  0.17120000000E+03 0.  0.
        998    1    1    2    0    0  0.66118136506E+01 -0.19374433298E+01  0.14433423302E+04  0.14433934155E+04  0.10000000000E+02 0.  1.
</event>
<event>
 5    1  0.1294251E-008  0.3821837E+03  0.7957747E-01  0.3441705E+00
         13   -1    0    0    0    0  0.00000000000E+00  0.00000000000E+00  0.14999999963E+04  0.15000000000E+04  0.10566000000E+00 0.  1.
        994   -1    0    0    0    0 -0.00000000000E+00 -0.00000000000E+00  0.11368683772E-12  0.17120000000E+03  0.17120000000E+03 0.  0.
         13    1    1    2    0    0  0.52191589743E+02  0.16726442562E+02  0.84805419742E+02  0.10097379018E+03  0.10566000000E+00 0.  1.
        994    1    1    2    0    0 -0.24108662168E+02  0.23023967155E+02  0.21601997655E+02  0.17574816346E+03  0.17120000000E+03 0.  0.
        998    1    1    2    0    0 -0.28082927575E+02 -0.39750409718E+02  0.13935925789E+04  0.13944780464E+04  0.10000000000E+02 0.  1.
</event>
<event>
 5    1  0.2295184E-008  0.3860050E+03  0.7957747E-01  0.3425421E+00
         13   -1    0    0    0    0  0.00000000000E+00  0.00000000000E+00  0.14999999963E+04  0.15000000000E+04  0.10566000000E+00 0.  1.
        994   -1    0    0    0    0 -0.00000000000E+00 -0.00000000000E+00  0.11368683772E-12  0.17120000000E+03  0.17120000000E+03 0.  0.
         13    1    1    2    0    0 -0.90961093151E+01 -0.45900781534E+01  0.47596164710E+02  0.48674573252E+02  0.10566000000E+00 0.  1.
        994    1    1    2    0    0  0.42143839779E+01 -0.18446859960E+01  0.12013477001E+01  0.17126601278E+03  0.17120000000E+03 0.  0.
        998    1    1    2    0    0  0.48817253371E+01  0.64347641495E+01  0.14512024839E+04  0.14512594140E+04  0.10000000000E+02 0.  1.
</event>
<event>
 5    1  0.1294251E-008  0.3811999E+03  0.7957747E-01  0.3445950E+00
         13   -1    0    0    0    0  0.00000000000E+00  0.00000000000E+00  0.14999999963E+04  0.15000000000E+04  0.10566000000E+00 0.  1.
        994   -1    0    0    0    0 -0.00000000000E+00 -0.00000000000E+00  0.11368683772E-12  0.17120000000E+03  0.17120000000E+03 0.  0.
         13    1    1    2    0    0  0.20251424552E+02  0.25800920265E+00  0.58974308972E+02  0.62355168574E+02  0.10566000000E+00 0.  1.
        994    1    1    2    0    0 -0.49913557962E+01  0.14678356047E+02  0.43294160964E+01  0.17195508603E+03  0.17120000000E+03 0.  0.
        998    1    1    2    0    0 -0.15260068756E+02 -0.14936365250E+02  0.14366962712E+04  0.14368897454E+04  0.10000000000E+02 0.  1.
</event>
<event>
 5    1  0.1294251E-008  0.3859260E+03  0.7957747E-01  0.3425755E+00
         13   -1    0    0    0    0  0.00000000000E+00  0.00000000000E+00  0.14999999963E+04  0.15000000000E+04  0.10566000000E+00 0. -1.
        994   -1    0    0    0    0 -0.00000000000E+00 -0.00000000000E+00  0.11368683772E-12  0.17120000000E+03  0.17120000000E+03 0.  0.
         13    1    1    2    0    0 -0.10067247678E+02 -0.68122599259E+01  0.62671194708E+02  0.63839221262E+02  0.10566000000E+00 0. -1.
        994    1    1    2    0    0  0.53517994372E+01  0.10846711919E+02  0.16509270639E+01  0.17163466572E+03  0.17120000000E+03 0.  0.
        998    1    1    2    0    0  0.47154482405E+01 -0.40344519934E+01  0.14356778745E+04  0.14357261130E+04  0.10000000000E+02 0. -1.
</event>
<event>
 5    1  0.1294251E-008  0.3825382E+03  0.7957747E-01  0.3440181E+00
         13   -1    0    0    0    0  0.00000000000E+00  0.00000000000E+00  0.14999999963E+04  0.15000000000E+04  0.10566000000E+00 0. -1.
        994   -1    0    0    0    0 -0.00000000000E+00 -0.00000000000E+00  0.11368683772E-12  0.17120000000E+03  0.17120000000E+03 0.  0.
         13    1    1    2    0    0  0.81120417867E+00 -0.24496653252E+02  0.95085777696E+02  0.98193993487E+02  0.10566000000E+00 0. -1.
        994    1    1    2    0    0 -0.21413348846E+02  0.30632398874E+02  0.75020071931E+01  0.17539268936E+03  0.17120000000E+03 0.  0.
        998    1    1    2    0    0  0.20602144667E+02 -0.61357456220E+01  0.13974122114E+04  0.13976133172E+04  0.10000000000E+02 0. -1.
</event>
<event>
 5    1  0.1294251E-008  0.3850300E+03  0.7957747E-01  0.3429545E+00
         13   -1    0    0    0    0  0.00000000000E+00  0.00000000000E+00  0.14999999963E+04  0.15000000000E+04  0.10566000000E+00 0.  1.
        994   -1    0    0    0    0 -0.00000000000E+00 -0.00000000000E+00  0.11368683772E-12  0.17120000000E+03  0.17120000000E+03 0.  0.
         13    1    1    2    0    0 -0.18590808540E+02 -0.83396272791E+02  0.16632727047E+03  0.18699018301E+03  0.10566000000E+00 0.  1.
        994    1    1    2    0    0  0.26214430244E+02  0.79131546025E+02  0.45250669391E+02  0.19571934245E+03  0.17120000000E+03 0.  0.
        998    1    1    2    0    0 -0.76236217044E+01  0.42647267662E+01  0.12884220564E+04  0.12884904745E+04  0.10000000000E+02 0.  1.
</event>
<event>
 5    1  0.1294251E-008  0.3834099E+03  0.7957747E-01  0.3436444E+00
         13   -1    0    0    0    0  0.00000000000E+00  0.00000000000E+00  0.14999999963E+04  0.15000000000E+04  0.10566000000E+00 0.  1.
        994   -1    0    0    0    0 -0.00000000000E+00 -0.00000000000E+00  0.11368683772E-12  0.17120000000E+03  0.17120000000E+03 0.  0.
         13    1    1    2    0    0  0.17149998657E+02  0.58722259146E+01  0.71965765299E+02  0.74213799460E+02  0.10566000000E+00 0.  1.
        994    1    1    2    0    0 -0.12907727690E+01  0.51824237908E+01  0.25159396863E+01  0.17130176170E+03  0.17120000000E+03 0.  0.
        998    1    1    2    0    0 -0.15859225888E+02 -0.11054649705E+02  0.14255182913E+04  0.14256844388E+04  0.10000000000E+02 0.  1.
</event>
<event>
 5    1  0.1294251E-008  0.3987915E+03  0.7957747E-01  0.3373207E+00
         13   -1    0    0    0    0  0.00000000000E+00  0.00000000000E+00  0.14999999963E+04  0.15000000000E+04  0.10566000000E+00 0. -1.
        994   -1    0    0    0    0 -0.00000000000E+00 -0.00000000000E+00  0.11368683772E-12  0.17120000000E+03  0.17120000000E+03 0.  0.
         13    1    1    2    0    0 -0.36725922471E+02 -0.64947705502E+02  0.90405781598E+02  0.11721866038E+03  0.10566000000E+00 0. -1.
        994    1    1    2    0    0  0.49346289669E+02  0.51118001642E+02  0.47002651728E+02  0.19122446409E+03  0.17120000000E+03 0.  0.
        998    1    1    2    0    0 -0.12620367198E+02  0.13829703860E+02  0.13625915630E+04  0.13627568755E+04  0.10000000000E+02 0. -1.
</event>
<event>
 5    1  0.1294251E-008  0.3827137E+03  0.7957747E-01  0.3439427E+00
         13   -1    0    0    0    0  0.00000000000E+00  0.00000000000E+00  0.14999999963E+04  0.15000000000E+04  0.10566000000E+00 0. -1.
        994   -1    0    0    0    0 -0.00000000000E+00 -0.00000000000E+00  0.11368683772E-12  0.17120000000E+03  0.17120000000E+03 0.  0.
         13    1    1    2    0    0 -0.20137582613E+02  0.45947890897E+01  0.83298664725E+02  0.85821401930E+02  0.10566000000E+00 0. -1.
        994    1    1    2    0    0 -0.92750554461E-01  0.10811798943E+02  0.31569381322E+01  0.17157013102E+03  0.17120000000E+03 0.  0.
        998    1    1    2    0    0  0.20230333167E+02 -0.15406588033E+02  0.14135443934E+04  0.14138084671E+04  0.10000000000E+02 0. -1.
</event>
<event>
 5    1  0.1294251E-008  0.3848378E+03  0.7957747E-01  0.3430360E+00
         13   -1    0    0    0    0  0.00000000000E+00  0.00000000000E+00  0.14999999963E+04  0.15000000000E+04  0.10566000000E+00 0.  1.
        994   -1    0    0    0    0 -0.00000000000E+00 -0.00000000000E+00  0.11368683772E-12  0.17120000000E+03  0.17120000000E+03 0.  0.
         13    1    1    2    0    0  0.17837322796E+01 -0.12155548819E+02  0.43251753598E+02  0.44962922739E+02  0.10566000000E+00 0.  1.
        994    1    1    2    0    0  0.40808202436E+02  0.18986173050E+02  0.84048984877E+01  0.17721700390E+03  0.17120000000E+03 0.  0.
        998    1    1    2    0    0 -0.42591934715E+02 -0.68306242313E+01  0.14483433442E+04  0.14490200734E+04  0.10000000000E+02 0.  1.
</event>
<event>
 5    1  0.1294251E-008  0.3727120E+03  0.7957747E-01  0.3483519E+00
         13   -1    0    0    0    0  0.00000000000E+00  0.00000000000E+00  0.14999999963E+04  0.15000000000E+04  0.10566000000E+00 0. -1.
        994   -1    0    0    0    0 -0.00000000000E+00 -0.00000000000E+00  0.11368683772E-12  0.17120000000E+03  0.17120000000E+03 0.  0.
         13    1    1    2    0    0 -0.31613428559E+01 -0.28614591875E+02  0.52889690481E+02  0.60217268952E+02  0.10566000000E+00 0. -1.
        994    1    1    2    0    0  0.69425734581E+01 -0.21794598344E+01  0.80397921396E+01  0.17154307806E+03  0.17120000000E+03 0.  0.
        998    1    1    2    0    0 -0.37812306022E+01  0.30794051709E+02  0.14390705137E+04  0.14394396530E+04  0.10000000000E+02 0. -1.
</event>
<event>
 5    1  0.1294251E-008  0.3844436E+03  0.7957747E-01  0.3432036E+00
         13   -1    0    0    0    0  0.00000000000E+00  0.00000000000E+00  0.14999999963E+04  0.15000000000E+04  0.10566000000E+00 0.  1.
        994   -1    0    0    0    0 -0.00000000000E+00 -0.00000000000E+00  0.11368683772E-12  0.17120000000E+03  0.17120000000E+03 0.  0.
         13    1    1    2    0    0 -0.19291236418E+02 -0.16955770204E+01  0.99231385719E+02  0.10110344138E+03  0.10566000000E+00 0.  1.
        994    1    1    2    0    0  0.10059734095E+02  0.87785330394E+01  0.24941656246E+01  0.17173794501E+03  0.17120000000E+03 0.  0.
        998    1    1    2    0    0  0.92315023226E+01 -0.70829560189E+01  0.13982744449E+04  0.13983586136E+04  0.10000000000E+02 0.  1.
</event>
<event>
 5    1  0.1294251E-008  0.3830037E+03  0.7957747E-01  0.3438183E+00
         13   -1    0    0    0    0  0.00000000000E+00  0.00000000000E+00  0.14999999963E+04  0.15000000000E+04  0.10566000000E+00 0.  1.
        994   -1    0    0    0    0 -0.00000000000E+00 -0.00000000000E+00  0.11368683772E-12  0.17120000000E+03  0.17120000000E+03 0.  0.
         13    1    1    2    0    0  0.15481432080E+02 -0.12128576436E+02  0.76342181572E+02  0.78834744604E+02  0.10566000000E+00 0.  1.
        994    1    1    2    0    0 -0.12079245433E+02 -0.81311932432E+01  0.33266346502E+01  0.17185031560E+03  0.17120000000E+03 0.  0.
        998    1    1    2    0    0 -0.34021866469E+01  0.20259769680E+02  0.14203311801E+04  0.14205149398E+04  0.10000000000E+02 0.  1.
</event>
<event>
 5    1  0.1294251E-008  0.3858801E+03  0.7957747E-01  0.3425948E+00
         13   -1    0    0    0    0  0.00000000000E+00  0.00000000000E+00  0.14999999963E+04  0.15000000000E+04  0.10566000000E+00 0.  1.
        994   -1    0    0    0    0 -0.00000000000E+00 -0.00000000000E+00  0.11368683772E-12  0.17120000000E+03  0.17120000000E+03 0.  0.
         13    1    1    2    0    0  0.10106127241E+02  0.24561411971E+01  0.45580098751E+02  0.46751716584E+02  0.10566000000E+00 0.  1.
        994    1    1    2    0    0 -0.85380012223E+01  0.30150520013E+01  0.14626966039E+01  0.17144552337E+03  0.17120000000E+03 0.  0.
        998    1    1    2    0    0 -0.15681260187E+01 -0.54711931984E+01  0.14529572009E+04  0.14530027600E+04  0.10000000000E+02 0.  1.
</event>
<event>
 5    1  0.1294251E-008  0.3740156E+03  0.7957747E-01  0.3477637E+00
         13   -1    0    0    0    0  0.00000000000E+00  0.00000000000E+00  0.14999999963E+04  0.15000000000E+04  0.10566000000E+00 0.  1.
        994   -1    0    0    0    0 -0.00000000000E+00 -0.00000000000E+00  0.11368683772E-12  0.17120000000E+03  0.17120000000E+03 0.  0.
         13    1    1    2    0    0 -0.33140095897E+02  0.17248145382E+02  0.96618730469E+02  0.10359032154E+03  0.10566000000E+00 0.  1.
        994    1    1    2    0    0  0.11661529691E+02 -0.16153947179E+02  0.85400567799E+01  0.17256683880E+03  0.17120000000E+03 0.  0.
        998    1    1    2    0    0  0.21478566206E+02 -0.10941982031E+01  0.13948412090E+04  0.13950428397E+04  0.10000000000E+02 0.  1.
</event>
<event>
 5    1  0.1294251E-008  0.3843629E+03  0.7957747E-01  0.3432379E+00
         13   -1    0    0    0    0  0.00000000000E+00  0.00000000000E+00  0.14999999963E+04  0.15000000000E+04  0.10566000000E+00 0. -1.
        994   -1    0    0    0    0 -0.00000000000E+00 -0.00000000000E+00  0.11368683772E-12  0.17120000000E+03  0.17120000000E+03 0.  0.
         13    1    1    2    0    0 -0.19242183906E+02  0.56271584691E+01  0.10338831903E+03  0.10531420716E+03  0.10566000000E+00 0. -1.
        994    1    1    2    0    0  0.77492079740E+01 -0.17587557650E+02  0.31649534147E+01  0.17230446697E+03  0.17120000000E+03 0.  0.
        998    1    1    2    0    0  0.11492975932E+02  0.11960399181E+02  0.13934467238E+04  0.13935813259E+04  0.10000000000E+02 0. -1.
</event>
<event>
 5    1  0.1294251E-008  0.3811199E+03  0.7957747E-01  0.3446296E+00
         13   -1    0    0    0    0  0.00000000000E+00  0.00000000000E+00  0.14999999963E+04  0.15000000000E+04  0.10566000000E+00 0.  1.
        994   -1    0    0    0    0 -0.00000000000E+00 -0.00000000000E+00  0.11368683772E-12  0.17120000000E+03  0.17120000000E+03 0.  0.
         13    1    1    2    0    0  0.53172334548E+02 -0.13222882232E+01  0.24558211848E+03  0.25127601097E+03  0.10566000000E+00 0.  1.
        994    1    1    2    0    0 -0.91805150705E+02  0.55444551657E+02  0.42877896064E+02  0.20651934044E+03  0.17120000000E+03 0.  0.
        998    1    1    2    0    0  0.38632816156E+02 -0.54122263434E+02  0.12115399817E+04  0.12134046486E+04  0.10000000000E+02 0.  1.
</event>
<event>
 5    1  0.1294251E-008  0.3840007E+03  0.7957747E-01  0.3433921E+00
         13   -1    0    0    0    0  0.00000000000E+00  0.00000000000E+00  0.14999999963E+04  0.15000000000E+04  0.10566000000E+00 0.  1.
        994   -1    0    0    0    0 -0.00000000000E+00 -0.00000000000E+00  0.11368683772E-12  0.17120000000E+03  0.17120000000E+03 0.  0.
         13    1    1    2    0    0  0.96929234766E+01 -0.10390802024E+02  0.48143799481E+02  0.50197192399E+02  0.10566000000E+00 0.  1.
        994    1    1    2    0    0 -0.21004465959E+01  0.41511465080E+01  0.21985005825E+01  0.17127731110E+03  0.17120000000E+03 0.  0.
        998    1    1    2    0    0 -0.75924768807E+01  0.62396555163E+01  0.14496576962E+04  0.14497254965E+04  0.10000000000E+02 0.  1.
</event>
<event>
 5    1  0.1294251E-008  0.3759299E+03  0.7957747E-01  0.3469074E+00
         13   -1    0    0    0    0  0.00000000000E+00  0.00000000000E+00  0.14999999963E+04  0.15000000000E+04  0.10566000000E+00 0.  1.
        994   -1    0    0    0    0 -0.00000000000E+00 -0.00000000000E+00  0.11368683772E-12  0.17120000000E+03  0.17120000000E+03 0.  0.
         13    1    1    2    0    0  0.11872201916E+02  0.18392788931E+02  0.10897398639E+02  0.24454208720E+02  0.10566000000E+00 0.  1.
        994    1    1    2    0    0 -0.71576182682E+01 -0.12889019265E+02  0.14885730644E+02  0.17247719645E+03  0.17120000000E+03 0.  0.
        998    1    1    2    0    0 -0.47145836475E+01 -0.55037696660E+01  0.14742168670E+04  0.14742685948E+04  0.10000000000E+02 0.  1.
</event>
<event>
 5    1  0.1294251E-008  0.3782130E+03  0.7957747E-01  0.3458977E+00
         13   -1    0    0    0    0  0.00000000000E+00  0.00000000000E+00  0.14999999963E+04  0.15000000000E+04  0.10566000000E+00 0.  1.
        994   -1    0    0    0    0 -0.00000000000E+00 -0.00000000000E+00  0.11368683772E-12  0.17120000000E+03  0.17120000000E+03 0.  0.
         13    1    1    2    0    0 -0.29374274683E+02 -0.43310609995E+00  0.84569285860E+02  0.89526593083E+02  0.10566000000E+00 0.  1.
        994    1    1    2    0    0  0.16096568202E+02  0.11671793443E+02  0.63684984616E+01  0.17246833925E+03  0.17120000000E+03 0.  0.
        998    1    1    2    0    0  0.13277706480E+02 -0.11238687343E+02  0.14090622120E+04  0.14092050677E+04  0.10000000000E+02 0.  1.
</event>
<event>
 5    1  0.1579252E-008  0.3859873E+03  0.7957747E-01  0.3425496E+00
         13   -1    0    0    0    0  0.00000000000E+00  0.00000000000E+00  0.14999999963E+04  0.15000000000E+04  0.10566000000E+00 0. -1.
        994   -1    0    0    0    0 -0.00000000000E+00 -0.00000000000E+00  0.11368683772E-12  0.17120000000E+03  0.17120000000E+03 0.  0.
         13    1    1    2    0    0 -0.60631300752E+01 -0.81793565141E+01  0.45821071858E+02  0.46938738900E+02  0.10566000000E+00 0. -1.
        994    1    1    2    0    0  0.23271674612E+01  0.73873631005E+01  0.13374275900E+01  0.17138033013E+03  0.17120000000E+03 0.  0.
        998    1    1    2    0    0  0.37359626140E+01  0.79199341359E+00  0.14528414968E+04  0.14528809310E+04  0.10000000000E+02 0. -1.
</event>
<event>
 5    1  0.1294251E-008  0.3756485E+03  0.7957747E-01  0.3470327E+00
         13   -1    0    0    0    0  0.00000000000E+00  0.00000000000E+00  0.14999999963E+04  0.15000000000E+04  0.10566000000E+00 0. -1.
        994   -1    0    0    0    0 -0.00000000000E+00 -0.00000000000E+00  0.11368683772E-12  0.17120000000E+03  0.17120000000E+03 0.  0.
         13    1    1    2    0    0  0.96456859864E+01  0.38645447357E+01  0.55031630665E+01  0.11758823578E+02  0.10566000000E+00 0. -1.
        994    1    1    2    0    0 -0.12074521050E+02 -0.63961030469E+01  0.69795863042E+01  0.17188617983E+03  0.17120000000E+03 0.  0.
        998    1    1    2    0    0  0.24288350636E+01  0.25315583112E+01  0.14875172469E+04  0.14875549966E+04  0.10000000000E+02 0. -1.
</event>
<event>
 5    1  0.1294251E-008  0.3791158E+03  0.7957747E-01  0.3455017E+00
         13   -1    0    0    0    0  0.00000000000E+00  0.00000000000E+00  0.14999999963E+04  0.15000000000E+04  0.10566000000E+00 0. -1.
        994   -1    0    0    0    0 -0.00000000000E+00 -0.00000000000E+00  0.11368683772E-12  0.17120000000E+03  0.17120000000E+03 0.  0.
         13    1    1    2    0    0 -0.14759223440E+02 -0.20799788723E+02  0.70721177129E+02  0.75179531430E+02  0.10566000000E+00 0. -1.
        994    1    1    2    0    0 -0.62320004901E+01  0.18515227199E+02  0.58607491711E+01  0.17241067209E+03  0.17120000000E+03 0.  0.
        998    1    1    2    0    0  0.20991223930E+02  0.22845615240E+01  0.14234180700E+04  0.14236097965E+04  0.10000000000E+02 0. -1.
</event>
<event>
 5    1  0.1294251E-008  0.3881808E+03  0.7957747E-01  0.3416293E+00
         13   -1    0    0    0    0  0.00000000000E+00  0.00000000000E+00  0.14999999963E+04  0.15000000000E+04  0.10566000000E+00 0. -1.
        994   -1    0    0    0    0 -0.00000000000E+00 -0.00000000000E+00  0.11368683772E-12  0.17120000000E+03  0.17120000000E+03 0.  0.
         13    1    1    2    0    0 -0.29724413630E+02  0.38366233403E+02  0.50797376389E+02  0.70255912514E+02  0.10566000000E+00 0. -1.
        994    1    1    2    0    0 -0.17241325699E+02 -0.37129712447E+02  0.27182483013E+02  0.17811290307E+03  0.17120000000E+03 0.  0.
        998    1    1    2    0    0  0.46965739329E+02 -0.12365209562E+01  0.14220201369E+04  0.14228311844E+04  0.10000000000E+02 0. -1.
</event>
<event>
 5    1  0.1294251E-008  0.3773690E+03  0.7957747E-01  0.3462695E+00
         13   -1    0    0    0    0  0.00000000000E+00  0.00000000000E+00  0.14999999963E+04  0.15000000000E+04  0.10566000000E+00 0. -1.
        994   -1    0    0    0    0 -0.00000000000E+00 -0.00000000000E+00  0.11368683772E-12  0.17120000000E+03  0.17120000000E+03 0.  0.
         13    1    1    2    0    0  0.45232373223E+02 -0.29534646405E+02  0.20896217784E+03  0.21583203158E+03  0.10566000000E+00 0. -1.
        994    1    1    2    0    0 -0.55030051092E+02  0.39733163774E+02  0.21164342724E+02  0.18537637452E+03  0.17120000000E+03 0.  0.
        998    1    1    2    0    0  0.97976778684E+01 -0.10198517369E+02  0.12698734757E+04  0.12699915939E+04  0.10000000000E+02 0. -1.
</event>
<event>
 5    1  0.1294251E-008  0.3850808E+03  0.7957747E-01  0.3429330E+00
         13   -1    0    0    0    0  0.00000000000E+00  0.00000000000E+00  0.14999999963E+04  0.15000000000E+04  0.10566000000E+00 0.  1.
        994   -1    0    0    0    0 -0.00000000000E+00 -0.00000000000E+00  0.11368683772E-12  0.17120000000E+03  0.17120000000E+03 0.  0.
         13    1    1    2    0    0 -0.11192535422E+02  0.97822487981E+01  0.72087713145E+02  0.73604448175E+02  0.10566000000E+00 0.  1.
        994    1    1    2    0    0 -0.79858131214E+01 -0.16618150379E+02  0.27084762285E+01  0.17221124231E+03  0.17120000000E+03 0.  0.
        998    1    1    2    0    0  0.19178348543E+02  0.68359015808E+01  0.14252038069E+04  0.14253843095E+04  0.10000000000E+02 0.  1.
</event>
<event>
 5    1  0.1294251E-008  0.3860799E+03  0.7957747E-01  0.3425105E+00
         13   -1    0    0    0    0  0.00000000000E+00  0.00000000000E+00  0.14999999963E+04  0.15000000000E+04  0.10566000000E+00 0.  1.
        994   -1    0    0    0    0 -0.00000000000E+00 -0.00000000000E+00  0.11368683772E-12  0.17120000000E+03  0.17120000000E+03 0.  0.
         13    1    1    2    0    0  0.46006883021E+01  0.11200329493E+02  0.68130410092E+02  0.69198104432E+02  0.10566000000E+00 0.  1.
        994    1    1    2    0    0 -0.59722693132E+01 -0.56413866975E+01  0.13161576389E+01  0.17140205808E+03  0.17120000000E+03 0.  0.
        998    1    1    2    0    0  0.13715810111E+01 -0.55589427952E+01  0.14305534285E+04  0.14305998375E+04  0.10000000000E+02 0.  1.
</event>
<event>
 5    1  0.1294251E-008  0.3855760E+03  0.7957747E-01  0.3427233E+00
         13   -1    0    0    0    0  0.00000000000E+00  0.00000000000E+00  0.14999999963E+04  0.15000000000E+04  0.10566000000E+00 0. -1.
        994   -1    0    0    0    0 -0.00000000000E+00 -0.00000000000E+00  0.11368683772E-12  0.17120000000E+03  0.17120000000E+03 0.  0.
         13    1    1    2    0    0  0.87789121545E+01 -0.73505758172E+01  0.46152868104E+02  0.47552062644E+02  0.10566000000E+00 0. -1.
        994    1    1    2    0    0 -0.16699496784E+02  0.81714605317E+01  0.24798606955E+01  0.17222437594E+03  0.17120000000E+03 0.  0.
        998    1    1    2    0    0  0.79205846298E+01 -0.82088471453E+00  0.14513672675E+04  0.14514235614E+04  0.10000000000E+02 0. -1.
</event>
<event>
 5    1  0.1294251E-008  0.3853486E+03  0.7957747E-01  0.3428195E+00
         13   -1    0    0    0    0  0.00000000000E+00  0.00000000000E+00  0.14999999963E+04  0.15000000000E+04  0.10566000000E+00 0.  1.
        994   -1    0    0    0    0 -0.00000000000E+00 -0.00000000000E+00  0.11368683772E-12  0.17120000000E+03  0.17120000000E+03 0.  0.
         13    1    1    2    0    0  0.44423299554E+01 -0.13372617925E+02  0.69586827071E+02  0.70999287824E+02  0.10566000000E+00 0.  1.
        994    1    1    2    0    0  0.67795514978E+01  0.94953292910E+01  0.19044602888E+01  0.17160766465E+03  0.17120000000E+03 0.  0.
        998    1    1    2    0    0 -0.11221881453E+02  0.38772886338E+01  0.14285087089E+04  0.14285930475E+04  0.10000000000E+02 0.  1.
</event>
<event>
 5    1  0.1294251E-008  0.3834501E+03  0.7957747E-01  0.3436272E+00
         13   -1    0    0    0    0  0.00000000000E+00  0.00000000000E+00  0.14999999963E+04  0.15000000000E+04  0.10566000000E+00 0. -1.
        994   -1    0    0    0    0 -0.00000000000E+00 -0.00000000000E+00  0.11368683772E-12  0.17120000000E+03  0.17120000000E+03 0.  0.
         13    1    1    2    0    0  0.19978850308E+01  0.10648405432E+02  0.24735823666E+02  0.27004670324E+02  0.10566000000E+00 0. -1.
        994    1    1    2    0    0  0.23301847940E+01  0.53853560443E+01  0.25154249339E+01  0.17131899831E+03  0.17120000000E+03 0.  0.
        998    1    1    2    0    0 -0.43280698248E+01 -0.16033761476E+02  0.14727487477E+04  0.14728763314E+04  0.10000000000E+02 0. -1.
</event>
<event>
 5    1  0.1294251E-008  0.3728105E+03  0.7957747E-01  0.3483073E+00
         13   -1    0    0    0    0  0.00000000000E+00  0.00000000000E+00  0.14999999963E+04  0.15000000000E+04  0.10566000000E+00 0.  1.
        994   -1    0    0    0    0 -0.00000000000E+00 -0.00000000000E+00  0.11368683772E-12  0.17120000000E+03  0.17120000000E+03 0.  0.
         13    1    1    2    0    0 -0.20039351326E+02  0.46993811224E+02  0.20468318184E+03  0.21096257959E+03  0.10566000000E+00 0.  1.
        994    1    1    2    0    0  0.19669474392E-02  0.81020469264E+01  0.80322217062E+01  0.17157971836E+03  0.17120000000E+03 0.  0.
        998    1    1    2    0    0  0.20037384378E+02 -0.55095858150E+02  0.12872845927E+04  0.12886577020E+04  0.10000000000E+02 0.  1.
</event>
<event>
 5    1  0.1294251E-008  0.3831207E+03  0.7957747E-01  0.3437682E+00
         13   -1    0    0    0    0  0.00000000000E+00  0.00000000000E+00  0.14999999963E+04  0.15000000000E+04  0.10566000000E+00 0. -1.
        994   -1    0    0    0    0 -0.00000000000E+00 -0.00000000000E+00  0.11368683772E-12  0.17120000000E+03  0.17120000000E+03 0.  0.
         13    1    1    2    0    0 -0.24412450085E+02 -0.23632095033E+02  0.18346563921E+03  0.18658535733E+03  0.10566000000E+00 0. -1.
        994    1    1    2    0    0  0.18471051817E+02  0.44540016117E+02  0.10297363237E+02  0.17815854872E+03  0.17120000000E+03 0.  0.
        998    1    1    2    0    0  0.59413982672E+01 -0.20907921083E+02  0.13062369938E+04  0.13064560940E+04  0.10000000000E+02 0. -1.
</event>
<event>
 5    1  0.1708108E-008  0.3862973E+03  0.7957747E-01  0.3424189E+00
         13   -1    0    0    0    0  0.00000000000E+00  0.00000000000E+00  0.14999999963E+04  0.15000000000E+04  0.10566000000E+00 0. -1.
        994   -1    0    0    0    0 -0.00000000000E+00 -0.00000000000E+00  0.11368683772E-12  0.17120000000E+03  0.17120000000E+03 0.  0.
         13    1    1    2    0    0 -0.84099163492E+01  0.60380788951E+01  0.54707924920E+02  0.55679020312E+02  0.10566000000E+00 0. -1.
        994    1    1    2    0    0  0.10805386897E+02  0.81299338717E+00  0.13720275910E+01  0.17154806849E+03  0.17120000000E+03 0.  0.
        998    1    1    2    0    0 -0.23954705477E+01 -0.68510722823E+01  0.14439200438E+04  0.14439729112E+04  0.10000000000E+02 0. -1.
</event>
<event>
 5    1  0.1294251E-008  0.3803614E+03  0.7957747E-01  0.3449586E+00
         13   -1    0    0    0    0  0.00000000000E+00  0.00000000000E+00  0.14999999963E+04  0.15000000000E+04  0.10566000000E+00 0. -1.
        994   -1    0    0    0    0 -0.00000000000E+00 -0.00000000000E+00  0.11368683772E-12  0.17120000000E+03  0.17120000000E+03 0.  0.
         13    1    1    2    0    0 -0.13544772095E+02  0.16153498162E+01  0.21749437951E+02  0.25673321198E+02  0.10566000000E+00 0. -1.
        994    1    1    2    0    0  0.16046185380E+02  0.32501634695E+02  0.83500729513E+01  0.17519417810E+03  0.17120000000E+03 0.  0.
        998    1    1    2    0    0 -0.25014132857E+01 -0.34116984511E+02  0.14699004854E+04  0.14703325007E+04  0.10000000000E+02 0. -1.
</event>
<event>
 5    1  0.1294251E-008  0.3841548E+03  0.7957747E-01  0.3433265E+00
         13   -1    0    0    0    0  0.00000000000E+00  0.00000000000E+00  0.14999999963E+04  0.15000000000E+04  0.10566000000E+00 0. -1.
        994   -1    0    0    0    0 -0.00000000000E+00 -0.00000000000E+00  0.11368683772E-12  0.17120000000E+03  0.17120000000E+03 0.  0.
         13    1    1    2    0    0  0.14150082700E+02 -0.11833768393E+01  0.48033398201E+02  0.50088359206E+02  0.10566000000E+00 0. -1.
        994    1    1    2    0    0 -0.11904143859E+02  0.75078431305E+01  0.27037943175E+01  0.17179879759E+03  0.17120000000E+03 0.  0.
        998    1    1    2    0    0 -0.22459388407E+01 -0.63244662912E+01  0.14492628038E+04  0.14493128432E+04  0.10000000000E+02 0. -1.
</event>
<event>
 5    1  0.1294251E-008  0.3803093E+03  0.7957747E-01  0.3449813E+00
         13   -1    0    0    0    0  0.00000000000E+00  0.00000000000E+00  0.14999999963E+04  0.15000000000E+04  0.10566000000E+00 0. -1.
        994   -1    0    0    0    0 -0.00000000000E+00 -0.00000000000E+00  0.11368683772E-12  0.17120000000E+03  0.17120000000E+03 0.  0.
         13    1    1    2    0    0 -0.35580631210E+02  0.27761150839E+02  0.21988151443E+03  0.22446504041E+03  0.10566000000E+00 0. -1.
        994    1    1    2    0    0  0.35572886883E+02 -0.27361304315E+02  0.10732589202E+02  0.17730961544E+03  0.17120000000E+03 0.  0.
        998    1    1    2    0    0  0.77443274615E-02 -0.39984652380E+00  0.12693858926E+04  0.12694253442E+04  0.10000000000E+02 0.  0.
</event>
<event>
 5    1  0.1294251E-008  0.3739266E+03  0.7957747E-01  0.3478037E+00
         13   -1    0    0    0    0  0.00000000000E+00  0.00000000000E+00  0.14999999963E+04  0.15000000000E+04  0.10566000000E+00 0. -1.
        994   -1    0    0    0    0 -0.00000000000E+00 -0.00000000000E+00  0.11368683772E-12  0.17120000000E+03  0.17120000000E+03 0.  0.
         13    1    1    2    0    0 -0.48119847794E+02 -0.10727673433E+02  0.14516644719E+03  0.15330985383E+03  0.10566000000E+00 0. -1.
        994    1    1    2    0    0  0.55711135581E+02  0.95284990655E+01  0.18208636484E+02  0.18120573215E+03  0.17120000000E+03 0.  0.
        998    1    1    2    0    0 -0.75912877866E+01  0.11991743671E+01  0.13366249126E+04  0.13366844140E+04  0.10000000000E+02 0. -1.
</event>
<event>
 5    1  0.1294251E-008  0.3738795E+03  0.7957747E-01  0.3478249E+00
         13   -1    0    0    0    0  0.00000000000E+00  0.00000000000E+00  0.14999999963E+04  0.15000000000E+04  0.10566000000E+00 0.  1.
        994   -1    0    0    0    0 -0.00000000000E+00 -0.00000000000E+00  0.11368683772E-12  0.17120000000E+03  0.17120000000E+03 0.  0.
         13    1    1    2    0    0 -0.41358429149E+02 -0.24636283341E+02  0.15745170652E+03  0.16464664336E+03  0.10566000000E+00 0.  1.
        994    1    1    2    0    0  0.50387287149E+01  0.48921786112E+02  0.15553444081E+02  0.17880178849E+03  0.17120000000E+03 0.  0.
        998    1    1    2    0    0  0.36319700435E+02 -0.24285502771E+02  0.13269948457E+04  0.13277515682E+04  0.10000000000E+02 0.  1.
</event>
<event>
 5    1  0.1294251E-008  0.3791042E+03  0.7957747E-01  0.3455068E+00
         13   -1    0    0    0    0  0.00000000000E+00  0.00000000000E+00  0.14999999963E+04  0.15000000000E+04  0.10566000000E+00 0. -1.
        994   -1    0    0    0    0 -0.00000000000E+00 -0.00000000000E+00  0.11368683772E-12  0.17120000000E+03  0.17120000000E+03 0.  0.
         13    1    1    2    0    0  0.11605541455E+02  0.84773934812E+01 -0.73566481883E+00  0.14391218136E+02  0.10566000000E+00 0. -1.
        994    1    1    2    0    0 -0.12169624212E+02 -0.42093176078E+01  0.16435288848E+02  0.17246848068E+03  0.17120000000E+03 0.  0.
        998    1    1    2    0    0  0.56408275726E+00 -0.42680758734E+01  0.14843003722E+04  0.14843403012E+04  0.10000000000E+02 0. -1.
</event>
<event>
 5    1  0.1294251E-008  0.3818598E+03  0.7957747E-01  0.3443100E+00
         13   -1    0    0    0    0  0.00000000000E+00  0.00000000000E+00  0.14999999963E+04  0.15000000000E+04  0.10566000000E+00 0.  1.
        994   -1    0    0    0    0 -0.00000000000E+00 -0.00000000000E+00  0.11368683772E-12  0.17120000000E+03  0.17120000000E+03 0.  0.
         13    1    1    2    0    0  0.28353385394E+02  0.41480415997E+01  0.15013628316E+03  0.15284644385E+03  0.10566000000E+00 0.  1.
        994    1    1    2    0    0  0.42711500630E+01  0.74771976481E+01  0.34436623952E+01  0.17145101347E+03  0.17120000000E+03 0.  0.
        998    1    1    2    0    0 -0.32624535457E+02 -0.11625239248E+02  0.13464200507E+04  0.13469025427E+04  0.10000000000E+02 0.  1.
</event>
<event>
 5    1  0.1294251E-008  0.3857817E+03  0.7957747E-01  0.3426364E+00
         13   -1    0    0    0    0  0.00000000000E+00  0.00000000000E+00  0.14999999963E+04  0.15000000000E+04  0.10566000000E+00 0. -1.
        994   -1    0    0    0    0 -0.00000000000E+00 -0.00000000000E+00  0.11368683772E-12  0.17120000000E+03  0.17120000000E+03 0.  0.
         13    1    1    2    0    0 -0.10402794358E+02 -0.90118925285E+01  0.77203670619E+02  0.78420980984E+02  0.10566000000E+00 0. -1.
        994    1    1    2    0    0  0.38771354583E+01  0.85329708693E+01  0.15307415820E+01  0.17146319413E+03  0.17120000000E+03 0.  0.
        998    1    1    2    0    0  0.65256588997E+01  0.47892165917E+00  0.14212655841E+04  0.14213158249E+04  0.10000000000E+02 0. -1.
</event>
<event>
 5    1  0.1294251E-008  0.3812580E+03  0.7957747E-01  0.3445699E+00
         13   -1    0    0    0    0  0.00000000000E+00  0.00000000000E+00  0.14999999963E+04  0.15000000000E+04  0.10566000000E+00 0. -1.
        994   -1    0    0    0    0 -0.00000000000E+00 -0.00000000000E+00  0.11368683772E-12  0.17120000000E+03  0.17120000000E+03 0.  0.
         13    1    1    2    0    0  0.30458254309E+02 -0.58764050277E+01  0.22470083911E+02  0.38303436224E+02  0.10566000000E+00 0. -1.
        994    1    1    2    0    0 -0.10420613937E+01 -0.28191327715E+00  0.17024549729E+02  0.17204778598E+03  0.17120000000E+03 0.  0.
        998    1    1    2    0    0 -0.29416192915E+02  0.61583183048E+01  0.14605053626E+04  0.14608487778E+04  0.10000000000E+02 0. -1.
</event>
<event>
 5    1  0.1294251E-008  0.3698929E+03  0.7957747E-01  0.3496383E+00
         13   -1    0    0    0    0  0.00000000000E+00  0.00000000000E+00  0.14999999963E+04  0.15000000000E+04  0.10566000000E+00 0.  1.
        994   -1    0    0    0    0 -0.00000000000E+00 -0.00000000000E+00  0.11368683772E-12  0.17120000000E+03  0.17120000000E+03 0.  0.
         13    1    1    2    0    0  0.29813395052E+02  0.14313797735E+02  0.47590580140E+02  0.57953410704E+02  0.10566000000E+00 0.  1.
        994    1    1    2    0    0 -0.90982085628E+00 -0.21774664788E+02  0.12543790402E+02  0.17303684717E+03  0.17120000000E+03 0.  0.
        998    1    1    2    0    0 -0.28903574196E+02  0.74608670525E+01  0.14398656257E+04  0.14402097421E+04  0.10000000000E+02 0.  1.
</event>
<event>
 5    1  0.1294251E-008  0.3837028E+03  0.7957747E-01  0.3435192E+00
         13   -1    0    0    0    0  0.00000000000E+00  0.00000000000E+00  0.14999999963E+04  0.15000000000E+04  0.10566000000E+00 0. -1.
        994   -1    0    0    0    0 -0.00000000000E+00 -0.00000000000E+00  0.11368683772E-12  0.17120000000E+03  0.17120000000E+03 0.  0.
         13    1    1    2    0    0  0.81726274039E+01 -0.19253226562E+02  0.90245010893E+02  0.92637204874E+02  0.10566000000E+00 0. -1.
        994    1    1    2    0    0 -0.69933775063E+01  0.21232165930E+02  0.39275823502E+01  0.17269793891E+03  0.17120000000E+03 0.  0.
        998    1    1    2    0    0 -0.11792498975E+01 -0.19789393684E+01  0.14058274030E+04  0.14058648562E+04  0.10000000000E+02 0. -1.
</event>
<event>
 5    1  0.1294251E-008  0.3839104E+03  0.7957747E-01  0.3434307E+00
         13   -1    0    0    0    0  0.00000000000E+00  0.00000000000E+00  0.14999999963E+04  0.15000000000E+04  0.10566000000E+00 0. -1.
        994   -1    0    0    0    0 -0.00000000000E+00 -0.00000000000E+00  0.11368683772E-12  0.17120000000E+03  0.17120000000E+03 0.  0.
         13    1    1    2    0    0 -0.61929161853E+01  0.10663239245E+02  0.34096034852E+02  0.36257518375E+02  0.10566000000E+00 0. -1.
        994    1    1    2    0    0  0.84859979943E+01 -0.73856119517E+01  0.25898884779E+01  0.17158877279E+03  0.17120000000E+03 0.  0.
        998    1    1    2    0    0 -0.22930818090E+01 -0.32776272935E+01  0.14633140729E+04  0.14633537088E+04  0.10000000000E+02 0. -1.
</event>
<event>
 5    1  0.1294251E-008  0.3804740E+03  0.7957747E-01  0.3449097E+00
         13   -1    0    0    0    0  0.00000000000E+00  0.00000000000E+00  0.14999999963E+04  0.15000000000E+04  0.10566000000E+00 0.  1.
        994   -1    0    0    0    0 -0.00000000000E+00 -0.00000000000E+00  0.11368683772E-12  0.17120000000E+03  0.17120000000E+03 0.  0.
         13    1    1    2    0    0  0.24990965862E+02  0.11368476414E+02  0.96560190016E+02  0.10038760925E+03  0.10566000000E+00 0.  1.
        994    1    1    2    0    0 -0.10597836886E+02 -0.11987296114E+02  0.47489856753E+01  0.17201163414E+03  0.17120000000E+03 0.  0.
        998    1    1    2    0    0 -0.14393128975E+02  0.61881970000E+00  0.13986908206E+04  0.13988007566E+04  0.10000000000E+02 0.  1.
</event>
<event>
 5    1  0.1294251E-008  0.3771027E+03  0.7957747E-01  0.3463872E+00
         13   -1    0    0    0    0  0.00000000000E+00  0.00000000000E+00  0.14999999963E+04  0.15000000000E+04  0.10566000000E+00 0.  1.
        994   -1    0    0    0    0 -0.00000000000E+00 -0.00000000000E+00  0.11368683772E-12  0.17120000000E+03  0.17120000000E+03 0.  0.
         13    1    1    2    0    0  0.32990013837E+02 -0.19443993799E+02  0.11316673409E+03  0.11947020874E+03  0.10566000000E+00 0.  1.
        994    1    1    2    0    0 -0.36399578722E+02  0.37622783277E+02  0.14909014973E+02  0.17964443181E+03  0.17120000000E+03 0.  0.
        998    1    1    2    0    0  0.34095648849E+01 -0.18178789478E+02  0.13719242472E+04  0.13720853595E+04  0.10000000000E+02 0.  1.
</event>
<event>
 5    1  0.1703764E-008  0.3862153E+03  0.7957747E-01  0.3424534E+00
         13   -1    0    0    0    0  0.00000000000E+00  0.00000000000E+00  0.14999999963E+04  0.15000000000E+04  0.10566000000E+00 0.  1.
        994   -1    0    0    0    0 -0.00000000000E+00 -0.00000000000E+00  0.11368683772E-12  0.17120000000E+03  0.17120000000E+03 0.  0.
         13    1    1    2    0    0 -0.24625774514E+01  0.10077314759E+02  0.54277348263E+02  0.55259915481E+02  0.10566000000E+00 0.  1.
        994    1    1    2    0    0 -0.25715397375E+01 -0.49111635631E+01  0.11286337866E+01  0.17129345042E+03  0.17120000000E+03 0.  0.
        998    1    1    2    0    0  0.50341171889E+01 -0.51661511959E+01  0.14445940142E+04  0.14446466341E+04  0.10000000000E+02 0.  1.
</event>
<event>
 5    1  0.1294251E-008  0.3796262E+03  0.7957747E-01  0.3452788E+00
         13   -1    0    0    0    0  0.00000000000E+00  0.00000000000E+00  0.14999999963E+04  0.15000000000E+04  0.10566000000E+00 0.  1.
        994   -1    0    0    0    0 -0.00000000000E+00 -0.00000000000E+00  0.11368683772E-12  0.17120000000E+03  0.17120000000E+03 0.  0.
         13    1    1    2    0    0  0.43254982132E+01  0.19555891606E+02  0.43554095798E+02  0.47938640533E+02  0.10566000000E+00 0.  1.
        994    1    1    2    0    0  0.55641198638E+01 -0.22789692905E+02  0.61661155135E+01  0.17290977564E+03  0.17120000000E+03 0.  0.
        998    1    1    2    0    0 -0.98896180770E+01  0.32338012993E+01  0.14502797850E+04  0.14503515838E+04  0.10000000000E+02 0.  1.
</event>
<event>
 5    1  0.1294251E-008  0.3798934E+03  0.7957747E-01  0.3451623E+00
         13   -1    0    0    0    0  0.00000000000E+00  0.00000000000E+00  0.14999999963E+04  0.15000000000E+04  0.10566000000E+00 0.  1.
        994   -1    0    0    0    0 -0.00000000000E+00 -0.00000000000E+00  0.11368683772E-12  0.17120000000E+03  0.17120000000E+03 0.  0.
         13    1    1    2    0    0  0.38227212905E+02  0.49447240586E+01  0.22114382547E+03  0.22447800073E+03  0.10566000000E+00 0.  1.
        994    1    1    2    0    0  0.49120270182E+01  0.73400387894E+01  0.44478431114E+01  0.17148535648E+03  0.17120000000E+03 0.  0.
        998    1    1    2    0    0 -0.43139239923E+02 -0.12284762848E+02  0.12744083277E+04  0.12752366428E+04  0.10000000000E+02 0.  1.
</event>
<event>
 5    1  0.1294251E-008  0.3846334E+03  0.7957747E-01  0.3431228E+00
         13   -1    0    0    0    0  0.00000000000E+00  0.00000000000E+00  0.14999999963E+04  0.15000000000E+04  0.10566000000E+00 0.  1.
        994   -1    0    0    0    0 -0.00000000000E+00 -0.00000000000E+00  0.11368683772E-12  0.17120000000E+03  0.17120000000E+03 0.  0.
         13    1    1    2    0    0 -0.20391816713E+02  0.78492866818E+01  0.13091771642E+03  0.13272865978E+03  0.10566000000E+00 0.  1.
        994    1    1    2    0    0  0.86774001857E+01 -0.17585795141E+02  0.30794434845E+01  0.17234697687E+03  0.17120000000E+03 0.  0.
        998    1    1    2    0    0  0.11714416528E+02  0.97365084588E+01  0.13660028364E+04  0.13661243633E+04  0.10000000000E+02 0.  1.
</event>
<event>
 5    1  0.1294251E-008  0.3851034E+03  0.7957747E-01  0.3429234E+00
         13   -1    0    0    0    0  0.00000000000E+00  0.00000000000E+00  0.14999999963E+04  0.15000000000E+04  0.10566000000E+00 0.  1.
        994   -1    0    0    0    0 -0.00000000000E+00 -0.00000000000E+00  0.11368683772E-12  0.17120000000E+03  0.17120000000E+03 0.  0.
         13    1    1    2    0    0 -0.37666270424E+01  0.12643547204E+02  0.55044417829E+02  0.56603408585E+02  0.10566000000E+00 0.  1.
        994    1    1    2    0    0  0.13576058646E+01 -0.90918106736E+01  0.18566906297E+01  0.17145667504E+03  0.17120000000E+03 0.  0.
        998    1    1    2    0    0  0.24090211778E+01 -0.35517365308E+01  0.14430988878E+04  0.14431399164E+04  0.10000000000E+02 0.  1.
</event>
<event>
 5    1  0.1294251E-008  0.3708867E+03  0.7957747E-01  0.3491826E+00
         13   -1    0    0    0    0  0.00000000000E+00  0.00000000000E+00  0.14999999963E+04  0.15000000000E+04  0.10566000000E+00 0. -1.
        994   -1    0    0    0    0 -0.00000000000E+00 -0.00000000000E+00  0.11368683772E-12  0.17120000000E+03  0.17120000000E+03 0.  0.
         13    1    1    2    0    0 -0.10825128522E+03 -0.17305927476E+02  0.45475168009E+03  0.46777872717E+03  0.10566000000E+00 0. -1.
        994    1    1    2    0    0  0.10776983195E+03  0.32586735085E+02  0.53859809984E+02  0.21186446402E+03  0.17120000000E+03 0.  0.
        998    1    1    2    0    0  0.48145326350E+00 -0.15280807609E+02  0.99138850620E+03  0.99155680881E+03  0.10000000000E+02 0. -1.
</event>
<event>
 5    1  0.1294251E-008  0.3859102E+03  0.7957747E-01  0.3425821E+00
         13   -1    0    0    0    0  0.00000000000E+00  0.00000000000E+00  0.14999999963E+04  0.15000000000E+04  0.10566000000E+00 0. -1.
        994   -1    0    0    0    0 -0.00000000000E+00 -0.00000000000E+00  0.11368683772E-12  0.17120000000E+03  0.17120000000E+03 0.  0.
         13    1    1    2    0    0 -0.31398440855E+01  0.11344875370E+02  0.56512485038E+02  0.57725531156E+02  0.10566000000E+00 0. -1.
        994    1    1    2    0    0 -0.39433461638E+00 -0.15818711027E+02  0.20003551280E+01  0.17194135203E+03  0.17120000000E+03 0.  0.
        998    1    1    2    0    0  0.35341787019E+01  0.44738356573E+01  0.14414871561E+04  0.14415331168E+04  0.10000000000E+02 0. -1.
</event>
<event>
 5    1  0.1294251E-008  0.3740916E+03  0.7957747E-01  0.3477295E+00
         13   -1    0    0    0    0  0.00000000000E+00  0.00000000000E+00  0.14999999963E+04  0.15000000000E+04  0.10566000000E+00 0.  1.
        994   -1    0    0    0    0 -0.00000000000E+00 -0.00000000000E+00  0.11368683772E-12  0.17120000000E+03  0.17120000000E+03 0.  0.
         13    1    1    2    0    0  0.86151375913E+02 -0.31799538983E+02  0.44466452517E+03  0.45404825884E+03  0.10566000000E+00 0.  1.
        994    1    1    2    0    0 -0.78810644335E+02  0.27413816089E+02  0.31270659901E+02  0.19300240709E+03  0.17120000000E+03 0.  0.
        998    1    1    2    0    0 -0.73407315777E+01  0.43857228936E+01  0.10240648112E+04  0.10241493341E+04  0.10000000000E+02 0.  1.
</event>
<event>
 5    1  0.1294251E-008  0.3797183E+03  0.7957747E-01  0.3452386E+00
         13   -1    0    0    0    0  0.00000000000E+00  0.00000000000E+00  0.14999999963E+04  0.15000000000E+04  0.10566000000E+00 0.  1.
        994   -1    0    0    0    0 -0.00000000000E+00 -0.00000000000E+00  0.11368683772E-12  0.17120000000E+03  0.17120000000E+03 0.  0.
         13    1    1    2    0    0 -0.33163059008E+01  0.22055901727E+02  0.54776822354E+02  0.59143656609E+02  0.10566000000E+00 0.  1.
        994    1    1    2    0    0  0.42563930100E+00 -0.23077186501E+02  0.60599827095E+01  0.17285514484E+03  0.17120000000E+03 0.  0.
        998    1    1    2    0    0  0.28906665998E+01  0.10212847738E+01  0.14391631912E+04  0.14392011986E+04  0.10000000000E+02 0.  1.
</event>
<event>
 5    1  0.1294251E-008  0.3841392E+03  0.7957747E-01  0.3433331E+00
         13   -1    0    0    0    0  0.00000000000E+00  0.00000000000E+00  0.14999999963E+04  0.15000000000E+04  0.10566000000E+00 0.  1.
        994   -1    0    0    0    0 -0.00000000000E+00 -0.00000000000E+00  0.11368683772E-12  0.17120000000E+03  0.17120000000E+03 0.  0.
         13    1    1    2    0    0 -0.13688108832E+02 -0.33375636170E+01  0.46012303475E+02  0.48121168828E+02  0.10566000000E+00 0.  1.
        994    1    1    2    0    0  0.16781890354E+02  0.41891929279E+01  0.30453749919E+01  0.17209850519E+03  0.17120000000E+03 0.  0.
        998    1    1    2    0    0 -0.30937815216E+01 -0.85162931091E+00  0.14509423178E+04  0.14509803260E+04  0.10000000000E+02 0.  1.
</event>
<event>
 5    1  0.1349377E-008  0.3856533E+03  0.7957747E-01  0.3426906E+00
         13   -1    0    0    0    0  0.00000000000E+00  0.00000000000E+00  0.14999999963E+04  0.15000000000E+04  0.10566000000E+00 0.  1.
        994   -1    0    0    0    0 -0.00000000000E+00 -0.00000000000E+00  0.11368683772E-12  0.17120000000E+03  0.17120000000E+03 0.  0.
         13    1    1    2    0    0  0.11109702426E+02 -0.14115734663E+01  0.48284825480E+02  0.49566657778E+02  0.10566000000E+00 0.  1.
        994    1    1    2    0    0 -0.79000777713E+01 -0.16105496722E+01  0.15194886059E+01  0.17139648172E+03  0.17120000000E+03 0.  0.
        998    1    1    2    0    0 -0.32096246543E+01  0.30221231385E+01  0.14501956822E+04  0.14502368605E+04  0.10000000000E+02 0.  1.
</event>
<event>
 5    1  0.1294251E-008  0.3760516E+03  0.7957747E-01  0.3468533E+00
         13   -1    0    0    0    0  0.00000000000E+00  0.00000000000E+00  0.14999999963E+04  0.15000000000E+04  0.10566000000E+00 0.  1.
        994   -1    0    0    0    0 -0.00000000000E+00 -0.00000000000E+00  0.11368683772E-12  0.17120000000E+03  0.17120000000E+03 0.  0.
         13    1    1    2    0    0 -0.45598915611E+02  0.14058617306E+02  0.21455515396E+03  0.21979724994E+03  0.10566000000E+00 0.  1.
        994    1    1    2    0    0  0.16943553411E+01 -0.76028728143E+01  0.63452597121E+01  0.17149453879E+03  0.17120000000E+03 0.  0.
        998    1    1    2    0    0  0.43904560270E+02 -0.64557444913E+01  0.12790995826E+04  0.12799082113E+04  0.10000000000E+02 0.  1.
</event>
<event>
 5    1  0.1294251E-008  0.3855655E+03  0.7957747E-01  0.3427277E+00
         13   -1    0    0    0    0  0.00000000000E+00  0.00000000000E+00  0.14999999963E+04  0.15000000000E+04  0.10566000000E+00 0. -1.
        994   -1    0    0    0    0 -0.00000000000E+00 -0.00000000000E+00  0.11368683772E-12  0.17120000000E+03  0.17120000000E+03 0.  0.
         13    1    1    2    0    0  0.13865457488E+02  0.88895260245E+01  0.98575635439E+02  0.99942191544E+02  0.10566000000E+00 0. -1.
        994    1    1    2    0    0 -0.67488964836E+01 -0.14719287171E+02  0.22108192114E+01  0.17197829148E+03  0.17120000000E+03 0.  0.
        998    1    1    2    0    0 -0.71165610048E+01  0.58297611461E+01  0.13992135416E+04  0.13992795170E+04  0.10000000000E+02 0. -1.
</event>
<event>
 5    1  0.1294251E-008  0.3926112E+03  0.7957747E-01  0.3398020E+00
         13   -1    0    0    0    0  0.00000000000E+00  0.00000000000E+00  0.14999999963E+04  0.15000000000E+04  0.10566000000E+00 0.  1.
        994   -1    0    0    0    0 -0.00000000000E+00 -0.00000000000E+00  0.11368683772E-12  0.17120000000E+03  0.17120000000E+03 0.  0.
         13    1    1    2    0    0  0.63473113192E+02 -0.31389490327E+02  0.93477181597E+02  0.11726947960E+03  0.10566000000E+00 0.  1.
        994    1    1    2    0    0 -0.61804332901E+02  0.35175573365E+02  0.42921263663E+02  0.19028602524E+03  0.17120000000E+03 0.  0.
        998    1    1    2    0    0 -0.16687802907E+01 -0.37860830377E+01  0.13636015510E+04  0.13636444952E+04  0.10000000000E+02 0.  1.
</event>
<event>
 5    1  0.1294251E-008  0.3830419E+03  0.7957747E-01  0.3438019E+00
         13   -1    0    0    0    0  0.00000000000E+00  0.00000000000E+00  0.14999999963E+04  0.15000000000E+04  0.10566000000E+00 0. -1.
        994   -1    0    0    0    0 -0.00000000000E+00 -0.00000000000E+00  0.11368683772E-12  0.17120000000E+03  0.17120000000E+03 0.  0.
         13    1    1    2    0    0 -0.78858346489E+01 -0.76980851700E+01  0.22112673923E+02  0.24706849565E+02  0.10566000000E+00 0. -1.
        994    1    1    2    0    0  0.79554899197E+01  0.78726649014E+01  0.30201297168E+01  0.17159204485E+03  0.17120000000E+03 0.  0.
        998    1    1    2    0    0 -0.69655270811E-01 -0.17457973144E+00  0.14748671926E+04  0.14749011056E+04  0.10000000000E+02 0.  0.
</event>
<event>
 5    1  0.1294251E-008  0.3722399E+03  0.7957747E-01  0.3485660E+00
         13   -1    0    0    0    0  0.00000000000E+00  0.00000000000E+00  0.14999999963E+04  0.15000000000E+04  0.10566000000E+00 0.  1.
        994   -1    0    0    0    0 -0.00000000000E+00 -0.00000000000E+00  0.11368683772E-12  0.17120000000E+03  0.17120000000E+03 0.  0.
         13    1    1    2    0    0  0.31210388351E+02  0.63570422564E+00  0.53497099458E+02  0.61939028693E+02  0.10566000000E+00 0.  1.
        994    1    1    2    0    0 -0.41473695386E+02  0.11904668941E+02  0.14518199213E+02  0.17714967305E+03  0.17120000000E+03 0.  0.
        998    1    1    2    0    0  0.10263307035E+02 -0.12540373167E+02  0.14319846976E+04  0.14321112983E+04  0.10000000000E+02 0.  1.
</event>
<event>
 5    1  0.1294251E-008  0.3775606E+03  0.7957747E-01  0.3461849E+00
         13   -1    0    0    0    0  0.00000000000E+00  0.00000000000E+00  0.14999999963E+04  0.15000000000E+04  0.10566000000E+00 0.  1.
        994   -1    0    0    0    0 -0.00000000000E+00 -0.00000000000E+00  0.11368683772E-12  0.17120000000E+03  0.17120000000E+03 0.  0.
         13    1    1    2    0    0 -0.40382356466E+02 -0.33691667848E+02  0.26703518371E+03  0.27216477307E+03  0.10566000000E+00 0.  1.
        994    1    1    2    0    0  0.17539608586E+02  0.17204521952E+02  0.74065877047E+01  0.17311248074E+03  0.17120000000E+03 0.  0.
        998    1    1    2    0    0  0.22842747880E+02  0.16487145896E+02  0.12255582249E+04  0.12259227462E+04  0.10000000000E+02 0.  1.
</event>
<event>
 5    1  0.1294251E-008  0.3841458E+03  0.7957747E-01  0.3433303E+00
         13   -1    0    0    0    0  0.00000000000E+00  0.00000000000E+00  0.14999999963E+04  0.15000000000E+04  0.10566000000E+00 0. -1.
        994   -1    0    0    0    0 -0.00000000000E+00 -0.00000000000E+00  0.11368683772E-12  0.17120000000E+03  0.17120000000E+03 0.  0.
         13    1    1    2    0    0  0.13826471545E+02 -0.94555433487E+00  0.53153686244E+02  0.54930782934E+02  0.10566000000E+00 0. -1.
        994    1    1    2    0    0  0.16723673233E+02 -0.27568298836E+01  0.30028088446E+01  0.17206318089E+03  0.17120000000E+03 0.  0.
        998    1    1    2    0    0 -0.30550144778E+02  0.37023842185E+01  0.14438435012E+04  0.14442060362E+04  0.10000000000E+02 0. -1.
</event>
<event>
 5    1  0.1294251E-008  0.3832556E+03  0.7957747E-01  0.3437104E+00
         13   -1    0    0    0    0  0.00000000000E+00  0.00000000000E+00  0.14999999963E+04  0.15000000000E+04  0.10566000000E+00 0. -1.
        994   -1    0    0    0    0 -0.00000000000E+00 -0.00000000000E+00  0.11368683772E-12  0.17120000000E+03  0.17120000000E+03 0.  0.
         13    1    1    2    0    0  0.39153261965E+01  0.23328800534E+02  0.98937995337E+02  0.10172659829E+03  0.10566000000E+00 0. -1.
        994    1    1    2    0    0 -0.46919880676E+01 -0.33025732320E+02  0.61875591638E+01  0.17452919422E+03  0.17120000000E+03 0.  0.
        998    1    1    2    0    0  0.77666187107E+00  0.96969317865E+01  0.13948744418E+04  0.13949442075E+04  0.10000000000E+02 0. -1.
</event>
<event>
 5    1  0.1294251E-008  0.3711842E+03  0.7957747E-01  0.3490466E+00
         13   -1    0    0    0    0  0.00000000000E+00  0.00000000000E+00  0.14999999963E+04  0.15000000000E+04  0.10566000000E+00 0.  1.
        994   -1    0    0    0    0 -0.00000000000E+00 -0.00000000000E+00  0.11368683772E-12  0.17120000000E+03  0.17120000000E+03 0.  0.
         13    1    1    2    0    0  0.18271050811E+01  0.23565169162E+02  0.18836422775E+02  0.30223790259E+02  0.10566000000E+00 0.  1.
        994    1    1    2    0    0  0.65997649233E+01 -0.26721616686E+02  0.14230509302E+02  0.17398146192E+03  0.17120000000E+03 0.  0.
        998    1    1    2    0    0 -0.84268700044E+01  0.31564475240E+01  0.14669330642E+04  0.14669947478E+04  0.10000000000E+02 0.  1.
</event>
<event>
 5    1  0.1294251E-008  0.3848756E+03  0.7957747E-01  0.3430200E+00
         13   -1    0    0    0    0  0.00000000000E+00  0.00000000000E+00  0.14999999963E+04  0.15000000000E+04  0.10566000000E+00 0. -1.
        994   -1    0    0    0    0 -0.00000000000E+00 -0.00000000000E+00  0.11368683772E-12  0.17120000000E+03  0.17120000000E+03 0.  0.
         13    1    1    2    0    0  0.11963050516E+02  0.97610381082E+01  0.72060108112E+02  0.73695744706E+02  0.10566000000E+00 0. -1.
        994    1    1    2    0    0 -0.32000943513E+01 -0.65141302863E+01  0.18652337946E+01  0.17136392151E+03  0.17120000000E+03 0.  0.
        998    1    1    2    0    0 -0.87629561650E+01 -0.32469078219E+01  0.14260746544E+04  0.14261403338E+04  0.10000000000E+02 0. -1.
</event>
<event>
 5    1  0.1294251E-008  0.3839667E+03  0.7957747E-01  0.3434067E+00
         13   -1    0    0    0    0  0.00000000000E+00  0.00000000000E+00  0.14999999963E+04  0.15000000000E+04  0.10566000000E+00 0.  1.
        994   -1    0    0    0    0 -0.00000000000E+00 -0.00000000000E+00  0.11368683772E-12  0.17120000000E+03  0.17120000000E+03 0.  0.
         13    1    1    2    0    0  0.85536519878E+01 -0.12435447205E+02  0.53891838195E+02  0.55965584940E+02  0.10566000000E+00 0.  1.
        994    1    1    2    0    0  0.47018487339E+00  0.69466326679E+01  0.23040159578E+01  0.17135701115E+03  0.17120000000E+03 0.  0.
        998    1    1    2    0    0 -0.90238368612E+01  0.54888145375E+01  0.14438041421E+04  0.14438774039E+04  0.10000000000E+02 0.  1.
</event>
<event>
 5    1  0.1294251E-008  0.3778325E+03  0.7957747E-01  0.3460651E+00
         13   -1    0    0    0    0  0.00000000000E+00  0.00000000000E+00  0.14999999963E+04  0.15000000000E+04  0.10566000000E+00 0.  1.
        994   -1    0    0    0    0 -0.00000000000E+00 -0.00000000000E+00  0.11368683772E-12  0.17120000000E+03  0.17120000000E+03 0.  0.
         13    1    1    2    0    0 -0.35388407772E+02  0.11027397912E+02  0.14284073451E+03  0.14757177748E+03  0.10566000000E+00 0.  1.
        994    1    1    2    0    0  0.27015145475E+01 -0.67876549957E+01  0.54110235607E+01  0.17144121330E+03  0.17120000000E+03 0.  0.
        998    1    1    2    0    0  0.32686893225E+02 -0.42397429166E+01  0.13517482382E+04  0.13521870092E+04  0.10000000000E+02 0.  1.
</event>
<event>
 5    1  0.1294251E-008  0.3840888E+03  0.7957747E-01  0.3433546E+00
         13   -1    0    0    0    0  0.00000000000E+00  0.00000000000E+00  0.14999999963E+04  0.15000000000E+04  0.10566000000E+00 0. -1.
        994   -1    0    0    0    0 -0.00000000000E+00 -0.00000000000E+00  0.11368683772E-12  0.17120000000E+03  0.17120000000E+03 0.  0.
         13    1    1    2    0    0 -0.14493052480E+02  0.15083285808E+02  0.88922827496E+02  0.91350065653E+02  0.10566000000E+00 0. -1.
        994    1    1    2    0    0  0.26359503591E+02 -0.28062863919E+02  0.69879475731E+01  0.17561497423E+03  0.17120000000E+03 0.  0.
        998    1    1    2    0    0 -0.11866451110E+02  0.12979578110E+02  0.14040892212E+04  0.14042349601E+04  0.10000000000E+02 0. -1.
</event>
<event>
 5    1  0.1294251E-008  0.3817083E+03  0.7957747E-01  0.3443754E+00
         13   -1    0    0    0    0  0.00000000000E+00  0.00000000000E+00  0.14999999963E+04  0.15000000000E+04  0.10566000000E+00 0.  1.
        994   -1    0    0    0    0 -0.00000000000E+00 -0.00000000000E+00  0.11368683772E-12  0.17120000000E+03  0.17120000000E+03 0.  0.
         13    1    1    2    0    0  0.76912805710E+01 -0.25817918288E+02  0.12141488473E+03  0.12436762480E+03  0.10566000000E+00 0.  1.
        994    1    1    2    0    0 -0.50517379644E+02 -0.11078189559E+02  0.12216024110E+02  0.17925792360E+03  0.17120000000E+03 0.  0.
        998    1    1    2    0    0  0.42826099073E+02  0.36896107847E+02  0.13663690874E+04  0.13675744516E+04  0.10000000000E+02 0.  1.
</event>
<event>
 5    1  0.1426835E-008  0.3863236E+03  0.7957747E-01  0.3424078E+00
         13   -1    0    0    0    0  0.00000000000E+00  0.00000000000E+00  0.14999999963E+04  0.15000000000E+04  0.10566000000E+00 0. -1.
        994   -1    0    0    0    0 -0.00000000000E+00 -0.00000000000E+00  0.11368683772E-12  0.17120000000E+03  0.17120000000E+03 0.  0.
         13    1    1    2    0    0 -0.21446078034E+01 -0.10972321692E+02  0.62556911073E+02  0.63548166559E+02  0.10566000000E+00 0. -1.
        994    1    1    2    0    0  0.92245451109E+00  0.12913695984E+02  0.15234943078E+01  0.17169558964E+03  0.17120000000E+03 0.  0.
        998    1    1    2    0    0  0.12221532923E+01 -0.19413742919E+01  0.14359195909E+04  0.14359562438E+04  0.10000000000E+02 0. -1.
</event>
<event>
 5    1  0.1294251E-008  0.3756526E+03  0.7957747E-01  0.3470309E+00
         13   -1    0    0    0    0  0.00000000000E+00  0.00000000000E+00  0.14999999963E+04  0.15000000000E+04  0.10566000000E+00 0. -1.
        994   -1    0    0    0    0 -0.00000000000E+00 -0.00000000000E+00  0.11368683772E-12  0.17120000000E+03  0.17120000000E+03 0.  0.
         13    1    1    2    0    0 -0.62110993442E+02  0.16755036379E+02  0.32796234201E+03  0.33421223151E+03  0.10566000000E+00 0. -1.
        994    1    1    2    0    0  0.29790499804E+02 -0.26809386867E+02  0.11811356136E+02  0.17622475773E+03  0.17120000000E+03 0.  0.
        998    1    1    2    0    0  0.32320493638E+02  0.10054350487E+02  0.11602262981E+04  0.11607630108E+04  0.10000000000E+02 0. -1.
</event>
<event>
 5    1  0.1294251E-008  0.3771786E+03  0.7957747E-01  0.3463536E+00
         13   -1    0    0    0    0  0.00000000000E+00  0.00000000000E+00  0.14999999963E+04  0.15000000000E+04  0.10566000000E+00 0. -1.
        994   -1    0    0    0    0 -0.00000000000E+00 -0.00000000000E+00  0.11368683772E-12  0.17120000000E+03  0.17120000000E+03 0.  0.
         13    1    1    2    0    0 -0.91819479685E+02  0.50603013674E+02  0.53814109490E+03  0.54825845277E+03  0.10566000000E+00 0. -1.
        994    1    1    2    0    0  0.94861921724E+02 -0.68321491791E+02  0.53165706697E+02  0.21401552000E+03  0.17120000000E+03 0.  0.
        998    1    1    2    0    0 -0.30424420397E+01  0.17718478117E+02  0.90869319468E+03  0.90892602723E+03  0.10000000000E+02 0.  0.
</event>
<event>
 5    1  0.1294251E-008  0.3921324E+03  0.7957747E-01  0.3399975E+00
         13   -1    0    0    0    0  0.00000000000E+00  0.00000000000E+00  0.14999999963E+04  0.15000000000E+04  0.10566000000E+00 0.  1.
        994   -1    0    0    0    0 -0.00000000000E+00 -0.00000000000E+00  0.11368683772E-12  0.17120000000E+03  0.17120000000E+03 0.  0.
         13    1    1    2    0    0  0.36840721894E+02  0.31996378772E+02  0.41597028274E+02  0.64119661333E+02  0.10566000000E+00 0.  1.
        994    1    1    2    0    0 -0.32896609574E+02 -0.37538633870E+02  0.32669456051E+02  0.18129553032E+03  0.17120000000E+03 0.  0.
        998    1    1    2    0    0 -0.39441123198E+01  0.55422550977E+01  0.14257335120E+04  0.14257848083E+04  0.10000000000E+02 0.  1.
</event>
<event>
 5    1  0.1294251E-008  0.3787993E+03  0.7957747E-01  0.3456403E+00
         13   -1    0    0    0    0  0.00000000000E+00  0.00000000000E+00  0.14999999963E+04  0.15000000000E+04  0.10566000000E+00 0. -1.
        994   -1    0    0    0    0 -0.00000000000E+00 -0.00000000000E+00  0.11368683772E-12  0.17120000000E+03  0.17120000000E+03 0.  0.
         13    1    1    2    0    0 -0.12134136741E+02 -0.18203738531E+02  0.48944070475E+02  0.53611067604E+02  0.10566000000E+00 0. -1.
        994    1    1    2    0    0  0.55006653001E+01  0.11627268690E+02  0.52959434622E+01  0.17176419217E+03  0.17120000000E+03 0.  0.
        998    1    1    2    0    0  0.66334714412E+01  0.65764698407E+01  0.14457599823E+04  0.14458247402E+04  0.10000000000E+02 0. -1.
</event>
<event>
 5    1  0.1294251E-008  0.3794293E+03  0.7957747E-01  0.3453647E+00
         13   -1    0    0    0    0  0.00000000000E+00  0.00000000000E+00  0.14999999963E+04  0.15000000000E+04  0.10566000000E+00 0.  1.
        994   -1    0    0    0    0 -0.00000000000E+00 -0.00000000000E+00  0.11368683772E-12  0.17120000000E+03  0.17120000000E+03 0.  0.
         13    1    1    2    0    0  0.44766889200E+02  0.25983732435E+02  0.24054129232E+03  0.24604746127E+03  0.10566000000E+00 0.  1.
        994    1    1    2    0    0 -0.46758087510E+02 -0.37175944454E+02  0.16466957754E+02  0.18206858678E+03  0.17120000000E+03 0.  0.
        998    1    1    2    0    0  0.19911983094E+01  0.11192212019E+02  0.12429917462E+04  0.12430839520E+04  0.10000000000E+02 0.  1.
</event>
<event>
 5    1  0.1294251E-008  0.3835717E+03  0.7957747E-01  0.3435752E+00
         13   -1    0    0    0    0  0.00000000000E+00  0.00000000000E+00  0.14999999963E+04  0.15000000000E+04  0.10566000000E+00 0. -1.
        994   -1    0    0    0    0 -0.00000000000E+00 -0.00000000000E+00  0.11368683772E-12  0.17120000000E+03  0.17120000000E+03 0.  0.
         13    1    1    2    0    0 -0.21630673392E+01 -0.17165795513E+02  0.60874650435E+02  0.63285682627E+02  0.10566000000E+00 0. -1.
        994    1    1    2    0    0  0.35627595906E+01  0.18674246454E+02  0.35359372740E+01  0.17228860551E+03  0.17120000000E+03 0.  0.
        998    1    1    2    0    0 -0.13996922513E+01 -0.15084509404E+01  0.14355894086E+04  0.14356257119E+04  0.10000000000E+02 0. -1.
</event>
<event>
 5    1  0.1294251E-008  0.3851527E+03  0.7957747E-01  0.3429025E+00
         13   -1    0    0    0    0  0.00000000000E+00  0.00000000000E+00  0.14999999963E+04  0.15000000000E+04  0.10566000000E+00 0.  1.
        994   -1    0    0    0    0 -0.00000000000E+00 -0.00000000000E+00  0.11368683772E-12  0.17120000000E+03  0.17120000000E+03 0.  0.
         13    1    1    2    0    0 -0.12965577021E+02  0.13207958192E+01  0.57670546351E+02  0.59124899742E+02  0.10566000000E+00 0.  1.
        994    1    1    2    0    0  0.11716716117E+01  0.96431807421E+01  0.18645733932E+01  0.17148551071E+03  0.17120000000E+03 0.  0.
        998    1    1    2    0    0  0.11793905409E+02 -0.10963976561E+02  0.14404648765E+04  0.14405895895E+04  0.10000000000E+02 0.  1.
</event>
<event>
 5    1  0.1294251E-008  0.3796039E+03  0.7957747E-01  0.3452885E+00
         13   -1    0    0    0    0  0.00000000000E+00  0.00000000000E+00  0.14999999963E+04  0.15000000000E+04  0.10566000000E+00 0. -1.
        994   -1    0    0    0    0 -0.00000000000E+00 -0.00000000000E+00  0.11368683772E-12  0.17120000000E+03  0.17120000000E+03 0.  0.
         13    1    1    2    0    0  0.23534788685E+02  0.48725123668E+02  0.26742529566E+03  0.27284487145E+03  0.10566000000E+00 0. -1.
        994    1    1    2    0    0 -0.20271678390E+02 -0.55474297173E+02  0.16099540806E+02  0.18181576886E+03  0.17120000000E+03 0.  0.
        998    1    1    2    0    0 -0.32631102957E+01  0.67491735057E+01  0.12164751598E+04  0.12165393597E+04  0.10000000000E+02 0. -1.
</event>
<event>
 5    1  0.1294251E-008  0.3924566E+03  0.7957747E-01  0.3398651E+00
         13   -1    0    0    0    0  0.00000000000E+00  0.00000000000E+00  0.14999999963E+04  0.15000000000E+04  0.10566000000E+00 0.  1.
        994   -1    0    0    0    0 -0.00000000000E+00 -0.00000000000E+00  0.11368683772E-12  0.17120000000E+03  0.17120000000E+03 0.  0.
         13    1    1    2    0    0 -0.76979879661E+01  0.51283331848E+02  0.48363377847E+02  0.70910271646E+02  0.10566000000E+00 0.  1.
        994    1    1    2    0    0  0.16402656660E+02 -0.44075888813E+02  0.31793338536E+02  0.18036625930E+03  0.17120000000E+03 0.  0.
        998    1    1    2    0    0 -0.87046686938E+01 -0.72074430355E+01  0.14198432799E+04  0.14199234690E+04  0.10000000000E+02 0.  1.
</event>
<event>
 5    1  0.1294251E-008  0.3814946E+03  0.7957747E-01  0.3444676E+00
         13   -1    0    0    0    0  0.00000000000E+00  0.00000000000E+00  0.14999999963E+04  0.15000000000E+04  0.10566000000E+00 0. -1.
        994   -1    0    0    0    0 -0.00000000000E+00 -0.00000000000E+00  0.11368683772E-12  0.17120000000E+03  0.17120000000E+03 0.  0.
         13    1    1    2    0    0 -0.50585590769E+01 -0.30495939546E+02  0.13126491643E+03  0.13485577777E+03  0.10566000000E+00 0. -1.
        994    1    1    2    0    0  0.99698405602E+01  0.27518578438E+02  0.62354907412E+01  0.17379583201E+03  0.17120000000E+03 0.  0.
        998    1    1    2    0    0 -0.49112814833E+01  0.29773611077E+01  0.13624995891E+04  0.13625483902E+04  0.10000000000E+02 0. -1.
</event>
<event>
 5    1  0.1294251E-008  0.3843105E+03  0.7957747E-01  0.3432602E+00
         13   -1    0    0    0    0  0.00000000000E+00  0.00000000000E+00  0.14999999963E+04  0.15000000000E+04  0.10566000000E+00 0. -1.
        994   -1    0    0    0    0 -0.00000000000E+00 -0.00000000000E+00  0.11368683772E-12  0.17120000000E+03  0.17120000000E+03 0.  0.
         13    1    1    2    0    0 -0.42564084378E+01 -0.93785971450E+01  0.26710434657E+02  0.28627496935E+02  0.10566000000E+00 0. -1.
        994    1    1    2    0    0 -0.44047299794E+01  0.60319859978E+01  0.21567693037E+01  0.17137642240E+03  0.17120000000E+03 0.  0.
        998    1    1    2    0    0  0.86611384171E+01  0.33466111471E+01  0.14711327923E+04  0.14711960807E+04  0.10000000000E+02 0. -1.
</event>
<event>
 5    1  0.1294251E-008  0.3706223E+03  0.7957747E-01  0.3493036E+00
         13   -1    0    0    0    0  0.00000000000E+00  0.00000000000E+00  0.14999999963E+04  0.15000000000E+04  0.10566000000E+00 0. -1.
        994   -1    0    0    0    0 -0.00000000000E+00 -0.00000000000E+00  0.11368683772E-12  0.17120000000E+03  0.17120000000E+03 0.  0.
         13    1    1    2    0    0  0.43145453512E+01  0.66335055514E+02  0.21825515047E+03  0.22815406366E+03  0.10566000000E+00 0. -1.
        994    1    1    2    0    0  0.51120289376E+01 -0.15443188357E+02  0.12195888880E+02  0.17240302959E+03  0.17120000000E+03 0.  0.
        998    1    1    2    0    0 -0.94265742887E+01 -0.50891867157E+02  0.12695489569E+04  0.12706429068E+04  0.10000000000E+02 0. -1.
</event>
<event>
 5    1  0.1294251E-008  0.3737473E+03  0.7957747E-01  0.3478844E+00
         13   -1    0    0    0    0  0.00000000000E+00  0.00000000000E+00  0.14999999963E+04  0.15000000000E+04  0.10566000000E+00 0. -1.
        994   -1    0    0    0    0 -0.00000000000E+00 -0.00000000000E+00  0.11368683772E-12  0.17120000000E+03  0.17120000000E+03 0.  0.
         13    1    1    2    0    0 -0.71935346226E+01  0.32028939461E+02  0.68258778587E+02  0.75742140989E+02  0.10566000000E+00 0. -1.
        994    1    1    2    0    0  0.27455880166E+01 -0.31871260207E+02  0.10824592446E+02  0.17449907531E+03  0.17120000000E+03 0.  0.
        998    1    1    2    0    0  0.44479466060E+01 -0.15767925404E+00  0.14209166252E+04  0.14209587837E+04  0.10000000000E+02 0. -1.
</event>
<event>
 5    1  0.1294251E-008  0.3734579E+03  0.7957747E-01  0.3480148E+00
         13   -1    0    0    0    0  0.00000000000E+00  0.00000000000E+00  0.14999999963E+04  0.15000000000E+04  0.10566000000E+00 0.  1.
        994   -1    0    0    0    0 -0.00000000000E+00 -0.00000000000E+00  0.11368683772E-12  0.17120000000E+03  0.17120000000E+03 0.  0.
         13    1    1    2    0    0 -0.21181848173E+01  0.66372255011E+02  0.16246325646E+03  0.17551092218E+03  0.10566000000E+00 0.  1.
        994    1    1    2    0    0  0.11394144389E+02 -0.49145182406E+02  0.21840861300E+02  0.17980972917E+03  0.17120000000E+03 0.  0.
        998    1    1    2    0    0 -0.92759595716E+01 -0.17227072605E+02  0.13156958785E+04  0.13158793487E+04  0.10000000000E+02 0.  1.
</event>
<event>
 5    1  0.1294251E-008  0.3834090E+03  0.7957747E-01  0.3436448E+00
         13   -1    0    0    0    0  0.00000000000E+00  0.00000000000E+00  0.14999999963E+04  0.15000000000E+04  0.10566000000E+00 0.  1.
        994   -1    0    0    0    0 -0.00000000000E+00 -0.00000000000E+00  0.11368683772E-12  0.17120000000E+03  0.17120000000E+03 0.  0.
         13    1    1    2    0    0 -0.15067428827E+02  0.14117981776E+02  0.86196337015E+02  0.88635007191E+02  0.10566000000E+00 0.  1.
        994    1    1    2    0    0  0.88942558760E+01 -0.12897284328E+02  0.32339129710E+01  0.17194576448E+03  0.17120000000E+03 0.  0.
        998    1    1    2    0    0  0.61731729510E+01 -0.12206974487E+01  0.14105697463E+04  0.14106192283E+04  0.10000000000E+02 0.  1.
</event>
<event>
 5    1  0.1294251E-008  0.3788348E+03  0.7957747E-01  0.3456248E+00
         13   -1    0    0    0    0  0.00000000000E+00  0.00000000000E+00  0.14999999963E+04  0.15000000000E+04  0.10566000000E+00 0.  1.
        994   -1    0    0    0    0 -0.00000000000E+00 -0.00000000000E+00  0.11368683772E-12  0.17120000000E+03  0.17120000000E+03 0.  0.
         13    1    1    2    0    0  0.11267162594E+02  0.23102831974E+02  0.73484920693E+02  0.77850719530E+02  0.10566000000E+00 0.  1.
        994    1    1    2    0    0  0.25854746598E+01  0.21894265895E+00  0.47450952477E+01  0.17128540085E+03  0.17120000000E+03 0.  0.
        998    1    1    2    0    0 -0.13852637254E+02 -0.23321774633E+02  0.14217699803E+04  0.14220638796E+04  0.10000000000E+02 0.  1.
</event>
<event>
 5    1  0.1294251E-008  0.3782527E+03  0.7957747E-01  0.3458802E+00
         13   -1    0    0    0    0  0.00000000000E+00  0.00000000000E+00  0.14999999963E+04  0.15000000000E+04  0.10566000000E+00 0.  1.
        994   -1    0    0    0    0 -0.00000000000E+00 -0.00000000000E+00  0.11368683772E-12  0.17120000000E+03  0.17120000000E+03 0.  0.
         13    1    1    2    0    0 -0.13554440576E+02 -0.33958718707E+02  0.11985858562E+03  0.12531164809E+03  0.10566000000E+00 0.  1.
        994    1    1    2    0    0  0.82089677731E+01  0.39684934531E+02  0.10559594867E+02  0.17624762757E+03  0.17120000000E+03 0.  0.
        998    1    1    2    0    0  0.53454728031E+01 -0.57262158245E+01  0.13695818158E+04  0.13696407243E+04  0.10000000000E+02 0.  1.
</event>
<event>
 5    1  0.1294251E-008  0.3858295E+03  0.7957747E-01  0.3426162E+00
         13   -1    0    0    0    0  0.00000000000E+00  0.00000000000E+00  0.14999999963E+04  0.15000000000E+04  0.10566000000E+00 0.  1.
        994   -1    0    0    0    0 -0.00000000000E+00 -0.00000000000E+00  0.11368683772E-12  0.17120000000E+03  0.17120000000E+03 0.  0.
         13    1    1    2    0    0  0.13736797228E+02 -0.84542200297E+01  0.96860929068E+02  0.98194827655E+02  0.10566000000E+00 0.  1.
        994    1    1    2    0    0 -0.13009781913E+02  0.22195784322E+02  0.33928432144E+01  0.17315559088E+03  0.17120000000E+03 0.  0.
        998    1    1    2    0    0 -0.72701531560E+00 -0.13741564292E+02  0.13997462240E+04  0.13998495815E+04  0.10000000000E+02 0.  1.
</event>
<event>
 5    1  0.1294251E-008  0.3844204E+03  0.7957747E-01  0.3432134E+00
         13   -1    0    0    0    0  0.00000000000E+00  0.00000000000E+00  0.14999999963E+04  0.15000000000E+04  0.10566000000E+00 0.  1.
        994   -1    0    0    0    0 -0.00000000000E+00 -0.00000000000E+00  0.11368683772E-12  0.17120000000E+03  0.17120000000E+03 0.  0.
         13    1    1    2    0    0 -0.20544692610E+02 -0.11557747909E+02  0.14093724089E+03  0.14289500679E+03  0.10566000000E+00 0.  1.
        994    1    1    2    0    0  0.18885781710E+02  0.20080158388E+01  0.31075461871E+01  0.17227826828E+03  0.17120000000E+03 0.  0.
        998    1    1    2    0    0  0.16589109000E+01  0.95497320704E+01  0.13559552092E+04  0.13560267249E+04  0.10000000000E+02 0.  1.
</event>
<event>
 5    1  0.1294251E-008  0.3804814E+03  0.7957747E-01  0.3449065E+00
         13   -1    0    0    0    0  0.00000000000E+00  0.00000000000E+00  0.14999999963E+04  0.15000000000E+04  0.10566000000E+00 0. -1.
        994   -1    0    0    0    0 -0.00000000000E+00 -0.00000000000E+00  0.11368683772E-12  0.17120000000E+03  0.17120000000E+03 0.  0.
         13    1    1    2    0    0  0.13300915577E+02  0.23954126154E+02  0.10302614989E+03  0.10660728511E+03  0.10566000000E+00 0. -1.
        994    1    1    2    0    0  0.69005903440E+01 -0.62628365455E+01  0.41802513026E+01  0.17150438994E+03  0.17120000000E+03 0.  0.
        998    1    1    2    0    0 -0.20201505921E+02 -0.17691289609E+02  0.13927935951E+04  0.13930883249E+04  0.10000000000E+02 0. -1.
</event>
<event>
 5    1  0.1294251E-008  0.3812833E+03  0.7957747E-01  0.3445590E+00
         13   -1    0    0    0    0  0.00000000000E+00  0.00000000000E+00  0.14999999963E+04  0.15000000000E+04  0.10566000000E+00 0.  1.
        994   -1    0    0    0    0 -0.00000000000E+00 -0.00000000000E+00  0.11368683772E-12  0.17120000000E+03  0.17120000000E+03 0.  0.
         13    1    1    2    0    0 -0.15513248811E+01 -0.22120060997E+02  0.75237606839E+02  0.78437314808E+02  0.10566000000E+00 0.  1.
        994    1    1    2    0    0 -0.38346632938E+01 -0.25041088307E+01  0.35565639127E+01  0.17129817381E+03  0.17120000000E+03 0.  0.
        998    1    1    2    0    0  0.53859881749E+01  0.24624169827E+02  0.14212058255E+04  0.14214645114E+04  0.10000000000E+02 0.  1.
</event>
<event>
 5    1  0.1294251E-008  0.3814317E+03  0.7957747E-01  0.3444948E+00
         13   -1    0    0    0    0  0.00000000000E+00  0.00000000000E+00  0.14999999963E+04  0.15000000000E+04  0.10566000000E+00 0.  1.
        994   -1    0    0    0    0 -0.00000000000E+00 -0.00000000000E+00  0.11368683772E-12  0.17120000000E+03  0.17120000000E+03 0.  0.
         13    1    1    2    0    0 -0.22828976637E+02 -0.13710620111E+02  0.10528633119E+03  0.10860186913E+03  0.10566000000E+00 0.  1.
        994    1    1    2    0    0  0.72020299053E+01  0.11506519239E+02  0.40255263604E+01  0.17178449896E+03  0.17120000000E+03 0.  0.
        998    1    1    2    0    0  0.15626946732E+02  0.22041008715E+01  0.13906881387E+04  0.13908136319E+04  0.10000000000E+02 0.  1.
</event>
<event>
 5    1  0.1294251E-008  0.3816958E+03  0.7957747E-01  0.3443808E+00
         13   -1    0    0    0    0  0.00000000000E+00  0.00000000000E+00  0.14999999963E+04  0.15000000000E+04  0.10566000000E+00 0. -1.
        994   -1    0    0    0    0 -0.00000000000E+00 -0.00000000000E+00  0.11368683772E-12  0.17120000000E+03  0.17120000000E+03 0.  0.
         13    1    1    2    0    0 -0.60174165454E+01  0.20540209772E+02  0.65026169384E+02  0.68458187152E+02  0.10566000000E+00 0. -1.
        994    1    1    2    0    0  0.51557743609E+01 -0.25274395524E+02  0.54946272801E+01  0.17321953703E+03  0.17120000000E+03 0.  0.
        998    1    1    2    0    0  0.86164218447E+00  0.47341857512E+01  0.14294791996E+04  0.14295222758E+04  0.10000000000E+02 0. -1.
</event>
<event>
 5    1  0.1339750E-008  0.3861906E+03  0.7957747E-01  0.3424638E+00
         13   -1    0    0    0    0  0.00000000000E+00  0.00000000000E+00  0.14999999963E+04  0.15000000000E+04  0.10566000000E+00 0. -1.
        994   -1    0    0    0    0 -0.00000000000E+00 -0.00000000000E+00  0.11368683772E-12  0.17120000000E+03  0.17120000000E+03 0.  0.
         13    1    1    2    0    0 -0.10591899205E+02  0.84879621182E+00  0.54392979260E+02  0.55421260727E+02  0.10566000000E+00 0. -1.
        994    1    1    2    0    0  0.91769113507E+01  0.23404134785E+01  0.13340551983E+01  0.17146694416E+03  0.17120000000E+03 0.  0.
        998    1    1    2    0    0  0.14149878543E+01 -0.31892096903E+01  0.14442729618E+04  0.14443117951E+04  0.10000000000E+02 0. -1.
</event>
<event>
 5    1  0.1294251E-008  0.3834850E+03  0.7957747E-01  0.3436123E+00
         13   -1    0    0    0    0  0.00000000000E+00  0.00000000000E+00  0.14999999963E+04  0.15000000000E+04  0.10566000000E+00 0.  1.
        994   -1    0    0    0    0 -0.00000000000E+00 -0.00000000000E+00  0.11368683772E-12  0.17120000000E+03  0.17120000000E+03 0.  0.
         13    1    1    2    0    0  0.33080424133E+01 -0.12937637474E+02  0.37761777797E+02  0.40053572056E+02  0.10566000000E+00 0.  1.
        994    1    1    2    0    0 -0.63640204392E+01  0.59864726774E+00  0.25192016365E+01  0.17133781110E+03  0.17120000000E+03 0.  0.
        998    1    1    2    0    0  0.30559780259E+01  0.12338990206E+02  0.14597190168E+04  0.14598086168E+04  0.10000000000E+02 0.  1.
</event>
<event>
 5    1  0.1294251E-008  0.3690893E+03  0.7957747E-01  0.3500087E+00
         13   -1    0    0    0    0  0.00000000000E+00  0.00000000000E+00  0.14999999963E+04  0.15000000000E+04  0.10566000000E+00 0.  1.
        994   -1    0    0    0    0 -0.00000000000E+00 -0.00000000000E+00  0.11368683772E-12  0.17120000000E+03  0.17120000000E+03 0.  0.
         13    1    1    2    0    0  0.74652765869E+02 -0.54124258352E+01  0.41053012630E+03  0.41729764625E+03  0.10566000000E+00 0.  1.
        994    1    1    2    0    0  0.11184316783E+01  0.28919336677E+01  0.97792465077E+01  0.17150710723E+03  0.17120000000E+03 0.  0.
        998    1    1    2    0    0 -0.75771197548E+02  0.25204921675E+01  0.10796906235E+04  0.10823952465E+04  0.10000000000E+02 0.  1.
</event>
<event>
 5    1  0.1294251E-008  0.3782986E+03  0.7957747E-01  0.3458601E+00
         13   -1    0    0    0    0  0.00000000000E+00  0.00000000000E+00  0.14999999963E+04  0.15000000000E+04  0.10566000000E+00 0.  1.
        994   -1    0    0    0    0 -0.00000000000E+00 -0.00000000000E+00  0.11368683772E-12  0.17120000000E+03  0.17120000000E+03 0.  0.
         13    1    1    2    0    0 -0.96799885759E+01 -0.35563069079E+02  0.15559695033E+03  0.15990264594E+03  0.10566000000E+00 0.  1.
        994    1    1    2    0    0  0.78641968996E+01 -0.47437893576E+01  0.52781074806E+01  0.17152739591E+03  0.17120000000E+03 0.  0.
        998    1    1    2    0    0  0.18157916764E+01  0.40306858437E+02  0.13391249385E+04  0.13397699581E+04  0.10000000000E+02 0.  1.
</event>
<event>
 5    1  0.1294251E-008  0.3997219E+03  0.7957747E-01  0.3369538E+00
         13   -1    0    0    0    0  0.00000000000E+00  0.00000000000E+00  0.14999999963E+04  0.15000000000E+04  0.10566000000E+00 0.  1.
        994   -1    0    0    0    0 -0.00000000000E+00 -0.00000000000E+00  0.11368683772E-12  0.17120000000E+03  0.17120000000E+03 0.  0.
         13    1    1    2    0    0  0.22285344427E+02 -0.55867796068E+02  0.53266130838E+02  0.80343880117E+02  0.10566000000E+00 0.  1.
        994    1    1    2    0    0 -0.67651137006E+02  0.40476434312E+02  0.52350864034E+02  0.19561459822E+03  0.17120000000E+03 0.  0.
        998    1    1    2    0    0  0.45365792579E+02  0.15391361756E+02  0.13943830014E+04  0.13952415217E+04  0.10000000000E+02 0.  1.
</event>
<event>
 5    1  0.1294251E-008  0.3738942E+03  0.7957747E-01  0.3478183E+00
         13   -1    0    0    0    0  0.00000000000E+00  0.00000000000E+00  0.14999999963E+04  0.15000000000E+04  0.10566000000E+00 0.  1.
        994   -1    0    0    0    0 -0.00000000000E+00 -0.00000000000E+00  0.11368683772E-12  0.17120000000E+03  0.17120000000E+03 0.  0.
         13    1    1    2    0    0 -0.28516247230E+02 -0.16915117864E+02  0.78982939038E+02  0.85659870369E+02  0.10566000000E+00 0.  1.
        994    1    1    2    0    0  0.50341546735E+01 -0.78901837717E+01  0.75465862181E+01  0.17162164396E+03  0.17120000000E+03 0.  0.
        998    1    1    2    0    0  0.23482092557E+02  0.24805301636E+02  0.14134704710E+04  0.14139184857E+04  0.10000000000E+02 0.  1.
</event>
<event>
 5    1  0.1294251E-008  0.3853856E+03  0.7957747E-01  0.3428038E+00
         13   -1    0    0    0    0  0.00000000000E+00  0.00000000000E+00  0.14999999963E+04  0.15000000000E+04  0.10566000000E+00 0. -1.
        994   -1    0    0    0    0 -0.00000000000E+00 -0.00000000000E+00  0.11368683772E-12  0.17120000000E+03  0.17120000000E+03 0.  0.
         13    1    1    2    0    0 -0.11778783192E+01  0.14030959067E+02  0.51972902171E+02  0.53846531307E+02  0.10566000000E+00 0. -1.
        994    1    1    2    0    0 -0.31212910179E+02 -0.62947805927E+02  0.17824910496E+02  0.18591352685E+03  0.17120000000E+03 0.  0.
        998    1    1    2    0    0  0.32390788498E+02  0.48916846860E+02  0.14302021836E+04  0.14314399418E+04  0.10000000000E+02 0. -1.
</event>
<event>
 5    1  0.1294251E-008  0.3743531E+03  0.7957747E-01  0.3476121E+00
         13   -1    0    0    0    0  0.00000000000E+00  0.00000000000E+00  0.14999999963E+04  0.15000000000E+04  0.10566000000E+00 0.  1.
        994   -1    0    0    0    0 -0.00000000000E+00 -0.00000000000E+00  0.11368683772E-12  0.17120000000E+03  0.17120000000E+03 0.  0.
         13    1    1    2    0    0 -0.22914778299E+02 -0.26190975032E+02  0.85777486595E+02  0.92568043126E+02  0.10566000000E+00 0.  1.
        994    1    1    2    0    0  0.69770522022E+01  0.14868649006E+02  0.79307813302E+01  0.17216879297E+03  0.17120000000E+03 0.  0.
        998    1    1    2    0    0  0.15937726097E+02  0.11322326026E+02  0.14062917284E+04  0.14064631639E+04  0.10000000000E+02 0.  1.
</event>
<event>
 5    1  0.1294251E-008  0.3722075E+03  0.7957747E-01  0.3485807E+00
         13   -1    0    0    0    0  0.00000000000E+00  0.00000000000E+00  0.14999999963E+04  0.15000000000E+04  0.10566000000E+00 0.  1.
        994   -1    0    0    0    0 -0.00000000000E+00 -0.00000000000E+00  0.11368683772E-12  0.17120000000E+03  0.17120000000E+03 0.  0.
         13    1    1    2    0    0 -0.19222599127E+02 -0.19133267796E+02  0.52577567786E+02  0.59160815174E+02  0.10566000000E+00 0.  1.
        994    1    1    2    0    0 -0.51687267178E+02 -0.27717740390E+02  0.20017551215E+02  0.18207138456E+03  0.17120000000E+03 0.  0.
        998    1    1    2    0    0  0.70909866306E+02  0.46851008186E+02  0.14274048773E+04  0.14299678003E+04  0.10000000000E+02 0.  1.
</event>
<event>
 5    1  0.1294251E-008  0.3820697E+03  0.7957747E-01  0.3442196E+00
         13   -1    0    0    0    0  0.00000000000E+00  0.00000000000E+00  0.14999999963E+04  0.15000000000E+04  0.10566000000E+00 0.  1.
        994   -1    0    0    0    0 -0.00000000000E+00 -0.00000000000E+00  0.11368683772E-12  0.17120000000E+03  0.17120000000E+03 0.  0.
         13    1    1    2    0    0 -0.28341164084E+02 -0.17176385551E+02  0.17237603777E+03  0.17553278715E+03  0.10566000000E+00 0.  1.
        994    1    1    2    0    0  0.21072044940E+02  0.87482356559E+01  0.48223162150E+01  0.17278095219E+03  0.17120000000E+03 0.  0.
        998    1    1    2    0    0  0.72691191450E+01  0.84281498955E+01  0.13228016423E+04  0.13228862607E+04  0.10000000000E+02 0.  1.
</event>
<event>
 5    1  0.1294251E-008  0.3738327E+03  0.7957747E-01  0.3478460E+00
         13   -1    0    0    0    0  0.00000000000E+00  0.00000000000E+00  0.14999999963E+04  0.15000000000E+04  0.10566000000E+00 0.  1.
        994   -1    0    0    0    0 -0.00000000000E+00 -0.00000000000E+00  0.11368683772E-12  0.17120000000E+03  0.17120000000E+03 0.  0.
         13    1    1    2    0    0 -0.12922157333E+02  0.50652592703E+01  0.98713676244E+01  0.17032147969E+02  0.10566000000E+00 0.  1.
        994    1    1    2    0    0  0.14073482410E+02 -0.27911304020E+01  0.79821927141E+01  0.17198548984E+03  0.17120000000E+03 0.  0.
        998    1    1    2    0    0 -0.11513250768E+01 -0.22741288684E+01  0.14821464359E+04  0.14821823622E+04  0.10000000000E+02 0.  1.
</event>
<event>
 5    1  0.1294251E-008  0.3820498E+03  0.7957747E-01  0.3442282E+00
         13   -1    0    0    0    0  0.00000000000E+00  0.00000000000E+00  0.14999999963E+04  0.15000000000E+04  0.10566000000E+00 0.  1.
        994   -1    0    0    0    0 -0.00000000000E+00 -0.00000000000E+00  0.11368683772E-12  0.17120000000E+03  0.17120000000E+03 0.  0.
         13    1    1    2    0    0 -0.12582854721E+02  0.61415892018E+01  0.32691255265E+02  0.35563698988E+02  0.10566000000E+00 0.  1.
        994    1    1    2    0    0 -0.11473998726E+02  0.36696939529E+00  0.35397016725E+01  0.17162096842E+03  0.17120000000E+03 0.  0.
        998    1    1    2    0    0  0.24056853447E+02 -0.65085585971E+01  0.14637690393E+04  0.14640153326E+04  0.10000000000E+02 0.  1.
</event>
<event>
 5    1  0.1294251E-008  0.3775898E+03  0.7957747E-01  0.3461721E+00
         13   -1    0    0    0    0  0.00000000000E+00  0.00000000000E+00  0.14999999963E+04  0.15000000000E+04  0.10566000000E+00 0. -1.
        994   -1    0    0    0    0 -0.00000000000E+00 -0.00000000000E+00  0.11368683772E-12  0.17120000000E+03  0.17120000000E+03 0.  0.
         13    1    1    2    0    0  0.17205114960E+02 -0.36975226222E+02  0.14660459359E+03  0.15217128954E+03  0.10566000000E+00 0. -1.
        994    1    1    2    0    0 -0.26979228451E+02  0.23226895292E+02  0.96374025856E+01  0.17512763049E+03  0.17120000000E+03 0.  0.
        998    1    1    2    0    0  0.97741134902E+01  0.13748330930E+02  0.13437580001E+04  0.13439010800E+04  0.10000000000E+02 0. -1.
</event>
<event>
 5    1  0.1294251E-008  0.3843417E+03  0.7957747E-01  0.3432469E+00
         13   -1    0    0    0    0  0.00000000000E+00  0.00000000000E+00  0.14999999963E+04  0.15000000000E+04  0.10566000000E+00 0. -1.
        994   -1    0    0    0    0 -0.00000000000E+00 -0.00000000000E+00  0.11368683772E-12  0.17120000000E+03  0.17120000000E+03 0.  0.
         13    1    1    2    0    0 -0.10708678120E+02  0.13084702391E+02  0.68806115688E+02  0.70853214069E+02  0.10566000000E+00 0. -1.
        994    1    1    2    0    0  0.99168248917E+01 -0.18224865342E+02  0.33773390166E+01  0.17248575463E+03  0.17120000000E+03 0.  0.
        998    1    1    2    0    0  0.79185322803E+00  0.51401629505E+01  0.14278165416E+04  0.14278610313E+04  0.10000000000E+02 0. -1.
</event>
<event>
 5    1  0.1294251E-008  0.3734796E+03  0.7957747E-01  0.3480051E+00
         13   -1    0    0    0    0  0.00000000000E+00  0.00000000000E+00  0.14999999963E+04  0.15000000000E+04  0.10566000000E+00 0. -1.
        994   -1    0    0    0    0 -0.00000000000E+00 -0.00000000000E+00  0.11368683772E-12  0.17120000000E+03  0.17120000000E+03 0.  0.
         13    1    1    2    0    0 -0.96904546591E+01  0.63969112338E+02  0.25183062090E+03  0.26000889414E+03  0.10566000000E+00 0. -1.
        994    1    1    2    0    0  0.11964092674E+02 -0.51509045088E+02  0.17076746266E+02  0.17999271236E+03  0.17120000000E+03 0.  0.
        998    1    1    2    0    0 -0.22736380147E+01 -0.12460067250E+02  0.12310926291E+04  0.12311983935E+04  0.10000000000E+02 0. -1.
</event>
<event>
 5    1  0.1294251E-008  0.3859723E+03  0.7957747E-01  0.3425559E+00
         13   -1    0    0    0    0  0.00000000000E+00  0.00000000000E+00  0.14999999963E+04  0.15000000000E+04  0.10566000000E+00 0. -1.
        994   -1    0    0    0    0 -0.00000000000E+00 -0.00000000000E+00  0.11368683772E-12  0.17120000000E+03  0.17120000000E+03 0.  0.
         13    1    1    2    0    0 -0.24887874219E+01 -0.13256930810E+02  0.76822828921E+02  0.77998067186E+02  0.10566000000E+00 0. -1.
        994    1    1    2    0    0  0.44181712819E+01  0.13455813628E+02  0.18060330288E+01  0.17179429826E+03  0.17120000000E+03 0.  0.
        998    1    1    2    0    0 -0.19293838600E+01 -0.19888281807E+00  0.14213711343E+04  0.14214076346E+04  0.10000000000E+02 0. -1.
</event>
<event>
 5    1  0.1294251E-008  0.3783714E+03  0.7957747E-01  0.3458281E+00
         13   -1    0    0    0    0  0.00000000000E+00  0.00000000000E+00  0.14999999963E+04  0.15000000000E+04  0.10566000000E+00 0.  1.
        994   -1    0    0    0    0 -0.00000000000E+00 -0.00000000000E+00  0.11368683772E-12  0.17120000000E+03  0.17120000000E+03 0.  0.
         13    1    1    2    0    0  0.29211746886E+02  0.23413827674E+02  0.14352666765E+03  0.14832885415E+03  0.10566000000E+00 0.  1.
        994    1    1    2    0    0 -0.15223500382E+02 -0.87063572651E+01  0.59918939804E+01  0.17220016961E+03  0.17120000000E+03 0.  0.
        998    1    1    2    0    0 -0.13988246504E+02 -0.14707470409E+02  0.13504814346E+04  0.13506709762E+04  0.10000000000E+02 0.  1.
</event>
<event>
 5    1  0.1294251E-008  0.3760613E+03  0.7957747E-01  0.3468490E+00
         13   -1    0    0    0    0  0.00000000000E+00  0.00000000000E+00  0.14999999963E+04  0.15000000000E+04  0.10566000000E+00 0.  1.
        994   -1    0    0    0    0 -0.00000000000E+00 -0.00000000000E+00  0.11368683772E-12  0.17120000000E+03  0.17120000000E+03 0.  0.
         13    1    1    2    0    0  0.18878831957E+02  0.29892870130E+02  0.99114040674E+02  0.10523116555E+03  0.10566000000E+00 0.  1.
        994    1    1    2    0    0 -0.13636548097E+02 -0.18554233905E+02  0.79326565792E+01  0.17292363077E+03  0.17120000000E+03 0.  0.
        998    1    1    2    0    0 -0.52422838604E+01 -0.11338636225E+02  0.13929532990E+04  0.13930452037E+04  0.10000000000E+02 0.  1.
</event>
<event>
 5    1  0.1294251E-008  0.3789437E+03  0.7957747E-01  0.3455771E+00
         13   -1    0    0    0    0  0.00000000000E+00  0.00000000000E+00  0.14999999963E+04  0.15000000000E+04  0.10566000000E+00 0.  1.
        994   -1    0    0    0    0 -0.00000000000E+00 -0.00000000000E+00  0.11368683772E-12  0.17120000000E+03  0.17120000000E+03 0.  0.
         13    1    1    2    0    0  0.12213781464E+02  0.71990176341E+01  0.19512881843E+02  0.24119826584E+02  0.10566000000E+00 0.  1.
        994    1    1    2    0    0 -0.75414157935E+01 -0.86462106933E+01  0.51089849713E+01  0.17166004672E+03  0.17120000000E+03 0.  0.
        998    1    1    2    0    0 -0.46723656705E+01  0.14471930591E+01  0.14753781295E+04  0.14754201267E+04  0.10000000000E+02 0.  1.
</event>
<event>
 5    1  0.1294251E-008  0.3713511E+03  0.7957747E-01  0.3489704E+00
         13   -1    0    0    0    0  0.00000000000E+00  0.00000000000E+00  0.14999999963E+04  0.15000000000E+04  0.10566000000E+00 0.  1.
        994   -1    0    0    0    0 -0.00000000000E+00 -0.00000000000E+00  0.11368683772E-12  0.17120000000E+03  0.17120000000E+03 0.  0.
         13    1    1    2    0    0 -0.25119761110E+02 -0.27568443151E+01  0.33339301965E+02  0.41834469141E+02  0.10566000000E+00 0.  1.
        994    1    1    2    0    0  0.24953113333E+02 -0.22947696552E+02  0.12530147120E+02  0.17497342435E+03  0.17120000000E+03 0.  0.
        998    1    1    2    0    0  0.16664777716E+00  0.25704540867E+02  0.14541305472E+04  0.14543921065E+04  0.10000000000E+02 0.  1.
</event>
<event>
 5    1  0.1294251E-008  0.3815006E+03  0.7957747E-01  0.3444651E+00
         13   -1    0    0    0    0  0.00000000000E+00  0.00000000000E+00  0.14999999963E+04  0.15000000000E+04  0.10566000000E+00 0.  1.
        994   -1    0    0    0    0 -0.00000000000E+00 -0.00000000000E+00  0.11368683772E-12  0.17120000000E+03  0.17120000000E+03 0.  0.
         13    1    1    2    0    0 -0.11389302099E+02  0.18161991848E+02  0.66994980273E+02  0.70341401010E+02  0.10566000000E+00 0.  1.
        994    1    1    2    0    0  0.10361025089E+02 -0.92125535254E+01  0.40172507649E+01  0.17180745120E+03  0.17120000000E+03 0.  0.
        998    1    1    2    0    0  0.10282770103E+01 -0.89494383223E+01  0.14289877652E+04  0.14290511478E+04  0.10000000000E+02 0.  1.
</event>
<event>
 5    1  0.1294251E-008  0.3832656E+03  0.7957747E-01  0.3437061E+00
         13   -1    0    0    0    0  0.00000000000E+00  0.00000000000E+00  0.14999999963E+04  0.15000000000E+04  0.10566000000E+00 0. -1.
        994   -1    0    0    0    0 -0.00000000000E+00 -0.00000000000E+00  0.11368683772E-12  0.17120000000E+03  0.17120000000E+03 0.  0.
         13    1    1    2    0    0 -0.12383716740E+02  0.74432926772E+01  0.40266783960E+02  0.42780651008E+02  0.10566000000E+00 0. -1.
        994    1    1    2    0    0  0.13840697189E+02 -0.54024976083E+01  0.32241022424E+01  0.17187375226E+03  0.17120000000E+03 0.  0.
        998    1    1    2    0    0 -0.14569804486E+01 -0.20407950689E+01  0.14565091101E+04  0.14565455967E+04  0.10000000000E+02 0. -1.
</event>
<event>
 5    1  0.1294251E-008  0.3753983E+03  0.7957747E-01  0.3471443E+00
         13   -1    0    0    0    0  0.00000000000E+00  0.00000000000E+00  0.14999999963E+04  0.15000000000E+04  0.10566000000E+00 0. -1.
        994   -1    0    0    0    0 -0.00000000000E+00 -0.00000000000E+00  0.11368683772E-12  0.17120000000E+03  0.17120000000E+03 0.  0.
         13    1    1    2    0    0  0.36799448691E+02  0.45872770907E+01  0.44021175663E+02  0.57559687333E+02  0.10566000000E+00 0. -1.
        994    1    1    2    0    0 -0.29730121692E+02 -0.29097048872E+01  0.17008540412E+02  0.17461694352E+03  0.17120000000E+03 0.  0.
        998    1    1    2    0    0 -0.70693269988E+01 -0.16775722035E+01  0.14389702802E+04  0.14390233691E+04  0.10000000000E+02 0. -1.
</event>
<event>
 5    1  0.1294251E-008  0.3824624E+03  0.7957747E-01  0.3440506E+00
         13   -1    0    0    0    0  0.00000000000E+00  0.00000000000E+00  0.14999999963E+04  0.15000000000E+04  0.10566000000E+00 0. -1.
        994   -1    0    0    0    0 -0.00000000000E+00 -0.00000000000E+00  0.11368683772E-12  0.17120000000E+03  0.17120000000E+03 0.  0.
         13    1    1    2    0    0 -0.18073787055E+02  0.42063518000E+01  0.60125135039E+02  0.62923749106E+02  0.10566000000E+00 0. -1.
        994    1    1    2    0    0  0.67087634717E+01  0.53498966211E+00  0.30454737982E+01  0.17135929689E+03  0.17120000000E+03 0.  0.
        998    1    1    2    0    0  0.11365023584E+02 -0.47413414621E+01  0.14368293874E+04  0.14369169540E+04  0.10000000000E+02 0. -1.
</event>
<event>
 5    1  0.1294251E-008  0.3810912E+03  0.7957747E-01  0.3446421E+00
         13   -1    0    0    0    0  0.00000000000E+00  0.00000000000E+00  0.14999999963E+04  0.15000000000E+04  0.10566000000E+00 0.  1.
        994   -1    0    0    0    0 -0.00000000000E+00 -0.00000000000E+00  0.11368683772E-12  0.17120000000E+03  0.17120000000E+03 0.  0.
         13    1    1    2    0    0 -0.13002185393E+02 -0.17455942050E+02  0.68357294665E+02  0.71739094194E+02  0.10566000000E+00 0.  1.
        994    1    1    2    0    0  0.28353556616E+01  0.90724062844E+00  0.36128703566E+01  0.17126399259E+03  0.17120000000E+03 0.  0.
        998    1    1    2    0    0  0.10166829732E+02  0.16548701421E+02  0.14280298313E+04  0.14281969132E+04  0.10000000000E+02 0.  1.
</event>
<event>
 5    1  0.1294251E-008  0.3826445E+03  0.7957747E-01  0.3439724E+00
         13   -1    0    0    0    0  0.00000000000E+00  0.00000000000E+00  0.14999999963E+04  0.15000000000E+04  0.10566000000E+00 0.  1.
        994   -1    0    0    0    0 -0.00000000000E+00 -0.00000000000E+00  0.11368683772E-12  0.17120000000E+03  0.17120000000E+03 0.  0.
         13    1    1    2    0    0  0.18621460953E+02  0.25510061119E+02  0.15786552828E+03  0.16099396949E+03  0.10566000000E+00 0.  1.
        994    1    1    2    0    0 -0.24464361309E+02 -0.23919785451E+02  0.66933791656E+01  0.17471377288E+03  0.17120000000E+03 0.  0.
        998    1    1    2    0    0  0.58429003563E+01 -0.15902756682E+01  0.13354410888E+04  0.13354922576E+04  0.10000000000E+02 0.  1.
</event>
<event>
 5    1  0.1294251E-008  0.3857287E+03  0.7957747E-01  0.3426588E+00
         13   -1    0    0    0    0  0.00000000000E+00  0.00000000000E+00  0.14999999963E+04  0.15000000000E+04  0.10566000000E+00 0.  1.
        994   -1    0    0    0    0 -0.00000000000E+00 -0.00000000000E+00  0.11368683772E-12  0.17120000000E+03  0.17120000000E+03 0.  0.
         13    1    1    2    0    0  0.98666803206E+01  0.16658202508E+01  0.42663035091E+02  0.43820908992E+02  0.10566000000E+00 0.  1.
        994    1    1    2    0    0  0.48192121307E+01  0.39798369979E+01  0.13969669456E+01  0.17131974616E+03  0.17120000000E+03 0.  0.
        998    1    1    2    0    0 -0.14685892451E+02 -0.56456572487E+01  0.14559399942E+04  0.14560593448E+04  0.10000000000E+02 0.  1.
</event>
<event>
 5    1  0.1294251E-008  0.3774301E+03  0.7957747E-01  0.3462425E+00
         13   -1    0    0    0    0  0.00000000000E+00  0.00000000000E+00  0.14999999963E+04  0.15000000000E+04  0.10566000000E+00 0.  1.
        994   -1    0    0    0    0 -0.00000000000E+00 -0.00000000000E+00  0.11368683772E-12  0.17120000000E+03  0.17120000000E+03 0.  0.
         13    1    1    2    0    0  0.63573728066E+02 -0.26618726009E+02  0.33120347979E+03  0.33829858360E+03  0.10566000000E+00 0.  1.
        994    1    1    2    0    0 -0.59510444856E+02  0.44810997777E+02  0.24381339165E+02  0.18829075460E+03  0.17120000000E+03 0.  0.
        998    1    1    2    0    0 -0.40632832099E+01 -0.18192271768E+02  0.11444151773E+04  0.11446106618E+04  0.10000000000E+02 0.  1.
</event>
<event>
 5    1  0.1294251E-008  0.3754832E+03  0.7957747E-01  0.3471064E+00
         13   -1    0    0    0    0  0.00000000000E+00  0.00000000000E+00  0.14999999963E+04  0.15000000000E+04  0.10566000000E+00 0. -1.
        994   -1    0    0    0    0 -0.00000000000E+00 -0.00000000000E+00  0.11368683772E-12  0.17120000000E+03  0.17120000000E+03 0.  0.
         13    1    1    2    0    0  0.57102875755E+00  0.24053371754E+02  0.14848841474E+02  0.28273486233E+02  0.10566000000E+00 0. -1.
        994    1    1    2    0    0  0.37852583681E+02 -0.19353016280E+02  0.20338299498E+02  0.17756813835E+03  0.17120000000E+03 0.  0.
        998    1    1    2    0    0 -0.38423612438E+02 -0.47003554740E+01  0.14648128553E+04  0.14653583754E+04  0.10000000000E+02 0. -1.
</event>
<event>
 5    1  0.1294251E-008  0.3841596E+03  0.7957747E-01  0.3433244E+00
         13   -1    0    0    0    0  0.00000000000E+00  0.00000000000E+00  0.14999999963E+04  0.15000000000E+04  0.10566000000E+00 0. -1.
        994   -1    0    0    0    0 -0.00000000000E+00 -0.00000000000E+00  0.11368683772E-12  0.17120000000E+03  0.17120000000E+03 0.  0.
         13    1    1    2    0    0 -0.96638919107E+01  0.59175660410E+01  0.30480328195E+02  0.32518763286E+02  0.10566000000E+00 0. -1.
        994    1    1    2    0    0  0.80165073997E+01 -0.69577375650E+01  0.24196275932E+01  0.17154582216E+03  0.17120000000E+03 0.  0.
        998    1    1    2    0    0  0.16473845110E+01  0.10401715240E+01  0.14671000405E+04  0.14671354146E+04  0.10000000000E+02 0. -1.
</event>
<event>
 5    1  0.1294251E-008  0.3823092E+03  0.7957747E-01  0.3441165E+00
         13   -1    0    0    0    0  0.00000000000E+00  0.00000000000E+00  0.14999999963E+04  0.15000000000E+04  0.10566000000E+00 0. -1.
        994   -1    0    0    0    0 -0.00000000000E+00 -0.00000000000E+00  0.11368683772E-12  0.17120000000E+03  0.17120000000E+03 0.  0.
         13    1    1    2    0    0  0.25249648854E+01  0.46906499732E+02  0.24546495734E+03  0.24991929019E+03  0.10566000000E+00 0. -1.
        994    1    1    2    0    0  0.37352230655E+02 -0.78244682801E+02  0.28326026995E+02  0.19398253356E+03  0.17120000000E+03 0.  0.
        998    1    1    2    0    0 -0.39877195541E+02  0.31338183069E+02  0.12262090119E+04  0.12272981762E+04  0.10000000000E+02 0. -1.
</event>
<event>
 5    1  0.1294251E-008  0.3718234E+03  0.7957747E-01  0.3487553E+00
         13   -1    0    0    0    0  0.00000000000E+00  0.00000000000E+00  0.14999999963E+04  0.15000000000E+04  0.10566000000E+00 0.  1.
        994   -1    0    0    0    0 -0.00000000000E+00 -0.00000000000E+00  0.11368683772E-12  0.17120000000E+03  0.17120000000E+03 0.  0.
         13    1    1    2    0    0  0.31402122469E+02  0.97284351921E+02  0.56367097557E+03  0.57286588159E+03  0.10566000000E+00 0.  1.
        994    1    1    2    0    0 -0.67713095413E+02 -0.19500309110E+02  0.29588008945E+02  0.18748390763E+03  0.17120000000E+03 0.  0.
        998    1    1    2    0    0  0.36310972944E+02 -0.77784042810E+02  0.90674101176E+03  0.91085021078E+03  0.10000000000E+02 0. -1.
</event>
<event>
 5    1  0.1294251E-008  0.3811927E+03  0.7957747E-01  0.3445982E+00
         13   -1    0    0    0    0  0.00000000000E+00  0.00000000000E+00  0.14999999963E+04  0.15000000000E+04  0.10566000000E+00 0. -1.
        994   -1    0    0    0    0 -0.00000000000E+00 -0.00000000000E+00  0.11368683772E-12  0.17120000000E+03  0.17120000000E+03 0.  0.
         13    1    1    2    0    0 -0.19967399648E+02 -0.95985371781E+01  0.67395271740E+02  0.70943377293E+02  0.10566000000E+00 0. -1.
        994    1    1    2    0    0  0.20418449957E+02 -0.33675641571E+01  0.49595821807E+01  0.17251750938E+03  0.17120000000E+03 0.  0.
        998    1    1    2    0    0 -0.45105030911E+00  0.12966101335E+02  0.14276451424E+04  0.14277391133E+04  0.10000000000E+02 0. -1.
</event>
<event>
 5    1  0.1294251E-008  0.3849737E+03  0.7957747E-01  0.3429784E+00
         13   -1    0    0    0    0  0.00000000000E+00  0.00000000000E+00  0.14999999963E+04  0.15000000000E+04  0.10566000000E+00 0.  1.
        994   -1    0    0    0    0 -0.00000000000E+00 -0.00000000000E+00  0.11368683772E-12  0.17120000000E+03  0.17120000000E+03 0.  0.
         13    1    1    2    0    0 -0.14150326802E+02  0.61779992467E-01  0.62140522074E+02  0.63731398957E+02  0.10566000000E+00 0.  1.
        994    1    1    2    0    0  0.61430371626E+01  0.33258028887E+00  0.17676863077E+01  0.17131962010E+03  0.17120000000E+03 0.  0.
        998    1    1    2    0    0  0.80072896391E+01 -0.39436028134E+00  0.14360917879E+04  0.14361489809E+04  0.10000000000E+02 0.  1.
</event>
<event>
 5    1  0.1294251E-008  0.3862450E+03  0.7957747E-01  0.3424409E+00
         13   -1    0    0    0    0  0.00000000000E+00  0.00000000000E+00  0.14999999963E+04  0.15000000000E+04  0.10566000000E+00 0. -1.
        994   -1    0    0    0    0 -0.00000000000E+00 -0.00000000000E+00  0.11368683772E-12  0.17120000000E+03  0.17120000000E+03 0.  0.
         13    1    1    2    0    0 -0.83213351632E+01  0.65717091967E+01  0.56252645452E+02  0.57243368743E+02  0.10566000000E+00 0. -1.
        994    1    1    2    0    0  0.24569670260E+01 -0.89659512651E+01  0.12964148197E+01  0.17145712485E+03  0.17120000000E+03 0.  0.
        998    1    1    2    0    0  0.58643681371E+01  0.23942420684E+01  0.14424509360E+04  0.14424995064E+04  0.10000000000E+02 0. -1.
</event>
<event>
 5    1  0.1294251E-008  0.3732793E+03  0.7957747E-01  0.3480954E+00
         13   -1    0    0    0    0  0.00000000000E+00  0.00000000000E+00  0.14999999963E+04  0.15000000000E+04  0.10566000000E+00 0. -1.
        994   -1    0    0    0    0 -0.00000000000E+00 -0.00000000000E+00  0.11368683772E-12  0.17120000000E+03  0.17120000000E+03 0.  0.
         13    1    1    2    0    0 -0.20732618288E+02  0.20854800628E+02  0.28358981347E+02  0.40853484030E+02  0.10566000000E+00 0. -1.
        994    1    1    2    0    0  0.21766888887E+02 -0.19866308299E+02  0.15760950459E+02  0.17443140548E+03  0.17120000000E+03 0.  0.
        998    1    1    2    0    0 -0.10342705995E+01 -0.98849232932E+00  0.14558800645E+04  0.14559151105E+04  0.10000000000E+02 0. -1.
</event>
<event>
 5    1  0.1294251E-008  0.3784411E+03  0.7957747E-01  0.3457974E+00
         13   -1    0    0    0    0  0.00000000000E+00  0.00000000000E+00  0.14999999963E+04  0.15000000000E+04  0.10566000000E+00 0.  1.
        994   -1    0    0    0    0 -0.00000000000E+00 -0.00000000000E+00  0.11368683772E-12  0.17120000000E+03  0.17120000000E+03 0.  0.
         13    1    1    2    0    0  0.70873133142E+01  0.44543275642E+02  0.65046342244E+02  0.79154097925E+02  0.10566000000E+00 0.  1.
        994    1    1    2    0    0  0.20486352743E+02 -0.56988309748E+01  0.17104372557E+02  0.17336137656E+03  0.17120000000E+03 0.  0.
        998    1    1    2    0    0 -0.27573666058E+02 -0.38844444667E+02  0.14178492815E+04  0.14186845255E+04  0.10000000000E+02 0.  1.
</event>
<event>
 5    1  0.1294251E-008  0.3859391E+03  0.7957747E-01  0.3425699E+00
         13   -1    0    0    0    0  0.00000000000E+00  0.00000000000E+00  0.14999999963E+04  0.15000000000E+04  0.10566000000E+00 0.  1.
        994   -1    0    0    0    0 -0.00000000000E+00 -0.00000000000E+00  0.11368683772E-12  0.17120000000E+03  0.17120000000E+03 0.  0.
         13    1    1    2    0    0 -0.68970186494E+01  0.98435372427E+01  0.62318975271E+02  0.63467550249E+02  0.10566000000E+00 0.  1.
        994    1    1    2    0    0 -0.35488395342E+01 -0.13485380908E+02  0.18024258120E+01  0.17177642009E+03  0.17120000000E+03 0.  0.
        998    1    1    2    0    0  0.10445858184E+02  0.36418436655E+01  0.14358785952E+04  0.14359560297E+04  0.10000000000E+02 0.  1.
</event>
<event>
 5    1  0.1294251E-008  0.3821561E+03  0.7957747E-01  0.3441824E+00
         13   -1    0    0    0    0  0.00000000000E+00  0.00000000000E+00  0.14999999963E+04  0.15000000000E+04  0.10566000000E+00 0. -1.
        994   -1    0    0    0    0 -0.00000000000E+00 -0.00000000000E+00  0.11368683772E-12  0.17120000000E+03  0.17120000000E+03 0.  0.
         13    1    1    2    0    0  0.15124484718E+02  0.22111481890E+02  0.11266572217E+03  0.11580692460E+03  0.10566000000E+00 0. -1.
        994    1    1    2    0    0 -0.70601621215E+00 -0.26413132791E+02  0.53694791204E+01  0.17331019401E+03  0.17120000000E+03 0.  0.
        998    1    1    2    0    0 -0.14418468506E+02  0.43016509010E+01  0.13819647950E+04  0.13820828814E+04  0.10000000000E+02 0. -1.
</event>
<event>
 5    1  0.1294251E-008  0.3848547E+03  0.7957747E-01  0.3430289E+00
         13   -1    0    0    0    0  0.00000000000E+00  0.00000000000E+00  0.14999999963E+04  0.15000000000E+04  0.10566000000E+00 0.  1.
        994   -1    0    0    0    0 -0.00000000000E+00 -0.00000000000E+00  0.11368683772E-12  0.17120000000E+03  0.17120000000E+03 0.  0.
         13    1    1    2    0    0 -0.51371353588E+01  0.16674292175E+02  0.92442631700E+02  0.94074829253E+02  0.10566000000E+00 0.  1.
        994    1    1    2    0    0  0.14410114768E+02 -0.28297057587E+01  0.24121929464E+01  0.17184562059E+03  0.17120000000E+03 0.  0.
        998    1    1    2    0    0 -0.92729794093E+01 -0.13844586416E+02  0.14051451716E+04  0.14052795502E+04  0.10000000000E+02 0.  1.
</event>
<event>
 5    1  0.1294251E-008  0.3853379E+03  0.7957747E-01  0.3428240E+00
         13   -1    0    0    0    0  0.00000000000E+00  0.00000000000E+00  0.14999999963E+04  0.15000000000E+04  0.10566000000E+00 0. -1.
        994   -1    0    0    0    0 -0.00000000000E+00 -0.00000000000E+00  0.11368683772E-12  0.17120000000E+03  0.17120000000E+03 0.  0.
         13    1    1    2    0    0 -0.14210118788E+02  0.46356933907E+01  0.73547169169E+02  0.75050745406E+02  0.10566000000E+00 0. -1.
        994    1    1    2    0    0  0.14209003322E+02 -0.69861161183E+01  0.22864527673E+01  0.17194583292E+03  0.17120000000E+03 0.  0.
        998    1    1    2    0    0  0.11154660287E-02  0.23504227276E+01  0.14241663743E+04  0.14242034217E+04  0.10000000000E+02 0. -1.
</event>
<event>
 5    1  0.1294251E-008  0.3736688E+03  0.7957747E-01  0.3479198E+00
         13   -1    0    0    0    0  0.00000000000E+00  0.00000000000E+00  0.14999999963E+04  0.15000000000E+04  0.10566000000E+00 0.  1.
        994   -1    0    0    0    0 -0.00000000000E+00 -0.00000000000E+00  0.11368683772E-12  0.17120000000E+03  0.17120000000E+03 0.  0.
         13    1    1    2    0    0  0.98203734145E+01 -0.48637121349E+02  0.16425052329E+03  0.17158162743E+03  0.10566000000E+00 0.  1.
        994    1    1    2    0    0 -0.62571430508E+02  0.20273821108E+02  0.22282910935E+02  0.18474896443E+03  0.17120000000E+03 0.  0.
        998    1    1    2    0    0  0.52751057094E+02  0.28363300241E+02  0.13134665621E+04  0.13148694081E+04  0.10000000000E+02 0.  1.
</event>
<event>
 5    1  0.1294251E-008  0.3786823E+03  0.7957747E-01  0.3456916E+00
         13   -1    0    0    0    0  0.00000000000E+00  0.00000000000E+00  0.14999999963E+04  0.15000000000E+04  0.10566000000E+00 0.  1.
        994   -1    0    0    0    0 -0.00000000000E+00 -0.00000000000E+00  0.11368683772E-12  0.17120000000E+03  0.17120000000E+03 0.  0.
         13    1    1    2    0    0 -0.27631528221E+01  0.18616803658E+02  0.34788652863E+02  0.39553532383E+02  0.10566000000E+00 0.  1.
        994    1    1    2    0    0  0.31445984751E+01 -0.14244340397E+02  0.55145402338E+01  0.17190881271E+03  0.17120000000E+03 0.  0.
        998    1    1    2    0    0 -0.38144565300E+00 -0.43724632612E+01  0.14596968032E+04  0.14597376549E+04  0.10000000000E+02 0.  1.
</event>
<event>
 5    1  0.1294251E-008  0.3838586E+03  0.7957747E-01  0.3434528E+00
         13   -1    0    0    0    0  0.00000000000E+00  0.00000000000E+00  0.14999999963E+04  0.15000000000E+04  0.10566000000E+00 0. -1.
        994   -1    0    0    0    0 -0.00000000000E+00 -0.00000000000E+00  0.11368683772E-12  0.17120000000E+03  0.17120000000E+03 0.  0.
         13    1    1    2    0    0  0.11763483959E+02 -0.10328013176E+02  0.52835455752E+02  0.55105752508E+02  0.10566000000E+00 0. -1.
        994    1    1    2    0    0 -0.12106876271E+02  0.15431399966E+02  0.34687865170E+01  0.17235479987E+03  0.17120000000E+03 0.  0.
        998    1    1    2    0    0  0.34339231261E+00 -0.51033867903E+01  0.14436957540E+04  0.14437394476E+04  0.10000000000E+02 0. -1.
</event>
<event>
 5    1  0.1294251E-008  0.3846796E+03  0.7957747E-01  0.3431032E+00
         13   -1    0    0    0    0  0.00000000000E+00  0.00000000000E+00  0.14999999963E+04  0.15000000000E+04  0.10566000000E+00 0. -1.
        994   -1    0    0    0    0 -0.00000000000E+00 -0.00000000000E+00  0.11368683772E-12  0.17120000000E+03  0.17120000000E+03 0.  0.
         13    1    1    2    0    0 -0.16528615824E+01  0.13192627553E+02  0.50952116409E+02  0.52658396327E+02  0.10566000000E+00 0. -1.
        994    1    1    2    0    0 -0.59545932032E+01 -0.31944381789E+01  0.19396450098E+01  0.17134428452E+03  0.17120000000E+03 0.  0.
        998    1    1    2    0    0  0.76074547857E+01 -0.99981893738E+01  0.14471082349E+04  0.14471973192E+04  0.10000000000E+02 0. -1.
</event>
<event>
 5    1  0.1294251E-008  0.3809125E+03  0.7957747E-01  0.3447195E+00
         13   -1    0    0    0    0  0.00000000000E+00  0.00000000000E+00  0.14999999963E+04  0.15000000000E+04  0.10566000000E+00 0. -1.
        994   -1    0    0    0    0 -0.00000000000E+00 -0.00000000000E+00  0.11368683772E-12  0.17120000000E+03  0.17120000000E+03 0.  0.
         13    1    1    2    0    0 -0.93463878259E+01  0.26116663612E+02  0.94941795509E+02  0.98911024573E+02  0.10566000000E+00 0. -1.
        994    1    1    2    0    0  0.19423466241E+02 -0.28633443805E+02  0.76734277070E+01  0.17482982193E+03  0.17120000000E+03 0.  0.
        998    1    1    2    0    0 -0.10077078415E+02  0.25167801928E+01  0.13973847731E+04  0.13974591535E+04  0.10000000000E+02 0. -1.
</event>
<event>
 5    1  0.1294251E-008  0.3808964E+03  0.7957747E-01  0.3447265E+00
         13   -1    0    0    0    0  0.00000000000E+00  0.00000000000E+00  0.14999999963E+04  0.15000000000E+04  0.10566000000E+00 0.  1.
        994   -1    0    0    0    0 -0.00000000000E+00 -0.00000000000E+00  0.11368683772E-12  0.17120000000E+03  0.17120000000E+03 0.  0.
         13    1    1    2    0    0  0.16405890263E+02  0.23280063625E+02  0.12753702017E+03  0.13067829689E+03  0.10566000000E+00 0.  1.
        994    1    1    2    0    0  0.41318487953E+01  0.68580891890E+01  0.38950327769E+01  0.17143137648E+03  0.17120000000E+03 0.  0.
        998    1    1    2    0    0 -0.20537739058E+02 -0.30138152814E+02  0.13685679433E+04  0.13690903266E+04  0.10000000000E+02 0. -1.
</event>
<event>
 5    1  0.1294251E-008  0.3863497E+03  0.7957747E-01  0.3423968E+00
         13   -1    0    0    0    0  0.00000000000E+00  0.00000000000E+00  0.14999999963E+04  0.15000000000E+04  0.10566000000E+00 0. -1.
        994   -1    0    0    0    0 -0.00000000000E+00 -0.00000000000E+00  0.11368683772E-12  0.17120000000E+03  0.17120000000E+03 0.  0.
         13    1    1    2    0    0  0.49418974848E+02  0.18567064429E+02  0.58048476894E+02  0.78464054129E+02  0.10566000000E+00 0. -1.
        994    1    1    2    0    0 -0.86572463734E+02  0.46917673500E+02  0.56799925144E+02  0.20550360352E+03  0.17120000000E+03 0.  0.
        998    1    1    2    0    0  0.37153488886E+02 -0.65484737929E+02  0.13851515942E+04  0.13872323424E+04  0.10000000000E+02 0. -1.
</event>
<event>
 5    1  0.1294251E-008  0.3779113E+03  0.7957747E-01  0.3460304E+00
         13   -1    0    0    0    0  0.00000000000E+00  0.00000000000E+00  0.14999999963E+04  0.15000000000E+04  0.10566000000E+00 0.  1.
        994   -1    0    0    0    0 -0.00000000000E+00 -0.00000000000E+00  0.11368683772E-12  0.17120000000E+03  0.17120000000E+03 0.  0.
         13    1    1    2    0    0  0.96866163286E+02  0.57291787608E+02  0.67383301933E+03  0.68316641576E+03  0.10566000000E+00 0.  1.
        994    1    1    2    0    0 -0.89661406814E+02 -0.65179407165E+02  0.47736207493E+02  0.20946529187E+03  0.17120000000E+03 0.  0.
        998    1    1    2    0    0 -0.72047564712E+01  0.78876195570E+01  0.77843076946E+03  0.77856829238E+03  0.10000000000E+02 0. -1.
</event>
<event>
 5    1  0.1294251E-008  0.3775161E+03  0.7957747E-01  0.3462046E+00
         13   -1    0    0    0    0  0.00000000000E+00  0.00000000000E+00  0.14999999963E+04  0.15000000000E+04  0.10566000000E+00 0.  1.
        994   -1    0    0    0    0 -0.00000000000E+00 -0.00000000000E+00  0.11368683772E-12  0.17120000000E+03  0.17120000000E+03 0.  0.
         13    1    1    2    0    0 -0.22117622971E+02  0.26638703124E+02  0.11224456118E+03  0.11746345146E+03  0.10566000000E+00 0.  1.
        994    1    1    2    0    0  0.83105414731E+01 -0.13093074875E+02  0.62032980609E+01  0.17201283271E+03  0.17120000000E+03 0.  0.
        998    1    1    2    0    0  0.13807081498E+02 -0.13545628249E+02  0.13815521370E+04  0.13817237158E+04  0.10000000000E+02 0.  1.
</event>
<event>
 5    1  0.1294251E-008  0.3861724E+03  0.7957747E-01  0.3424715E+00
         13   -1    0    0    0    0  0.00000000000E+00  0.00000000000E+00  0.14999999963E+04  0.15000000000E+04  0.10566000000E+00 0. -1.
        994   -1    0    0    0    0 -0.00000000000E+00 -0.00000000000E+00  0.11368683772E-12  0.17120000000E+03  0.17120000000E+03 0.  0.
         13    1    1    2    0    0 -0.25732788232E+01  0.12318879407E+02  0.71436790204E+02  0.72536905865E+02  0.10566000000E+00 0. -1.
        994    1    1    2    0    0  0.15961656765E+02 -0.14199509495E+02  0.25458394615E+01  0.17254657880E+03  0.17120000000E+03 0.  0.
        998    1    1    2    0    0 -0.13388377942E+02  0.18806300881E+01  0.14260173666E+04  0.14261165153E+04  0.10000000000E+02 0. -1.
</event>
<event>
 5    1  0.1294251E-008  0.3757030E+03  0.7957747E-01  0.3470084E+00
         13   -1    0    0    0    0  0.00000000000E+00  0.00000000000E+00  0.14999999963E+04  0.15000000000E+04  0.10566000000E+00 0.  1.
        994   -1    0    0    0    0 -0.00000000000E+00 -0.00000000000E+00  0.11368683772E-12  0.17120000000E+03  0.17120000000E+03 0.  0.
         13    1    1    2    0    0  0.41793416556E+01 -0.23749877738E+02  0.42376756493E+02  0.48757812134E+02  0.10566000000E+00 0.  1.
        994    1    1    2    0    0 -0.51337196378E+01  0.24287088353E+02  0.84106454129E+01  0.17319467860E+03  0.17120000000E+03 0.  0.
        998    1    1    2    0    0  0.95437798213E+00 -0.53721061524E+00  0.14492125944E+04  0.14492475093E+04  0.10000000000E+02 0.  1.
</event>
<event>
 5    1  0.1294251E-008  0.3815303E+03  0.7957747E-01  0.3444522E+00
         13   -1    0    0    0    0  0.00000000000E+00  0.00000000000E+00  0.14999999963E+04  0.15000000000E+04  0.10566000000E+00 0. -1.
        994   -1    0    0    0    0 -0.00000000000E+00 -0.00000000000E+00  0.11368683772E-12  0.17120000000E+03  0.17120000000E+03 0.  0.
         13    1    1    2    0    0  0.12875044550E+02 -0.14048329704E+02  0.50476902566E+02  0.53954158286E+02  0.10566000000E+00 0. -1.
        994    1    1    2    0    0 -0.19714807731E+02  0.13891836784E+02  0.52997032944E+01  0.17297162666E+03  0.17120000000E+03 0.  0.
        998    1    1    2    0    0  0.68397631813E+01  0.15649291963E+00  0.14442233904E+04  0.14442742151E+04  0.10000000000E+02 0. -1.
</event>
<event>
 5    1  0.1294251E-008  0.3799105E+03  0.7957747E-01  0.3451548E+00
         13   -1    0    0    0    0  0.00000000000E+00  0.00000000000E+00  0.14999999963E+04  0.15000000000E+04  0.10566000000E+00 0.  1.
        994   -1    0    0    0    0 -0.00000000000E+00 -0.00000000000E+00  0.11368683772E-12  0.17120000000E+03  0.17120000000E+03 0.  0.
         13    1    1    2    0    0  0.36503486030E+01  0.19623049616E+02  0.47222241171E+02  0.51267341909E+02  0.10566000000E+00 0.  1.
        994    1    1    2    0    0 -0.17329345341E+01 -0.63145616934E+01  0.43216993547E+01  0.17137967743E+03  0.17120000000E+03 0.  0.
        998    1    1    2    0    0 -0.19174140689E+01 -0.13308487923E+02  0.14484560558E+04  0.14485529807E+04  0.10000000000E+02 0.  1.
</event>
<event>
 5    1  0.1294251E-008  0.3761213E+03  0.7957747E-01  0.3468223E+00
         13   -1    0    0    0    0  0.00000000000E+00  0.00000000000E+00  0.14999999963E+04  0.15000000000E+04  0.10566000000E+00 0. -1.
        994   -1    0    0    0    0 -0.00000000000E+00 -0.00000000000E+00  0.11368683772E-12  0.17120000000E+03  0.17120000000E+03 0.  0.
         13    1    1    2    0    0 -0.33506316452E+02 -0.17563843191E+02  0.11212717044E+03  0.11833712581E+03  0.10566000000E+00 0. -1.
        994    1    1    2    0    0  0.30683077993E+02  0.30290957939E+01  0.93299653716E+01  0.17420423345E+03  0.17120000000E+03 0.  0.
        998    1    1    2    0    0  0.28232384589E+01  0.14534747397E+02  0.13785428605E+04  0.13786586407E+04  0.10000000000E+02 0. -1.
</event>
<event>
 5    1  0.1294251E-008  0.3716239E+03  0.7957747E-01  0.3488461E+00
         13   -1    0    0    0    0  0.00000000000E+00  0.00000000000E+00  0.14999999963E+04  0.15000000000E+04  0.10566000000E+00 0. -1.
        994   -1    0    0    0    0 -0.00000000000E+00 -0.00000000000E+00  0.11368683772E-12  0.17120000000E+03  0.17120000000E+03 0.  0.
         13    1    1    2    0    0 -0.46879490112E+02  0.12429630632E+02  0.15424887591E+03  0.16169387494E+03  0.10566000000E+00 0. -1.
        994    1    1    2    0    0  0.98618884042E+00 -0.12366710811E+02  0.89521141086E+01  0.17188219353E+03  0.17120000000E+03 0.  0.
        998    1    1    2    0    0  0.45893301272E+02 -0.62919820782E-01  0.13367990063E+04  0.13376239315E+04  0.10000000000E+02 0. -1.
</event>
<event>
 5    1  0.1294251E-008  0.3710589E+03  0.7957747E-01  0.3491039E+00
         13   -1    0    0    0    0  0.00000000000E+00  0.00000000000E+00  0.14999999963E+04  0.15000000000E+04  0.10566000000E+00 0. -1.
        994   -1    0    0    0    0 -0.00000000000E+00 -0.00000000000E+00  0.11368683772E-12  0.17120000000E+03  0.17120000000E+03 0.  0.
         13    1    1    2    0    0  0.34847538514E+02  0.29534507593E+02  0.76863905336E+02  0.89413137663E+02  0.10566000000E+00 0. -1.
        994    1    1    2    0    0 -0.33435855099E+02 -0.64002381935E+02  0.30028562089E+02  0.18821640694E+03  0.17120000000E+03 0.  0.
        998    1    1    2    0    0 -0.14116834144E+01  0.34467874341E+02  0.13931075289E+04  0.13935704554E+04  0.10000000000E+02 0. -1.
</event>
<event>
 5    1  0.1866466E-008  0.3864011E+03  0.7957747E-01  0.3423752E+00
         13   -1    0    0    0    0  0.00000000000E+00  0.00000000000E+00  0.14999999963E+04  0.15000000000E+04  0.10566000000E+00 0. -1.
        994   -1    0    0    0    0 -0.00000000000E+00 -0.00000000000E+00  0.11368683772E-12  0.17120000000E+03  0.17120000000E+03 0.  0.
         13    1    1    2    0    0  0.12221131777E+02 -0.46817219688E+01  0.66756721735E+02  0.68027535920E+02  0.10566000000E+00 0. -1.
        994    1    1    2    0    0 -0.51124934233E+02  0.95151696301E+01  0.98398760422E+01  0.17919419777E+03  0.17120000000E+03 0.  0.
        998    1    1    2    0    0  0.38903802455E+02 -0.48334476613E+01  0.14234033985E+04  0.14239782663E+04  0.10000000000E+02 0. -1.
</event>
<event>
 5    1  0.1294251E-008  0.3853559E+03  0.7957747E-01  0.3428164E+00
         13   -1    0    0    0    0  0.00000000000E+00  0.00000000000E+00  0.14999999963E+04  0.15000000000E+04  0.10566000000E+00 0.  1.
        994   -1    0    0    0    0 -0.00000000000E+00 -0.00000000000E+00  0.11368683772E-12  0.17120000000E+03  0.17120000000E+03 0.  0.
         13    1    1    2    0    0  0.78918405063E+01  0.10107590460E+02  0.57062447046E+02  0.58485712430E+02  0.10566000000E+00 0.  1.
        994    1    1    2    0    0  0.91987443842E+00 -0.10526715913E+02  0.18204097268E+01  0.17153545350E+03  0.17120000000E+03 0.  0.
        998    1    1    2    0    0 -0.88117149448E+01  0.41912545341E+00  0.14411171395E+04  0.14411788341E+04  0.10000000000E+02 0.  1.
</event>
<event>
 5    1  0.1294251E-008  0.4462219E+03  0.7957747E-01  0.3205381E+00
         13   -1    0    0    0    0  0.00000000000E+00  0.00000000000E+00  0.14999999963E+04  0.15000000000E+04  0.10566000000E+00 0.  1.
        994   -1    0    0    0    0 -0.00000000000E+00 -0.00000000000E+00  0.11368683772E-12  0.17120000000E+03  0.17120000000E+03 0.  0.
         13    1    1    2    0    0 -0.61684096805E+02  0.84710820923E+02  0.79385622239E+02  0.13146459281E+03  0.10566000000E+00 0.  1.
        994    1    1    2    0    0  0.19025500121E+02 -0.82676929664E+02  0.94975543643E+02  0.21337112795E+03  0.17120000000E+03 0.  0.
        998    1    1    2    0    0  0.42658596685E+02 -0.20338912581E+01  0.13256388304E+04  0.13263642792E+04  0.10000000000E+02 0. -1.
</event>
<event>
 5    1  0.1294251E-008  0.3794066E+03  0.7957747E-01  0.3453746E+00
         13   -1    0    0    0    0  0.00000000000E+00  0.00000000000E+00  0.14999999963E+04  0.15000000000E+04  0.10566000000E+00 0. -1.
        994   -1    0    0    0    0 -0.00000000000E+00 -0.00000000000E+00  0.11368683772E-12  0.17120000000E+03  0.17120000000E+03 0.  0.
         13    1    1    2    0    0 -0.30802360188E+02 -0.94480350980E+01  0.10763261483E+03  0.11235142055E+03  0.10566000000E+00 0. -1.
        994    1    1    2    0    0  0.32159670277E+02  0.84576947605E+01  0.81456580526E+01  0.17458971544E+03  0.17120000000E+03 0.  0.
        998    1    1    2    0    0 -0.13573100887E+01  0.99034033753E+00  0.13842217234E+04  0.13842588640E+04  0.10000000000E+02 0. -1.
</event>
<event>
 5    1  0.1294251E-008  0.3807860E+03  0.7957747E-01  0.3447743E+00
         13   -1    0    0    0    0  0.00000000000E+00  0.00000000000E+00  0.14999999963E+04  0.15000000000E+04  0.10566000000E+00 0. -1.
        994   -1    0    0    0    0 -0.00000000000E+00 -0.00000000000E+00  0.11368683772E-12  0.17120000000E+03  0.17120000000E+03 0.  0.
         13    1    1    2    0    0  0.75950310165E+01 -0.16378333955E+02  0.43414339687E+02  0.47018617310E+02  0.10566000000E+00 0. -1.
        994    1    1    2    0    0 -0.48108924418E+01  0.26294292436E+01  0.38371555814E+01  0.17133073964E+03  0.17120000000E+03 0.  0.
        998    1    1    2    0    0 -0.27841385748E+01  0.13748904712E+02  0.14527485010E+04  0.14528506430E+04  0.10000000000E+02 0. -1.
</event>
<event>
 5    1  0.1294251E-008  0.3860231E+03  0.7957747E-01  0.3425345E+00
         13   -1    0    0    0    0  0.00000000000E+00  0.00000000000E+00  0.14999999963E+04  0.15000000000E+04  0.10566000000E+00 0. -1.
        994   -1    0    0    0    0 -0.00000000000E+00 -0.00000000000E+00  0.11368683772E-12  0.17120000000E+03  0.17120000000E+03 0.  0.
         13    1    1    2    0    0  0.36252747674E+01 -0.11283207954E+02  0.70175350523E+02  0.71169125215E+02  0.10566000000E+00 0. -1.
        994    1    1    2    0    0  0.27685794503E+01 -0.43118101301E+01  0.12091256699E+01  0.17128093509E+03  0.17120000000E+03 0.  0.
        998    1    1    2    0    0 -0.63938542177E+01  0.15595018085E+02  0.14286155201E+04  0.14287499397E+04  0.10000000000E+02 0. -1.
</event>
<event>
 5    1  0.1294251E-008  0.3860444E+03  0.7957747E-01  0.3425255E+00
         13   -1    0    0    0    0  0.00000000000E+00  0.00000000000E+00  0.14999999963E+04  0.15000000000E+04  0.10566000000E+00 0.  1.
        994   -1    0    0    0    0 -0.00000000000E+00 -0.00000000000E+00  0.11368683772E-12  0.17120000000E+03  0.17120000000E+03 0.  0.
         13    1    1    2    0    0 -0.66048279698E+00 -0.11250991082E+02  0.55556267844E+02  0.56688015476E+02  0.10566000000E+00 0.  1.
        994    1    1    2    0    0  0.44639960271E+01  0.13016341679E+02  0.17333655943E+01  0.17176087147E+03  0.17120000000E+03 0.  0.
        998    1    1    2    0    0 -0.38035132301E+01 -0.17653505963E+01  0.14427103628E+04  0.14427511131E+04  0.10000000000E+02 0.  1.
</event>
<event>
 5    1  0.1294251E-008  0.3837624E+03  0.7957747E-01  0.3434938E+00
         13   -1    0    0    0    0  0.00000000000E+00  0.00000000000E+00  0.14999999963E+04  0.15000000000E+04  0.10566000000E+00 0.  1.
        994   -1    0    0    0    0 -0.00000000000E+00 -0.00000000000E+00  0.11368683772E-12  0.17120000000E+03  0.17120000000E+03 0.  0.
         13    1    1    2    0    0  0.17206525796E+02  0.13392125031E+01  0.62129035908E+02  0.64481674040E+02  0.10566000000E+00 0.  1.
        994    1    1    2    0    0 -0.22327427904E+02  0.27449217229E+01  0.39185401513E+01  0.17271607797E+03  0.17120000000E+03 0.  0.
        998    1    1    2    0    0  0.51209021087E+01 -0.40841342260E+01  0.14339524202E+04  0.14340022480E+04  0.10000000000E+02 0.  1.
</event>
<event>
 5    1  0.1294251E-008  0.3811458E+03  0.7957747E-01  0.3446185E+00
         13   -1    0    0    0    0  0.00000000000E+00  0.00000000000E+00  0.14999999963E+04  0.15000000000E+04  0.10566000000E+00 0.  1.
        994   -1    0    0    0    0 -0.00000000000E+00 -0.00000000000E+00  0.11368683772E-12  0.17120000000E+03  0.17120000000E+03 0.  0.
         13    1    1    2    0    0  0.11770594577E+02 -0.33272829438E+01  0.19476251763E+02  0.22998983787E+02  0.10566000000E+00 0.  1.
        994    1    1    2    0    0 -0.10777644916E+02  0.92155427948E+00  0.39456399631E+01  0.17158675639E+03  0.17120000000E+03 0.  0.
        998    1    1    2    0    0 -0.99294966170E+00  0.24057286643E+01  0.14765781046E+04  0.14766142598E+04  0.10000000000E+02 0.  1.
</event>
<event>
 5    1  0.1294251E-008  0.3759125E+03  0.7957747E-01  0.3469152E+00
         13   -1    0    0    0    0  0.00000000000E+00  0.00000000000E+00  0.14999999963E+04  0.15000000000E+04  0.10566000000E+00 0. -1.
        994   -1    0    0    0    0 -0.00000000000E+00 -0.00000000000E+00  0.11368683772E-12  0.17120000000E+03  0.17120000000E+03 0.  0.
         13    1    1    2    0    0 -0.39235085639E+02  0.95832954040E+02  0.31959670300E+03  0.33595447721E+03  0.10566000000E+00 0. -1.
        994    1    1    2    0    0  0.44892434670E+02 -0.78158860825E+02  0.43705898321E+02  0.19835267521E+03  0.17120000000E+03 0.  0.
        998    1    1    2    0    0 -0.56573490308E+01 -0.17674093215E+02  0.11366973950E+04  0.11368928476E+04  0.10000000000E+02 0.  1.
</event>
<event>
 5    1  0.1294251E-008  0.3734429E+03  0.7957747E-01  0.3480216E+00
         13   -1    0    0    0    0  0.00000000000E+00  0.00000000000E+00  0.14999999963E+04  0.15000000000E+04  0.10566000000E+00 0. -1.
        994   -1    0    0    0    0 -0.00000000000E+00 -0.00000000000E+00  0.11368683772E-12  0.17120000000E+03  0.17120000000E+03 0.  0.
         13    1    1    2    0    0  0.34067184727E+02  0.43153131000E+00  0.74604915359E+02  0.82016241405E+02  0.10566000000E+00 0. -1.
        994    1    1    2    0    0 -0.22378288233E+02 -0.79628869550E+01  0.94108287173E+01  0.17309592442E+03  0.17120000000E+03 0.  0.
        998    1    1    2    0    0 -0.11688896493E+02  0.75313556450E+01  0.14159842522E+04  0.14160878342E+04  0.10000000000E+02 0. -1.
</event>
<event>
 5    1  0.1294251E-008  0.3855781E+03  0.7957747E-01  0.3427224E+00
         13   -1    0    0    0    0  0.00000000000E+00  0.00000000000E+00  0.14999999963E+04  0.15000000000E+04  0.10566000000E+00 0. -1.
        994   -1    0    0    0    0 -0.00000000000E+00 -0.00000000000E+00  0.11368683772E-12  0.17120000000E+03  0.17120000000E+03 0.  0.
         13    1    1    2    0    0  0.13659912793E+02  0.74332384275E+01  0.91099649075E+02  0.92417549614E+02  0.10566000000E+00 0. -1.
        994    1    1    2    0    0 -0.10128177246E+02 -0.92333311781E+00  0.16829888935E+01  0.17151007250E+03  0.17120000000E+03 0.  0.
        998    1    1    2    0    0 -0.35317355468E+01 -0.65099053097E+01  0.14072173583E+04  0.14072723779E+04  0.10000000000E+02 0. -1.
</event>
<event>
 5    1  0.1294251E-008  0.3854168E+03  0.7957747E-01  0.3427906E+00
         13   -1    0    0    0    0  0.00000000000E+00  0.00000000000E+00  0.14999999963E+04  0.15000000000E+04  0.10566000000E+00 0.  1.
        994   -1    0    0    0    0 -0.00000000000E+00 -0.00000000000E+00  0.11368683772E-12  0.17120000000E+03  0.17120000000E+03 0.  0.
         13    1    1    2    0    0 -0.13206759863E+02 -0.12139006726E+02  0.10696847033E+03  0.10846215377E+03  0.10566000000E+00 0.  1.
        994    1    1    2    0    0  0.86623776095E+01  0.17703485180E+02  0.27001130718E+01  0.17235190972E+03  0.17120000000E+03 0.  0.
        998    1    1    2    0    0  0.45443822537E+01 -0.55644784533E+01  0.13903314129E+04  0.13903859365E+04  0.10000000000E+02 0.  1.
</event>
<event>
 5    1  0.1294251E-008  0.3835020E+03  0.7957747E-01  0.3436050E+00
         13   -1    0    0    0    0  0.00000000000E+00  0.00000000000E+00  0.14999999963E+04  0.15000000000E+04  0.10566000000E+00 0. -1.
        994   -1    0    0    0    0 -0.00000000000E+00 -0.00000000000E+00  0.11368683772E-12  0.17120000000E+03  0.17120000000E+03 0.  0.
         13    1    1    2    0    0  0.19766973570E+01 -0.16038251786E+02  0.55442492671E+02  0.57749580175E+02  0.10566000000E+00 0. -1.
        994    1    1    2    0    0 -0.53348240437E+01  0.59599819613E+01  0.25871735819E+01  0.17140628693E+03  0.17120000000E+03 0.  0.
        998    1    1    2    0    0  0.33581266868E+01  0.10078269824E+02  0.14419703300E+04  0.14420441329E+04  0.10000000000E+02 0. -1.
</event>
<event>
 5    1  0.1294251E-008  0.3752804E+03  0.7957747E-01  0.3471970E+00
         13   -1    0    0    0    0  0.00000000000E+00  0.00000000000E+00  0.14999999963E+04  0.15000000000E+04  0.10566000000E+00 0.  1.
        994   -1    0    0    0    0 -0.00000000000E+00 -0.00000000000E+00  0.11368683772E-12  0.17120000000E+03  0.17120000000E+03 0.  0.
         13    1    1    2    0    0  0.46296989232E+02  0.17484349338E+03  0.91368420285E+03  0.93141424301E+03  0.10566000000E+00 0.  1.
        994    1    1    2    0    0 -0.48830814619E+02 -0.16789219414E+03  0.11865072048E+03  0.27195527349E+03  0.17120000000E+03 0.  0.
        998    1    1    2    0    0  0.25338253876E+01 -0.69512992470E+01  0.46766507295E+03  0.46783048349E+03  0.10000000000E+02 0.  0.
</event>
<event>
 5    1  0.1294251E-008  0.3733576E+03  0.7957747E-01  0.3480601E+00
         13   -1    0    0    0    0  0.00000000000E+00  0.00000000000E+00  0.14999999963E+04  0.15000000000E+04  0.10566000000E+00 0. -1.
        994   -1    0    0    0    0 -0.00000000000E+00 -0.00000000000E+00  0.11368683772E-12  0.17120000000E+03  0.17120000000E+03 0.  0.
         13    1    1    2    0    0 -0.22237672371E+02  0.19532773922E+02  0.55455559141E+02  0.62859951744E+02  0.10566000000E+00 0. -1.
        994    1    1    2    0    0  0.11078446075E+02 -0.15626753634E+02  0.87797803399E+01  0.17249188949E+03  0.17120000000E+03 0.  0.
        998    1    1    2    0    0  0.11159226296E+02 -0.39060202875E+01  0.14357646568E+04  0.14358481588E+04  0.10000000000E+02 0. -1.
</event>
<event>
 5    1  0.1294251E-008  0.3848978E+03  0.7957747E-01  0.3430106E+00
         13   -1    0    0    0    0  0.00000000000E+00  0.00000000000E+00  0.14999999963E+04  0.15000000000E+04  0.10566000000E+00 0.  1.
        994   -1    0    0    0    0 -0.00000000000E+00 -0.00000000000E+00  0.11368683772E-12  0.17120000000E+03  0.17120000000E+03 0.  0.
         13    1    1    2    0    0 -0.14676904369E+02 -0.27939133158E+01  0.69458327417E+02  0.71047082171E+02  0.10566000000E+00 0.  1.
        994    1    1    2    0    0  0.40018936169E+01 -0.57474914756E+01  0.18422511568E+01  0.17135309364E+03  0.17120000000E+03 0.  0.
        998    1    1    2    0    0  0.10675010752E+02  0.85414047914E+01  0.14286994177E+04  0.14287998242E+04  0.10000000000E+02 0.  1.
</event>
<event>
 5    1  0.1294251E-008  0.3724436E+03  0.7957747E-01  0.3484736E+00
         13   -1    0    0    0    0  0.00000000000E+00  0.00000000000E+00  0.14999999963E+04  0.15000000000E+04  0.10566000000E+00 0.  1.
        994   -1    0    0    0    0 -0.00000000000E+00 -0.00000000000E+00  0.11368683772E-12  0.17120000000E+03  0.17120000000E+03 0.  0.
         13    1    1    2    0    0 -0.12760885478E+02 -0.32769252920E+02  0.80630037807E+02  0.87965210714E+02  0.10566000000E+00 0.  1.
        994    1    1    2    0    0  0.30196434948E+02 -0.11665194241E+02  0.11598892848E+02  0.17461923077E+03  0.17120000000E+03 0.  0.
        998    1    1    2    0    0 -0.17435549471E+02  0.44434447161E+02  0.14077710656E+04  0.14086155585E+04  0.10000000000E+02 0.  1.
</event>
<event>
 5    1  0.1294251E-008  0.3813183E+03  0.7957747E-01  0.3445438E+00
         13   -1    0    0    0    0  0.00000000000E+00  0.00000000000E+00  0.14999999963E+04  0.15000000000E+04  0.10566000000E+00 0.  1.
        994   -1    0    0    0    0 -0.00000000000E+00 -0.00000000000E+00  0.11368683772E-12  0.17120000000E+03  0.17120000000E+03 0.  0.
         13    1    1    2    0    0  0.19216657706E+02  0.66387999591E+00  0.56549931254E+02  0.59729612078E+02  0.10566000000E+00 0.  1.
        994    1    1    2    0    0  0.67066598069E+01  0.30372157226E+01  0.36496004650E+01  0.17139709317E+03  0.17120000000E+03 0.  0.
        998    1    1    2    0    0 -0.25923317513E+02 -0.37010957185E+01  0.14398004646E+04  0.14400732947E+04  0.10000000000E+02 0.  1.
</event>
<event>
 5    1  0.1294251E-008  0.3842869E+03  0.7957747E-01  0.3432702E+00
         13   -1    0    0    0    0  0.00000000000E+00  0.00000000000E+00  0.14999999963E+04  0.15000000000E+04  0.10566000000E+00 0.  1.
        994   -1    0    0    0    0 -0.00000000000E+00 -0.00000000000E+00  0.11368683772E-12  0.17120000000E+03  0.17120000000E+03 0.  0.
         13    1    1    2    0    0  0.12189844117E+02  0.51735721255E+01  0.42444968572E+02  0.44462845942E+02  0.10566000000E+00 0.  1.
        994    1    1    2    0    0 -0.12571311382E+02 -0.10001965691E+02  0.28357667187E+01  0.17197545976E+03  0.17120000000E+03 0.  0.
        998    1    1    2    0    0  0.38146726575E+00  0.48283935658E+01  0.14547192610E+04  0.14547616943E+04  0.10000000000E+02 0.  1.
</event>
<event>
 5    1  0.1294251E-008  0.3859077E+03  0.7957747E-01  0.3425832E+00
         13   -1    0    0    0    0  0.00000000000E+00  0.00000000000E+00  0.14999999963E+04  0.15000000000E+04  0.10566000000E+00 0. -1.
        994   -1    0    0    0    0 -0.00000000000E+00 -0.00000000000E+00  0.11368683772E-12  0.17120000000E+03  0.17120000000E+03 0.  0.
         13    1    1    2    0    0 -0.38969705084E+01 -0.95335592449E+01  0.48201683516E+02  0.49289842654E+02  0.10566000000E+00 0. -1.
        994    1    1    2    0    0 -0.10583969926E+02  0.19092860024E+01  0.15595313824E+01  0.17154456544E+03  0.17120000000E+03 0.  0.
        998    1    1    2    0    0  0.14480940434E+02  0.76242732425E+01  0.14502387814E+04  0.14503655919E+04  0.10000000000E+02 0. -1.
</event>
<event>
 5    1  0.1294251E-008  0.3736328E+03  0.7957747E-01  0.3479360E+00
         13   -1    0    0    0    0  0.00000000000E+00  0.00000000000E+00  0.14999999963E+04  0.15000000000E+04  0.10566000000E+00 0.  1.
        994   -1    0    0    0    0 -0.00000000000E+00 -0.00000000000E+00  0.11368683772E-12  0.17120000000E+03  0.17120000000E+03 0.  0.
         13    1    1    2    0    0 -0.91211550300E+02  0.69751132222E+02  0.50874238552E+03  0.52153963736E+03  0.10566000000E+00 0.  1.
        994    1    1    2    0    0  0.98487496114E+02 -0.77170191432E+02  0.62885880286E+02  0.22117662461E+03  0.17120000000E+03 0.  0.
        998    1    1    2    0    0 -0.72759458141E+01  0.74190592106E+01  0.92837173048E+03  0.92848373802E+03  0.10000000000E+02 0.  1.
</event>
<event>
 5    1  0.1294251E-008  0.3842398E+03  0.7957747E-01  0.3432903E+00
         13   -1    0    0    0    0  0.00000000000E+00  0.00000000000E+00  0.14999999963E+04  0.15000000000E+04  0.10566000000E+00 0. -1.
        994   -1    0    0    0    0 -0.00000000000E+00 -0.00000000000E+00  0.11368683772E-12  0.17120000000E+03  0.17120000000E+03 0.  0.
         13    1    1    2    0    0 -0.14781613649E+02  0.87194391904E+01  0.73453974259E+02  0.75432235949E+02  0.10566000000E+00 0. -1.
        994    1    1    2    0    0  0.11045805997E+02 -0.12282797956E+01  0.24153335949E+01  0.17157736546E+03  0.17120000000E+03 0.  0.
        998    1    1    2    0    0  0.37358076521E+01 -0.74911593948E+01  0.14241306884E+04  0.14241903986E+04  0.10000000000E+02 0. -1.
</event>
<event>
 5    1  0.1294251E-008  0.3826769E+03  0.7957747E-01  0.3439585E+00
         13   -1    0    0    0    0  0.00000000000E+00  0.00000000000E+00  0.14999999963E+04  0.15000000000E+04  0.10566000000E+00 0. -1.
        994   -1    0    0    0    0 -0.00000000000E+00 -0.00000000000E+00  0.11368683772E-12  0.17120000000E+03  0.17120000000E+03 0.  0.
         13    1    1    2    0    0  0.18305430894E+02  0.98718939493E+01  0.78847264775E+02  0.81544131713E+02  0.10566000000E+00 0. -1.
        994    1    1    2    0    0 -0.94595143343E+01  0.21918992280E+00  0.30846382070E+01  0.17148902428E+03  0.17120000000E+03 0.  0.
        998    1    1    2    0    0 -0.88459165595E+01 -0.10091083872E+02  0.14180680933E+04  0.14181668440E+04  0.10000000000E+02 0. -1.
</event>
<event>
 5    1  0.1294251E-008  0.3731163E+03  0.7957747E-01  0.3481690E+00
         13   -1    0    0    0    0  0.00000000000E+00  0.00000000000E+00  0.14999999963E+04  0.15000000000E+04  0.10566000000E+00 0. -1.
        994   -1    0    0    0    0 -0.00000000000E+00 -0.00000000000E+00  0.11368683772E-12  0.17120000000E+03  0.17120000000E+03 0.  0.
         13    1    1    2    0    0  0.28321403220E+02 -0.18873861817E+02  0.41069111493E+02  0.53338612872E+02  0.10566000000E+00 0. -1.
        994    1    1    2    0    0 -0.20253144040E+02  0.12638491285E+02  0.14613180384E+02  0.17347307095E+03  0.17120000000E+03 0.  0.
        998    1    1    2    0    0 -0.80682591804E+01  0.62353705316E+01  0.14443177044E+04  0.14443883162E+04  0.10000000000E+02 0. -1.
</event>
<event>
 5    1  0.1294251E-008  0.3773907E+03  0.7957747E-01  0.3462599E+00
         13   -1    0    0    0    0  0.00000000000E+00  0.00000000000E+00  0.14999999963E+04  0.15000000000E+04  0.10566000000E+00 0. -1.
        994   -1    0    0    0    0 -0.00000000000E+00 -0.00000000000E+00  0.11368683772E-12  0.17120000000E+03  0.17120000000E+03 0.  0.
         13    1    1    2    0    0 -0.46915959449E+02 -0.34575820941E+01  0.16592971956E+03  0.17246954840E+03  0.10566000000E+00 0. -1.
        994    1    1    2    0    0  0.59962679245E+02  0.11191478077E+02  0.18107162705E+02  0.18264194870E+03  0.17120000000E+03 0.  0.
        998    1    1    2    0    0 -0.13046719796E+02 -0.77338959824E+01  0.13159631140E+04  0.13160885029E+04  0.10000000000E+02 0. -1.
</event>
<event>
 5    1  0.1294251E-008  0.3850511E+03  0.7957747E-01  0.3429456E+00
         13   -1    0    0    0    0  0.00000000000E+00  0.00000000000E+00  0.14999999963E+04  0.15000000000E+04  0.10566000000E+00 0.  1.
        994   -1    0    0    0    0 -0.00000000000E+00 -0.00000000000E+00  0.11368683772E-12  0.17120000000E+03  0.17120000000E+03 0.  0.
         13    1    1    2    0    0  0.12449923559E+02  0.37486486970E+01  0.53957412828E+02  0.55501950657E+02  0.10566000000E+00 0.  1.
        994    1    1    2    0    0 -0.34580671070E+01 -0.41869214584E+01  0.17017617462E+01  0.17129455488E+03  0.17120000000E+03 0.  0.
        998    1    1    2    0    0 -0.89918564519E+01  0.43827276142E+00  0.14443408217E+04  0.14444034945E+04  0.10000000000E+02 0.  1.
</event>
<event>
 5    1  0.1294251E-008  0.3758257E+03  0.7957747E-01  0.3469538E+00
         13   -1    0    0    0    0  0.00000000000E+00  0.00000000000E+00  0.14999999963E+04  0.15000000000E+04  0.10566000000E+00 0.  1.
        994   -1    0    0    0    0 -0.00000000000E+00 -0.00000000000E+00  0.11368683772E-12  0.17120000000E+03  0.17120000000E+03 0.  0.
         13    1    1    2    0    0  0.10167932970E+02  0.99141188270E-01  0.53001808646E+01  0.11467334960E+02  0.10566000000E+00 0.  1.
        994    1    1    2    0    0 -0.13227227530E+02 -0.10678356354E+02  0.72355483076E+01  0.17219401848E+03  0.17120000000E+03 0.  0.
        998    1    1    2    0    0  0.30592945596E+01  0.10579215166E+02  0.14874642671E+04  0.14875386466E+04  0.10000000000E+02 0.  1.
</event>
<event>
 5    1  0.1294251E-008  0.3781809E+03  0.7957747E-01  0.3459117E+00
         13   -1    0    0    0    0  0.00000000000E+00  0.00000000000E+00  0.14999999963E+04  0.15000000000E+04  0.10566000000E+00 0.  1.
        994   -1    0    0    0    0 -0.00000000000E+00 -0.00000000000E+00  0.11368683772E-12  0.17120000000E+03  0.17120000000E+03 0.  0.
         13    1    1    2    0    0  0.15915809365E+03 -0.12378934436E+03  0.85621310466E+03  0.87963401043E+03  0.10566000000E+00 0.  1.
        994    1    1    2    0    0 -0.16871042895E+03  0.14136223138E+03  0.19045259635E+03  0.33768050100E+03  0.17120000000E+03 0.  0.
        998    1    1    2    0    0  0.95523353077E+01 -0.17572887025E+02  0.45333429527E+03  0.45388548857E+03  0.10000000000E+02 0. -1.
</event>
<event>
 5    1  0.1294251E-008  0.3825821E+03  0.7957747E-01  0.3439992E+00
         13   -1    0    0    0    0  0.00000000000E+00  0.00000000000E+00  0.14999999963E+04  0.15000000000E+04  0.10566000000E+00 0.  1.
        994   -1    0    0    0    0 -0.00000000000E+00 -0.00000000000E+00  0.11368683772E-12  0.17120000000E+03  0.17120000000E+03 0.  0.
         13    1    1    2    0    0  0.17419680926E+02 -0.37712262963E+01  0.55374614818E+02  0.58172386591E+02  0.10566000000E+00 0.  1.
        994    1    1    2    0    0 -0.11157907888E+02 -0.12025775162E+01  0.32529100467E+01  0.17159827075E+03  0.17120000000E+03 0.  0.
        998    1    1    2    0    0 -0.62617730382E+01  0.49738038125E+01  0.14413724714E+04  0.14414293427E+04  0.10000000000E+02 0.  1.
</event>
<event>
 5    1  0.1294251E-008  0.3799778E+03  0.7957747E-01  0.3451255E+00
         13   -1    0    0    0    0  0.00000000000E+00  0.00000000000E+00  0.14999999963E+04  0.15000000000E+04  0.10566000000E+00 0. -1.
        994   -1    0    0    0    0 -0.00000000000E+00 -0.00000000000E+00  0.11368683772E-12  0.17120000000E+03  0.17120000000E+03 0.  0.
         13    1    1    2    0    0  0.10719220104E+02  0.21227429150E+02  0.67175376792E+02  0.71260422671E+02  0.10566000000E+00 0. -1.
        994    1    1    2    0    0  0.40689646964E+01 -0.17271748662E+02  0.51977376377E+01  0.17219560462E+03  0.17120000000E+03 0.  0.
        998    1    1    2    0    0 -0.14788184801E+02 -0.39556804874E+01  0.14276268818E+04  0.14277439727E+04  0.10000000000E+02 0. -1.
</event>
<event>
 5    1  0.1294251E-008  0.3838059E+03  0.7957747E-01  0.3434752E+00
         13   -1    0    0    0    0  0.00000000000E+00  0.00000000000E+00  0.14999999963E+04  0.15000000000E+04  0.10566000000E+00 0.  1.
        994   -1    0    0    0    0 -0.00000000000E+00 -0.00000000000E+00  0.11368683772E-12  0.17120000000E+03  0.17120000000E+03 0.  0.
         13    1    1    2    0    0  0.45925699487E+01  0.14472120846E+02  0.51679641230E+02  0.53863999686E+02  0.10566000000E+00 0.  1.
        994    1    1    2    0    0 -0.51939051814E+01 -0.72998704105E+01  0.24891784754E+01  0.17145232798E+03  0.17120000000E+03 0.  0.
        998    1    1    2    0    0  0.60133523278E+00 -0.71722504351E+01  0.14458311766E+04  0.14458836723E+04  0.10000000000E+02 0.  1.
</event>
<event>
 5    1  0.1294251E-008  0.3699325E+03  0.7957747E-01  0.3496201E+00
         13   -1    0    0    0    0  0.00000000000E+00  0.00000000000E+00  0.14999999963E+04  0.15000000000E+04  0.10566000000E+00 0.  1.
        994   -1    0    0    0    0 -0.00000000000E+00 -0.00000000000E+00  0.11368683772E-12  0.17120000000E+03  0.17120000000E+03 0.  0.
         13    1    1    2    0    0  0.10249658866E+03  0.98312088066E+02  0.76857230542E+03  0.78158442741E+03  0.10566000000E+00 0.  1.
        994    1    1    2    0    0 -0.82744475792E+02 -0.76876103755E+02  0.54811151971E+02  0.21229763537E+03  0.17120000000E+03 0.  0.
        998    1    1    2    0    0 -0.19752112870E+02 -0.21435984311E+02  0.67661653889E+03  0.67731793722E+03  0.10000000000E+02 0.  1.
</event>
<event>
 5    1  0.1294251E-008  0.3815377E+03  0.7957747E-01  0.3444490E+00
         13   -1    0    0    0    0  0.00000000000E+00  0.00000000000E+00  0.14999999963E+04  0.15000000000E+04  0.10566000000E+00 0. -1.
        994   -1    0    0    0    0 -0.00000000000E+00 -0.00000000000E+00  0.11368683772E-12  0.17120000000E+03  0.17120000000E+03 0.  0.
         13    1    1    2    0    0  0.79888383647E+01  0.28797857367E+02  0.14379264720E+03  0.14686549861E+03  0.10566000000E+00 0. -1.
        994    1    1    2    0    0 -0.10124479162E+02 -0.26935201542E+01  0.37240778345E+01  0.17156068572E+03  0.17120000000E+03 0.  0.
        998    1    1    2    0    0  0.21356407977E+01 -0.26104337212E+02  0.13524832712E+04  0.13527738157E+04  0.10000000000E+02 0. -1.
</event>
<event>
 5    1  0.1294251E-008  0.3848151E+03  0.7957747E-01  0.3430457E+00
         13   -1    0    0    0    0  0.00000000000E+00  0.00000000000E+00  0.14999999963E+04  0.15000000000E+04  0.10566000000E+00 0. -1.
        994   -1    0    0    0    0 -0.00000000000E+00 -0.00000000000E+00  0.11368683772E-12  0.17120000000E+03  0.17120000000E+03 0.  0.
         13    1    1    2    0    0  0.11082509152E+02  0.20352658395E+01  0.37039249170E+02  0.38715390470E+02  0.10566000000E+00 0. -1.
        994    1    1    2    0    0 -0.55051349753E+01  0.80324441304E+00  0.18238407492E+01  0.17130008204E+03  0.17120000000E+03 0.  0.
        998    1    1    2    0    0 -0.55773741764E+01 -0.28385102525E+01  0.14611369064E+04  0.14611845275E+04  0.10000000000E+02 0. -1.
</event>
<event>
 5    1  0.1294251E-008  0.3839755E+03  0.7957747E-01  0.3434029E+00
         13   -1    0    0    0    0  0.00000000000E+00  0.00000000000E+00  0.14999999963E+04  0.15000000000E+04  0.10566000000E+00 0.  1.
        994   -1    0    0    0    0 -0.00000000000E+00 -0.00000000000E+00  0.11368683772E-12  0.17120000000E+03  0.17120000000E+03 0.  0.
         13    1    1    2    0    0 -0.87101757113E+00 -0.11015662616E+02  0.27416029254E+02  0.29559318642E+02  0.10566000000E+00 0.  1.
        994    1    1    2    0    0 -0.36815392728E+01  0.12690261394E+02  0.27159461977E+01  0.17173064033E+03  0.17120000000E+03 0.  0.
        998    1    1    2    0    0  0.45525568440E+01 -0.16745987781E+01  0.14698680208E+04  0.14699100410E+04  0.10000000000E+02 0.  1.
</event>
<event>
 5    1  0.1294251E-008  0.3735285E+03  0.7957747E-01  0.3479830E+00
         13   -1    0    0    0    0  0.00000000000E+00  0.00000000000E+00  0.14999999963E+04  0.15000000000E+04  0.10566000000E+00 0.  1.
        994   -1    0    0    0    0 -0.00000000000E+00 -0.00000000000E+00  0.11368683772E-12  0.17120000000E+03  0.17120000000E+03 0.  0.
         13    1    1    2    0    0 -0.16488059012E+02 -0.30048813363E+02  0.75211142602E+02  0.82652975809E+02  0.10566000000E+00 0.  1.
        994    1    1    2    0    0  0.26620450129E+02  0.14585027619E+02  0.10590347498E+02  0.17419232720E+03  0.17120000000E+03 0.  0.
        998    1    1    2    0    0 -0.10132391117E+02  0.15463785744E+02  0.14141985062E+04  0.14143546970E+04  0.10000000000E+02 0.  1.
</event>
<event>
 5    1  0.1294251E-008  0.3854300E+03  0.7957747E-01  0.3427850E+00
         13   -1    0    0    0    0  0.00000000000E+00  0.00000000000E+00  0.14999999963E+04  0.15000000000E+04  0.10566000000E+00 0.  1.
        994   -1    0    0    0    0 -0.00000000000E+00 -0.00000000000E+00  0.11368683772E-12  0.17120000000E+03  0.17120000000E+03 0.  0.
         13    1    1    2    0    0  0.10531788450E+02 -0.12358094309E+01  0.39307483252E+02  0.40712838228E+02  0.10566000000E+00 0.  1.
        994    1    1    2    0    0 -0.89934322390E+01  0.34102102534E+01  0.17206579991E+01  0.17147860514E+03  0.17120000000E+03 0.  0.
        998    1    1    2    0    0 -0.15383562112E+01 -0.21744008225E+01  0.14589718550E+04  0.14590085566E+04  0.10000000000E+02 0.  1.
</event>
<event>
 5    1  0.1294251E-008  0.3860559E+03  0.7957747E-01  0.3425206E+00
         13   -1    0    0    0    0  0.00000000000E+00  0.00000000000E+00  0.14999999963E+04  0.15000000000E+04  0.10566000000E+00 0.  1.
        994   -1    0    0    0    0 -0.00000000000E+00 -0.00000000000E+00  0.11368683772E-12  0.17120000000E+03  0.17120000000E+03 0.  0.
         13    1    1    2    0    0 -0.32635502547E+01 -0.98465323170E+01  0.47870425393E+02  0.48981565412E+02  0.10566000000E+00 0.  1.
        994    1    1    2    0    0 -0.15473769224E+02  0.17545628520E+02  0.29025751961E+01  0.17281536840E+03  0.17120000000E+03 0.  0.
        998    1    1    2    0    0  0.18737319479E+02 -0.76990962031E+01  0.14492269957E+04  0.14494030662E+04  0.10000000000E+02 0.  1.
</event>
<event>
 5    1  0.1294251E-008  0.3702122E+03  0.7957747E-01  0.3494916E+00
         13   -1    0    0    0    0  0.00000000000E+00  0.00000000000E+00  0.14999999963E+04  0.15000000000E+04  0.10566000000E+00 0. -1.
        994   -1    0    0    0    0 -0.00000000000E+00 -0.00000000000E+00  0.11368683772E-12  0.17120000000E+03  0.17120000000E+03 0.  0.
         13    1    1    2    0    0  0.48453328827E+01 -0.21893360160E+02  0.22131404361E+02  0.31505661283E+02  0.10566000000E+00 0. -1.
        994    1    1    2    0    0 -0.11474541920E+02  0.40415464327E+02  0.15281514367E+02  0.17694077978E+03  0.17120000000E+03 0.  0.
        998    1    1    2    0    0  0.66292090378E+01 -0.18522104167E+02  0.14625870776E+04  0.14627535589E+04  0.10000000000E+02 0. -1.
</event>
<event>
 5    1  0.1294251E-008  0.3825294E+03  0.7957747E-01  0.3440218E+00
         13   -1    0    0    0    0  0.00000000000E+00  0.00000000000E+00  0.14999999963E+04  0.15000000000E+04  0.10566000000E+00 0. -1.
        994   -1    0    0    0    0 -0.00000000000E+00 -0.00000000000E+00  0.11368683772E-12  0.17120000000E+03  0.17120000000E+03 0.  0.
         13    1    1    2    0    0  0.15455790289E+02 -0.18092187873E+02  0.94903372493E+02  0.97841044506E+02  0.10566000000E+00 0. -1.
        994    1    1    2    0    0 -0.17531367007E+02  0.11752505379E+02  0.43399502569E+01  0.17255070379E+03  0.17120000000E+03 0.  0.
        998    1    1    2    0    0  0.20755767188E+01  0.63396824941E+01  0.14007566735E+04  0.14008082517E+04  0.10000000000E+02 0. -1.
</event>
<event>
 5    1  0.1294251E-008  0.3800393E+03  0.7957747E-01  0.3450987E+00
         13   -1    0    0    0    0  0.00000000000E+00  0.00000000000E+00  0.14999999963E+04  0.15000000000E+04  0.10566000000E+00 0. -1.
        994   -1    0    0    0    0 -0.00000000000E+00 -0.00000000000E+00  0.11368683772E-12  0.17120000000E+03  0.17120000000E+03 0.  0.
         13    1    1    2    0    0 -0.14025880252E+02  0.40213049547E+02  0.47588866089E+02  0.63863338547E+02  0.10566000000E+00 0. -1.
        994    1    1    2    0    0  0.11322543185E+02 -0.43229004980E+02  0.23621061502E+02  0.17850585817E+03  0.17120000000E+03 0.  0.
        998    1    1    2    0    0  0.27033370670E+01  0.30159554331E+01  0.14287900687E+04  0.14288308033E+04  0.10000000000E+02 0. -1.
</event>
<event>
 5    1  0.1294251E-008  0.3832655E+03  0.7957747E-01  0.3437062E+00
         13   -1    0    0    0    0  0.00000000000E+00  0.00000000000E+00  0.14999999963E+04  0.15000000000E+04  0.10566000000E+00 0.  1.
        994   -1    0    0    0    0 -0.00000000000E+00 -0.00000000000E+00  0.11368683772E-12  0.17120000000E+03  0.17120000000E+03 0.  0.
         13    1    1    2    0    0  0.72728219080E+00  0.16801429076E+02  0.57835850068E+02  0.60231334665E+02  0.10566000000E+00 0.  1.
        994    1    1    2    0    0 -0.34694177050E+01 -0.44027042888E+01  0.25976533931E+01  0.17131143706E+03  0.17120000000E+03 0.  0.
        998    1    1    2    0    0  0.27421355142E+01 -0.12398724787E+02  0.14395664928E+04  0.14396572283E+04  0.10000000000E+02 0.  1.
</event>
<event>
 5    1  0.1294251E-008  0.3845190E+03  0.7957747E-01  0.3431715E+00
         13   -1    0    0    0    0  0.00000000000E+00  0.00000000000E+00  0.14999999963E+04  0.15000000000E+04  0.10566000000E+00 0.  1.
        994   -1    0    0    0    0 -0.00000000000E+00 -0.00000000000E+00  0.11368683772E-12  0.17120000000E+03  0.17120000000E+03 0.  0.
         13    1    1    2    0    0 -0.16462031370E+02 -0.94945641521E+01  0.88602991732E+02  0.90618135785E+02  0.10566000000E+00 0.  1.
        994    1    1    2    0    0  0.19018671563E+02  0.16059941785E+02  0.39127467985E+01  0.17304444858E+03  0.17120000000E+03 0.  0.
        998    1    1    2    0    0 -0.25566401927E+01 -0.65653776333E+01  0.14074842577E+04  0.14075374156E+04  0.10000000000E+02 0.  1.
</event>
<event>
 5    1  0.1294251E-008  0.3740123E+03  0.7957747E-01  0.3477652E+00
         13   -1    0    0    0    0  0.00000000000E+00  0.00000000000E+00  0.14999999963E+04  0.15000000000E+04  0.10566000000E+00 0. -1.
        994   -1    0    0    0    0 -0.00000000000E+00 -0.00000000000E+00  0.11368683772E-12  0.17120000000E+03  0.17120000000E+03 0.  0.
         13    1    1    2    0    0  0.99058887215E+01 -0.20735897059E+01 -0.22029298889E+01  0.10358111303E+02  0.10566000000E+00 0. -1.
        994    1    1    2    0    0 -0.85756271518E+01 -0.63671852444E+01  0.13480930502E+02  0.17206178517E+03  0.17120000000E+03 0.  0.
        998    1    1    2    0    0 -0.13302615697E+01  0.84407749503E+01  0.14887219957E+04  0.14887801035E+04  0.10000000000E+02 0. -1.
</event>
<event>
 5    1  0.1294251E-008  0.3801105E+03  0.7957747E-01  0.3450678E+00
         13   -1    0    0    0    0  0.00000000000E+00  0.00000000000E+00  0.14999999963E+04  0.15000000000E+04  0.10566000000E+00 0.  1.
        994   -1    0    0    0    0 -0.00000000000E+00 -0.00000000000E+00  0.11368683772E-12  0.17120000000E+03  0.17120000000E+03 0.  0.
         13    1    1    2    0    0  0.78292741602E+01 -0.86776210296E+01  0.14998256507E+02  0.19014665469E+02  0.10566000000E+00 0.  1.
        994    1    1    2    0    0 -0.76094855341E+01  0.45801560895E+01  0.43410385266E+01  0.17148517929E+03  0.17120000000E+03 0.  0.
        998    1    1    2    0    0 -0.21978862613E+00  0.40974649401E+01  0.14806607012E+04  0.14807001552E+04  0.10000000000E+02 0.  1.
</event>
<event>
 5    1  0.1294251E-008  0.3769703E+03  0.7957747E-01  0.3464457E+00
         13   -1    0    0    0    0  0.00000000000E+00  0.00000000000E+00  0.14999999963E+04  0.15000000000E+04  0.10566000000E+00 0.  1.
        994   -1    0    0    0    0 -0.00000000000E+00 -0.00000000000E+00  0.11368683772E-12  0.17120000000E+03  0.17120000000E+03 0.  0.
         13    1    1    2    0    0 -0.83825827114E+01  0.12117951885E+02  0.16556659748E+02  0.22164083488E+02  0.10566000000E+00 0.  1.
        994    1    1    2    0    0  0.40561231558E+01 -0.13855223613E+02  0.63744644072E+01  0.17192583620E+03  0.17120000000E+03 0.  0.
        998    1    1    2    0    0  0.43264595557E+01  0.17372717280E+01  0.14770688721E+04  0.14771100803E+04  0.10000000000E+02 0.  1.
</event>
<event>
 5    1  0.1294251E-008  0.3826315E+03  0.7957747E-01  0.3439780E+00
         13   -1    0    0    0    0  0.00000000000E+00  0.00000000000E+00  0.14999999963E+04  0.15000000000E+04  0.10566000000E+00 0. -1.
        994   -1    0    0    0    0 -0.00000000000E+00 -0.00000000000E+00  0.11368683772E-12  0.17120000000E+03  0.17120000000E+03 0.  0.
         13    1    1    2    0    0  0.11125806225E+02 -0.16708702036E+01  0.21108975419E+02  0.23920187681E+02  0.10566000000E+00 0. -1.
        994    1    1    2    0    0 -0.13303529192E+02 -0.26783764440E-01  0.33974005632E+01  0.17174972180E+03  0.17120000000E+03 0.  0.
        998    1    1    2    0    0  0.21777229670E+01  0.16976539680E+01  0.14754936203E+04  0.14755300905E+04  0.10000000000E+02 0. -1.
</event>
<event>
 5    1  0.1294251E-008  0.3785494E+03  0.7957747E-01  0.3457499E+00
         13   -1    0    0    0    0  0.00000000000E+00  0.00000000000E+00  0.14999999963E+04  0.15000000000E+04  0.10566000000E+00 0.  1.
        994   -1    0    0    0    0 -0.00000000000E+00 -0.00000000000E+00  0.11368683772E-12  0.17120000000E+03  0.17120000000E+03 0.  0.
         13    1    1    2    0    0 -0.52253023475E+02  0.56164509213E+01  0.26156043761E+03  0.26678792452E+03  0.10566000000E+00 0.  1.
        994    1    1    2    0    0  0.38581233385E+02 -0.11713128255E+02  0.10347444004E+02  0.17618802042E+03  0.17120000000E+03 0.  0.
        998    1    1    2    0    0  0.13671790089E+02  0.60966773338E+01  0.12280921147E+04  0.12282240551E+04  0.10000000000E+02 0.  1.
</event>
<event>
 5    1  0.1294251E-008  0.3757104E+03  0.7957747E-01  0.3470052E+00
         13   -1    0    0    0    0  0.00000000000E+00  0.00000000000E+00  0.14999999963E+04  0.15000000000E+04  0.10566000000E+00 0. -1.
        994   -1    0    0    0    0 -0.00000000000E+00 -0.00000000000E+00  0.11368683772E-12  0.17120000000E+03  0.17120000000E+03 0.  0.
         13    1    1    2    0    0 -0.36350260255E+01  0.30025387178E+02  0.71330785959E+02  0.77477928980E+02  0.10566000000E+00 0. -1.
        994    1    1    2    0    0  0.30424004854E+02 -0.11018342620E+02  0.98731222698E+01  0.17451057988E+03  0.17120000000E+03 0.  0.
        998    1    1    2    0    0 -0.26788978829E+02 -0.19007044559E+02  0.14187960880E+04  0.14192114911E+04  0.10000000000E+02 0. -1.
</event>
<event>
 5    1  0.1294251E-008  0.2983238E+03  0.7957747E-01  0.3908059E+00
         13   -1    0    0    0    0  0.00000000000E+00  0.00000000000E+00  0.14999999963E+04  0.15000000000E+04  0.10566000000E+00 0. -1.
        994   -1    0    0    0    0 -0.00000000000E+00 -0.00000000000E+00  0.11368683772E-12  0.17120000000E+03  0.17120000000E+03 0.  0.
         13    1    1    2    0    0  0.12804414856E+03  0.14293912156E+03  0.59303671582E+03  0.62331328714E+03  0.10566000000E+00 0. -1.
        994    1    1    2    0    0 -0.14856668185E+03 -0.14233966933E+03  0.18455929025E+03  0.32512184184E+03  0.17120000000E+03 0.  0.
        998    1    1    2    0    0  0.20522533291E+02 -0.59945223382E+00  0.72240399021E+03  0.72276487102E+03  0.10000000000E+02 0. -1.
</event>
<event>
 5    1  0.1294251E-008  0.3777963E+03  0.7957747E-01  0.3460811E+00
         13   -1    0    0    0    0  0.00000000000E+00  0.00000000000E+00  0.14999999963E+04  0.15000000000E+04  0.10566000000E+00 0. -1.
        994   -1    0    0    0    0 -0.00000000000E+00 -0.00000000000E+00  0.11368683772E-12  0.17120000000E+03  0.17120000000E+03 0.  0.
         13    1    1    2    0    0 -0.11159024611E+02 -0.12326203898E+02  0.23805735019E+02  0.29037618990E+02  0.10566000000E+00 0. -1.
        994    1    1    2    0    0  0.10080849514E+02  0.13441520361E+02  0.62009316813E+01  0.17213421958E+03  0.17120000000E+03 0.  0.
        998    1    1    2    0    0  0.10781750968E+01 -0.11153164633E+01  0.14699933296E+04  0.14700281614E+04  0.10000000000E+02 0. -1.
</event>
<event>
 5    1  0.1294251E-008  0.3772319E+03  0.7957747E-01  0.3463301E+00
         13   -1    0    0    0    0  0.00000000000E+00  0.00000000000E+00  0.14999999963E+04  0.15000000000E+04  0.10566000000E+00 0.  1.
        994   -1    0    0    0    0 -0.00000000000E+00 -0.00000000000E+00  0.11368683772E-12  0.17120000000E+03  0.17120000000E+03 0.  0.
         13    1    1    2    0    0 -0.49293655382E+02 -0.55978989226E+02  0.24127224764E+03  0.25253875018E+03  0.10566000000E+00 0.  1.
        994    1    1    2    0    0 -0.18467035118E+01 -0.12354498168E+02  0.15374990930E+02  0.17234231716E+03  0.17120000000E+03 0.  0.
        998    1    1    2    0    0  0.51140358894E+02  0.68333487394E+02  0.12433527577E+04  0.12463189327E+04  0.10000000000E+02 0.  1.
</event>
<event>
 5    1  0.1294251E-008  0.3847096E+03  0.7957747E-01  0.3430905E+00
         13   -1    0    0    0    0  0.00000000000E+00  0.00000000000E+00  0.14999999963E+04  0.15000000000E+04  0.10566000000E+00 0. -1.
        994   -1    0    0    0    0 -0.00000000000E+00 -0.00000000000E+00  0.11368683772E-12  0.17120000000E+03  0.17120000000E+03 0.  0.
         13    1    1    2    0    0  0.10843849733E+02 -0.11002704759E+02  0.69904785542E+02  0.71591471523E+02  0.10566000000E+00 0. -1.
        994    1    1    2    0    0  0.18413348602E+01  0.71059018498E+01  0.19517577473E+01  0.17136841516E+03  0.17120000000E+03 0.  0.
        998    1    1    2    0    0 -0.12685184593E+02  0.38968029095E+01  0.14281434530E+04  0.14282401133E+04  0.10000000000E+02 0. -1.
</event>
<event>
 5    1  0.1294251E-008  0.3708915E+03  0.7957747E-01  0.3491804E+00
         13   -1    0    0    0    0  0.00000000000E+00  0.00000000000E+00  0.14999999963E+04  0.15000000000E+04  0.10566000000E+00 0. -1.
        994   -1    0    0    0    0 -0.00000000000E+00 -0.00000000000E+00  0.11368683772E-12  0.17120000000E+03  0.17120000000E+03 0.  0.
         13    1    1    2    0    0  0.64415630195E+02 -0.34342944581E+01  0.19919544076E+03  0.20938004340E+03  0.10566000000E+00 0. -1.
        994    1    1    2    0    0 -0.70323214047E+02 -0.28487933065E+02  0.28917977111E+02  0.18947983049E+03  0.17120000000E+03 0.  0.
        998    1    1    2    0    0  0.59075838515E+01  0.31922227523E+02  0.12718865784E+04  0.12723401261E+04  0.10000000000E+02 0. -1.
</event>
<event>
 5    1  0.1294251E-008  0.3824731E+03  0.7957747E-01  0.3440460E+00
         13   -1    0    0    0    0  0.00000000000E+00  0.00000000000E+00  0.14999999963E+04  0.15000000000E+04  0.10566000000E+00 0.  1.
        994   -1    0    0    0    0 -0.00000000000E+00 -0.00000000000E+00  0.11368683772E-12  0.17120000000E+03  0.17120000000E+03 0.  0.
         13    1    1    2    0    0  0.19765446433E+02 -0.21931934913E+01  0.62927494157E+02  0.65995179031E+02  0.10566000000E+00 0.  1.
        994    1    1    2    0    0 -0.25162805024E+02  0.25562117267E+02  0.71677790691E+01  0.17506400445E+03  0.17120000000E+03 0.  0.
        998    1    1    2    0    0  0.53973585908E+01 -0.23368923776E+02  0.14299047231E+04  0.14301408165E+04  0.10000000000E+02 0.  1.
</event>
<event>
 5    1  0.1294251E-008  0.3846887E+03  0.7957747E-01  0.3430994E+00
         13   -1    0    0    0    0  0.00000000000E+00  0.00000000000E+00  0.14999999963E+04  0.15000000000E+04  0.10566000000E+00 0. -1.
        994   -1    0    0    0    0 -0.00000000000E+00 -0.00000000000E+00  0.11368683772E-12  0.17120000000E+03  0.17120000000E+03 0.  0.
         13    1    1    2    0    0  0.51421620892E+01  0.14473795491E+02  0.86946300265E+02  0.88292711368E+02  0.10566000000E+00 0. -1.
        994    1    1    2    0    0  0.68368768634E+01  0.26495292474E+02  0.42534999873E+01  0.17342512987E+03  0.17120000000E+03 0.  0.
        998    1    1    2    0    0 -0.11979038953E+02 -0.40969087966E+02  0.14088001960E+04  0.14094821588E+04  0.10000000000E+02 0. -1.
</event>
<event>
 5    1  0.1294251E-008  0.3819973E+03  0.7957747E-01  0.3442508E+00
         13   -1    0    0    0    0  0.00000000000E+00  0.00000000000E+00  0.14999999963E+04  0.15000000000E+04  0.10566000000E+00 0.  1.
        994   -1    0    0    0    0 -0.00000000000E+00 -0.00000000000E+00  0.11368683772E-12  0.17120000000E+03  0.17120000000E+03 0.  0.
         13    1    1    2    0    0 -0.29427385166E+02 -0.23260010968E+03  0.11149931225E+04  0.11393763453E+04  0.10566000000E+00 0.  1.
        994    1    1    2    0    0  0.34208934081E+02  0.23189365707E+03  0.21441694777E+03  0.36087253546E+03  0.17120000000E+03 0.  0.
        998    1    1    2    0    0 -0.47815489144E+01  0.70645260909E+00  0.17058992606E+03  0.17095111921E+03  0.10000000000E+02 0.  0.
</event>
<event>
 5    1  0.1294251E-008  0.3707968E+03  0.7957747E-01  0.3492237E+00
         13   -1    0    0    0    0  0.00000000000E+00  0.00000000000E+00  0.14999999963E+04  0.15000000000E+04  0.10566000000E+00 0. -1.
        994   -1    0    0    0    0 -0.00000000000E+00 -0.00000000000E+00  0.11368683772E-12  0.17120000000E+03  0.17120000000E+03 0.  0.
         13    1    1    2    0    0  0.11940359596E+03 -0.62753268070E+02  0.59837243150E+03  0.61338794358E+03  0.10566000000E+00 0. -1.
        994    1    1    2    0    0 -0.11835441564E+03  0.59221873754E+02  0.71908733343E+02  0.22802478804E+03  0.17120000000E+03 0.  0.
        998    1    1    2    0    0 -0.10491803285E+01  0.35313943164E+01  0.82971883144E+03  0.82978726838E+03  0.10000000000E+02 0.  0.
</event>
<event>
 5    1  0.1417852E-008  0.3856264E+03  0.7957747E-01  0.3427020E+00
         13   -1    0    0    0    0  0.00000000000E+00  0.00000000000E+00  0.14999999963E+04  0.15000000000E+04  0.10566000000E+00 0. -1.
        994   -1    0    0    0    0 -0.00000000000E+00 -0.00000000000E+00  0.11368683772E-12  0.17120000000E+03  0.17120000000E+03 0.  0.
         13    1    1    2    0    0  0.83374890095E+01 -0.57492046626E+01  0.38124578306E+02  0.39446948073E+02  0.10566000000E+00 0. -1.
        994    1    1    2    0    0 -0.97394041351E+01  0.57153958159E+01  0.17381169551E+01  0.17158083457E+03  0.17120000000E+03 0.  0.
        998    1    1    2    0    0  0.14019151255E+01  0.33808846705E-01  0.14601373010E+04  0.14601722174E+04  0.10000000000E+02 0. -1.
</event>
<event>
 5    1  0.1294251E-008  0.3836586E+03  0.7957747E-01  0.3435381E+00
         13   -1    0    0    0    0  0.00000000000E+00  0.00000000000E+00  0.14999999963E+04  0.15000000000E+04  0.10566000000E+00 0.  1.
        994   -1    0    0    0    0 -0.00000000000E+00 -0.00000000000E+00  0.11368683772E-12  0.17120000000E+03  0.17120000000E+03 0.  0.
         13    1    1    2    0    0  0.79222113674E+01  0.15399927922E+02  0.55504932940E+02  0.58144027704E+02  0.10566000000E+00 0.  1.
        994    1    1    2    0    0  0.10281236936E+02 -0.53845214406E+02  0.12287177448E+02  0.18018164634E+03  0.17120000000E+03 0.  0.
        998    1    1    2    0    0 -0.18203448303E+02  0.38445286485E+02  0.14322078859E+04  0.14328743260E+04  0.10000000000E+02 0.  1.
</event>
<event>
 5    1  0.1294251E-008  0.3761948E+03  0.7957747E-01  0.3467897E+00
         13   -1    0    0    0    0  0.00000000000E+00  0.00000000000E+00  0.14999999963E+04  0.15000000000E+04  0.10566000000E+00 0. -1.
        994   -1    0    0    0    0 -0.00000000000E+00 -0.00000000000E+00  0.11368683772E-12  0.17120000000E+03  0.17120000000E+03 0.  0.
         13    1    1    2    0    0 -0.14959733927E+02 -0.48225230949E+02  0.26820424867E+03  0.27291573188E+03  0.10566000000E+00 0. -1.
        994    1    1    2    0    0 -0.15469219320E+01 -0.37485407661E+01  0.61221579740E+01  0.17135741987E+03  0.17120000000E+03 0.  0.
        998    1    1    2    0    0  0.16506655859E+02  0.51973771715E+02  0.12256735896E+04  0.12269268483E+04  0.10000000000E+02 0. -1.
</event>
<event>
 5    1  0.1294251E-008  0.3697393E+03  0.7957747E-01  0.3497090E+00
         13   -1    0    0    0    0  0.00000000000E+00  0.00000000000E+00  0.14999999963E+04  0.15000000000E+04  0.10566000000E+00 0.  1.
        994   -1    0    0    0    0 -0.00000000000E+00 -0.00000000000E+00  0.11368683772E-12  0.17120000000E+03  0.17120000000E+03 0.  0.
         13    1    1    2    0    0  0.51079727303E+02 -0.81685469908E+02  0.42338190264E+03  0.43420490691E+03  0.10566000000E+00 0.  1.
        994    1    1    2    0    0  0.47279944832E+01  0.72884913827E+02  0.29673489097E+02  0.18847949637E+03  0.17120000000E+03 0.  0.
        998    1    1    2    0    0 -0.55807721786E+02  0.88005560807E+01  0.10469446045E+04  0.10485155967E+04  0.10000000000E+02 0.  1.
</event>
<event>
 5    1  0.1294251E-008  0.3754870E+03  0.7957747E-01  0.3471048E+00
         13   -1    0    0    0    0  0.00000000000E+00  0.00000000000E+00  0.14999999963E+04  0.15000000000E+04  0.10566000000E+00 0.  1.
        994   -1    0    0    0    0 -0.00000000000E+00 -0.00000000000E+00  0.11368683772E-12  0.17120000000E+03  0.17120000000E+03 0.  0.
         13    1    1    2    0    0  0.17768935251E+02  0.15660021357E+02  0.40369015541E+02  0.46804272333E+02  0.10566000000E+00 0.  1.
        994    1    1    2    0    0 -0.20942471288E+02 -0.89463940879E+01  0.81908517458E+01  0.17290215477E+03  0.17120000000E+03 0.  0.
        998    1    1    2    0    0  0.31735360370E+01 -0.67136272686E+01  0.14514401290E+04  0.14514935729E+04  0.10000000000E+02 0.  1.
</event>
<event>
 5    1  0.1294251E-008  0.3847907E+03  0.7957747E-01  0.3430560E+00
         13   -1    0    0    0    0  0.00000000000E+00  0.00000000000E+00  0.14999999963E+04  0.15000000000E+04  0.10566000000E+00 0. -1.
        994   -1    0    0    0    0 -0.00000000000E+00 -0.00000000000E+00  0.11368683772E-12  0.17120000000E+03  0.17120000000E+03 0.  0.
         13    1    1    2    0    0 -0.25836656805E+01  0.13920201088E+02  0.58180641539E+02  0.59878590001E+02  0.10566000000E+00 0. -1.
        994    1    1    2    0    0  0.51522152472E+01 -0.70870052583E+01  0.19867558613E+01  0.17143558022E+03  0.17120000000E+03 0.  0.
        998    1    1    2    0    0 -0.25685495667E+01 -0.68331958292E+01  0.14398325989E+04  0.14398858298E+04  0.10000000000E+02 0. -1.
</event>
<event>
 5    1  0.1294251E-008  0.3816802E+03  0.7957747E-01  0.3443875E+00
         13   -1    0    0    0    0  0.00000000000E+00  0.00000000000E+00  0.14999999963E+04  0.15000000000E+04  0.10566000000E+00 0.  1.
        994   -1    0    0    0    0 -0.00000000000E+00 -0.00000000000E+00  0.11368683772E-12  0.17120000000E+03  0.17120000000E+03 0.  0.
         13    1    1    2    0    0 -0.12039038451E+03  0.50401406393E+01  0.37779693085E+03  0.39654732356E+03  0.10566000000E+00 0.  1.
        994    1    1    2    0    0  0.86865233200E+02 -0.34236963614E+02  0.49776195172E+02  0.20125816262E+03  0.17120000000E+03 0.  0.
        998    1    1    2    0    0  0.33525151310E+02  0.29196822975E+02  0.10724268703E+04  0.10733945138E+04  0.10000000000E+02 0. -1.
</event>
<event>
 5    1  0.1294251E-008  0.3738553E+03  0.7957747E-01  0.3478358E+00
         13   -1    0    0    0    0  0.00000000000E+00  0.00000000000E+00  0.14999999963E+04  0.15000000000E+04  0.10566000000E+00 0.  1.
        994   -1    0    0    0    0 -0.00000000000E+00 -0.00000000000E+00  0.11368683772E-12  0.17120000000E+03  0.17120000000E+03 0.  0.
         13    1    1    2    0    0 -0.10810606828E+03  0.19794226279E+02  0.44951765282E+03  0.46275789000E+03  0.10566000000E+00 0.  1.
        994    1    1    2    0    0  0.73489023535E+02  0.19150827887E+02  0.33723696191E+02  0.19030007481E+03  0.17120000000E+03 0.  0.
        998    1    1    2    0    0  0.34617044742E+02 -0.38945054166E+02  0.10167586473E+04  0.10181420352E+04  0.10000000000E+02 0.  1.
</event>
<event>
 5    1  0.1294251E-008  0.3819177E+03  0.7957747E-01  0.3442851E+00
         13   -1    0    0    0    0  0.00000000000E+00  0.00000000000E+00  0.14999999963E+04  0.15000000000E+04  0.10566000000E+00 0. -1.
        994   -1    0    0    0    0 -0.00000000000E+00 -0.00000000000E+00  0.11368683772E-12  0.17120000000E+03  0.17120000000E+03 0.  0.
         13    1    1    2    0    0  0.37402080252E+01 -0.28430592056E+02  0.12120487214E+03  0.12455087280E+03  0.10566000000E+00 0. -1.
        994    1    1    2    0    0 -0.47318597182E+01  0.26408900113E+02  0.55630524102E+01  0.17337879932E+03  0.17120000000E+03 0.  0.
        998    1    1    2    0    0  0.99165169294E+00  0.20216919432E+01  0.13732320717E+04  0.13732703279E+04  0.10000000000E+02 0.  0.
</event>
<event>
 5    1  0.1294251E-008  0.3832223E+03  0.7957747E-01  0.3437247E+00
         13   -1    0    0    0    0  0.00000000000E+00  0.00000000000E+00  0.14999999963E+04  0.15000000000E+04  0.10566000000E+00 0.  1.
        994   -1    0    0    0    0 -0.00000000000E+00 -0.00000000000E+00  0.11368683772E-12  0.17120000000E+03  0.17120000000E+03 0.  0.
         13    1    1    2    0    0 -0.92788836640E+01  0.27047896740E+02  0.16212718044E+03  0.16462964558E+03  0.10566000000E+00 0.  1.
        994    1    1    2    0    0  0.13365351461E+02 -0.13280641102E+02  0.36904571734E+01  0.17227323507E+03  0.17120000000E+03 0.  0.
        998    1    1    2    0    0 -0.40864677968E+01 -0.13767255638E+02  0.13341823587E+04  0.13342971194E+04  0.10000000000E+02 0.  1.
</event>
<event>
 5    1  0.1294251E-008  0.3834867E+03  0.7957747E-01  0.3436116E+00
         13   -1    0    0    0    0  0.00000000000E+00  0.00000000000E+00  0.14999999963E+04  0.15000000000E+04  0.10566000000E+00 0. -1.
        994   -1    0    0    0    0 -0.00000000000E+00 -0.00000000000E+00  0.11368683772E-12  0.17120000000E+03  0.17120000000E+03 0.  0.
         13    1    1    2    0    0 -0.15292620191E+02  0.18709556507E+02  0.12040705340E+03  0.12280790451E+03  0.10566000000E+00 0. -1.
        994    1    1    2    0    0  0.65621744483E+01 -0.15960428126E+02  0.33681133028E+01  0.17210049851E+03  0.17120000000E+03 0.  0.
        998    1    1    2    0    0  0.87304457426E+01 -0.27491283806E+01  0.13762248296E+04  0.13762915970E+04  0.10000000000E+02 0. -1.
</event>
<event>
 5    1  0.1294251E-008  0.3814540E+03  0.7957747E-01  0.3444852E+00
         13   -1    0    0    0    0  0.00000000000E+00  0.00000000000E+00  0.14999999963E+04  0.15000000000E+04  0.10566000000E+00 0. -1.
        994   -1    0    0    0    0 -0.00000000000E+00 -0.00000000000E+00  0.11368683772E-12  0.17120000000E+03  0.17120000000E+03 0.  0.
         13    1    1    2    0    0  0.74640799065E+01 -0.13617454285E+02  0.31946339965E+02  0.35520801669E+02  0.10566000000E+00 0. -1.
        994    1    1    2    0    0 -0.65290125678E+01  0.31253729413E+02  0.67999416369E+01  0.17428454554E+03  0.17120000000E+03 0.  0.
        998    1    1    2    0    0 -0.93506733874E+00 -0.17636275128E+02  0.14612537147E+04  0.14613946528E+04  0.10000000000E+02 0. -1.
</event>
<event>
 5    1  0.1294251E-008  0.3747854E+03  0.7957747E-01  0.3474183E+00
         13   -1    0    0    0    0  0.00000000000E+00  0.00000000000E+00  0.14999999963E+04  0.15000000000E+04  0.10566000000E+00 0. -1.
        994   -1    0    0    0    0 -0.00000000000E+00 -0.00000000000E+00  0.11368683772E-12  0.17120000000E+03  0.17120000000E+03 0.  0.
         13    1    1    2    0    0 -0.76351510075E+01  0.20933355010E+02  0.33414295471E+02  0.40162509742E+02  0.10566000000E+00 0. -1.
        994    1    1    2    0    0 -0.11485623327E+01 -0.21016301951E+02  0.82973722711E+01  0.17268842037E+03  0.17120000000E+03 0.  0.
        998    1    1    2    0    0  0.87837133402E+01  0.82946940892E-01  0.14582883285E+04  0.14583490699E+04  0.10000000000E+02 0. -1.
</event>
<event>
 5    1  0.1294251E-008  0.3837782E+03  0.7957747E-01  0.3434871E+00
         13   -1    0    0    0    0  0.00000000000E+00  0.00000000000E+00  0.14999999963E+04  0.15000000000E+04  0.10566000000E+00 0.  1.
        994   -1    0    0    0    0 -0.00000000000E+00 -0.00000000000E+00  0.11368683772E-12  0.17120000000E+03  0.17120000000E+03 0.  0.
         13    1    1    2    0    0 -0.15891436977E+02  0.44943771754E+01  0.56116196163E+02  0.58495947135E+02  0.10566000000E+00 0.  1.
        994    1    1    2    0    0  0.23128352918E+02 -0.11634593950E+02  0.44542064990E+01  0.17320382340E+03  0.17120000000E+03 0.  0.
        998    1    1    2    0    0 -0.72369159411E+01  0.71402167745E+01  0.14394295936E+04  0.14395002295E+04  0.10000000000E+02 0.  1.
</event>
<event>
 5    1  0.1294251E-008  0.3857861E+03  0.7957747E-01  0.3426345E+00
         13   -1    0    0    0    0  0.00000000000E+00  0.00000000000E+00  0.14999999963E+04  0.15000000000E+04  0.10566000000E+00 0. -1.
        994   -1    0    0    0    0 -0.00000000000E+00 -0.00000000000E+00  0.11368683772E-12  0.17120000000E+03  0.17120000000E+03 0.  0.
         13    1    1    2    0    0  0.37522002096E+01  0.94664429638E+01  0.42722044074E+02  0.43918979528E+02  0.10566000000E+00 0. -1.
        994    1    1    2    0    0 -0.28737013059E+01 -0.36593014085E+01  0.13113533322E+01  0.17126823492E+03  0.17120000000E+03 0.  0.
        998    1    1    2    0    0 -0.87849890370E+00 -0.58071415553E+01  0.14559665989E+04  0.14560127855E+04  0.10000000000E+02 0. -1.
</event>
<event>
 5    1  0.1294251E-008  0.3721167E+03  0.7957747E-01  0.3486219E+00
         13   -1    0    0    0    0  0.00000000000E+00  0.00000000000E+00  0.14999999963E+04  0.15000000000E+04  0.10566000000E+00 0.  1.
        994   -1    0    0    0    0 -0.00000000000E+00 -0.00000000000E+00  0.11368683772E-12  0.17120000000E+03  0.17120000000E+03 0.  0.
         13    1    1    2    0    0  0.40176073330E+02  0.55359053824E+02  0.36114205330E+03  0.36756269606E+03  0.10566000000E+00 0.  1.
        994    1    1    2    0    0 -0.14125478189E+02 -0.15895124279E+01  0.88607478442E+01  0.17201746579E+03  0.17120000000E+03 0.  0.
        998    1    1    2    0    0 -0.26050595142E+02 -0.53769541396E+02  0.11299971951E+04  0.11316198381E+04  0.10000000000E+02 0.  1.
</event>
<event>
 5    1  0.1294251E-008  0.3772770E+03  0.7957747E-01  0.3463101E+00
         13   -1    0    0    0    0  0.00000000000E+00  0.00000000000E+00  0.14999999963E+04  0.15000000000E+04  0.10566000000E+00 0. -1.
        994   -1    0    0    0    0 -0.00000000000E+00 -0.00000000000E+00  0.11368683772E-12  0.17120000000E+03  0.17120000000E+03 0.  0.
         13    1    1    2    0    0  0.58995329741E+02 -0.31199295768E+02  0.35833699119E+03  0.36449863567E+03  0.10566000000E+00 0. -1.
        994    1    1    2    0    0 -0.40120992322E+02  0.33094077385E+02  0.14693489061E+02  0.17952785467E+03  0.17120000000E+03 0.  0.
        998    1    1    2    0    0 -0.18874337419E+02 -0.18947816171E+01  0.11269695160E+04  0.11271735097E+04  0.10000000000E+02 0.  1.
</event>
<event>
 5    1  0.1294251E-008  0.3858937E+03  0.7957747E-01  0.3425891E+00
         13   -1    0    0    0    0  0.00000000000E+00  0.00000000000E+00  0.14999999963E+04  0.15000000000E+04  0.10566000000E+00 0.  1.
        994   -1    0    0    0    0 -0.00000000000E+00 -0.00000000000E+00  0.11368683772E-12  0.17120000000E+03  0.17120000000E+03 0.  0.
         13    1    1    2    0    0 -0.53947480151E+01  0.11006632242E+02  0.61660920315E+02  0.62867555365E+02  0.10566000000E+00 0.  1.
        994    1    1    2    0    0  0.57314612198E+01 -0.11921032460E+02  0.17610193062E+01  0.17171925300E+03  0.17120000000E+03 0.  0.
        998    1    1    2    0    0 -0.33671320471E+00  0.91440021767E+00  0.14365780567E+04  0.14366131916E+04  0.10000000000E+02 0.  1.
</event>
<event>
 5    1  0.1294251E-008  0.3788172E+03  0.7957747E-01  0.3456325E+00
         13   -1    0    0    0    0  0.00000000000E+00  0.00000000000E+00  0.14999999963E+04  0.15000000000E+04  0.10566000000E+00 0. -1.
        994   -1    0    0    0    0 -0.00000000000E+00 -0.00000000000E+00  0.11368683772E-12  0.17120000000E+03  0.17120000000E+03 0.  0.
         13    1    1    2    0    0  0.50922838659E+01  0.18961529868E+02  0.37941492217E+02  0.42720474782E+02  0.10566000000E+00 0. -1.
        994    1    1    2    0    0 -0.19863340421E+02 -0.16099990835E+02  0.69285489575E+01  0.17323742895E+03  0.17120000000E+03 0.  0.
        998    1    1    2    0    0  0.14771056556E+02 -0.28615390335E+01  0.14551299551E+04  0.14552420963E+04  0.10000000000E+02 0. -1.
</event>
<event>
 5    1  0.1294251E-008  0.3151381E+03  0.7957747E-01  0.3793542E+00
         13   -1    0    0    0    0  0.00000000000E+00  0.00000000000E+00  0.14999999963E+04  0.15000000000E+04  0.10566000000E+00 0. -1.
        994   -1    0    0    0    0 -0.00000000000E+00 -0.00000000000E+00  0.11368683772E-12  0.17120000000E+03  0.17120000000E+03 0.  0.
         13    1    1    2    0    0  0.39921746185E+02  0.22725185771E+03  0.22853781591E+03  0.32475636579E+03  0.10566000000E+00 0. -1.
        994    1    1    2    0    0 -0.17042412698E+03 -0.18460157716E+03  0.92268874892E+03  0.97148653759E+03  0.17120000000E+03 0.  0.
        998    1    1    2    0    0  0.13050238079E+03 -0.42650280555E+02  0.34877343145E+03  0.37495709662E+03  0.10000000000E+02 0.  1.
</event>
<event>
 5    1  0.1294251E-008  0.3703586E+03  0.7957747E-01  0.3494244E+00
         13   -1    0    0    0    0  0.00000000000E+00  0.00000000000E+00  0.14999999963E+04  0.15000000000E+04  0.10566000000E+00 0.  1.
        994   -1    0    0    0    0 -0.00000000000E+00 -0.00000000000E+00  0.11368683772E-12  0.17120000000E+03  0.17120000000E+03 0.  0.
         13    1    1    2    0    0  0.25806155874E+02 -0.12911403791E+02  0.42102265919E+02  0.51041884648E+02  0.10566000000E+00 0.  1.
        994    1    1    2    0    0 -0.17466799513E+02  0.11826457087E+02  0.10619815851E+02  0.17282122167E+03  0.17120000000E+03 0.  0.
        998    1    1    2    0    0 -0.83393563618E+01  0.10849467036E+01  0.14472779145E+04  0.14473368937E+04  0.10000000000E+02 0.  1.
</event>
<event>
 5    1  0.1294251E-008  0.3923951E+03  0.7957747E-01  0.3398902E+00
         13   -1    0    0    0    0  0.00000000000E+00  0.00000000000E+00  0.14999999963E+04  0.15000000000E+04  0.10566000000E+00 0. -1.
        994   -1    0    0    0    0 -0.00000000000E+00 -0.00000000000E+00  0.11368683772E-12  0.17120000000E+03  0.17120000000E+03 0.  0.
         13    1    1    2    0    0 -0.43993089724E+02 -0.55251245385E+01  0.31618602218E+02  0.54457929770E+02  0.10566000000E+00 0. -1.
        994    1    1    2    0    0  0.56033525968E+02 -0.77082616996E+01  0.35560715264E+02  0.18377480187E+03  0.17120000000E+03 0.  0.
        998    1    1    2    0    0 -0.12040436244E+02  0.13233386238E+02  0.14328206788E+04  0.14329672684E+04  0.10000000000E+02 0. -1.
</event>
<event>
 5    1  0.1294251E-008  0.3846741E+03  0.7957747E-01  0.3431055E+00
         13   -1    0    0    0    0  0.00000000000E+00  0.00000000000E+00  0.14999999963E+04  0.15000000000E+04  0.10566000000E+00 0. -1.
        994   -1    0    0    0    0 -0.00000000000E+00 -0.00000000000E+00  0.11368683772E-12  0.17120000000E+03  0.17120000000E+03 0.  0.
         13    1    1    2    0    0 -0.11456927808E+02  0.13679649518E+02  0.98354825212E+02  0.99960376211E+02  0.10566000000E+00 0. -1.
        994    1    1    2    0    0 -0.18084230470E+02 -0.13368289643E+02  0.34587705579E+01  0.17270539555E+03  0.17120000000E+03 0.  0.
        998    1    1    2    0    0  0.29541158277E+02 -0.31135987544E+00  0.13981864005E+04  0.13985342282E+04  0.10000000000E+02 0. -1.
</event>
<event>
 5    1  0.1294251E-008  0.3751864E+03  0.7957747E-01  0.3472390E+00
         13   -1    0    0    0    0  0.00000000000E+00  0.00000000000E+00  0.14999999963E+04  0.15000000000E+04  0.10566000000E+00 0. -1.
        994   -1    0    0    0    0 -0.00000000000E+00 -0.00000000000E+00  0.11368683772E-12  0.17120000000E+03  0.17120000000E+03 0.  0.
         13    1    1    2    0    0 -0.16485178869E+02 -0.47329515481E+02  0.24674426377E+03  0.25178281718E+03  0.10566000000E+00 0. -1.
        994    1    1    2    0    0 -0.50452563453E+01 -0.78914814120E+01  0.68811350070E+01  0.17159405616E+03  0.17120000000E+03 0.  0.
        998    1    1    2    0    0  0.21530435214E+02  0.55220996893E+02  0.12463745975E+04  0.12478231267E+04  0.10000000000E+02 0. -1.
</event>
<event>
 5    1  0.1294251E-008  0.3816997E+03  0.7957747E-01  0.3443791E+00
         13   -1    0    0    0    0  0.00000000000E+00  0.00000000000E+00  0.14999999963E+04  0.15000000000E+04  0.10566000000E+00 0. -1.
        994   -1    0    0    0    0 -0.00000000000E+00 -0.00000000000E+00  0.11368683772E-12  0.17120000000E+03  0.17120000000E+03 0.  0.
         13    1    1    2    0    0  0.89778031107E+01  0.15685745266E+02  0.49001103979E+02  0.52227989704E+02  0.10566000000E+00 0. -1.
        994    1    1    2    0    0 -0.68805470169E+01 -0.79248345162E+01  0.36438378476E+01  0.17156008418E+03  0.17120000000E+03 0.  0.
        998    1    1    2    0    0 -0.20972560937E+01 -0.77609107503E+01  0.14473550545E+04  0.14474119261E+04  0.10000000000E+02 0. -1.
</event>
<event>
 5    1  0.1294251E-008  0.3748331E+03  0.7957747E-01  0.3473970E+00
         13   -1    0    0    0    0  0.00000000000E+00  0.00000000000E+00  0.14999999963E+04  0.15000000000E+04  0.10566000000E+00 0. -1.
        994   -1    0    0    0    0 -0.00000000000E+00 -0.00000000000E+00  0.11368683772E-12  0.17120000000E+03  0.17120000000E+03 0.  0.
         13    1    1    2    0    0 -0.69772562270E+02 -0.54830788380E+02  0.40974899259E+03  0.41924798615E+03  0.10566000000E+00 0. -1.
        994    1    1    2    0    0  0.75713517882E+02  0.50489412875E+02  0.35475194132E+02  0.19710313798E+03  0.17120000000E+03 0.  0.
        998    1    1    2    0    0 -0.59409556120E+01  0.43413755048E+01  0.10547758096E+04  0.10548488759E+04  0.10000000000E+02 0. -1.
</event>
<event>
 5    1  0.1294251E-008  0.3852784E+03  0.7957747E-01  0.3428493E+00
         13   -1    0    0    0    0  0.00000000000E+00  0.00000000000E+00  0.14999999963E+04  0.15000000000E+04  0.10566000000E+00 0.  1.
        994   -1    0    0    0    0 -0.00000000000E+00 -0.00000000000E+00  0.11368683772E-12  0.17120000000E+03  0.17120000000E+03 0.  0.
         13    1    1    2    0    0 -0.13291771579E+02  0.93145721896E+01  0.79975363285E+02  0.81605773958E+02  0.10566000000E+00 0.  1.
        994    1    1    2    0    0  0.25620728792E+02 -0.66816005888E+01  0.37988741839E+01  0.17327705265E+03  0.17120000000E+03 0.  0.
        998    1    1    2    0    0 -0.12328957213E+02 -0.26329716008E+01  0.14162257588E+04  0.14163171734E+04  0.10000000000E+02 0.  1.
</event>
<event>
 5    1  0.1294251E-008  0.3856448E+03  0.7957747E-01  0.3426942E+00
         13   -1    0    0    0    0  0.00000000000E+00  0.00000000000E+00  0.14999999963E+04  0.15000000000E+04  0.10566000000E+00 0.  1.
        994   -1    0    0    0    0 -0.00000000000E+00 -0.00000000000E+00  0.11368683772E-12  0.17120000000E+03  0.17120000000E+03 0.  0.
         13    1    1    2    0    0  0.95347461206E+01 -0.11405262407E+02  0.83175068615E+02  0.84493163021E+02  0.10566000000E+00 0.  1.
        994    1    1    2    0    0 -0.10359148803E+02  0.73373340949E+01  0.18393660601E+01  0.17167985235E+03  0.17120000000E+03 0.  0.
        998    1    1    2    0    0  0.82440268202E+00  0.40679283121E+01  0.14149855616E+04  0.14150269846E+04  0.10000000000E+02 0.  1.
</event>
<event>
 5    1  0.1294251E-008  0.3844362E+03  0.7957747E-01  0.3432067E+00
         13   -1    0    0    0    0  0.00000000000E+00  0.00000000000E+00  0.14999999963E+04  0.15000000000E+04  0.10566000000E+00 0.  1.
        994   -1    0    0    0    0 -0.00000000000E+00 -0.00000000000E+00  0.11368683772E-12  0.17120000000E+03  0.17120000000E+03 0.  0.
         13    1    1    2    0    0 -0.13255788401E+02 -0.22212209793E+01  0.46156875571E+02  0.48074089438E+02  0.10566000000E+00 0.  1.
        994    1    1    2    0    0  0.14680414896E+02 -0.11422938116E+02  0.30510998577E+01  0.17223457059E+03  0.17120000000E+03 0.  0.
        998    1    1    2    0    0 -0.14246264954E+01  0.13644159096E+02  0.14507920209E+04  0.14508913400E+04  0.10000000000E+02 0.  1.
</event>
<event>
 5    1  0.1294251E-008  0.3752415E+03  0.7957747E-01  0.3472143E+00
         13   -1    0    0    0    0  0.00000000000E+00  0.00000000000E+00  0.14999999963E+04  0.15000000000E+04  0.10566000000E+00 0. -1.
        994   -1    0    0    0    0 -0.00000000000E+00 -0.00000000000E+00  0.11368683772E-12  0.17120000000E+03  0.17120000000E+03 0.  0.
         13    1    1    2    0    0 -0.81105626864E+02 -0.17967632884E+02  0.46810802927E+03  0.47542201966E+03  0.10566000000E+00 0. -1.
        994    1    1    2    0    0  0.58495008191E+02  0.88354222834E+01  0.18535606880E+02  0.18207893726E+03  0.17120000000E+03 0.  0.
        998    1    1    2    0    0  0.22610618672E+02  0.91322106003E+01  0.10133563601E+04  0.10136990431E+04  0.10000000000E+02 0. -1.
</event>
<event>
 5    1  0.1294251E-008  0.3848656E+03  0.7957747E-01  0.3430242E+00
         13   -1    0    0    0    0  0.00000000000E+00  0.00000000000E+00  0.14999999963E+04  0.15000000000E+04  0.10566000000E+00 0.  1.
        994   -1    0    0    0    0 -0.00000000000E+00 -0.00000000000E+00  0.11368683772E-12  0.17120000000E+03  0.17120000000E+03 0.  0.
         13    1    1    2    0    0 -0.16117514492E+02 -0.11520802418E+02  0.11707982014E+03  0.11874425717E+03  0.10566000000E+00 0. -1.
        994    1    1    2    0    0  0.11371493106E+02  0.30004000380E+01  0.21520591849E+01  0.17161697065E+03  0.17120000000E+03 0.  0.
        998    1    1    2    0    0  0.47460213859E+01  0.85204023796E+01  0.13807681170E+04  0.13808387722E+04  0.10000000000E+02 0.  1.
</event>
<event>
 5    1  0.1294251E-008  0.3786130E+03  0.7957747E-01  0.3457220E+00
         13   -1    0    0    0    0  0.00000000000E+00  0.00000000000E+00  0.14999999963E+04  0.15000000000E+04  0.10566000000E+00 0. -1.
        994   -1    0    0    0    0 -0.00000000000E+00 -0.00000000000E+00  0.11368683772E-12  0.17120000000E+03  0.17120000000E+03 0.  0.
         13    1    1    2    0    0  0.28261828163E+02  0.22531676712E+02  0.12978908940E+03  0.13472797140E+03  0.10566000000E+00 0. -1.
        994    1    1    2    0    0 -0.27184690355E+02 -0.86227995274E+01  0.75712549623E+01  0.17372427569E+03  0.17120000000E+03 0.  0.
        998    1    1    2    0    0 -0.10771378077E+01 -0.13908877185E+02  0.13626396519E+04  0.13627477529E+04  0.10000000000E+02 0. -1.
</event>
<event>
 5    1  0.1294251E-008  0.3802952E+03  0.7957747E-01  0.3449874E+00
         13   -1    0    0    0    0  0.00000000000E+00  0.00000000000E+00  0.14999999963E+04  0.15000000000E+04  0.10566000000E+00 0.  1.
        994   -1    0    0    0    0 -0.00000000000E+00 -0.00000000000E+00  0.11368683772E-12  0.17120000000E+03  0.17120000000E+03 0.  0.
         13    1    1    2    0    0 -0.51358537336E+00 -0.15461627232E+02  0.28341171420E+02  0.32288679876E+02  0.10566000000E+00 0.  1.
        994    1    1    2    0    0  0.39617954785E+01  0.11734040545E+02  0.44966413512E+01  0.17170627046E+03  0.17120000000E+03 0.  0.
        998    1    1    2    0    0 -0.34482101051E+01  0.37275866867E+01  0.14671621835E+04  0.14672050497E+04  0.10000000000E+02 0.  1.
</event>
<event>
 5    1  0.1294251E-008  0.3820735E+03  0.7957747E-01  0.3442179E+00
         13   -1    0    0    0    0  0.00000000000E+00  0.00000000000E+00  0.14999999963E+04  0.15000000000E+04  0.10566000000E+00 0. -1.
        994   -1    0    0    0    0 -0.00000000000E+00 -0.00000000000E+00  0.11368683772E-12  0.17120000000E+03  0.17120000000E+03 0.  0.
         13    1    1    2    0    0  0.27178441236E+01 -0.14883191621E+02  0.37768533913E+02  0.40686230932E+02  0.10566000000E+00 0. -1.
        994    1    1    2    0    0 -0.29472127516E+01 -0.36505759536E+01  0.31631703440E+01  0.17129348620E+03  0.17120000000E+03 0.  0.
        998    1    1    2    0    0  0.22936862805E+00  0.18533767575E+02  0.14590682920E+04  0.14592202829E+04  0.10000000000E+02 0. -1.
</event>
<event>
 5    1  0.1294251E-008  0.3795055E+03  0.7957747E-01  0.3453314E+00
         13   -1    0    0    0    0  0.00000000000E+00  0.00000000000E+00  0.14999999963E+04  0.15000000000E+04  0.10566000000E+00 0.  1.
        994   -1    0    0    0    0 -0.00000000000E+00 -0.00000000000E+00  0.11368683772E-12  0.17120000000E+03  0.17120000000E+03 0.  0.
         13    1    1    2    0    0  0.69747830805E+01  0.29659973348E+02  0.94467602248E+02  0.99259763532E+02  0.10566000000E+00 0.  1.
        994    1    1    2    0    0 -0.24922543524E+02 -0.34558428976E+02  0.10485766427E+02  0.17673372481E+03  0.17120000000E+03 0.  0.
        998    1    1    2    0    0  0.17947760443E+02  0.48984556277E+01  0.13950466276E+04  0.13952065117E+04  0.10000000000E+02 0.  1.
</event>
<event>
 5    1  0.1294251E-008  0.3861507E+03  0.7957747E-01  0.3424807E+00
         13   -1    0    0    0    0  0.00000000000E+00  0.00000000000E+00  0.14999999963E+04  0.15000000000E+04  0.10566000000E+00 0. -1.
        994   -1    0    0    0    0 -0.00000000000E+00 -0.00000000000E+00  0.11368683772E-12  0.17120000000E+03  0.17120000000E+03 0.  0.
         13    1    1    2    0    0  0.10773122622E+01  0.10253109463E+02  0.50410407906E+02  0.51453933228E+02  0.10566000000E+00 0. -1.
        994    1    1    2    0    0 -0.61228543712E+01 -0.76943096834E+01  0.13767844345E+01  0.17148768843E+03  0.17120000000E+03 0.  0.
        998    1    1    2    0    0  0.50455421090E+01 -0.25587997791E+01  0.14482128039E+04  0.14482583783E+04  0.10000000000E+02 0. -1.
</event>
<event>
 5    1  0.1294251E-008  0.3843028E+03  0.7957747E-01  0.3432634E+00
         13   -1    0    0    0    0  0.00000000000E+00  0.00000000000E+00  0.14999999963E+04  0.15000000000E+04  0.10566000000E+00 0.  1.
        994   -1    0    0    0    0 -0.00000000000E+00 -0.00000000000E+00  0.11368683772E-12  0.17120000000E+03  0.17120000000E+03 0.  0.
         13    1    1    2    0    0 -0.17257868436E+02  0.40363815479E+01  0.79370515102E+02  0.81325372613E+02  0.10566000000E+00 0.  1.
        994    1    1    2    0    0  0.67172919635E+01 -0.21582141536E+02  0.36624988704E+01  0.17272453428E+03  0.17120000000E+03 0.  0.
        998    1    1    2    0    0  0.10540576473E+02  0.17545759988E+02  0.14169669823E+04  0.14171500931E+04  0.10000000000E+02 0.  1.
</event>
<event>
 5    1  0.1294251E-008  0.3825702E+03  0.7957747E-01  0.3440043E+00
         13   -1    0    0    0    0  0.00000000000E+00  0.00000000000E+00  0.14999999963E+04  0.15000000000E+04  0.10566000000E+00 0. -1.
        994   -1    0    0    0    0 -0.00000000000E+00 -0.00000000000E+00  0.11368683772E-12  0.17120000000E+03  0.17120000000E+03 0.  0.
         13    1    1    2    0    0  0.11301484482E+02 -0.15601471417E+00  0.21482430808E+02  0.24274552304E+02  0.10566000000E+00 0. -1.
        994    1    1    2    0    0 -0.66680961922E+01  0.40592248785E+01  0.30433511817E+01  0.17140490891E+03  0.17120000000E+03 0.  0.
        998    1    1    2    0    0 -0.46333882897E+01 -0.39032101643E+01  0.14754742143E+04  0.14755205388E+04  0.10000000000E+02 0. -1.
</event>
<event>
 5    1  0.1294251E-008  0.3727193E+03  0.7957747E-01  0.3483486E+00
         13   -1    0    0    0    0  0.00000000000E+00  0.00000000000E+00  0.14999999963E+04  0.15000000000E+04  0.10566000000E+00 0.  1.
        994   -1    0    0    0    0 -0.00000000000E+00 -0.00000000000E+00  0.11368683772E-12  0.17120000000E+03  0.17120000000E+03 0.  0.
         13    1    1    2    0    0  0.41994515286E+02  0.49950143080E+02  0.33961319284E+03  0.34582609506E+03  0.10566000000E+00 0.  1.
        994    1    1    2    0    0 -0.89721269937E+00 -0.93033725659E+01  0.81539066514E+01  0.17164872247E+03  0.17120000000E+03 0.  0.
        998    1    1    2    0    0 -0.41097302587E+02 -0.40646770514E+02  0.11522328968E+04  0.11537251825E+04  0.10000000000E+02 0.  1.
</event>
<event>
 5    1  0.1294251E-008  0.3737864E+03  0.7957747E-01  0.3478668E+00
         13   -1    0    0    0    0  0.00000000000E+00  0.00000000000E+00  0.14999999963E+04  0.15000000000E+04  0.10566000000E+00 0.  1.
        994   -1    0    0    0    0 -0.00000000000E+00 -0.00000000000E+00  0.11368683772E-12  0.17120000000E+03  0.17120000000E+03 0.  0.
         13    1    1    2    0    0 -0.10553419200E+02  0.99068275638E+01  0.11047491786E+02  0.18209286861E+02  0.10566000000E+00 0.  1.
        994    1    1    2    0    0  0.10482324001E+02 -0.63100688042E+01  0.78143528850E+01  0.17181443535E+03  0.17120000000E+03 0.  0.
        998    1    1    2    0    0  0.71095199124E-01 -0.35967587596E+01  0.14811381516E+04  0.14811762778E+04  0.10000000000E+02 0.  1.
</event>
<event>
 5    1  0.1294251E-008  0.3690223E+03  0.7957747E-01  0.3500396E+00
         13   -1    0    0    0    0  0.00000000000E+00  0.00000000000E+00  0.14999999963E+04  0.15000000000E+04  0.10566000000E+00 0. -1.
        994   -1    0    0    0    0 -0.00000000000E+00 -0.00000000000E+00  0.11368683772E-12  0.17120000000E+03  0.17120000000E+03 0.  0.
         13    1    1    2    0    0  0.81114049873E+01 -0.15658605309E+02  0.10095924938E+02  0.20320572716E+02  0.10566000000E+00 0. -1.
        994    1    1    2    0    0 -0.59577019453E+01  0.20444128165E+02  0.12004188585E+02  0.17293639621E+03  0.17120000000E+03 0.  0.
        998    1    1    2    0    0 -0.21537030420E+01 -0.47855228554E+01  0.14778998828E+04  0.14779430311E+04  0.10000000000E+02 0. -1.
</event>
<event>
 5    1  0.1294251E-008  0.3765698E+03  0.7957747E-01  0.3466232E+00
         13   -1    0    0    0    0  0.00000000000E+00  0.00000000000E+00  0.14999999963E+04  0.15000000000E+04  0.10566000000E+00 0.  1.
        994   -1    0    0    0    0 -0.00000000000E+00 -0.00000000000E+00  0.11368683772E-12  0.17120000000E+03  0.17120000000E+03 0.  0.
         13    1    1    2    0    0  0.56020712116E+02  0.30977705801E+02  0.30603950304E+03  0.31266296076E+03  0.10566000000E+00 0.  1.
        994    1    1    2    0    0 -0.40167372033E+02 -0.35754929643E+02  0.15716261323E+02  0.18013404353E+03  0.17120000000E+03 0.  0.
        998    1    1    2    0    0 -0.15853340083E+02  0.47772238415E+01  0.11782442319E+04  0.11784029957E+04  0.10000000000E+02 0.  1.
</event>
<event>
 5    1  0.1294251E-008  0.3852026E+03  0.7957747E-01  0.3428813E+00
         13   -1    0    0    0    0  0.00000000000E+00  0.00000000000E+00  0.14999999963E+04  0.15000000000E+04  0.10566000000E+00 0.  1.
        994   -1    0    0    0    0 -0.00000000000E+00 -0.00000000000E+00  0.11368683772E-12  0.17120000000E+03  0.17120000000E+03 0.  0.
         13    1    1    2    0    0 -0.11488227801E+02 -0.79202116550E+01  0.70614441844E+02  0.71979995079E+02  0.10566000000E+00 0.  1.
        994    1    1    2    0    0 -0.12819294954E+01 -0.77257875164E+01  0.17311797969E+01  0.17138777121E+03  0.17120000000E+03 0.  0.
        998    1    1    2    0    0  0.12770157297E+02  0.15645999171E+02  0.14276543746E+04  0.14278322337E+04  0.10000000000E+02 0.  1.
</event>
<event>
 5    1  0.1294251E-008  0.3813207E+03  0.7957747E-01  0.3445428E+00
         13   -1    0    0    0    0  0.00000000000E+00  0.00000000000E+00  0.14999999963E+04  0.15000000000E+04  0.10566000000E+00 0. -1.
        994   -1    0    0    0    0 -0.00000000000E+00 -0.00000000000E+00  0.11368683772E-12  0.17120000000E+03  0.17120000000E+03 0.  0.
         13    1    1    2    0    0  0.10158165214E+02 -0.30071193953E+02  0.14600688667E+03  0.14941715814E+03  0.10566000000E+00 0. -1.
        994    1    1    2    0    0 -0.17947781163E+01  0.17188924690E+02  0.44626759226E+01  0.17212796355E+03  0.17120000000E+03 0.  0.
        998    1    1    2    0    0 -0.83633870973E+01  0.12882269263E+02  0.13495304337E+04  0.13496548783E+04  0.10000000000E+02 0. -1.
</event>
<event>
 5    1  0.1294251E-008  0.3828831E+03  0.7957747E-01  0.3438700E+00
         13   -1    0    0    0    0  0.00000000000E+00  0.00000000000E+00  0.14999999963E+04  0.15000000000E+04  0.10566000000E+00 0.  1.
        994   -1    0    0    0    0 -0.00000000000E+00 -0.00000000000E+00  0.11368683772E-12  0.17120000000E+03  0.17120000000E+03 0.  0.
         13    1    1    2    0    0 -0.11328735451E+02  0.50237711912E+01  0.27283785765E+02  0.29966558922E+02  0.10566000000E+00 0.  1.
        994    1    1    2    0    0  0.12126661398E+02 -0.34936255640E+01  0.32123635476E+01  0.17169455616E+03  0.17120000000E+03 0.  0.
        998    1    1    2    0    0 -0.79792594632E+00 -0.15301456272E+01  0.14695038470E+04  0.14695388849E+04  0.10000000000E+02 0.  1.
</event>
<event>
 5    1  0.1294251E-008  0.3843176E+03  0.7957747E-01  0.3432571E+00
         13   -1    0    0    0    0  0.00000000000E+00  0.00000000000E+00  0.14999999963E+04  0.15000000000E+04  0.10566000000E+00 0.  1.
        994   -1    0    0    0    0 -0.00000000000E+00 -0.00000000000E+00  0.11368683772E-12  0.17120000000E+03  0.17120000000E+03 0.  0.
         13    1    1    2    0    0  0.19955790816E+02  0.34839264434E+01  0.10796053862E+03  0.10984471036E+03  0.10566000000E+00 0.  1.
        994    1    1    2    0    0 -0.12789315158E+02  0.23223142143E+02  0.42893923002E+01  0.17329373849E+03  0.17120000000E+03 0.  0.
        998    1    1    2    0    0 -0.71664756582E+01 -0.26707068587E+02  0.13877500654E+04  0.13880615512E+04  0.10000000000E+02 0.  1.
</event>
<event>
 5    1  0.1294251E-008  0.3774257E+03  0.7957747E-01  0.3462445E+00
         13   -1    0    0    0    0  0.00000000000E+00  0.00000000000E+00  0.14999999963E+04  0.15000000000E+04  0.10566000000E+00 0. -1.
        994   -1    0    0    0    0 -0.00000000000E+00 -0.00000000000E+00  0.11368683772E-12  0.17120000000E+03  0.17120000000E+03 0.  0.
         13    1    1    2    0    0 -0.11074091616E+03 -0.10347854168E+03  0.88649826348E+03  0.89936118519E+03  0.10566000000E+00 0. -1.
        994    1    1    2    0    0  0.97108602662E+02  0.10988154762E+03  0.81756846609E+02  0.23978669101E+03  0.17120000000E+03 0.  0.
        998    1    1    2    0    0  0.13632313496E+02 -0.64030059380E+01  0.53174488619E+03  0.53205212380E+03  0.10000000000E+02 0.  0.
</event>
<event>
 5    1  0.1294251E-008  0.3829432E+03  0.7957747E-01  0.3438442E+00
         13   -1    0    0    0    0  0.00000000000E+00  0.00000000000E+00  0.14999999963E+04  0.15000000000E+04  0.10566000000E+00 0.  1.
        994   -1    0    0    0    0 -0.00000000000E+00 -0.00000000000E+00  0.11368683772E-12  0.17120000000E+03  0.17120000000E+03 0.  0.
         13    1    1    2    0    0 -0.29882627010E+02  0.31208507942E+01  0.15244911166E+03  0.15538163957E+03  0.10566000000E+00 0.  1.
        994    1    1    2    0    0  0.31618986901E+02 -0.25085138045E+00  0.59719410389E+01  0.17419795446E+03  0.17120000000E+03 0.  0.
        998    1    1    2    0    0 -0.17363598910E+01 -0.28699994138E+01  0.13415789436E+04  0.13416204060E+04  0.10000000000E+02 0.  1.
</event>
<event>
 5    1  0.1294251E-008  0.3763495E+03  0.7957747E-01  0.3467209E+00
         13   -1    0    0    0    0  0.00000000000E+00  0.00000000000E+00  0.14999999963E+04  0.15000000000E+04  0.10566000000E+00 0. -1.
        994   -1    0    0    0    0 -0.00000000000E+00 -0.00000000000E+00  0.11368683772E-12  0.17120000000E+03  0.17120000000E+03 0.  0.
         13    1    1    2    0    0 -0.16980694331E+01  0.34968466480E+02  0.10510996192E+03  0.11078714883E+03  0.10566000000E+00 0. -1.
        994    1    1    2    0    0  0.80139566152E+01 -0.10499141792E+02  0.65778774513E+01  0.17183469950E+03  0.17120000000E+03 0.  0.
        998    1    1    2    0    0 -0.63158871820E+01 -0.24469324688E+02  0.13883121569E+04  0.13885781517E+04  0.10000000000E+02 0. -1.
</event>
<event>
 5    1  0.1294251E-008  0.3782051E+03  0.7957747E-01  0.3459011E+00
         13   -1    0    0    0    0  0.00000000000E+00  0.00000000000E+00  0.14999999963E+04  0.15000000000E+04  0.10566000000E+00 0.  1.
        994   -1    0    0    0    0 -0.00000000000E+00 -0.00000000000E+00  0.11368683772E-12  0.17120000000E+03  0.17120000000E+03 0.  0.
         13    1    1    2    0    0 -0.55307199013E+01  0.41744859641E+02  0.16097854110E+03  0.16639508415E+03  0.10566000000E+00 0.  1.
        994    1    1    2    0    0 -0.26139278539E+01 -0.38523376477E+02  0.10072012548E+02  0.17578898882E+03  0.17120000000E+03 0.  0.
        998    1    1    2    0    0  0.81446477552E+01 -0.32214831635E+01  0.13289494426E+04  0.13290159270E+04  0.10000000000E+02 0.  1.
</event>
<event>
 5    1  0.1294251E-008  0.3707526E+03  0.7957747E-01  0.3492439E+00
         13   -1    0    0    0    0  0.00000000000E+00  0.00000000000E+00  0.14999999963E+04  0.15000000000E+04  0.10566000000E+00 0.  1.
        994   -1    0    0    0    0 -0.00000000000E+00 -0.00000000000E+00  0.11368683772E-12  0.17120000000E+03  0.17120000000E+03 0.  0.
         13    1    1    2    0    0 -0.23778789563E+02 -0.57766384779E+02  0.12274527463E+03  0.13772726546E+03  0.10566000000E+00 0.  1.
        994    1    1    2    0    0  0.50559869677E+02  0.10795614004E+03  0.62959088621E+02  0.21790850244E+03  0.17120000000E+03 0.  0.
        998    1    1    2    0    0 -0.26781080115E+02 -0.50189755266E+02  0.13142956330E+04  0.13155642321E+04  0.10000000000E+02 0.  1.
</event>
<event>
 5    1  0.1294251E-008  0.3801837E+03  0.7957747E-01  0.3450359E+00
         13   -1    0    0    0    0  0.00000000000E+00  0.00000000000E+00  0.14999999963E+04  0.15000000000E+04  0.10566000000E+00 0. -1.
        994   -1    0    0    0    0 -0.00000000000E+00 -0.00000000000E+00  0.11368683772E-12  0.17120000000E+03  0.17120000000E+03 0.  0.
         13    1    1    2    0    0 -0.29699827972E+02 -0.36134581838E+02  0.19174472090E+03  0.19736726411E+03  0.10566000000E+00 0. -1.
        994    1    1    2    0    0  0.54723081811E+02  0.53467471560E+02  0.23850324681E+02  0.18902821003E+03  0.17120000000E+03 0.  0.
        998    1    1    2    0    0 -0.25023253840E+02 -0.17332889722E+02  0.12844049507E+04  0.12848045259E+04  0.10000000000E+02 0. -1.
</event>
<event>
 5    1  0.1294251E-008  0.3752010E+03  0.7957747E-01  0.3472324E+00
         13   -1    0    0    0    0  0.00000000000E+00  0.00000000000E+00  0.14999999963E+04  0.15000000000E+04  0.10566000000E+00 0. -1.
        994   -1    0    0    0    0 -0.00000000000E+00 -0.00000000000E+00  0.11368683772E-12  0.17120000000E+03  0.17120000000E+03 0.  0.
         13    1    1    2    0    0 -0.46666593896E+02  0.15067501103E+02  0.24275675435E+03  0.24766035920E+03  0.10566000000E+00 0. -1.
        994    1    1    2    0    0 -0.15166326759E+02 -0.28110072002E+01  0.73841182807E+01  0.17205198177E+03  0.17120000000E+03 0.  0.
        998    1    1    2    0    0  0.61832920654E+02 -0.12256493902E+02  0.12498591236E+04  0.12514876590E+04  0.10000000000E+02 0. -1.
</event>
<event>
 5    1  0.1294251E-008  0.3847642E+03  0.7957747E-01  0.3430673E+00
         13   -1    0    0    0    0  0.00000000000E+00  0.00000000000E+00  0.14999999963E+04  0.15000000000E+04  0.10566000000E+00 0.  1.
        994   -1    0    0    0    0 -0.00000000000E+00 -0.00000000000E+00  0.11368683772E-12  0.17120000000E+03  0.17120000000E+03 0.  0.
         13    1    1    2    0    0  0.24344309052E+02  0.40192465746E+02  0.50294747569E+02  0.68830607167E+02  0.10566000000E+00 0.  1.
        994    1    1    2    0    0 -0.22264600452E+02 -0.35239301679E+02  0.25404550131E+02  0.17802345908E+03  0.17120000000E+03 0.  0.
        998    1    1    2    0    0 -0.20797085995E+01 -0.49531640664E+01  0.14243006986E+04  0.14243459338E+04  0.10000000000E+02 0.  1.
</event>
<event>
 5    1  0.1294251E-008  0.3839293E+03  0.7957747E-01  0.3434226E+00
         13   -1    0    0    0    0  0.00000000000E+00  0.00000000000E+00  0.14999999963E+04  0.15000000000E+04  0.10566000000E+00 0.  1.
        994   -1    0    0    0    0 -0.00000000000E+00 -0.00000000000E+00  0.11368683772E-12  0.17120000000E+03  0.17120000000E+03 0.  0.
         13    1    1    2    0    0  0.26226172678E+01  0.18766004499E+02  0.94787991736E+02  0.96663413904E+02  0.10566000000E+00 0.  1.
        994    1    1    2    0    0  0.64046196882E+01  0.71991950096E+01  0.24691174499E+01  0.17148872879E+03  0.17120000000E+03 0.  0.
        998    1    1    2    0    0 -0.90272369560E+01 -0.25965199509E+02  0.14027428871E+04  0.14030478573E+04  0.10000000000E+02 0.  1.
</event>
<event>
 5    1  0.1294251E-008  0.3834271E+03  0.7957747E-01  0.3436371E+00
         13   -1    0    0    0    0  0.00000000000E+00  0.00000000000E+00  0.14999999963E+04  0.15000000000E+04  0.10566000000E+00 0. -1.
        994   -1    0    0    0    0 -0.00000000000E+00 -0.00000000000E+00  0.11368683772E-12  0.17120000000E+03  0.17120000000E+03 0.  0.
         13    1    1    2    0    0 -0.14086360500E+02  0.67351040750E+01  0.49219359533E+02  0.51636650704E+02  0.10566000000E+00 0. -1.
        994    1    1    2    0    0  0.12205004515E+02 -0.47981981863E+01  0.29817866894E+01  0.17172744653E+03  0.17120000000E+03 0.  0.
        998    1    1    2    0    0  0.18813559853E+01 -0.19369058887E+01  0.14477988501E+04  0.14478359028E+04  0.10000000000E+02 0. -1.
</event>
<event>
 5    1  0.1294251E-008  0.3780574E+03  0.7957747E-01  0.3459661E+00
         13   -1    0    0    0    0  0.00000000000E+00  0.00000000000E+00  0.14999999963E+04  0.15000000000E+04  0.10566000000E+00 0. -1.
        994   -1    0    0    0    0 -0.00000000000E+00 -0.00000000000E+00  0.11368683772E-12  0.17120000000E+03  0.17120000000E+03 0.  0.
         13    1    1    2    0    0 -0.19647961495E+01  0.16114817188E+02  0.24205013783E+02  0.29145181646E+02  0.10566000000E+00 0. -1.
        994    1    1    2    0    0  0.56707509776E+01 -0.14148906662E+01  0.52319157708E+01  0.17137961453E+03  0.17120000000E+03 0.  0.
        998    1    1    2    0    0 -0.37059548281E+01 -0.14699926522E+02  0.14705630667E+04  0.14706752038E+04  0.10000000000E+02 0. -1.
</event>
<event>
 5    1  0.1294251E-008  0.3736131E+03  0.7957747E-01  0.3479449E+00
         13   -1    0    0    0    0  0.00000000000E+00  0.00000000000E+00  0.14999999963E+04  0.15000000000E+04  0.10566000000E+00 0. -1.
        994   -1    0    0    0    0 -0.00000000000E+00 -0.00000000000E+00  0.11368683772E-12  0.17120000000E+03  0.17120000000E+03 0.  0.
         13    1    1    2    0    0 -0.80449664483E+01  0.57687788542E+02  0.32714717231E+03  0.33229186862E+03  0.10566000000E+00 0. -1.
        994    1    1    2    0    0  0.24187285879E+02  0.13993687337E+02  0.10064007233E+02  0.17375722237E+03  0.17120000000E+03 0.  0.
        998    1    1    2    0    0 -0.16142319430E+02 -0.71681475880E+02  0.11627888167E+04  0.11651509090E+04  0.10000000000E+02 0. -1.
</event>
<event>
 5    1  0.1294251E-008  0.3829256E+03  0.7957747E-01  0.3438518E+00
         13   -1    0    0    0    0  0.00000000000E+00  0.00000000000E+00  0.14999999963E+04  0.15000000000E+04  0.10566000000E+00 0. -1.
        994   -1    0    0    0    0 -0.00000000000E+00 -0.00000000000E+00  0.11368683772E-12  0.17120000000E+03  0.17120000000E+03 0.  0.
         13    1    1    2    0    0  0.14606717911E+02  0.13122896566E+02  0.80924862746E+02  0.83273112088E+02  0.10566000000E+00 0. -1.
        994    1    1    2    0    0  0.65089093325E+01  0.59325893949E+01  0.29203894250E+01  0.17145124727E+03  0.17120000000E+03 0.  0.
        998    1    1    2    0    0 -0.21115627244E+02 -0.19055485961E+02  0.14161547441E+04  0.14164756406E+04  0.10000000000E+02 0. -1.
</event>
<event>
 5    1  0.1294251E-008  0.2242856E+03  0.7957747E-01  0.4648351E+00
         13   -1    0    0    0    0  0.00000000000E+00  0.00000000000E+00  0.14999999963E+04  0.15000000000E+04  0.10566000000E+00 0.  1.
        994   -1    0    0    0    0 -0.00000000000E+00 -0.00000000000E+00  0.11368683772E-12  0.17120000000E+03  0.17120000000E+03 0.  0.
         13    1    1    2    0    0  0.10137769448E+03  0.75587148655E+02  0.82167365751E+02  0.15080564028E+03  0.10566000000E+00 0.  1.
        994    1    1    2    0    0 -0.63570811529E+01 -0.61555397799E+02  0.11791298803E+03  0.21689258223E+03  0.17120000000E+03 0.  0.
        998    1    1    2    0    0 -0.95020613329E+02 -0.14031750857E+02  0.12999196425E+04  0.13035017775E+04  0.10000000000E+02 0.  1.
</event>
<event>
 5    1  0.1294251E-008  0.3860497E+03  0.7957747E-01  0.3425232E+00
         13   -1    0    0    0    0  0.00000000000E+00  0.00000000000E+00  0.14999999963E+04  0.15000000000E+04  0.10566000000E+00 0.  1.
        994   -1    0    0    0    0 -0.00000000000E+00 -0.00000000000E+00  0.11368683772E-12  0.17120000000E+03  0.17120000000E+03 0.  0.
         13    1    1    2    0    0  0.30009160004E+01 -0.97501103952E+01  0.50731875425E+02  0.51747507165E+02  0.10566000000E+00 0.  1.
        994    1    1    2    0    0 -0.46451692565E+01 -0.43680042021E+01  0.12431231445E+01  0.17132321038E+03  0.17120000000E+03 0.  0.
        998    1    1    2    0    0  0.16442532561E+01  0.14118114597E+02  0.14480249977E+04  0.14481292825E+04  0.10000000000E+02 0.  1.
</event>
<event>
 5    1  0.1294251E-008  0.3823968E+03  0.7957747E-01  0.3440788E+00
         13   -1    0    0    0    0  0.00000000000E+00  0.00000000000E+00  0.14999999963E+04  0.15000000000E+04  0.10566000000E+00 0.  1.
        994   -1    0    0    0    0 -0.00000000000E+00 -0.00000000000E+00  0.11368683772E-12  0.17120000000E+03  0.17120000000E+03 0.  0.
         13    1    1    2    0    0  0.38568400293E+02 -0.25094193719E+02  0.27652467654E+03  0.28032685914E+03  0.10566000000E+00 0.  1.
        994    1    1    2    0    0 -0.40684241578E+02  0.34877950597E+02  0.12511583200E+02  0.17982674624E+03  0.17120000000E+03 0.  0.
        998    1    1    2    0    0  0.21158412853E+01 -0.97837568780E+01  0.12109637365E+04  0.12110463946E+04  0.10000000000E+02 0.  1.
</event>
<event>
 5    1  0.1294251E-008  0.3745490E+03  0.7957747E-01  0.3475242E+00
         13   -1    0    0    0    0  0.00000000000E+00  0.00000000000E+00  0.14999999963E+04  0.15000000000E+04  0.10566000000E+00 0. -1.
        994   -1    0    0    0    0 -0.00000000000E+00 -0.00000000000E+00  0.11368683772E-12  0.17120000000E+03  0.17120000000E+03 0.  0.
         13    1    1    2    0    0  0.67392926196E+00 -0.42403105607E+02  0.14657194981E+03  0.15258383002E+03  0.10566000000E+00 0. -1.
        994    1    1    2    0    0 -0.15778614347E+02 -0.17858802202E+01  0.77693885114E+01  0.17211030602E+03  0.17120000000E+03 0.  0.
        998    1    1    2    0    0  0.15104685085E+02  0.44188985827E+02  0.13456586580E+04  0.13465058640E+04  0.10000000000E+02 0. -1.
</event>
<event>
 5    1  0.1294251E-008  0.3733163E+03  0.7957747E-01  0.3480787E+00
         13   -1    0    0    0    0  0.00000000000E+00  0.00000000000E+00  0.14999999963E+04  0.15000000000E+04  0.10566000000E+00 0. -1.
        994   -1    0    0    0    0 -0.00000000000E+00 -0.00000000000E+00  0.11368683772E-12  0.17120000000E+03  0.17120000000E+03 0.  0.
         13    1    1    2    0    0  0.27104318109E+02  0.19978090331E+02  0.76741978024E+02  0.83804000551E+02  0.10566000000E+00 0. -1.
        994    1    1    2    0    0 -0.22332854567E+01 -0.53450469339E+01  0.76606018009E+01  0.17146918648E+03  0.17120000000E+03 0.  0.
        998    1    1    2    0    0 -0.24871032652E+02 -0.14633043397E+02  0.14155974165E+04  0.14159268130E+04  0.10000000000E+02 0. -1.
</event>
<event>
 5    1  0.1294251E-008  0.3804776E+03  0.7957747E-01  0.3449082E+00
         13   -1    0    0    0    0  0.00000000000E+00  0.00000000000E+00  0.14999999963E+04  0.15000000000E+04  0.10566000000E+00 0. -1.
        994   -1    0    0    0    0 -0.00000000000E+00 -0.00000000000E+00  0.11368683772E-12  0.17120000000E+03  0.17120000000E+03 0.  0.
         13    1    1    2    0    0  0.14649909567E+02 -0.22314048541E+02  0.90689068158E+02  0.94535997694E+02  0.10566000000E+00 0. -1.
        994    1    1    2    0    0 -0.71807539104E+01  0.13630118979E+02  0.46848301547E+01  0.17195560765E+03  0.17120000000E+03 0.  0.
        998    1    1    2    0    0 -0.74691556562E+01  0.86839295620E+01  0.14046260980E+04  0.14047083947E+04  0.10000000000E+02 0. -1.
</event>
<event>
 5    1  0.1294251E-008  0.3840287E+03  0.7957747E-01  0.3433802E+00
         13   -1    0    0    0    0  0.00000000000E+00  0.00000000000E+00  0.14999999963E+04  0.15000000000E+04  0.10566000000E+00 0. -1.
        994   -1    0    0    0    0 -0.00000000000E+00 -0.00000000000E+00  0.11368683772E-12  0.17120000000E+03  0.17120000000E+03 0.  0.
         13    1    1    2    0    0  0.56829039612E+01 -0.87509932914E+01  0.25266656059E+02  0.27336611960E+02  0.10566000000E+00 0. -1.
        994    1    1    2    0    0 -0.37457891675E+01  0.44369634959E+01  0.22243885191E+01  0.17131288768E+03  0.17120000000E+03 0.  0.
        998    1    1    2    0    0 -0.19371147937E+01  0.43140297955E+01  0.14725089517E+04  0.14725505004E+04  0.10000000000E+02 0. -1.
</event>
<event>
 5    1  0.1294251E-008  0.3739880E+03  0.7957747E-01  0.3477761E+00
         13   -1    0    0    0    0  0.00000000000E+00  0.00000000000E+00  0.14999999963E+04  0.15000000000E+04  0.10566000000E+00 0. -1.
        994   -1    0    0    0    0 -0.00000000000E+00 -0.00000000000E+00  0.11368683772E-12  0.17120000000E+03  0.17120000000E+03 0.  0.
         13    1    1    2    0    0  0.44210490503E+02  0.20235585713E+02  0.16946386831E+03  0.17630104999E+03  0.10566000000E+00 0. -1.
        994    1    1    2    0    0 -0.16598017595E+02 -0.11608293356E+02  0.85998432975E+01  0.17260835428E+03  0.17120000000E+03 0.  0.
        998    1    1    2    0    0 -0.27612472908E+02 -0.86272923570E+01  0.13219362847E+04  0.13222905957E+04  0.10000000000E+02 0. -1.
</event>
<event>
 5    1  0.1294251E-008  0.3792135E+03  0.7957747E-01  0.3454590E+00
         13   -1    0    0    0    0  0.00000000000E+00  0.00000000000E+00  0.14999999963E+04  0.15000000000E+04  0.10566000000E+00 0. -1.
        994   -1    0    0    0    0 -0.00000000000E+00 -0.00000000000E+00  0.11368683772E-12  0.17120000000E+03  0.17120000000E+03 0.  0.
         13    1    1    2    0    0  0.37002926795E+02 -0.49632079428E+02  0.31010708864E+03  0.31622614928E+03  0.10566000000E+00 0. -1.
        994    1    1    2    0    0  0.28956288017E+02 -0.12206414600E+03  0.75212975770E+02  0.22517671744E+03  0.17120000000E+03 0.  0.
        998    1    1    2    0    0 -0.65959214811E+02  0.17169622543E+03  0.11146799319E+04  0.11297971333E+04  0.10000000000E+02 0. -1.
</event>
<event>
 5    1  0.1294251E-008  0.3829149E+03  0.7957747E-01  0.3438564E+00
         13   -1    0    0    0    0  0.00000000000E+00  0.00000000000E+00  0.14999999963E+04  0.15000000000E+04  0.10566000000E+00 0. -1.
        994   -1    0    0    0    0 -0.00000000000E+00 -0.00000000000E+00  0.11368683772E-12  0.17120000000E+03  0.17120000000E+03 0.  0.
         13    1    1    2    0    0  0.81959504244E+02  0.81388781877E+02  0.66393384656E+03  0.67390626791E+03  0.10566000000E+00 0. -1.
        994    1    1    2    0    0 -0.10721479835E+03 -0.10795449553E+03  0.83523455304E+02  0.24379252178E+03  0.17120000000E+03 0.  0.
        998    1    1    2    0    0  0.25255294106E+02  0.26565713657E+02  0.75254269442E+03  0.75350121031E+03  0.10000000000E+02 0. -1.
</event>
<event>
 5    1  0.1294251E-008  0.3833334E+03  0.7957747E-01  0.3436771E+00
         13   -1    0    0    0    0  0.00000000000E+00  0.00000000000E+00  0.14999999963E+04  0.15000000000E+04  0.10566000000E+00 0.  1.
        994   -1    0    0    0    0 -0.00000000000E+00 -0.00000000000E+00  0.11368683772E-12  0.17120000000E+03  0.17120000000E+03 0.  0.
         13    1    1    2    0    0  0.14986063330E+02 -0.15397511145E+02  0.97184887498E+02  0.99531798766E+02  0.10566000000E+00 0.  1.
        994    1    1    2    0    0 -0.22095824879E+01  0.75267936780E+01  0.26633441027E+01  0.17140031587E+03  0.17120000000E+03 0.  0.
        998    1    1    2    0    0 -0.12776480842E+02  0.78707174674E+01  0.14001517647E+04  0.14002678854E+04  0.10000000000E+02 0.  1.
</event>
<event>
 5    1  0.1294251E-008  0.3768117E+03  0.7957747E-01  0.3465159E+00
         13   -1    0    0    0    0  0.00000000000E+00  0.00000000000E+00  0.14999999963E+04  0.15000000000E+04  0.10566000000E+00 0. -1.
        994   -1    0    0    0    0 -0.00000000000E+00 -0.00000000000E+00  0.11368683772E-12  0.17120000000E+03  0.17120000000E+03 0.  0.
         13    1    1    2    0    0 -0.71461353601E+02  0.35836525620E+02  0.39658997439E+03  0.40456717684E+03  0.10566000000E+00 0. -1.
        994    1    1    2    0    0  0.69326930914E+02 -0.45383685681E+02  0.29311866897E+02  0.19244357047E+03  0.17120000000E+03 0.  0.
        998    1    1    2    0    0  0.21344226868E+01  0.95471600617E+01  0.10740981550E+04  0.10741892527E+04  0.10000000000E+02 0. -1.
</event>
<event>
 5    1  0.1294251E-008  0.3701514E+03  0.7957747E-01  0.3495195E+00
         13   -1    0    0    0    0  0.00000000000E+00  0.00000000000E+00  0.14999999963E+04  0.15000000000E+04  0.10566000000E+00 0.  1.
        994   -1    0    0    0    0 -0.00000000000E+00 -0.00000000000E+00  0.11368683772E-12  0.17120000000E+03  0.17120000000E+03 0.  0.
         13    1    1    2    0    0  0.55971033403E+02 -0.66993317453E+01  0.15719781109E+03  0.16699940300E+03  0.10566000000E+00 0.  1.
        994    1    1    2    0    0 -0.54684274449E+02 -0.27285728879E+02  0.22210047150E+02  0.18313275804E+03  0.17120000000E+03 0.  0.
        998    1    1    2    0    0 -0.12867589541E+01  0.33985060624E+02  0.13205921380E+04  0.13210678390E+04  0.10000000000E+02 0.  1.
</event>
<event>
 5    1  0.1294251E-008  0.3840556E+03  0.7957747E-01  0.3433688E+00
         13   -1    0    0    0    0  0.00000000000E+00  0.00000000000E+00  0.14999999963E+04  0.15000000000E+04  0.10566000000E+00 0. -1.
        994   -1    0    0    0    0 -0.00000000000E+00 -0.00000000000E+00  0.11368683772E-12  0.17120000000E+03  0.17120000000E+03 0.  0.
         13    1    1    2    0    0 -0.17271964640E+02  0.69669174385E+01  0.77098894147E+02  0.79316513689E+02  0.10566000000E+00 0. -1.
        994    1    1    2    0    0  0.17596690124E+02 -0.16758286914E+02  0.40500433908E+01  0.17296336761E+03  0.17120000000E+03 0.  0.
        998    1    1    2    0    0 -0.32472548436E+00  0.97913694757E+01  0.14188510587E+04  0.14189201187E+04  0.10000000000E+02 0. -1.
</event>
<event>
 5    1  0.1294251E-008  0.3836922E+03  0.7957747E-01  0.3435238E+00
         13   -1    0    0    0    0  0.00000000000E+00  0.00000000000E+00  0.14999999963E+04  0.15000000000E+04  0.10566000000E+00 0.  1.
        994   -1    0    0    0    0 -0.00000000000E+00 -0.00000000000E+00  0.11368683772E-12  0.17120000000E+03  0.17120000000E+03 0.  0.
         13    1    1    2    0    0  0.89100414350E+01  0.15162362800E+02  0.69215780289E+02  0.71415134874E+02  0.10566000000E+00 0.  1.
        994    1    1    2    0    0  0.21425774150E+01 -0.85982387804E+01  0.25401949839E+01  0.17144798902E+03  0.17120000000E+03 0.  0.
        998    1    1    2    0    0 -0.11052618850E+02 -0.65641240199E+01  0.14282440210E+04  0.14283368761E+04  0.10000000000E+02 0.  1.
</event>
<event>
 5    1  0.1294251E-008  0.3852401E+03  0.7957747E-01  0.3428655E+00
         13   -1    0    0    0    0  0.00000000000E+00  0.00000000000E+00  0.14999999963E+04  0.15000000000E+04  0.10566000000E+00 0.  1.
        994   -1    0    0    0    0 -0.00000000000E+00 -0.00000000000E+00  0.11368683772E-12  0.17120000000E+03  0.17120000000E+03 0.  0.
         13    1    1    2    0    0  0.37599242721E+01 -0.11630774143E+02  0.50277292889E+02  0.51741948958E+02  0.10566000000E+00 0.  1.
        994    1    1    2    0    0 -0.48414425269E+01  0.42631490015E+01  0.16477434140E+01  0.17132941681E+03  0.17120000000E+03 0.  0.
        998    1    1    2    0    0  0.10815182548E+01  0.73676251415E+01  0.14480749600E+04  0.14481286342E+04  0.10000000000E+02 0.  1.
</event>
<event>
 5    1  0.1294251E-008  0.3839617E+03  0.7957747E-01  0.3434088E+00
         13   -1    0    0    0    0  0.00000000000E+00  0.00000000000E+00  0.14999999963E+04  0.15000000000E+04  0.10566000000E+00 0. -1.
        994   -1    0    0    0    0 -0.00000000000E+00 -0.00000000000E+00  0.11368683772E-12  0.17120000000E+03  0.17120000000E+03 0.  0.
         13    1    1    2    0    0 -0.10577359632E+01 -0.13880085129E+02  0.45809047871E+02  0.47877506195E+02  0.10566000000E+00 0. -1.
        994    1    1    2    0    0 -0.18429095392E+02  0.54767308956E+01  0.33671471295E+01  0.17230903580E+03  0.17120000000E+03 0.  0.
        998    1    1    2    0    0  0.19486831356E+02  0.84033542338E+01  0.14508238013E+04  0.14510134580E+04  0.10000000000E+02 0. -1.
</event>
<event>
 5    1  0.1294251E-008  0.3771114E+03  0.7957747E-01  0.3463834E+00
         13   -1    0    0    0    0  0.00000000000E+00  0.00000000000E+00  0.14999999963E+04  0.15000000000E+04  0.10566000000E+00 0. -1.
        994   -1    0    0    0    0 -0.00000000000E+00 -0.00000000000E+00  0.11368683772E-12  0.17120000000E+03  0.17120000000E+03 0.  0.
         13    1    1    2    0    0  0.26956678695E+02  0.22016234681E+01  0.65159127364E+02  0.70549505421E+02  0.10566000000E+00 0. -1.
        994    1    1    2    0    0 -0.75252214544E+01 -0.22611100457E+02  0.75175594705E+01  0.17301400094E+03  0.17120000000E+03 0.  0.
        998    1    1    2    0    0 -0.19431457241E+02  0.20409476989E+02  0.14273233094E+04  0.14276364936E+04  0.10000000000E+02 0. -1.
</event>
<event>
 5    1  0.1294251E-008  0.3804415E+03  0.7957747E-01  0.3449238E+00
         13   -1    0    0    0    0  0.00000000000E+00  0.00000000000E+00  0.14999999963E+04  0.15000000000E+04  0.10566000000E+00 0.  1.
        994   -1    0    0    0    0 -0.00000000000E+00 -0.00000000000E+00  0.11368683772E-12  0.17120000000E+03  0.17120000000E+03 0.  0.
         13    1    1    2    0    0  0.27767593684E+01  0.11997100014E+02  0.17712892840E+02  0.21573097555E+02  0.10566000000E+00 0.  1.
        994    1    1    2    0    0 -0.63227482662E+01 -0.82852749729E+01  0.42731117142E+01  0.17157016760E+03  0.17120000000E+03 0.  0.
        998    1    1    2    0    0  0.35459888978E+01 -0.37118250411E+01  0.14780139917E+04  0.14780567348E+04  0.10000000000E+02 0.  1.
</event>
<event>
 5    1  0.1294251E-008  0.3797281E+03  0.7957747E-01  0.3452343E+00
         13   -1    0    0    0    0  0.00000000000E+00  0.00000000000E+00  0.14999999963E+04  0.15000000000E+04  0.10566000000E+00 0. -1.
        994   -1    0    0    0    0 -0.00000000000E+00 -0.00000000000E+00  0.11368683772E-12  0.17120000000E+03  0.17120000000E+03 0.  0.
         13    1    1    2    0    0 -0.51938888113E+02  0.34324704607E+02  0.32983852867E+03  0.33566247869E+03  0.10566000000E+00 0. -1.
        994    1    1    2    0    0  0.59676778076E+02 -0.35774903972E+02  0.20642554683E+02  0.18594815584E+03  0.17120000000E+03 0.  0.
        998    1    1    2    0    0 -0.77378899637E+01  0.14501993646E+01  0.11495189129E+04  0.11495893655E+04  0.10000000000E+02 0. -1.
</event>
<event>
 5    1  0.1294251E-008  0.3710700E+03  0.7957747E-01  0.3490988E+00
         13   -1    0    0    0    0  0.00000000000E+00  0.00000000000E+00  0.14999999963E+04  0.15000000000E+04  0.10566000000E+00 0.  1.
        994   -1    0    0    0    0 -0.00000000000E+00 -0.00000000000E+00  0.11368683772E-12  0.17120000000E+03  0.17120000000E+03 0.  0.
         13    1    1    2    0    0 -0.32732256953E+02 -0.47156684879E+02  0.13165620168E+03  0.14362632133E+03  0.10566000000E+00 0.  1.
        994    1    1    2    0    0  0.30104002309E+02  0.40084870806E+02  0.20376942007E+02  0.17954862179E+03  0.17120000000E+03 0.  0.
        998    1    1    2    0    0  0.26282546439E+01  0.70718140738E+01  0.13479668526E+04  0.13480250569E+04  0.10000000000E+02 0.  1.
</event>
<event>
 5    1  0.1294251E-008  0.3818417E+03  0.7957747E-01  0.3443178E+00
         13   -1    0    0    0    0  0.00000000000E+00  0.00000000000E+00  0.14999999963E+04  0.15000000000E+04  0.10566000000E+00 0. -1.
        994   -1    0    0    0    0 -0.00000000000E+00 -0.00000000000E+00  0.11368683772E-12  0.17120000000E+03  0.17120000000E+03 0.  0.
         13    1    1    2    0    0 -0.71510563416E+01 -0.95434890127E+01  0.22123415990E+02  0.25133095481E+02  0.10566000000E+00 0. -1.
        994    1    1    2    0    0  0.49157546896E+01 -0.16795198599E+02  0.42245755385E+01  0.17214392344E+03  0.17120000000E+03 0.  0.
        998    1    1    2    0    0  0.22353016520E+01  0.26338687612E+02  0.14736520047E+04  0.14739229811E+04  0.10000000000E+02 0. -1.
</event>
<event>
 5    1  0.1294251E-008  0.3851512E+03  0.7957747E-01  0.3429031E+00
         13   -1    0    0    0    0  0.00000000000E+00  0.00000000000E+00  0.14999999963E+04  0.15000000000E+04  0.10566000000E+00 0. -1.
        994   -1    0    0    0    0 -0.00000000000E+00 -0.00000000000E+00  0.11368683772E-12  0.17120000000E+03  0.17120000000E+03 0.  0.
         13    1    1    2    0    0 -0.15635894993E+02 -0.71681636491E+01  0.96511278980E+02  0.98032147363E+02  0.10566000000E+00 0. -1.
        994    1    1    2    0    0  0.67319677812E+01  0.80421478286E+01  0.19167497332E+01  0.17153165732E+03  0.17120000000E+03 0.  0.
        998    1    1    2    0    0  0.89039272116E+01 -0.87398417958E+00  0.14015719676E+04  0.14016361953E+04  0.10000000000E+02 0. -1.
</event>
<event>
 5    1  0.1294251E-008  0.3831287E+03  0.7957747E-01  0.3437648E+00
         13   -1    0    0    0    0  0.00000000000E+00  0.00000000000E+00  0.14999999963E+04  0.15000000000E+04  0.10566000000E+00 0. -1.
        994   -1    0    0    0    0 -0.00000000000E+00 -0.00000000000E+00  0.11368683772E-12  0.17120000000E+03  0.17120000000E+03 0.  0.
         13    1    1    2    0    0 -0.31494151950E-01  0.12572298259E+02  0.28996784487E+02  0.31605194984E+02  0.10566000000E+00 0. -1.
        994    1    1    2    0    0 -0.61029153451E+01 -0.17988011136E+02  0.37568215794E+01  0.17229151990E+03  0.17120000000E+03 0.  0.
        998    1    1    2    0    0  0.61344094971E+01  0.54157128766E+01  0.14672463902E+04  0.14673032851E+04  0.10000000000E+02 0. -1.
</event>
<event>
 5    1  0.1294251E-008  0.3731575E+03  0.7957747E-01  0.3481504E+00
         13   -1    0    0    0    0  0.00000000000E+00  0.00000000000E+00  0.14999999963E+04  0.15000000000E+04  0.10566000000E+00 0.  1.
        994   -1    0    0    0    0 -0.00000000000E+00 -0.00000000000E+00  0.11368683772E-12  0.17120000000E+03  0.17120000000E+03 0.  0.
         13    1    1    2    0    0 -0.62397172888E+02  0.24876810810E+02  0.37080397305E+03  0.37683930328E+03  0.10566000000E+00 0.  1.
        994    1    1    2    0    0  0.61963851870E+01 -0.14028105292E+02  0.84327579121E+01  0.17209222624E+03  0.17120000000E+03 0.  0.
        998    1    1    2    0    0  0.56200787701E+02 -0.10848705518E+02  0.11207632653E+04  0.11222684705E+04  0.10000000000E+02 0.  1.
</event>
<event>
 5    1  0.1294251E-008  0.3783170E+03  0.7957747E-01  0.3458519E+00
         13   -1    0    0    0    0  0.00000000000E+00  0.00000000000E+00  0.14999999963E+04  0.15000000000E+04  0.10566000000E+00 0.  1.
        994   -1    0    0    0    0 -0.00000000000E+00 -0.00000000000E+00  0.11368683772E-12  0.17120000000E+03  0.17120000000E+03 0.  0.
         13    1    1    2    0    0 -0.46075585338E+01  0.28213765418E+02  0.10285372986E+03  0.10675273798E+03  0.10566000000E+00 0.  1.
        994    1    1    2    0    0  0.36296973442E+02  0.37410937979E+02  0.14173718945E+02  0.17951986762E+03  0.17120000000E+03 0.  0.
        998    1    1    2    0    0 -0.31689414909E+02 -0.65624703397E+02  0.13829725475E+04  0.13849273944E+04  0.10000000000E+02 0.  1.
</event>
<event>
 5    1  0.1294251E-008  0.3842705E+03  0.7957747E-01  0.3432772E+00
         13   -1    0    0    0    0  0.00000000000E+00  0.00000000000E+00  0.14999999963E+04  0.15000000000E+04  0.10566000000E+00 0.  1.
        994   -1    0    0    0    0 -0.00000000000E+00 -0.00000000000E+00  0.11368683772E-12  0.17120000000E+03  0.17120000000E+03 0.  0.
         13    1    1    2    0    0 -0.16443497072E+02 -0.11448779445E+02  0.10816234951E+03  0.11000258252E+03  0.10566000000E+00 0.  1.
        994    1    1    2    0    0 -0.70462886164E+00  0.58980740162E+01  0.21090815856E+01  0.17131600043E+03  0.17120000000E+03 0.  0.
        998    1    1    2    0    0  0.17148125933E+02  0.55507054286E+01  0.13897285652E+04  0.13898814170E+04  0.10000000000E+02 0.  1.
</event>
<event>
 5    1  0.1294251E-008  0.3799833E+03  0.7957747E-01  0.3451231E+00
         13   -1    0    0    0    0  0.00000000000E+00  0.00000000000E+00  0.14999999963E+04  0.15000000000E+04  0.10566000000E+00 0. -1.
        994   -1    0    0    0    0 -0.00000000000E+00 -0.00000000000E+00  0.11368683772E-12  0.17120000000E+03  0.17120000000E+03 0.  0.
         13    1    1    2    0    0 -0.34070895621E+02 -0.23437175037E+02  0.18151229721E+03  0.18616350960E+03  0.10566000000E+00 0. -1.
        994    1    1    2    0    0  0.34374573783E+02  0.23618552130E+02  0.99787376488E+01  0.17648927030E+03  0.17120000000E+03 0.  0.
        998    1    1    2    0    0 -0.30367816151E+00 -0.18137709248E+00  0.13085089614E+04  0.13085472201E+04  0.10000000000E+02 0.  0.
</event>
<event>
 5    1  0.1294251E-008  0.3808047E+03  0.7957747E-01  0.3447662E+00
         13   -1    0    0    0    0  0.00000000000E+00  0.00000000000E+00  0.14999999963E+04  0.15000000000E+04  0.10566000000E+00 0. -1.
        994   -1    0    0    0    0 -0.00000000000E+00 -0.00000000000E+00  0.11368683772E-12  0.17120000000E+03  0.17120000000E+03 0.  0.
         13    1    1    2    0    0 -0.17245997115E+01  0.36714772086E+02  0.15973442834E+03  0.16390865595E+03  0.10566000000E+00 0. -1.
        994    1    1    2    0    0 -0.98491559951E-01 -0.39274283170E+02  0.88873252644E+01  0.17587183848E+03  0.17120000000E+03 0.  0.
        998    1    1    2    0    0  0.18230912715E+01  0.25595110841E+01  0.13313782427E+04  0.13314195056E+04  0.10000000000E+02 0. -1.
</event>
<event>
 5    1  0.1294251E-008  0.3788957E+03  0.7957747E-01  0.3455981E+00
         13   -1    0    0    0    0  0.00000000000E+00  0.00000000000E+00  0.14999999963E+04  0.15000000000E+04  0.10566000000E+00 0.  1.
        994   -1    0    0    0    0 -0.00000000000E+00 -0.00000000000E+00  0.11368683772E-12  0.17120000000E+03  0.17120000000E+03 0.  0.
         13    1    1    2    0    0 -0.14961234112E+02  0.19492704912E+01  0.22073683576E+02  0.26737555091E+02  0.10566000000E+00 0.  1.
        994    1    1    2    0    0  0.13665500056E+02 -0.59913724288E+01  0.54390023984E+01  0.17193506095E+03  0.17120000000E+03 0.  0.
        998    1    1    2    0    0  0.12957340558E+01  0.40421019376E+01  0.14724873103E+04  0.14725273840E+04  0.10000000000E+02 0.  1.
</event>
<event>
 5    1  0.1294251E-008  0.3775486E+03  0.7957747E-01  0.3461902E+00
         13   -1    0    0    0    0  0.00000000000E+00  0.00000000000E+00  0.14999999963E+04  0.15000000000E+04  0.10566000000E+00 0. -1.
        994   -1    0    0    0    0 -0.00000000000E+00 -0.00000000000E+00  0.11368683772E-12  0.17120000000E+03  0.17120000000E+03 0.  0.
         13    1    1    2    0    0  0.46829955903E+01  0.20641004250E+02  0.43572643887E+02  0.48441386886E+02  0.10566000000E+00 0. -1.
        994    1    1    2    0    0 -0.12707007106E+02  0.19314447132E+02  0.71792523515E+01  0.17290314503E+03  0.17120000000E+03 0.  0.
        998    1    1    2    0    0  0.80240115154E+01 -0.39955451382E+02  0.14492481000E+04  0.14498554681E+04  0.10000000000E+02 0. -1.
</event>
<event>
 5    1  0.1294251E-008  0.3817233E+03  0.7957747E-01  0.3443689E+00
         13   -1    0    0    0    0  0.00000000000E+00  0.00000000000E+00  0.14999999963E+04  0.15000000000E+04  0.10566000000E+00 0.  1.
        994   -1    0    0    0    0 -0.00000000000E+00 -0.00000000000E+00  0.11368683772E-12  0.17120000000E+03  0.17120000000E+03 0.  0.
         13    1    1    2    0    0  0.22097668512E+02 -0.92847656398E+00  0.74600215214E+02  0.77809847040E+02  0.10566000000E+00 0.  1.
        994    1    1    2    0    0 -0.11679595486E+02  0.36132407279E+01  0.37627209731E+01  0.17167721610E+03  0.17120000000E+03 0.  0.
        998    1    1    2    0    0 -0.10418073026E+02 -0.26847641640E+01  0.14216370601E+04  0.14217129369E+04  0.10000000000E+02 0.  1.
</event>
<event>
 5    1  0.1294251E-008  0.3736884E+03  0.7957747E-01  0.3479110E+00
         13   -1    0    0    0    0  0.00000000000E+00  0.00000000000E+00  0.14999999963E+04  0.15000000000E+04  0.10566000000E+00 0. -1.
        994   -1    0    0    0    0 -0.00000000000E+00 -0.00000000000E+00  0.11368683772E-12  0.17120000000E+03  0.17120000000E+03 0.  0.
         13    1    1    2    0    0  0.32599737656E+02 -0.54027658634E+01  0.71293035014E+02  0.78578882530E+02  0.10566000000E+00 0. -1.
        994    1    1    2    0    0 -0.21435781433E+02  0.48453598192E+01  0.90045629746E+01  0.17283949893E+03  0.17120000000E+03 0.  0.
        998    1    1    2    0    0 -0.11163956223E+02  0.55740604416E+00  0.14197023983E+04  0.14197816185E+04  0.10000000000E+02 0. -1.
</event>
<event>
 5    1  0.1294251E-008  0.3786938E+03  0.7957747E-01  0.3456866E+00
         13   -1    0    0    0    0  0.00000000000E+00  0.00000000000E+00  0.14999999963E+04  0.15000000000E+04  0.10566000000E+00 0.  1.
        994   -1    0    0    0    0 -0.00000000000E+00 -0.00000000000E+00  0.11368683772E-12  0.17120000000E+03  0.17120000000E+03 0.  0.
         13    1    1    2    0    0  0.25360889678E+01  0.16608004889E+02  0.28036596075E+02  0.32685156527E+02  0.10566000000E+00 0.  1.
        994    1    1    2    0    0 -0.19579337013E+01 -0.42865254585E+01  0.48685217947E+01  0.17133403138E+03  0.17120000000E+03 0.  0.
        998    1    1    2    0    0 -0.57815526651E+00 -0.12321479430E+02  0.14670948784E+04  0.14671808121E+04  0.10000000000E+02 0.  1.
</event>
<event>
 5    1  0.1294251E-008  0.3810845E+03  0.7957747E-01  0.3446450E+00
         13   -1    0    0    0    0  0.00000000000E+00  0.00000000000E+00  0.14999999963E+04  0.15000000000E+04  0.10566000000E+00 0.  1.
        994   -1    0    0    0    0 -0.00000000000E+00 -0.00000000000E+00  0.11368683772E-12  0.17120000000E+03  0.17120000000E+03 0.  0.
         13    1    1    2    0    0 -0.22884554022E+02 -0.11278528532E+02  0.91567388837E+02  0.95055278028E+02  0.10566000000E+00 0.  1.
        994    1    1    2    0    0  0.79565553358E+01  0.98109631420E+01  0.41183665410E+01  0.17171477139E+03  0.17120000000E+03 0.  0.
        998    1    1    2    0    0  0.14927998687E+02  0.14675653904E+01  0.14043142409E+04  0.14044299506E+04  0.10000000000E+02 0.  1.
</event>
<event>
 5    1  0.1294251E-008  0.3739345E+03  0.7957747E-01  0.3478002E+00
         13   -1    0    0    0    0  0.00000000000E+00  0.00000000000E+00  0.14999999963E+04  0.15000000000E+04  0.10566000000E+00 0. -1.
        994   -1    0    0    0    0 -0.00000000000E+00 -0.00000000000E+00  0.11368683772E-12  0.17120000000E+03  0.17120000000E+03 0.  0.
         13    1    1    2    0    0 -0.66400800569E+02 -0.76043413035E+02  0.49207225861E+03  0.50232139696E+03  0.10566000000E+00 0. -1.
        994    1    1    2    0    0  0.64699008552E+02  0.70059330487E+02  0.38916017555E+02  0.19979531506E+03  0.17120000000E+03 0.  0.
        998    1    1    2    0    0  0.17017920169E+01  0.59840825485E+01  0.96901172011E+03  0.96908328799E+03  0.10000000000E+02 0.  0.
</event>
<event>
 5    1  0.1294251E-008  0.3806135E+03  0.7957747E-01  0.3448491E+00
         13   -1    0    0    0    0  0.00000000000E+00  0.00000000000E+00  0.14999999963E+04  0.15000000000E+04  0.10566000000E+00 0.  1.
        994   -1    0    0    0    0 -0.00000000000E+00 -0.00000000000E+00  0.11368683772E-12  0.17120000000E+03  0.17120000000E+03 0.  0.
         13    1    1    2    0    0  0.37853087396E+02  0.17313780304E+02  0.20464033175E+03  0.20883079217E+03  0.10566000000E+00 0.  1.
        994    1    1    2    0    0 -0.33916651519E+02 -0.13759030765E+02  0.83059721373E+01  0.17526573924E+03  0.17120000000E+03 0.  0.
        998    1    1    2    0    0 -0.39364358773E+01 -0.35547495389E+01  0.12870536924E+04  0.12871034686E+04  0.10000000000E+02 0.  1.
</event>
<event>
 5    1  0.1294251E-008  0.3847274E+03  0.7957747E-01  0.3430829E+00
         13   -1    0    0    0    0  0.00000000000E+00  0.00000000000E+00  0.14999999963E+04  0.15000000000E+04  0.10566000000E+00 0.  1.
        994   -1    0    0    0    0 -0.00000000000E+00 -0.00000000000E+00  0.11368683772E-12  0.17120000000E+03  0.17120000000E+03 0.  0.
         13    1    1    2    0    0  0.80506081356E+01  0.20272259609E+02  0.12764513687E+03  0.12949543981E+03  0.10566000000E+00 0.  1.
        994    1    1    2    0    0 -0.22323044619E+01 -0.20446513448E+02  0.31592248296E+01  0.17246003536E+03  0.17120000000E+03 0.  0.
        998    1    1    2    0    0 -0.58183036738E+01  0.17425383815E+00  0.13691956346E+04  0.13692445248E+04  0.10000000000E+02 0.  0.
</event>
<event>
 5    1  0.1294251E-008  0.3793554E+03  0.7957747E-01  0.3453970E+00
         13   -1    0    0    0    0  0.00000000000E+00  0.00000000000E+00  0.14999999963E+04  0.15000000000E+04  0.10566000000E+00 0. -1.
        994   -1    0    0    0    0 -0.00000000000E+00 -0.00000000000E+00  0.11368683772E-12  0.17120000000E+03  0.17120000000E+03 0.  0.
         13    1    1    2    0    0  0.74449575011E+02 -0.17792926565E+02  0.42281769749E+03  0.42969075383E+03  0.10566000000E+00 0. -1.
        994    1    1    2    0    0 -0.80506133352E+02  0.33642016211E+02  0.30400464028E+02  0.19454215732E+03  0.17120000000E+03 0.  0.
        998    1    1    2    0    0  0.60565583403E+01 -0.15849089645E+02  0.10467818348E+04  0.10469670888E+04  0.10000000000E+02 0. -1.
</event>
<event>
 5    1  0.1294251E-008  0.3831512E+03  0.7957747E-01  0.3437551E+00
         13   -1    0    0    0    0  0.00000000000E+00  0.00000000000E+00  0.14999999963E+04  0.15000000000E+04  0.10566000000E+00 0.  1.
        994   -1    0    0    0    0 -0.00000000000E+00 -0.00000000000E+00  0.11368683772E-12  0.17120000000E+03  0.17120000000E+03 0.  0.
         13    1    1    2    0    0  0.57707282723E+01 -0.15185635077E+02  0.49367322462E+02  0.51971612527E+02  0.10566000000E+00 0.  1.
        994    1    1    2    0    0 -0.50576020466E+01  0.17160725803E+02  0.36104690834E+01  0.17217010581E+03  0.17120000000E+03 0.  0.
        998    1    1    2    0    0 -0.71312622571E+00 -0.19750907261E+01  0.14470222047E+04  0.14470582817E+04  0.10000000000E+02 0.  1.
</event>
<event>
 5    1  0.1294251E-008  0.3070284E+03  0.7957747E-01  0.3847086E+00
         13   -1    0    0    0    0  0.00000000000E+00  0.00000000000E+00  0.14999999963E+04  0.15000000000E+04  0.10566000000E+00 0.  1.
        994   -1    0    0    0    0 -0.00000000000E+00 -0.00000000000E+00  0.11368683772E-12  0.17120000000E+03  0.17120000000E+03 0.  0.
         13    1    1    2    0    0  0.12226306839E+03 -0.15703745750E+03  0.65816958742E+03  0.68760180186E+03  0.10566000000E+00 0.  1.
        994    1    1    2    0    0 -0.94061387785E+02  0.18825890698E+03  0.19206758671E+03  0.33239789199E+03  0.17120000000E+03 0.  0.
        998    1    1    2    0    0 -0.28201680601E+02 -0.31221449483E+02  0.64976282214E+03  0.65120030615E+03  0.10000000000E+02 0.  1.
</event>
<event>
 5    1  0.1294251E-008  0.3727977E+03  0.7957747E-01  0.3483131E+00
         13   -1    0    0    0    0  0.00000000000E+00  0.00000000000E+00  0.14999999963E+04  0.15000000000E+04  0.10566000000E+00 0. -1.
        994   -1    0    0    0    0 -0.00000000000E+00 -0.00000000000E+00  0.11368683772E-12  0.17120000000E+03  0.17120000000E+03 0.  0.
         13    1    1    2    0    0 -0.85564513837E+01 -0.27415853510E+02  0.46804861745E+02  0.54914006692E+02  0.10566000000E+00 0. -1.
        994    1    1    2    0    0  0.11519445031E+02  0.37737866221E+02  0.13164455105E+02  0.17618055239E+03  0.17120000000E+03 0.  0.
        998    1    1    2    0    0 -0.29629936477E+01 -0.10322012711E+02  0.14400306794E+04  0.14401054409E+04  0.10000000000E+02 0. -1.
</event>
<event>
 5    1  0.1294251E-008  0.3830566E+03  0.7957747E-01  0.3437957E+00
         13   -1    0    0    0    0  0.00000000000E+00  0.00000000000E+00  0.14999999963E+04  0.15000000000E+04  0.10566000000E+00 0.  1.
        994   -1    0    0    0    0 -0.00000000000E+00 -0.00000000000E+00  0.11368683772E-12  0.17120000000E+03  0.17120000000E+03 0.  0.
         13    1    1    2    0    0 -0.21065967590E+02  0.18264370456E+02  0.14909926775E+03  0.15168376652E+03  0.10566000000E+00 0.  1.
        994    1    1    2    0    0  0.19332690831E+01 -0.23551069036E+02  0.44482874875E+01  0.17288035644E+03  0.17120000000E+03 0.  0.
        998    1    1    2    0    0  0.19132698507E+02  0.52866985800E+01  0.13464524410E+04  0.13466358770E+04  0.10000000000E+02 0.  1.
</event>
<event>
 5    1  0.1294251E-008  0.3833963E+03  0.7957747E-01  0.3436502E+00
         13   -1    0    0    0    0  0.00000000000E+00  0.00000000000E+00  0.14999999963E+04  0.15000000000E+04  0.10566000000E+00 0. -1.
        994   -1    0    0    0    0 -0.00000000000E+00 -0.00000000000E+00  0.11368683772E-12  0.17120000000E+03  0.17120000000E+03 0.  0.
         13    1    1    2    0    0  0.24636963867E+02 -0.45722983359E+01  0.13267880983E+03  0.13502430760E+03  0.10566000000E+00 0. -1.
        994    1    1    2    0    0 -0.10641607855E+02  0.36960682369E+01  0.28480600905E+01  0.17159386989E+03  0.17120000000E+03 0.  0.
        998    1    1    2    0    0 -0.13995356012E+02  0.87623009906E+00  0.13644731264E+04  0.13645818225E+04  0.10000000000E+02 0. -1.
</event>
<event>
 5    1  0.1294251E-008  0.3842695E+03  0.7957747E-01  0.3432776E+00
         13   -1    0    0    0    0  0.00000000000E+00  0.00000000000E+00  0.14999999963E+04  0.15000000000E+04  0.10566000000E+00 0.  1.
        994   -1    0    0    0    0 -0.00000000000E+00 -0.00000000000E+00  0.11368683772E-12  0.17120000000E+03  0.17120000000E+03 0.  0.
         13    1    1    2    0    0 -0.19714321373E+02  0.51584698918E+00  0.10209204774E+03  0.10397941115E+03  0.10566000000E+00 0.  1.
        994    1    1    2    0    0  0.56724389158E+01 -0.53784603717E+01  0.21947037561E+01  0.17139241851E+03  0.17120000000E+03 0.  0.
        998    1    1    2    0    0  0.14041882457E+02  0.48626133826E+01  0.13957132448E+04  0.13958281703E+04  0.10000000000E+02 0.  1.
</event>
<event>
 5    1  0.1294251E-008  0.3791740E+03  0.7957747E-01  0.3454763E+00
         13   -1    0    0    0    0  0.00000000000E+00  0.00000000000E+00  0.14999999963E+04  0.15000000000E+04  0.10566000000E+00 0.  1.
        994   -1    0    0    0    0 -0.00000000000E+00 -0.00000000000E+00  0.11368683772E-12  0.17120000000E+03  0.17120000000E+03 0.  0.
         13    1    1    2    0    0  0.20346316942E+02  0.93193998738E+01  0.56509263591E+02  0.60779370372E+02  0.10566000000E+00 0.  1.
        994    1    1    2    0    0 -0.18824045667E+00  0.21582525021E+01  0.45663996581E+01  0.17127459092E+03  0.17120000000E+03 0.  0.
        998    1    1    2    0    0 -0.20158076485E+02 -0.11477652376E+02  0.14389243330E+04  0.14391460387E+04  0.10000000000E+02 0.  1.
</event>
<event>
 5    1  0.1294251E-008  0.3978091E+03  0.7957747E-01  0.3377100E+00
         13   -1    0    0    0    0  0.00000000000E+00  0.00000000000E+00  0.14999999963E+04  0.15000000000E+04  0.10566000000E+00 0.  1.
        994   -1    0    0    0    0 -0.00000000000E+00 -0.00000000000E+00  0.11368683772E-12  0.17120000000E+03  0.17120000000E+03 0.  0.
         13    1    1    2    0    0  0.32684971835E+02  0.13725018045E+03  0.32551971949E+03  0.35478023952E+03  0.10566000000E+00 0.  1.
        994    1    1    2    0    0 -0.10713141839E+02 -0.11323903122E+03  0.78672720504E+02  0.22008336273E+03  0.17120000000E+03 0.  0.
        998    1    1    2    0    0 -0.21971829996E+02 -0.24011149235E+02  0.10958075563E+04  0.10963363977E+04  0.10000000000E+02 0.  1.
</event>
<event>
 5    1  0.1294251E-008  0.3836838E+03  0.7957747E-01  0.3435274E+00
         13   -1    0    0    0    0  0.00000000000E+00  0.00000000000E+00  0.14999999963E+04  0.15000000000E+04  0.10566000000E+00 0.  1.
        994   -1    0    0    0    0 -0.00000000000E+00 -0.00000000000E+00  0.11368683772E-12  0.17120000000E+03  0.17120000000E+03 0.  0.
         13    1    1    2    0    0 -0.23583465585E+01  0.17362012724E+02  0.72013037397E+02  0.74114033783E+02  0.10566000000E+00 0.  1.
        994    1    1    2    0    0  0.74948752621E+01  0.30906501514E+01  0.25021466217E+01  0.17141011059E+03  0.17120000000E+03 0.  0.
        998    1    1    2    0    0 -0.51365287037E+01 -0.20452662875E+02  0.14254848123E+04  0.14256758556E+04  0.10000000000E+02 0.  1.
</event>
<event>
 5    1  0.1294251E-008  0.3797272E+03  0.7957747E-01  0.3452347E+00
         13   -1    0    0    0    0  0.00000000000E+00  0.00000000000E+00  0.14999999963E+04  0.15000000000E+04  0.10566000000E+00 0.  1.
        994   -1    0    0    0    0 -0.00000000000E+00 -0.00000000000E+00  0.11368683772E-12  0.17120000000E+03  0.17120000000E+03 0.  0.
         13    1    1    2    0    0  0.19097405417E+02  0.37179598507E+02  0.17394448743E+03  0.17889586163E+03  0.10566000000E+00 0.  1.
        994    1    1    2    0    0 -0.22125376397E+02 -0.42309830932E+02  0.11936505705E+02  0.17813358539E+03  0.17120000000E+03 0.  0.
        998    1    1    2    0    0  0.30279709794E+01  0.51302324246E+01  0.13141190031E+04  0.13141705530E+04  0.10000000000E+02 0.  1.
</event>
<event>
 5    1  0.1294251E-008  0.3777682E+03  0.7957747E-01  0.3460934E+00
         13   -1    0    0    0    0  0.00000000000E+00  0.00000000000E+00  0.14999999963E+04  0.15000000000E+04  0.10566000000E+00 0. -1.
        994   -1    0    0    0    0 -0.00000000000E+00 -0.00000000000E+00  0.11368683772E-12  0.17120000000E+03  0.17120000000E+03 0.  0.
         13    1    1    2    0    0 -0.19578485807E+02  0.86757091597E+01  0.41349010301E+02  0.46565404033E+02  0.10566000000E+00 0. -1.
        994    1    1    2    0    0  0.16133266961E+02 -0.13177583813E+01  0.61469003447E+01  0.17207336567E+03  0.17120000000E+03 0.  0.
        998    1    1    2    0    0  0.34452188459E+01 -0.73579507784E+01  0.14525040856E+04  0.14525612303E+04  0.10000000000E+02 0. -1.
</event>
<event>
 5    1  0.1294251E-008  0.3844219E+03  0.7957747E-01  0.3432128E+00
         13   -1    0    0    0    0  0.00000000000E+00  0.00000000000E+00  0.14999999963E+04  0.15000000000E+04  0.10566000000E+00 0. -1.
        994   -1    0    0    0    0 -0.00000000000E+00 -0.00000000000E+00  0.11368683772E-12  0.17120000000E+03  0.17120000000E+03 0.  0.
         13    1    1    2    0    0  0.14516529759E+02 -0.63339993288E+01  0.61608150003E+02  0.63611512281E+02  0.10566000000E+00 0. -1.
        994    1    1    2    0    0 -0.21452562949E+02  0.15424542651E+01  0.34430512383E+01  0.17258008641E+03  0.17120000000E+03 0.  0.
        998    1    1    2    0    0  0.69360331900E+01  0.47915450637E+01  0.14349487950E+04  0.14350084013E+04  0.10000000000E+02 0. -1.
</event>
<event>
 5    1  0.1294251E-008  0.3808816E+03  0.7957747E-01  0.3447329E+00
         13   -1    0    0    0    0  0.00000000000E+00  0.00000000000E+00  0.14999999963E+04  0.15000000000E+04  0.10566000000E+00 0.  1.
        994   -1    0    0    0    0 -0.00000000000E+00 -0.00000000000E+00  0.11368683772E-12  0.17120000000E+03  0.17120000000E+03 0.  0.
         13    1    1    2    0    0  0.19104056419E+02 -0.94491396948E+01  0.67760610453E+02  0.71033532262E+02  0.10566000000E+00 0.  1.
        994    1    1    2    0    0 -0.87267472950E+00 -0.28182338664E+02  0.63432030368E+01  0.17362223935E+03  0.17120000000E+03 0.  0.
        998    1    1    2    0    0 -0.18231381689E+02  0.37631478359E+02  0.14258961828E+04  0.14265442284E+04  0.10000000000E+02 0.  1.
</event>
<event>
 5    1  0.1294251E-008  0.3840485E+03  0.7957747E-01  0.3433718E+00
         13   -1    0    0    0    0  0.00000000000E+00  0.00000000000E+00  0.14999999963E+04  0.15000000000E+04  0.10566000000E+00 0. -1.
        994   -1    0    0    0    0 -0.00000000000E+00 -0.00000000000E+00  0.11368683772E-12  0.17120000000E+03  0.17120000000E+03 0.  0.
         13    1    1    2    0    0 -0.94268938640E+01  0.16098515360E+02  0.77370067202E+02  0.79587480094E+02  0.10566000000E+00 0. -1.
        994    1    1    2    0    0  0.77233185878E+01 -0.21224918837E+02  0.37879607661E+01  0.17272502852E+03  0.17120000000E+03 0.  0.
        998    1    1    2    0    0  0.17035752762E+01  0.51264034768E+01  0.14188419683E+04  0.14188874914E+04  0.10000000000E+02 0. -1.
</event>
<event>
 5    1  0.1294251E-008  0.3774590E+03  0.7957747E-01  0.3462298E+00
         13   -1    0    0    0    0  0.00000000000E+00  0.00000000000E+00  0.14999999963E+04  0.15000000000E+04  0.10566000000E+00 0. -1.
        994   -1    0    0    0    0 -0.00000000000E+00 -0.00000000000E+00  0.11368683772E-12  0.17120000000E+03  0.17120000000E+03 0.  0.
         13    1    1    2    0    0 -0.53572068449E+02 -0.94046104256E+01  0.83997236832E+02  0.10006977653E+03  0.10566000000E+00 0. -1.
        994    1    1    2    0    0  0.69655502541E+02  0.19687271062E+02  0.33997555677E+02  0.18895700958E+03  0.17120000000E+03 0.  0.
        998    1    1    2    0    0 -0.16083434092E+02 -0.10282660636E+02  0.13820052038E+04  0.13821732139E+04  0.10000000000E+02 0. -1.
</event>
<event>
 5    1  0.1294251E-008  0.3776016E+03  0.7957747E-01  0.3461668E+00
         13   -1    0    0    0    0  0.00000000000E+00  0.00000000000E+00  0.14999999963E+04  0.15000000000E+04  0.10566000000E+00 0.  1.
        994   -1    0    0    0    0 -0.00000000000E+00 -0.00000000000E+00  0.11368683772E-12  0.17120000000E+03  0.17120000000E+03 0.  0.
         13    1    1    2    0    0 -0.58568288445E+02 -0.17092388809E+02  0.35390002470E+03  0.35912063825E+03  0.10566000000E+00 0.  1.
        994    1    1    2    0    0  0.30056683912E+02  0.12448665340E+02  0.89233588155E+01  0.17449194781E+03  0.17120000000E+03 0.  0.
        998    1    1    2    0    0  0.28511604533E+02  0.46437234692E+01  0.11371766128E+04  0.11375874139E+04  0.10000000000E+02 0. -1.
</event>
<event>
 5    1  0.1294251E-008  0.3811362E+03  0.7957747E-01  0.3446226E+00
         13   -1    0    0    0    0  0.00000000000E+00  0.00000000000E+00  0.14999999963E+04  0.15000000000E+04  0.10566000000E+00 0.  1.
        994   -1    0    0    0    0 -0.00000000000E+00 -0.00000000000E+00  0.11368683772E-12  0.17120000000E+03  0.17120000000E+03 0.  0.
         13    1    1    2    0    0  0.13493060124E+02  0.25442007073E+02  0.11164822090E+03  0.11530262265E+03  0.10566000000E+00 0.  1.
        994    1    1    2    0    0 -0.11413383744E+02 -0.19888710069E+02  0.53138614433E+01  0.17281059933E+03  0.17120000000E+03 0.  0.
        998    1    1    2    0    0 -0.20796763802E+01 -0.55532970038E+01  0.13830379139E+04  0.13830867780E+04  0.10000000000E+02 0.  1.
</event>
<event>
 5    1  0.1294251E-008  0.3843083E+03  0.7957747E-01  0.3432611E+00
         13   -1    0    0    0    0  0.00000000000E+00  0.00000000000E+00  0.14999999963E+04  0.15000000000E+04  0.10566000000E+00 0.  1.
        994   -1    0    0    0    0 -0.00000000000E+00 -0.00000000000E+00  0.11368683772E-12  0.17120000000E+03  0.17120000000E+03 0.  0.
         13    1    1    2    0    0  0.47001221859E+01  0.97443359512E+01  0.29102461563E+02  0.31048472825E+02  0.10566000000E+00 0.  1.
        994    1    1    2    0    0  0.79970096498E+00 -0.90638827534E+01  0.22468628892E+01  0.17145635563E+03  0.17120000000E+03 0.  0.
        998    1    1    2    0    0 -0.54998231509E+01 -0.68045319776E+00  0.14686506718E+04  0.14686951715E+04  0.10000000000E+02 0.  1.
</event>
<event>
 5    1  0.1294251E-008  0.3794960E+03  0.7957747E-01  0.3453356E+00
         13   -1    0    0    0    0  0.00000000000E+00  0.00000000000E+00  0.14999999963E+04  0.15000000000E+04  0.10566000000E+00 0.  1.
        994   -1    0    0    0    0 -0.00000000000E+00 -0.00000000000E+00  0.11368683772E-12  0.17120000000E+03  0.17120000000E+03 0.  0.
         13    1    1    2    0    0  0.13720701217E+02  0.75640879814E+02  0.44743737436E+03  0.45399340907E+03  0.10566000000E+00 0.  1.
        994    1    1    2    0    0 -0.27720421545E+02 -0.77714134368E+02  0.27532092276E+02  0.19202959292E+03  0.17120000000E+03 0.  0.
        998    1    1    2    0    0  0.13999720328E+02  0.20732545537E+01  0.10250305296E+04  0.10251769980E+04  0.10000000000E+02 0.  1.
</event>
<event>
 5    1  0.1294251E-008  0.3836236E+03  0.7957747E-01  0.3435531E+00
         13   -1    0    0    0    0  0.00000000000E+00  0.00000000000E+00  0.14999999963E+04  0.15000000000E+04  0.10566000000E+00 0.  1.
        994   -1    0    0    0    0 -0.00000000000E+00 -0.00000000000E+00  0.11368683772E-12  0.17120000000E+03  0.17120000000E+03 0.  0.
         13    1    1    2    0    0 -0.15396148350E+02  0.91540814724E+01  0.67673706668E+02  0.70004145091E+02  0.10566000000E+00 0.  1.
        994    1    1    2    0    0  0.11266901761E+02 -0.92552226460E+01  0.30176778334E+01  0.17184629353E+03  0.17120000000E+03 0.  0.
        998    1    1    2    0    0  0.41292465891E+01  0.10114117361E+00  0.14293086118E+04  0.14293495614E+04  0.10000000000E+02 0.  1.
</event>
<event>
 5    1  0.1294251E-008  0.3856819E+03  0.7957747E-01  0.3426785E+00
         13   -1    0    0    0    0  0.00000000000E+00  0.00000000000E+00  0.14999999963E+04  0.15000000000E+04  0.10566000000E+00 0.  1.
        994   -1    0    0    0    0 -0.00000000000E+00 -0.00000000000E+00  0.11368683772E-12  0.17120000000E+03  0.17120000000E+03 0.  0.
         13    1    1    2    0    0  0.97013709500E+01 -0.76567057316E+01  0.60835060515E+02  0.62077834151E+02  0.10566000000E+00 0.  1.
        994    1    1    2    0    0 -0.39889033509E+01  0.31819611331E+01  0.13774180006E+01  0.17128156208E+03  0.17120000000E+03 0.  0.
        998    1    1    2    0    0 -0.57124675991E+01  0.44747445985E+01  0.14377875178E+04  0.14378406038E+04  0.10000000000E+02 0.  1.
</event>
<event>
 5    1  0.1294251E-008  0.3804891E+03  0.7957747E-01  0.3449032E+00
         13   -1    0    0    0    0  0.00000000000E+00  0.00000000000E+00  0.14999999963E+04  0.15000000000E+04  0.10566000000E+00 0. -1.
        994   -1    0    0    0    0 -0.00000000000E+00 -0.00000000000E+00  0.11368683772E-12  0.17120000000E+03  0.17120000000E+03 0.  0.
         13    1    1    2    0    0 -0.11898489493E+02  0.35588898265E+02  0.13944584301E+03  0.14440671047E+03  0.10566000000E+00 0. -1.
        994    1    1    2    0    0 -0.34253435320E+02 -0.82797824177E+02  0.31164806288E+02  0.19572803241E+03  0.17120000000E+03 0.  0.
        998    1    1    2    0    0  0.46151924812E+02  0.47208925912E+02  0.13293893470E+04  0.13310652571E+04  0.10000000000E+02 0. -1.
</event>
<event>
 5    1  0.1294251E-008  0.3775967E+03  0.7957747E-01  0.3461690E+00
         13   -1    0    0    0    0  0.00000000000E+00  0.00000000000E+00  0.14999999963E+04  0.15000000000E+04  0.10566000000E+00 0.  1.
        994   -1    0    0    0    0 -0.00000000000E+00 -0.00000000000E+00  0.11368683772E-12  0.17120000000E+03  0.17120000000E+03 0.  0.
         13    1    1    2    0    0  0.17906860420E+02  0.77436115598E+02  0.47301118707E+03  0.47964216027E+03  0.10566000000E+00 0.  1.
        994    1    1    2    0    0  0.68756001143E+01 -0.70342344087E+02  0.22373228464E+02  0.18656184122E+03  0.17120000000E+03 0.  0.
        998    1    1    2    0    0 -0.24782460534E+02 -0.70937715108E+01  0.10046155807E+04  0.10049959985E+04  0.10000000000E+02 0.  1.
</event>
<event>
 5    1  0.1294251E-008  0.3811915E+03  0.7957747E-01  0.3445987E+00
         13   -1    0    0    0    0  0.00000000000E+00  0.00000000000E+00  0.14999999963E+04  0.15000000000E+04  0.10566000000E+00 0. -1.
        994   -1    0    0    0    0 -0.00000000000E+00 -0.00000000000E+00  0.11368683772E-12  0.17120000000E+03  0.17120000000E+03 0.  0.
         13    1    1    2    0    0  0.20195428016E+02  0.63082734925E+01  0.67727580248E+02  0.70955520697E+02  0.10566000000E+00 0. -1.
        994    1    1    2    0    0  0.57985600472E+01 -0.12273430004E+01  0.36498716366E+01  0.17134144634E+03  0.17120000000E+03 0.  0.
        998    1    1    2    0    0 -0.25993988063E+02 -0.50809304922E+01  0.14286225444E+04  0.14289030330E+04  0.10000000000E+02 0. -1.
</event>
<event>
 5    1  0.1294251E-008  0.3840951E+03  0.7957747E-01  0.3433519E+00
         13   -1    0    0    0    0  0.00000000000E+00  0.00000000000E+00  0.14999999963E+04  0.15000000000E+04  0.10566000000E+00 0.  1.
        994   -1    0    0    0    0 -0.00000000000E+00 -0.00000000000E+00  0.11368683772E-12  0.17120000000E+03  0.17120000000E+03 0.  0.
         13    1    1    2    0    0 -0.14653425945E+02 -0.30910692339E+01  0.52473163058E+02  0.54568503793E+02  0.10566000000E+00 0.  1.
        994    1    1    2    0    0  0.13343760995E+02  0.29503506186E+01  0.26962861944E+01  0.17176574305E+03  0.17120000000E+03 0.  0.
        998    1    1    2    0    0  0.13096649497E+01  0.14071861529E+00  0.14448305470E+04  0.14448657532E+04  0.10000000000E+02 0.  1.
</event>
<event>
 5    1  0.1294251E-008  0.3849149E+03  0.7957747E-01  0.3430033E+00
         13   -1    0    0    0    0  0.00000000000E+00  0.00000000000E+00  0.14999999963E+04  0.15000000000E+04  0.10566000000E+00 0.  1.
        994   -1    0    0    0    0 -0.00000000000E+00 -0.00000000000E+00  0.11368683772E-12  0.17120000000E+03  0.17120000000E+03 0.  0.
         13    1    1    2    0    0  0.16928381343E+02 -0.52363024034E+01  0.93203543271E+02  0.94873076265E+02  0.10566000000E+00 0.  1.
        994    1    1    2    0    0 -0.11930750103E+02  0.31503714874E+01  0.21734558854E+01  0.17165789102E+03  0.17120000000E+03 0.  0.
        998    1    1    2    0    0 -0.49976312404E+01  0.20859309160E+01  0.14046229971E+04  0.14046690327E+04  0.10000000000E+02 0.  1.
</event>
<event>
 5    1  0.1294251E-008  0.3855605E+03  0.7957747E-01  0.3427299E+00
         13   -1    0    0    0    0  0.00000000000E+00  0.00000000000E+00  0.14999999963E+04  0.15000000000E+04  0.10566000000E+00 0.  1.
        994   -1    0    0    0    0 -0.00000000000E+00 -0.00000000000E+00  0.11368683772E-12  0.17120000000E+03  0.17120000000E+03 0.  0.
         13    1    1    2    0    0  0.75337789740E+01 -0.10405965290E+02  0.57396397561E+02  0.58816660533E+02  0.10566000000E+00 0.  1.
        994    1    1    2    0    0 -0.11278949378E+02  0.15270681969E+02  0.25361136783E+01  0.17226804782E+03  0.17120000000E+03 0.  0.
        998    1    1    2    0    0  0.37451704044E+01 -0.48647166794E+01  0.14400674850E+04  0.14401152916E+04  0.10000000000E+02 0.  1.
</event>
<event>
 5    1  0.1294251E-008  0.3809623E+03  0.7957747E-01  0.3446979E+00
         13   -1    0    0    0    0  0.00000000000E+00  0.00000000000E+00  0.14999999963E+04  0.15000000000E+04  0.10566000000E+00 0.  1.
        994   -1    0    0    0    0 -0.00000000000E+00 -0.00000000000E+00  0.11368683772E-12  0.17120000000E+03  0.17120000000E+03 0.  0.
         13    1    1    2    0    0  0.20854955389E+02  0.16508248087E+02  0.10047900917E+03  0.10393985697E+03  0.10566000000E+00 0.  1.
        994    1    1    2    0    0 -0.55540699734E+01 -0.49660597501E+01  0.38331648994E+01  0.17140490832E+03  0.17120000000E+03 0.  0.
        998    1    1    2    0    0 -0.15300885415E+02 -0.11542188336E+02  0.13956878222E+04  0.13958552347E+04  0.10000000000E+02 0.  1.
</event>
<event>
 5    1  0.1294251E-008  0.3801107E+03  0.7957747E-01  0.3450677E+00
         13   -1    0    0    0    0  0.00000000000E+00  0.00000000000E+00  0.14999999963E+04  0.15000000000E+04  0.10566000000E+00 0. -1.
        994   -1    0    0    0    0 -0.00000000000E+00 -0.00000000000E+00  0.11368683772E-12  0.17120000000E+03  0.17120000000E+03 0.  0.
         13    1    1    2    0    0 -0.11663736804E+02  0.34306803702E+01  0.16130667371E+02  0.20199552418E+02  0.10566000000E+00 0. -1.
        994    1    1    2    0    0  0.13742046676E+02 -0.62730758033E+01  0.48401872456E+01  0.17193330899E+03  0.17120000000E+03 0.  0.
        998    1    1    2    0    0 -0.20783098723E+01  0.28423954330E+01  0.14790291417E+04  0.14790671386E+04  0.10000000000E+02 0. -1.
</event>
<event>
 5    1  0.1294251E-008  0.3839040E+03  0.7957747E-01  0.3434334E+00
         13   -1    0    0    0    0  0.00000000000E+00  0.00000000000E+00  0.14999999963E+04  0.15000000000E+04  0.10566000000E+00 0.  1.
        994   -1    0    0    0    0 -0.00000000000E+00 -0.00000000000E+00  0.11368683772E-12  0.17120000000E+03  0.17120000000E+03 0.  0.
         13    1    1    2    0    0 -0.10135048828E+02 -0.75474421526E+01  0.38196806682E+02  0.40232950458E+02  0.10566000000E+00 0.  1.
        994    1    1    2    0    0 -0.91574436196E+01  0.53675107432E+01  0.25472069154E+01  0.17154765288E+03  0.17120000000E+03 0.  0.
        998    1    1    2    0    0  0.19292492448E+02  0.21799314094E+01  0.14592559827E+04  0.14594193967E+04  0.10000000000E+02 0.  1.
</event>
<event>
 5    1  0.1294251E-008  0.3728227E+03  0.7957747E-01  0.3483018E+00
         13   -1    0    0    0    0  0.00000000000E+00  0.00000000000E+00  0.14999999963E+04  0.15000000000E+04  0.10566000000E+00 0.  1.
        994   -1    0    0    0    0 -0.00000000000E+00 -0.00000000000E+00  0.11368683772E-12  0.17120000000E+03  0.17120000000E+03 0.  0.
         13    1    1    2    0    0  0.16327956722E+02 -0.76499309888E+00  0.13487149198E+02  0.21192020731E+02  0.10566000000E+00 0.  1.
        994    1    1    2    0    0 -0.18278568135E+02 -0.11329245190E+01  0.89504354711E+01  0.17240922210E+03  0.17120000000E+03 0.  0.
        998    1    1    2    0    0  0.19506114130E+01  0.18979176179E+01  0.14775624116E+04  0.14775987572E+04  0.10000000000E+02 0.  1.
</event>
<event>
 5    1  0.1294251E-008  0.3762744E+03  0.7957747E-01  0.3467543E+00
         13   -1    0    0    0    0  0.00000000000E+00  0.00000000000E+00  0.14999999963E+04  0.15000000000E+04  0.10566000000E+00 0.  1.
        994   -1    0    0    0    0 -0.00000000000E+00 -0.00000000000E+00  0.11368683772E-12  0.17120000000E+03  0.17120000000E+03 0.  0.
         13    1    1    2    0    0  0.43348134493E+02 -0.36556005725E+02  0.10399710834E+03  0.11845172867E+03  0.10566000000E+00 0.  1.
        994    1    1    2    0    0 -0.35250220568E+02  0.31551558597E+02  0.22339571920E+02  0.17901557299E+03  0.17120000000E+03 0.  0.
        998    1    1    2    0    0 -0.80979139252E+01  0.50044471284E+01  0.13736633160E+04  0.13737326983E+04  0.10000000000E+02 0.  1.
</event>
<event>
 5    1  0.1294251E-008  0.3836214E+03  0.7957747E-01  0.3435540E+00
         13   -1    0    0    0    0  0.00000000000E+00  0.00000000000E+00  0.14999999963E+04  0.15000000000E+04  0.10566000000E+00 0. -1.
        994   -1    0    0    0    0 -0.00000000000E+00 -0.00000000000E+00  0.11368683772E-12  0.17120000000E+03  0.17120000000E+03 0.  0.
         13    1    1    2    0    0  0.11318132855E+02  0.16328319932E+02  0.67972371800E+02  0.70816443396E+02  0.10566000000E+00 0. -1.
        994    1    1    2    0    0 -0.10435457078E+02 -0.58700489790E+02  0.14148391929E+02  0.18183581402E+03  0.17120000000E+03 0.  0.
        998    1    1    2    0    0 -0.88267577622E+00  0.42372169858E+02  0.14178792326E+04  0.14185477426E+04  0.10000000000E+02 0. -1.
</event>
<event>
 5    1  0.1294251E-008  0.3749010E+03  0.7957747E-01  0.3473666E+00
         13   -1    0    0    0    0  0.00000000000E+00  0.00000000000E+00  0.14999999963E+04  0.15000000000E+04  0.10566000000E+00 0.  1.
        994   -1    0    0    0    0 -0.00000000000E+00 -0.00000000000E+00  0.11368683772E-12  0.17120000000E+03  0.17120000000E+03 0.  0.
         13    1    1    2    0    0  0.52301350681E+02 -0.29608574191E+01  0.98552645127E+02  0.11161018316E+03  0.10566000000E+00 0.  1.
        994    1    1    2    0    0 -0.31620059047E+02 -0.72258586597E+02  0.36028665591E+02  0.19190788471E+03  0.17120000000E+03 0.  0.
        998    1    1    2    0    0 -0.20681291634E+02  0.75219444016E+02  0.13654186856E+04  0.13676819321E+04  0.10000000000E+02 0.  1.
</event>
<event>
 5    1  0.1294251E-008  0.3775195E+03  0.7957747E-01  0.3462031E+00
         13   -1    0    0    0    0  0.00000000000E+00  0.00000000000E+00  0.14999999963E+04  0.15000000000E+04  0.10566000000E+00 0. -1.
        994   -1    0    0    0    0 -0.00000000000E+00 -0.00000000000E+00  0.11368683772E-12  0.17120000000E+03  0.17120000000E+03 0.  0.
         13    1    1    2    0    0 -0.17802966656E+01  0.23090707179E+02  0.47110500615E+02  0.52495339283E+02  0.10566000000E+00 0. -1.
        994    1    1    2    0    0 -0.10393374003E+02 -0.19540939124E+02  0.70434220458E+01  0.17276840081E+03  0.17120000000E+03 0.  0.
        998    1    1    2    0    0  0.12173670669E+02 -0.35497680553E+01  0.14458460736E+04  0.14459362599E+04  0.10000000000E+02 0. -1.
</event>
<event>
 5    1  0.1294251E-008  0.3734440E+03  0.7957747E-01  0.3480211E+00
         13   -1    0    0    0    0  0.00000000000E+00  0.00000000000E+00  0.14999999963E+04  0.15000000000E+04  0.10566000000E+00 0.  1.
        994   -1    0    0    0    0 -0.00000000000E+00 -0.00000000000E+00  0.11368683772E-12  0.17120000000E+03  0.17120000000E+03 0.  0.
         13    1    1    2    0    0  0.79564029803E+02 -0.15350224352E+02  0.47286350804E+03  0.47975615955E+03  0.10566000000E+00 0.  1.
        994    1    1    2    0    0 -0.64926421533E+02 -0.65699566614E+02  0.37220560377E+02  0.19805727298E+03  0.17120000000E+03 0.  0.
        998    1    1    2    0    0 -0.14637608270E+02  0.81049790967E+02  0.98991592786E+03  0.99338656747E+03  0.10000000000E+02 0.  1.
</event>
<event>
 5    1  0.1294251E-008  0.3849221E+03  0.7957747E-01  0.3430003E+00
         13   -1    0    0    0    0  0.00000000000E+00  0.00000000000E+00  0.14999999963E+04  0.15000000000E+04  0.10566000000E+00 0. -1.
        994   -1    0    0    0    0 -0.00000000000E+00 -0.00000000000E+00  0.11368683772E-12  0.17120000000E+03  0.17120000000E+03 0.  0.
         13    1    1    2    0    0 -0.72739731787E+01  0.10515261885E+02  0.50010879451E+02  0.51619576188E+02  0.10566000000E+00 0. -1.
        994    1    1    2    0    0  0.61583414565E+00 -0.49666580655E+01  0.17512390101E+01  0.17128208833E+03  0.17120000000E+03 0.  0.
        998    1    1    2    0    0  0.66581390330E+01 -0.55486038196E+01  0.14482378778E+04  0.14482983355E+04  0.10000000000E+02 0. -1.
</event>
<event>
 5    1  0.1294251E-008  0.3795074E+03  0.7957747E-01  0.3453306E+00
         13   -1    0    0    0    0  0.00000000000E+00  0.00000000000E+00  0.14999999963E+04  0.15000000000E+04  0.10566000000E+00 0. -1.
        994   -1    0    0    0    0 -0.00000000000E+00 -0.00000000000E+00  0.11368683772E-12  0.17120000000E+03  0.17120000000E+03 0.  0.
         13    1    1    2    0    0  0.37596780625E+01  0.93560306350E+01  0.94526333184E+01  0.13821502417E+02  0.10566000000E+00 0. -1.
        994    1    1    2    0    0 -0.51405749273E+01 -0.15252515012E+02  0.52499480857E+01  0.17203507398E+03  0.17120000000E+03 0.  0.
        998    1    1    2    0    0  0.13808968648E+01  0.58964843772E+01  0.14852974149E+04  0.14853434236E+04  0.10000000000E+02 0. -1.
</event>
<event>
 5    1  0.1294251E-008  0.3832067E+03  0.7957747E-01  0.3437314E+00
         13   -1    0    0    0    0  0.00000000000E+00  0.00000000000E+00  0.14999999963E+04  0.15000000000E+04  0.10566000000E+00 0. -1.
        994   -1    0    0    0    0 -0.00000000000E+00 -0.00000000000E+00  0.11368683772E-12  0.17120000000E+03  0.17120000000E+03 0.  0.
         13    1    1    2    0    0 -0.19424819732E+02 -0.15468595724E+02  0.11414908468E+03  0.11681877321E+03  0.10566000000E+00 0. -1.
        994    1    1    2    0    0  0.20959832297E+02  0.12812860929E+02  0.45219217647E+01  0.17301263466E+03  0.17120000000E+03 0.  0.
        998    1    1    2    0    0 -0.15350125656E+01  0.26557347951E+01  0.13813289898E+04  0.13813685921E+04  0.10000000000E+02 0. -1.
</event>
<event>
 5    1  0.2069641E-008  0.3866443E+03  0.7957747E-01  0.3422728E+00
         13   -1    0    0    0    0  0.00000000000E+00  0.00000000000E+00  0.14999999963E+04  0.15000000000E+04  0.10566000000E+00 0. -1.
        994   -1    0    0    0    0 -0.00000000000E+00 -0.00000000000E+00  0.11368683772E-12  0.17120000000E+03  0.17120000000E+03 0.  0.
         13    1    1    2    0    0 -0.17370825114E+01 -0.10185788606E+02  0.58124209809E+02  0.59035605148E+02  0.10566000000E+00 0. -1.
        994    1    1    2    0    0 -0.16345682237E+01  0.25261700069E+02  0.29150573929E+01  0.17308599846E+03  0.17120000000E+03 0.  0.
        998    1    1    2    0    0  0.33716507352E+01 -0.15075911463E+02  0.14389607291E+04  0.14390783964E+04  0.10000000000E+02 0. -1.
</event>
<event>
 5    1  0.1294251E-008  0.3731911E+03  0.7957747E-01  0.3481353E+00
         13   -1    0    0    0    0  0.00000000000E+00  0.00000000000E+00  0.14999999963E+04  0.15000000000E+04  0.10566000000E+00 0.  1.
        994   -1    0    0    0    0 -0.00000000000E+00 -0.00000000000E+00  0.11368683772E-12  0.17120000000E+03  0.17120000000E+03 0.  0.
         13    1    1    2    0    0  0.28036017710E+02 -0.49005983198E+02  0.19441534479E+03  0.20244738114E+03  0.10566000000E+00 0.  1.
        994    1    1    2    0    0 -0.21581452421E+02  0.38573394776E+02  0.14321873529E+02  0.17739284635E+03  0.17120000000E+03 0.  0.
        998    1    1    2    0    0 -0.64545652891E+01  0.10432588422E+02  0.12912627780E+04  0.12913597725E+04  0.10000000000E+02 0.  1.
</event>
<event>
 5    1  0.1294251E-008  0.3859882E+03  0.7957747E-01  0.3425492E+00
         13   -1    0    0    0    0  0.00000000000E+00  0.00000000000E+00  0.14999999963E+04  0.15000000000E+04  0.10566000000E+00 0. -1.
        994   -1    0    0    0    0 -0.00000000000E+00 -0.00000000000E+00  0.11368683772E-12  0.17120000000E+03  0.17120000000E+03 0.  0.
         13    1    1    2    0    0  0.10071330087E+02  0.69322819796E+01  0.71870394877E+02  0.72903038667E+02  0.10566000000E+00 0. -1.
        994    1    1    2    0    0 -0.31570404148E+01  0.77613214963E+01  0.13704886026E+01  0.17141039424E+03  0.17120000000E+03 0.  0.
        998    1    1    2    0    0 -0.69142896722E+01 -0.14693603476E+02  0.14267591128E+04  0.14268865671E+04  0.10000000000E+02 0. -1.
</event>
<event>
 5    1  0.1294251E-008  0.3816106E+03  0.7957747E-01  0.3444176E+00
         13   -1    0    0    0    0  0.00000000000E+00  0.00000000000E+00  0.14999999963E+04  0.15000000000E+04  0.10566000000E+00 0. -1.
        994   -1    0    0    0    0 -0.00000000000E+00 -0.00000000000E+00  0.11368683772E-12  0.17120000000E+03  0.17120000000E+03 0.  0.
         13    1    1    2    0    0  0.25337902157E+02  0.16364117423E+02  0.14649768948E+03  0.14957064489E+03  0.10566000000E+00 0. -1.
        994    1    1    2    0    0 -0.10415370808E+02  0.29007816551E+01  0.37111332119E+01  0.17158119650E+03  0.17120000000E+03 0.  0.
        998    1    1    2    0    0 -0.14922531350E+02 -0.19264899078E+02  0.13497911736E+04  0.13500481586E+04  0.10000000000E+02 0. -1.
</event>
<event>
 5    1  0.1294251E-008  0.3722354E+03  0.7957747E-01  0.3485680E+00
         13   -1    0    0    0    0  0.00000000000E+00  0.00000000000E+00  0.14999999963E+04  0.15000000000E+04  0.10566000000E+00 0. -1.
        994   -1    0    0    0    0 -0.00000000000E+00 -0.00000000000E+00  0.11368683772E-12  0.17120000000E+03  0.17120000000E+03 0.  0.
         13    1    1    2    0    0 -0.37750517456E+02 -0.11328249650E+01  0.62272127708E+02  0.72830034422E+02  0.10566000000E+00 0. -1.
        994    1    1    2    0    0 -0.23832093914E+02  0.23245934798E+02  0.16041066175E+02  0.17514307862E+03  0.17120000000E+03 0.  0.
        998    1    1    2    0    0  0.61582611369E+02 -0.22113109833E+02  0.14216868024E+04  0.14232268870E+04  0.10000000000E+02 0. -1.
</event>
<event>
 5    1  0.1294251E-008  0.3852849E+03  0.7957747E-01  0.3428465E+00
         13   -1    0    0    0    0  0.00000000000E+00  0.00000000000E+00  0.14999999963E+04  0.15000000000E+04  0.10566000000E+00 0. -1.
        994   -1    0    0    0    0 -0.00000000000E+00 -0.00000000000E+00  0.11368683772E-12  0.17120000000E+03  0.17120000000E+03 0.  0.
         13    1    1    2    0    0 -0.13661783480E+02 -0.22907171957E+01  0.64975144369E+02  0.66435474431E+02  0.10566000000E+00 0. -1.
        994    1    1    2    0    0  0.71626427130E+01  0.81394953019E+01  0.18751146798E+01  0.17155323048E+03  0.17120000000E+03 0.  0.
        998    1    1    2    0    0  0.64991407674E+01 -0.58487781062E+01  0.14331497372E+04  0.14332112951E+04  0.10000000000E+02 0. -1.
</event>
<event>
 5    1  0.1294251E-008  0.3896267E+03  0.7957747E-01  0.3410284E+00
         13   -1    0    0    0    0  0.00000000000E+00  0.00000000000E+00  0.14999999963E+04  0.15000000000E+04  0.10566000000E+00 0.  1.
        994   -1    0    0    0    0 -0.00000000000E+00 -0.00000000000E+00  0.11368683772E-12  0.17120000000E+03  0.17120000000E+03 0.  0.
         13    1    1    2    0    0  0.40157503459E+02  0.92831035588E+01  0.32307889557E+02  0.52369953097E+02  0.10566000000E+00 0.  1.
        994    1    1    2    0    0 -0.14762071456E+02  0.13870426671E+02  0.23261926400E+02  0.17395650235E+03  0.17120000000E+03 0.  0.
        998    1    1    2    0    0 -0.25395432003E+02 -0.23153530230E+02  0.14444301803E+04  0.14448735446E+04  0.10000000000E+02 0.  1.
</event>
<event>
 5    1  0.1294251E-008  0.3823489E+03  0.7957747E-01  0.3440994E+00
         13   -1    0    0    0    0  0.00000000000E+00  0.00000000000E+00  0.14999999963E+04  0.15000000000E+04  0.10566000000E+00 0.  1.
        994   -1    0    0    0    0 -0.00000000000E+00 -0.00000000000E+00  0.11368683772E-12  0.17120000000E+03  0.17120000000E+03 0.  0.
         13    1    1    2    0    0 -0.36050509700E+02  0.30833999898E+01  0.20506547693E+03  0.20823306077E+03  0.10566000000E+00 0.  1.
        994    1    1    2    0    0  0.29853670969E+02  0.20699970099E+01  0.59284098736E+01  0.17389684471E+03  0.17120000000E+03 0.  0.
        998    1    1    2    0    0  0.61968387309E+01 -0.51533969997E+01  0.12890061095E+04  0.12890700945E+04  0.10000000000E+02 0.  1.
</event>
<event>
 5    1  0.1294251E-008  0.3717013E+03  0.7957747E-01  0.3488109E+00
         13   -1    0    0    0    0  0.00000000000E+00  0.00000000000E+00  0.14999999963E+04  0.15000000000E+04  0.10566000000E+00 0.  1.
        994   -1    0    0    0    0 -0.00000000000E+00 -0.00000000000E+00  0.11368683772E-12  0.17120000000E+03  0.17120000000E+03 0.  0.
         13    1    1    2    0    0  0.16505445225E+03  0.87743694984E+01  0.97732587301E+03  0.99120423475E+03  0.10566000000E+00 0.  1.
        994    1    1    2    0    0 -0.14091647762E+03 -0.47877542534E+02  0.88843127645E+02  0.24362318050E+03  0.17120000000E+03 0.  0.
        998    1    1    2    0    0 -0.24137974629E+02  0.39103173036E+02  0.43383099563E+03  0.43637258476E+03  0.10000000000E+02 0.  1.
</event>
<event>
 5    1  0.1294251E-008  0.3839746E+03  0.7957747E-01  0.3434033E+00
         13   -1    0    0    0    0  0.00000000000E+00  0.00000000000E+00  0.14999999963E+04  0.15000000000E+04  0.10566000000E+00 0.  1.
        994   -1    0    0    0    0 -0.00000000000E+00 -0.00000000000E+00  0.11368683772E-12  0.17120000000E+03  0.17120000000E+03 0.  0.
         13    1    1    2    0    0  0.20784526750E+02  0.94548616637E+01  0.13462909193E+03  0.13655180159E+03  0.10566000000E+00 0.  1.
        994    1    1    2    0    0 -0.84217863994E+01  0.13948185777E+02  0.30165336970E+01  0.17200005188E+03  0.17120000000E+03 0.  0.
        998    1    1    2    0    0 -0.12362740351E+02 -0.23403047441E+02  0.13623543707E+04  0.13626481465E+04  0.10000000000E+02 0.  1.
</event>
<event>
 5    1  0.1294251E-008  0.3848596E+03  0.7957747E-01  0.3430268E+00
         13   -1    0    0    0    0  0.00000000000E+00  0.00000000000E+00  0.14999999963E+04  0.15000000000E+04  0.10566000000E+00 0. -1.
        994   -1    0    0    0    0 -0.00000000000E+00 -0.00000000000E+00  0.11368683772E-12  0.17120000000E+03  0.17120000000E+03 0.  0.
         13    1    1    2    0    0 -0.59920342030E+01  0.11851952796E+02  0.50348894567E+02  0.52071063050E+02  0.10566000000E+00 0. -1.
        994    1    1    2    0    0  0.83463051484E+01 -0.11394216939E+02  0.23564927822E+01  0.17179779407E+03  0.17120000000E+03 0.  0.
        998    1    1    2    0    0 -0.23542709454E+01 -0.45773585639E+00  0.14472946089E+04  0.14473311429E+04  0.10000000000E+02 0. -1.
</event>
<event>
 5    1  0.1294251E-008  0.3714146E+03  0.7957747E-01  0.3489415E+00
         13   -1    0    0    0    0  0.00000000000E+00  0.00000000000E+00  0.14999999963E+04  0.15000000000E+04  0.10566000000E+00 0. -1.
        994   -1    0    0    0    0 -0.00000000000E+00 -0.00000000000E+00  0.11368683772E-12  0.17120000000E+03  0.17120000000E+03 0.  0.
         13    1    1    2    0    0 -0.44769077567E+02  0.18619111880E+02  0.10727362343E+03  0.11772248333E+03  0.10566000000E+00 0. -1.
        994    1    1    2    0    0  0.89068907813E+01  0.17903724688E+02  0.13094895183E+02  0.17286061536E+03  0.17120000000E+03 0.  0.
        998    1    1    2    0    0  0.35862186786E+02 -0.36522836567E+02  0.13796314777E+04  0.13806169013E+04  0.10000000000E+02 0. -1.
</event>
<event>
 5    1  0.1294251E-008  0.3810777E+03  0.7957747E-01  0.3446479E+00
         13   -1    0    0    0    0  0.00000000000E+00  0.00000000000E+00  0.14999999963E+04  0.15000000000E+04  0.10566000000E+00 0.  1.
        994   -1    0    0    0    0 -0.00000000000E+00 -0.00000000000E+00  0.11368683772E-12  0.17120000000E+03  0.17120000000E+03 0.  0.
         13    1    1    2    0    0 -0.18776810933E+02  0.82164675269E+01  0.54920520516E+02  0.58620420548E+02  0.10566000000E+00 0.  1.
        994    1    1    2    0    0  0.18619225198E+02 -0.15511525669E+02  0.55488224920E+01  0.17299570054E+03  0.17120000000E+03 0.  0.
        998    1    1    2    0    0  0.15758573502E+00  0.72950581424E+01  0.14395306533E+04  0.14395838789E+04  0.10000000000E+02 0.  1.
</event>
<event>
 5    1  0.1294251E-008  0.3745792E+03  0.7957747E-01  0.3475107E+00
         13   -1    0    0    0    0  0.00000000000E+00  0.00000000000E+00  0.14999999963E+04  0.15000000000E+04  0.10566000000E+00 0. -1.
        994   -1    0    0    0    0 -0.00000000000E+00 -0.00000000000E+00  0.11368683772E-12  0.17120000000E+03  0.17120000000E+03 0.  0.
         13    1    1    2    0    0 -0.85986892991E+02 -0.74859174910E+02  0.40513057405E+03  0.42086629115E+03  0.10566000000E+00 0. -1.
        994    1    1    2    0    0  0.44878074592E+02  0.91228084135E+02  0.51082323837E+02  0.20556130162E+03  0.17120000000E+03 0.  0.
        998    1    1    2    0    0  0.41108818400E+02 -0.16368909225E+02  0.10437870984E+04  0.10447724072E+04  0.10000000000E+02 0. -1.
</event>
<event>
 5    1  0.1294251E-008  0.3738177E+03  0.7957747E-01  0.3478527E+00
         13   -1    0    0    0    0  0.00000000000E+00  0.00000000000E+00  0.14999999963E+04  0.15000000000E+04  0.10566000000E+00 0.  1.
        994   -1    0    0    0    0 -0.00000000000E+00 -0.00000000000E+00  0.11368683772E-12  0.17120000000E+03  0.17120000000E+03 0.  0.
         13    1    1    2    0    0 -0.63239484897E+00  0.22515231336E+02  0.14199836360E+02  0.26626717448E+02  0.10566000000E+00 0.  1.
        994    1    1    2    0    0 -0.10791668769E+00 -0.97886141859E+01  0.13311555526E+02  0.17199554100E+03  0.17120000000E+03 0.  0.
        998    1    1    2    0    0  0.74031153667E+00 -0.12726617150E+02  0.14724886044E+04  0.14725777416E+04  0.10000000000E+02 0.  1.
</event>
<event>
 5    1  0.1294251E-008  0.3798391E+03  0.7957747E-01  0.3451859E+00
         13   -1    0    0    0    0  0.00000000000E+00  0.00000000000E+00  0.14999999963E+04  0.15000000000E+04  0.10566000000E+00 0. -1.
        994   -1    0    0    0    0 -0.00000000000E+00 -0.00000000000E+00  0.11368683772E-12  0.17120000000E+03  0.17120000000E+03 0.  0.
         13    1    1    2    0    0  0.19777297045E+02  0.22595571686E+02  0.12813337945E+03  0.13160499775E+03  0.10566000000E+00 0. -1.
        994    1    1    2    0    0 -0.44873997991E+01  0.22790341311E+02  0.60210390179E+01  0.17287344887E+03  0.17120000000E+03 0.  0.
        998    1    1    2    0    0 -0.15289897246E+02 -0.45385912997E+02  0.13658455778E+04  0.13667215534E+04  0.10000000000E+02 0. -1.
</event>
<event>
 5    1  0.1294251E-008  0.3766728E+03  0.7957747E-01  0.3465775E+00
         13   -1    0    0    0    0  0.00000000000E+00  0.00000000000E+00  0.14999999963E+04  0.15000000000E+04  0.10566000000E+00 0. -1.
        994   -1    0    0    0    0 -0.00000000000E+00 -0.00000000000E+00  0.11368683772E-12  0.17120000000E+03  0.17120000000E+03 0.  0.
         13    1    1    2    0    0  0.17937240291E+02  0.31929546354E+02  0.10913146781E+03  0.11511267936E+03  0.10566000000E+00 0. -1.
        994    1    1    2    0    0 -0.18486671079E+02 -0.23936885267E+02  0.89203142494E+01  0.17407970442E+03  0.17120000000E+03 0.  0.
        998    1    1    2    0    0  0.54943078834E+00 -0.79926610872E+01  0.13819482142E+04  0.13820076162E+04  0.10000000000E+02 0. -1.
</event>
<event>
 5    1  0.1294251E-008  0.3850439E+03  0.7957747E-01  0.3429486E+00
         13   -1    0    0    0    0  0.00000000000E+00  0.00000000000E+00  0.14999999963E+04  0.15000000000E+04  0.10566000000E+00 0.  1.
        994   -1    0    0    0    0 -0.00000000000E+00 -0.00000000000E+00  0.11368683772E-12  0.17120000000E+03  0.17120000000E+03 0.  0.
         13    1    1    2    0    0  0.13682340721E+02  0.66130983269E+01  0.78560220157E+02  0.80016616226E+02  0.10566000000E+00 0.  1.
        994    1    1    2    0    0 -0.30777964697E+01  0.11852325242E+02  0.21015853653E+01  0.17165024645E+03  0.17120000000E+03 0.  0.
        998    1    1    2    0    0 -0.10604544251E+02 -0.18465423569E+02  0.14193381908E+04  0.14195331373E+04  0.10000000000E+02 0.  1.
</event>
<event>
 5    1  0.1294251E-008  0.3784023E+03  0.7957747E-01  0.3458145E+00
         13   -1    0    0    0    0  0.00000000000E+00  0.00000000000E+00  0.14999999963E+04  0.15000000000E+04  0.10566000000E+00 0.  1.
        994   -1    0    0    0    0 -0.00000000000E+00 -0.00000000000E+00  0.11368683772E-12  0.17120000000E+03  0.17120000000E+03 0.  0.
         13    1    1    2    0    0 -0.19968036101E+02  0.14239051353E+02  0.59334444089E+02  0.64203274593E+02  0.10566000000E+00 0.  1.
        994    1    1    2    0    0  0.16618789857E+02 -0.12661487358E+01  0.58759443731E+01  0.17210971510E+03  0.17120000000E+03 0.  0.
        998    1    1    2    0    0  0.33492462434E+01 -0.12972902617E+02  0.14347896078E+04  0.14348870103E+04  0.10000000000E+02 0.  1.
</event>
<event>
 5    1  0.1294251E-008  0.3809810E+03  0.7957747E-01  0.3446898E+00
         13   -1    0    0    0    0  0.00000000000E+00  0.00000000000E+00  0.14999999963E+04  0.15000000000E+04  0.10566000000E+00 0. -1.
        994   -1    0    0    0    0 -0.00000000000E+00 -0.00000000000E+00  0.11368683772E-12  0.17120000000E+03  0.17120000000E+03 0.  0.
         13    1    1    2    0    0 -0.13230098042E+01 -0.28655040412E+02  0.10347937123E+03  0.10738181006E+03  0.10566000000E+00 0. -1.
        994    1    1    2    0    0  0.61044742220E+01  0.31360130447E+02  0.70473802068E+01  0.17429810084E+03  0.17120000000E+03 0.  0.
        998    1    1    2    0    0 -0.47814644178E+01 -0.27050900350E+01  0.13894732448E+04  0.13895200891E+04  0.10000000000E+02 0. -1.
</event>
<event>
 5    1  0.1294251E-008  0.3818890E+03  0.7957747E-01  0.3442974E+00
         13   -1    0    0    0    0  0.00000000000E+00  0.00000000000E+00  0.14999999963E+04  0.15000000000E+04  0.10566000000E+00 0. -1.
        994   -1    0    0    0    0 -0.00000000000E+00 -0.00000000000E+00  0.11368683772E-12  0.17120000000E+03  0.17120000000E+03 0.  0.
         13    1    1    2    0    0 -0.80598309022E+01  0.20250930616E+02  0.71472215249E+02  0.74721815968E+02  0.10566000000E+00 0. -1.
        994    1    1    2    0    0  0.14150629662E+02 -0.15685712536E+02  0.46666389724E+01  0.17256158152E+03  0.17120000000E+03 0.  0.
        998    1    1    2    0    0 -0.60907987599E+01 -0.45652180799E+01  0.14238611421E+04  0.14239166025E+04  0.10000000000E+02 0. -1.
</event>
<event>
 5    1  0.1294251E-008  0.3798706E+03  0.7957747E-01  0.3451722E+00
         13   -1    0    0    0    0  0.00000000000E+00  0.00000000000E+00  0.14999999963E+04  0.15000000000E+04  0.10566000000E+00 0.  1.
        994   -1    0    0    0    0 -0.00000000000E+00 -0.00000000000E+00  0.11368683772E-12  0.17120000000E+03  0.17120000000E+03 0.  0.
         13    1    1    2    0    0  0.14562338193E+02 -0.38332835428E+02  0.22143236245E+03  0.22519718086E+03  0.10566000000E+00 0.  1.
        994    1    1    2    0    0 -0.10339928213E+01  0.10317279684E+02  0.45581259843E+01  0.17157427521E+03  0.17120000000E+03 0.  0.
        998    1    1    2    0    0 -0.13528345372E+02  0.28015555743E+02  0.12740095078E+04  0.12744285439E+04  0.10000000000E+02 0.  1.
</event>
<event>
 5    1  0.1294251E-008  0.3748865E+03  0.7957747E-01  0.3473731E+00
         13   -1    0    0    0    0  0.00000000000E+00  0.00000000000E+00  0.14999999963E+04  0.15000000000E+04  0.10566000000E+00 0. -1.
        994   -1    0    0    0    0 -0.00000000000E+00 -0.00000000000E+00  0.11368683772E-12  0.17120000000E+03  0.17120000000E+03 0.  0.
         13    1    1    2    0    0  0.73512547015E+02  0.20201513999E+02  0.18489697384E+03  0.19999774457E+03  0.10566000000E+00 0. -1.
        994    1    1    2    0    0 -0.72269348450E+02 -0.23412484780E+02  0.34369500958E+02  0.19042506601E+03  0.17120000000E+03 0.  0.
        998    1    1    2    0    0 -0.12431985649E+01  0.32109707804E+01  0.12807335215E+04  0.12807771894E+04  0.10000000000E+02 0.  0.
</event>
<event>
 5    1  0.1294251E-008  0.3806894E+03  0.7957747E-01  0.3448162E+00
         13   -1    0    0    0    0  0.00000000000E+00  0.00000000000E+00  0.14999999963E+04  0.15000000000E+04  0.10566000000E+00 0. -1.
        994   -1    0    0    0    0 -0.00000000000E+00 -0.00000000000E+00  0.11368683772E-12  0.17120000000E+03  0.17120000000E+03 0.  0.
         13    1    1    2    0    0  0.20518973428E+02  0.10914371541E+02  0.66999713104E+02  0.70916320383E+02  0.10566000000E+00 0. -1.
        994    1    1    2    0    0 -0.25727261826E+02 -0.42962948517E+01  0.60580279281E+01  0.17328153350E+03  0.17120000000E+03 0.  0.
        998    1    1    2    0    0  0.52082883979E+01 -0.66180766891E+01  0.14269422552E+04  0.14270021461E+04  0.10000000000E+02 0. -1.
</event>
<event>
 5    1  0.1294251E-008  0.3820064E+03  0.7957747E-01  0.3442469E+00
         13   -1    0    0    0    0  0.00000000000E+00  0.00000000000E+00  0.14999999963E+04  0.15000000000E+04  0.10566000000E+00 0. -1.
        994   -1    0    0    0    0 -0.00000000000E+00 -0.00000000000E+00  0.11368683772E-12  0.17120000000E+03  0.17120000000E+03 0.  0.
         13    1    1    2    0    0 -0.41308090331E+01 -0.34232766118E+02  0.19964245407E+03  0.20259828847E+03  0.10566000000E+00 0. -1.
        994    1    1    2    0    0  0.95939182252E+00  0.13754912908E+02  0.37553677567E+01  0.17179540404E+03  0.17120000000E+03 0.  0.
        998    1    1    2    0    0  0.31714172106E+01  0.20477853209E+02  0.12966021745E+04  0.12968063075E+04  0.10000000000E+02 0. -1.
</event>
<event>
 5    1  0.1294251E-008  0.3802089E+03  0.7957747E-01  0.3450249E+00
         13   -1    0    0    0    0  0.00000000000E+00  0.00000000000E+00  0.14999999963E+04  0.15000000000E+04  0.10566000000E+00 0.  1.
        994   -1    0    0    0    0 -0.00000000000E+00 -0.00000000000E+00  0.11368683772E-12  0.17120000000E+03  0.17120000000E+03 0.  0.
         13    1    1    2    0    0  0.18361850621E+01  0.16979968741E+02  0.35105731691E+02  0.39039908755E+02  0.10566000000E+00 0.  1.
        994    1    1    2    0    0 -0.10344769097E+02 -0.64445289803E+01  0.45241026307E+01  0.17169290523E+03  0.17120000000E+03 0.  0.
        998    1    1    2    0    0  0.85085840347E+01 -0.10535439761E+02  0.14603701620E+04  0.14604671860E+04  0.10000000000E+02 0.  1.
</event>
<event>
 5    1  0.1294251E-008  0.3722930E+03  0.7957747E-01  0.3485419E+00
         13   -1    0    0    0    0  0.00000000000E+00  0.00000000000E+00  0.14999999963E+04  0.15000000000E+04  0.10566000000E+00 0. -1.
        994   -1    0    0    0    0 -0.00000000000E+00 -0.00000000000E+00  0.11368683772E-12  0.17120000000E+03  0.17120000000E+03 0.  0.
         13    1    1    2    0    0  0.25459519955E+02 -0.17490650397E+02  0.35258097365E+02  0.46874882415E+02  0.10566000000E+00 0. -1.
        994    1    1    2    0    0 -0.49354604308E+01  0.13636437234E+02  0.12897966103E+02  0.17229657199E+03  0.17120000000E+03 0.  0.
        998    1    1    2    0    0 -0.20524059525E+02  0.38542131628E+01  0.14518439328E+04  0.14520285456E+04  0.10000000000E+02 0. -1.
</event>
<event>
 5    1  0.1294251E-008  0.3754347E+03  0.7957747E-01  0.3471281E+00
         13   -1    0    0    0    0  0.00000000000E+00  0.00000000000E+00  0.14999999963E+04  0.15000000000E+04  0.10566000000E+00 0.  1.
        994   -1    0    0    0    0 -0.00000000000E+00 -0.00000000000E+00  0.11368683772E-12  0.17120000000E+03  0.17120000000E+03 0.  0.
         13    1    1    2    0    0 -0.30133185514E+01  0.16419398626E+02  0.18627077925E+02  0.25013115280E+02  0.10566000000E+00 0.  1.
        994    1    1    2    0    0 -0.60749011839E+01 -0.17058083088E+02  0.75693822425E+01  0.17232126442E+03  0.17120000000E+03 0.  0.
        998    1    1    2    0    0  0.90882197353E+01  0.63868446200E+00  0.14738035361E+04  0.14738656203E+04  0.10000000000E+02 0.  1.
</event>
<event>
 5    1  0.1294251E-008  0.3712224E+03  0.7957747E-01  0.3490292E+00
         13   -1    0    0    0    0  0.00000000000E+00  0.00000000000E+00  0.14999999963E+04  0.15000000000E+04  0.10566000000E+00 0.  1.
        994   -1    0    0    0    0 -0.00000000000E+00 -0.00000000000E+00  0.11368683772E-12  0.17120000000E+03  0.17120000000E+03 0.  0.
         13    1    1    2    0    0 -0.12738677673E+02  0.27508503861E+02  0.47860754120E+02  0.56653814016E+02  0.10566000000E+00 0.  1.
        994    1    1    2    0    0  0.18082675629E+02 -0.29580822920E+02  0.12781474289E+02  0.17514226882E+03  0.17120000000E+03 0.  0.
        998    1    1    2    0    0 -0.53439979567E+01  0.20723190589E+01  0.14393577679E+04  0.14394039172E+04  0.10000000000E+02 0.  1.
</event>
<event>
 5    1  0.1294251E-008  0.3805751E+03  0.7957747E-01  0.3448658E+00
         13   -1    0    0    0    0  0.00000000000E+00  0.00000000000E+00  0.14999999963E+04  0.15000000000E+04  0.10566000000E+00 0.  1.
        994   -1    0    0    0    0 -0.00000000000E+00 -0.00000000000E+00  0.11368683772E-12  0.17120000000E+03  0.17120000000E+03 0.  0.
         13    1    1    2    0    0  0.21374108961E+02  0.11065636772E+02  0.73019248699E+02  0.76883825969E+02  0.10566000000E+00 0.  1.
        994    1    1    2    0    0 -0.42948516394E+01 -0.31964658892E+02  0.73215493238E+01  0.17436522088E+03  0.17120000000E+03 0.  0.
        998    1    1    2    0    0 -0.17079257322E+02  0.20899022120E+02  0.14196591983E+04  0.14199509531E+04  0.10000000000E+02 0.  1.
</event>
<event>
 5    1  0.1294251E-008  0.3739097E+03  0.7957747E-01  0.3478113E+00
         13   -1    0    0    0    0  0.00000000000E+00  0.00000000000E+00  0.14999999963E+04  0.15000000000E+04  0.10566000000E+00 0.  1.
        994   -1    0    0    0    0 -0.00000000000E+00 -0.00000000000E+00  0.11368683772E-12  0.17120000000E+03  0.17120000000E+03 0.  0.
         13    1    1    2    0    0  0.38401157837E+02  0.54978809225E+01  0.59768750073E+02  0.71254405247E+02  0.10566000000E+00 0.  1.
        994    1    1    2    0    0  0.20182008271E+02 -0.14838910133E+02  0.15248611639E+02  0.17369360054E+03  0.17120000000E+03 0.  0.
        998    1    1    2    0    0 -0.58583166108E+02  0.93410292106E+01  0.14249826346E+04  0.14262519942E+04  0.10000000000E+02 0.  1.
</event>
<event>
 5    1  0.1294251E-008  0.3791855E+03  0.7957747E-01  0.3454713E+00
         13   -1    0    0    0    0  0.00000000000E+00  0.00000000000E+00  0.14999999963E+04  0.15000000000E+04  0.10566000000E+00 0.  1.
        994   -1    0    0    0    0 -0.00000000000E+00 -0.00000000000E+00  0.11368683772E-12  0.17120000000E+03  0.17120000000E+03 0.  0.
         13    1    1    2    0    0 -0.42369766190E+01 -0.63146963120E+02  0.35803379593E+03  0.36358451715E+03  0.10566000000E+00 0.  1.
        994    1    1    2    0    0  0.21352700636E+02  0.56447277780E+02  0.16851759564E+02  0.18230648588E+03  0.17120000000E+03 0.  0.
        998    1    1    2    0    0 -0.17115724017E+02  0.66996853407E+01  0.11251144408E+04  0.11253089970E+04  0.10000000000E+02 0.  1.
</event>
<event>
 5    1  0.1294251E-008  0.3732691E+03  0.7957747E-01  0.3481000E+00
         13   -1    0    0    0    0  0.00000000000E+00  0.00000000000E+00  0.14999999963E+04  0.15000000000E+04  0.10566000000E+00 0. -1.
        994   -1    0    0    0    0 -0.00000000000E+00 -0.00000000000E+00  0.11368683772E-12  0.17120000000E+03  0.17120000000E+03 0.  0.
         13    1    1    2    0    0  0.12907036136E+03 -0.11181047577E+03  0.72483322332E+03  0.74467707999E+03  0.10566000000E+00 0. -1.
        994    1    1    2    0    0 -0.13468002933E+03  0.12232631671E+03  0.13084754161E+03  0.28201588113E+03  0.17120000000E+03 0.  0.
        998    1    1    2    0    0  0.56096679756E+01 -0.10515840940E+02  0.64431923135E+03  0.64450703888E+03  0.10000000000E+02 0.  1.
</event>
<event>
 5    1  0.1294251E-008  0.3740138E+03  0.7957747E-01  0.3477645E+00
         13   -1    0    0    0    0  0.00000000000E+00  0.00000000000E+00  0.14999999963E+04  0.15000000000E+04  0.10566000000E+00 0.  1.
        994   -1    0    0    0    0 -0.00000000000E+00 -0.00000000000E+00  0.11368683772E-12  0.17120000000E+03  0.17120000000E+03 0.  0.
         13    1    1    2    0    0  0.60790394849E+02  0.17039665269E+02  0.35253608412E+03  0.35814455751E+03  0.10566000000E+00 0.  1.
        994    1    1    2    0    0 -0.42643991793E+01 -0.98520254671E+01  0.75792072169E+01  0.17170361641E+03  0.17120000000E+03 0.  0.
        998    1    1    2    0    0 -0.56525995670E+02 -0.71876398023E+01  0.11398847049E+04  0.11413518261E+04  0.10000000000E+02 0.  1.
</event>
<event>
 5    1  0.1294251E-008  0.3827980E+03  0.7957747E-01  0.3439065E+00
         13   -1    0    0    0    0  0.00000000000E+00  0.00000000000E+00  0.14999999963E+04  0.15000000000E+04  0.10566000000E+00 0.  1.
        994   -1    0    0    0    0 -0.00000000000E+00 -0.00000000000E+00  0.11368683772E-12  0.17120000000E+03  0.17120000000E+03 0.  0.
         13    1    1    2    0    0 -0.14249066822E+02  0.10465833436E+02  0.72737929949E+02  0.74855775944E+02  0.10566000000E+00 0.  1.
        994    1    1    2    0    0 -0.34206406409E+02  0.11451169437E+02  0.70493458119E+01  0.17510094459E+03  0.17120000000E+03 0.  0.
        998    1    1    2    0    0  0.48455473230E+02 -0.21917002872E+02  0.14202127205E+04  0.14212432795E+04  0.10000000000E+02 0.  1.
</event>
<event>
 5    1  0.1294251E-008  0.3854942E+03  0.7957747E-01  0.3427579E+00
         13   -1    0    0    0    0  0.00000000000E+00  0.00000000000E+00  0.14999999963E+04  0.15000000000E+04  0.10566000000E+00 0.  1.
        994   -1    0    0    0    0 -0.00000000000E+00 -0.00000000000E+00  0.11368683772E-12  0.17120000000E+03  0.17120000000E+03 0.  0.
         13    1    1    2    0    0 -0.12401257647E+02 -0.11641866899E+01  0.62643404944E+02  0.63869819703E+02  0.10566000000E+00 0.  1.
        994    1    1    2    0    0 -0.80356569015E+01  0.85462891481E+01  0.18369468482E+01  0.17161126191E+03  0.17120000000E+03 0.  0.
        998    1    1    2    0    0  0.20436914548E+02 -0.73821024582E+01  0.14355196445E+04  0.14357189184E+04  0.10000000000E+02 0.  1.
</event>
<event>
 5    1  0.1294251E-008  0.3798339E+03  0.7957747E-01  0.3451882E+00
         13   -1    0    0    0    0  0.00000000000E+00  0.00000000000E+00  0.14999999963E+04  0.15000000000E+04  0.10566000000E+00 0. -1.
        994   -1    0    0    0    0 -0.00000000000E+00 -0.00000000000E+00  0.11368683772E-12  0.17120000000E+03  0.17120000000E+03 0.  0.
         13    1    1    2    0    0  0.13268901783E+02  0.21101255769E+02  0.74611045412E+02  0.78664769821E+02  0.10566000000E+00 0. -1.
        994    1    1    2    0    0  0.16239017915E+01 -0.10684614041E+02  0.46077950515E+01  0.17160265094E+03  0.17120000000E+03 0.  0.
        998    1    1    2    0    0 -0.14892803575E+02 -0.10416641728E+02  0.14207811558E+04  0.14209325792E+04  0.10000000000E+02 0. -1.
</event>
<event>
 5    1  0.1294251E-008  0.3837897E+03  0.7957747E-01  0.3434821E+00
         13   -1    0    0    0    0  0.00000000000E+00  0.00000000000E+00  0.14999999963E+04  0.15000000000E+04  0.10566000000E+00 0.  1.
        994   -1    0    0    0    0 -0.00000000000E+00 -0.00000000000E+00  0.11368683772E-12  0.17120000000E+03  0.17120000000E+03 0.  0.
         13    1    1    2    0    0  0.16544855561E+02 -0.23919659291E+01  0.68730226955E+02  0.70734072467E+02  0.10566000000E+00 0.  1.
        994    1    1    2    0    0  0.68981671161E+01 -0.37135716250E+00  0.23897827983E+01  0.17135598524E+03  0.17120000000E+03 0.  0.
        998    1    1    2    0    0 -0.23443022677E+02  0.27633230916E+01  0.14288799865E+04  0.14291099423E+04  0.10000000000E+02 0.  1.
</event>
<event>
 5    1  0.1294251E-008  0.3717912E+03  0.7957747E-01  0.3487699E+00
         13   -1    0    0    0    0  0.00000000000E+00  0.00000000000E+00  0.14999999963E+04  0.15000000000E+04  0.10566000000E+00 0. -1.
        994   -1    0    0    0    0 -0.00000000000E+00 -0.00000000000E+00  0.11368683772E-12  0.17120000000E+03  0.17120000000E+03 0.  0.
         13    1    1    2    0    0  0.21768930357E+02  0.40255689052E+01  0.15356382996E+02  0.26942924798E+02  0.10566000000E+00 0. -1.
        994    1    1    2    0    0 -0.19855588518E+02 -0.29589274249E+01  0.13308080690E+02  0.17288592961E+03  0.17120000000E+03 0.  0.
        998    1    1    2    0    0 -0.19133418389E+01 -0.10666414804E+01  0.14713355326E+04  0.14713711456E+04  0.10000000000E+02 0. -1.
</event>
<event>
 5    1  0.1294251E-008  0.3716780E+03  0.7957747E-01  0.3488214E+00
         13   -1    0    0    0    0  0.00000000000E+00  0.00000000000E+00  0.14999999963E+04  0.15000000000E+04  0.10566000000E+00 0. -1.
        994   -1    0    0    0    0 -0.00000000000E+00 -0.00000000000E+00  0.11368683772E-12  0.17120000000E+03  0.17120000000E+03 0.  0.
         13    1    1    2    0    0  0.40277832745E+01  0.16816240042E+02  0.89448565074E+01  0.19468707949E+02  0.10566000000E+00 0. -1.
        994    1    1    2    0    0  0.54137357021E+02  0.67755130807E+02  0.38772514391E+02  0.19579162150E+03  0.17120000000E+03 0.  0.
        998    1    1    2    0    0 -0.58165140295E+02 -0.84571370849E+02  0.14522826254E+04  0.14559396706E+04  0.10000000000E+02 0. -1.
</event>
<event>
 5    1  0.1294251E-008  0.3805161E+03  0.7957747E-01  0.3448914E+00
         13   -1    0    0    0    0  0.00000000000E+00  0.00000000000E+00  0.14999999963E+04  0.15000000000E+04  0.10566000000E+00 0. -1.
        994   -1    0    0    0    0 -0.00000000000E+00 -0.00000000000E+00  0.11368683772E-12  0.17120000000E+03  0.17120000000E+03 0.  0.
         13    1    1    2    0    0 -0.18903377088E+02 -0.45857092185E+02  0.19887965082E+03  0.20497155227E+03  0.10566000000E+00 0. -1.
        994    1    1    2    0    0  0.53280695760E+02  0.80169907148E+02  0.35441536041E+02  0.19957852848E+03  0.17120000000E+03 0.  0.
        998    1    1    2    0    0 -0.34377318671E+02 -0.34312814964E+02  0.12656788094E+04  0.12666499192E+04  0.10000000000E+02 0. -1.
</event>
<event>
 5    1  0.1294251E-008  0.3813196E+03  0.7957747E-01  0.3445433E+00
         13   -1    0    0    0    0  0.00000000000E+00  0.00000000000E+00  0.14999999963E+04  0.15000000000E+04  0.10566000000E+00 0. -1.
        994   -1    0    0    0    0 -0.00000000000E+00 -0.00000000000E+00  0.11368683772E-12  0.17120000000E+03  0.17120000000E+03 0.  0.
         13    1    1    2    0    0  0.84366531033E+01  0.15945765090E+02  0.43142941813E+02  0.46762903377E+02  0.10566000000E+00 0. -1.
        994    1    1    2    0    0 -0.19878476542E+02 -0.20024072880E+02  0.61228014616E+01  0.17361752798E+03  0.17120000000E+03 0.  0.
        998    1    1    2    0    0  0.11441823439E+02  0.40783077894E+01  0.14507342530E+04  0.14508195686E+04  0.10000000000E+02 0. -1.
</event>
<event>
 5    1  0.1294251E-008  0.3798063E+03  0.7957747E-01  0.3452002E+00
         13   -1    0    0    0    0  0.00000000000E+00  0.00000000000E+00  0.14999999963E+04  0.15000000000E+04  0.10566000000E+00 0.  1.
        994   -1    0    0    0    0 -0.00000000000E+00 -0.00000000000E+00  0.11368683772E-12  0.17120000000E+03  0.17120000000E+03 0.  0.
         13    1    1    2    0    0 -0.19467244483E+02 -0.12435552598E+02  0.98701574567E+01  0.25120663774E+02  0.10566000000E+00 0.  1.
        994    1    1    2    0    0 -0.10358335309E+02  0.16162701888E+02  0.17556404216E+02  0.17316522564E+03  0.17120000000E+03 0.  0.
        998    1    1    2    0    0  0.29825579791E+02 -0.37271492897E+01  0.14725734346E+04  0.14729141106E+04  0.10000000000E+02 0.  1.
</event>
<event>
 5    1  0.1294251E-008  0.3858237E+03  0.7957747E-01  0.3426186E+00
         13   -1    0    0    0    0  0.00000000000E+00  0.00000000000E+00  0.14999999963E+04  0.15000000000E+04  0.10566000000E+00 0. -1.
        994   -1    0    0    0    0 -0.00000000000E+00 -0.00000000000E+00  0.11368683772E-12  0.17120000000E+03  0.17120000000E+03 0.  0.
         13    1    1    2    0    0  0.55781308238E+01 -0.11010357822E+02  0.60895007605E+02  0.62133377810E+02  0.10566000000E+00 0. -1.
        994    1    1    2    0    0 -0.11401998274E+02  0.87379617726E+01  0.18988677379E+01  0.17181211610E+03  0.17120000000E+03 0.  0.
        998    1    1    2    0    0  0.58238674503E+01  0.22723960497E+01  0.14372061209E+04  0.14372545061E+04  0.10000000000E+02 0. -1.
</event>
<event>
 5    1  0.1294251E-008  0.3703191E+03  0.7957747E-01  0.3494425E+00
         13   -1    0    0    0    0  0.00000000000E+00  0.00000000000E+00  0.14999999963E+04  0.15000000000E+04  0.10566000000E+00 0.  1.
        994   -1    0    0    0    0 -0.00000000000E+00 -0.00000000000E+00  0.11368683772E-12  0.17120000000E+03  0.17120000000E+03 0.  0.
         13    1    1    2    0    0  0.18277038689E+02  0.26845061156E+02  0.59133969229E+02  0.67465138646E+02  0.10566000000E+00 0.  1.
        994    1    1    2    0    0  0.15778130097E+02 -0.39605886558E+01  0.10016874348E+02  0.17226262921E+03  0.17120000000E+03 0.  0.
        998    1    1    2    0    0 -0.34055168787E+02 -0.22884472500E+02  0.14308491527E+04  0.14314722321E+04  0.10000000000E+02 0.  1.
</event>
<event>
 5    1  0.1294251E-008  0.3848321E+03  0.7957747E-01  0.3430385E+00
         13   -1    0    0    0    0  0.00000000000E+00  0.00000000000E+00  0.14999999963E+04  0.15000000000E+04  0.10566000000E+00 0.  1.
        994   -1    0    0    0    0 -0.00000000000E+00 -0.00000000000E+00  0.11368683772E-12  0.17120000000E+03  0.17120000000E+03 0.  0.
         13    1    1    2    0    0  0.30973671141E+02  0.14669808485E+02  0.22450511953E+02  0.40970821763E+02  0.10566000000E+00 0.  1.
        994    1    1    2    0    0 -0.44038167390E+02  0.43299294254E+00  0.26196471875E+02  0.17870434468E+03  0.17120000000E+03 0.  0.
        998    1    1    2    0    0  0.13064496249E+02 -0.15102801428E+02  0.14513530125E+04  0.14515248336E+04  0.10000000000E+02 0.  1.
</event>
<event>
 5    1  0.1294251E-008  0.3855870E+03  0.7957747E-01  0.3427186E+00
         13   -1    0    0    0    0  0.00000000000E+00  0.00000000000E+00  0.14999999963E+04  0.15000000000E+04  0.10566000000E+00 0. -1.
        994   -1    0    0    0    0 -0.00000000000E+00 -0.00000000000E+00  0.11368683772E-12  0.17120000000E+03  0.17120000000E+03 0.  0.
         13    1    1    2    0    0 -0.69203460983E+01  0.12375837555E+02  0.77968154062E+02  0.79247061505E+02  0.10566000000E+00 0. -1.
        994    1    1    2    0    0  0.31864375547E+00 -0.57493086029E+01  0.14478192751E+01  0.17130292544E+03  0.17120000000E+03 0.  0.
        998    1    1    2    0    0  0.66017023428E+01 -0.66265289517E+01  0.14205840229E+04  0.14206500131E+04  0.10000000000E+02 0. -1.
</event>
<event>
 5    1  0.1294251E-008  0.3854821E+03  0.7957747E-01  0.3427630E+00
         13   -1    0    0    0    0  0.00000000000E+00  0.00000000000E+00  0.14999999963E+04  0.15000000000E+04  0.10566000000E+00 0. -1.
        994   -1    0    0    0    0 -0.00000000000E+00 -0.00000000000E+00  0.11368683772E-12  0.17120000000E+03  0.17120000000E+03 0.  0.
         13    1    1    2    0    0 -0.33418325446E+01 -0.11200325149E+02  0.49842587510E+02  0.51194822218E+02  0.10566000000E+00 0. -1.
        994    1    1    2    0    0  0.60941179012E+00  0.61463015874E+01  0.15162267634E+01  0.17131808821E+03  0.17120000000E+03 0.  0.
        998    1    1    2    0    0  0.27324207545E+01  0.50540235619E+01  0.14486411820E+04  0.14486870896E+04  0.10000000000E+02 0. -1.
</event>
<event>
 5    1  0.1294251E-008  0.3696801E+03  0.7957747E-01  0.3497362E+00
         13   -1    0    0    0    0  0.00000000000E+00  0.00000000000E+00  0.14999999963E+04  0.15000000000E+04  0.10566000000E+00 0. -1.
        994   -1    0    0    0    0 -0.00000000000E+00 -0.00000000000E+00  0.11368683772E-12  0.17120000000E+03  0.17120000000E+03 0.  0.
         13    1    1    2    0    0 -0.12852014280E+02 -0.45579313479E+02  0.10741047057E+03  0.11738683248E+03  0.10566000000E+00 0. -1.
        994    1    1    2    0    0 -0.28790502201E+01  0.12740747372E+02  0.11365756807E+02  0.17207334483E+03  0.17120000000E+03 0.  0.
        998    1    1    2    0    0  0.15731064501E+02  0.32838566107E+02  0.13812237689E+04  0.13817398227E+04  0.10000000000E+02 0. -1.
</event>
<event>
 5    1  0.1294251E-008  0.3702387E+03  0.7957747E-01  0.3494794E+00
         13   -1    0    0    0    0  0.00000000000E+00  0.00000000000E+00  0.14999999963E+04  0.15000000000E+04  0.10566000000E+00 0. -1.
        994   -1    0    0    0    0 -0.00000000000E+00 -0.00000000000E+00  0.11368683772E-12  0.17120000000E+03  0.17120000000E+03 0.  0.
         13    1    1    2    0    0 -0.58895013572E+01  0.10755250049E+03  0.49027012809E+03  0.50196318216E+03  0.10566000000E+00 0. -1.
        994    1    1    2    0    0 -0.90086890149E+01 -0.70680648727E+02  0.29046709757E+02  0.18769672861E+03  0.17120000000E+03 0.  0.
        998    1    1    2    0    0  0.14898190372E+02 -0.36871851764E+02  0.98068315843E+03  0.98154008923E+03  0.10000000000E+02 0. -1.
</event>
<event>
 5    1  0.1294251E-008  0.3799737E+03  0.7957747E-01  0.3451273E+00
         13   -1    0    0    0    0  0.00000000000E+00  0.00000000000E+00  0.14999999963E+04  0.15000000000E+04  0.10566000000E+00 0. -1.
        994   -1    0    0    0    0 -0.00000000000E+00 -0.00000000000E+00  0.11368683772E-12  0.17120000000E+03  0.17120000000E+03 0.  0.
         13    1    1    2    0    0  0.21932780361E+02  0.59161829363E+00  0.57150043372E+02  0.61217117607E+02  0.10566000000E+00 0. -1.
        994    1    1    2    0    0 -0.12926696596E+02  0.38292647652E+02  0.96266731899E+01  0.17616906421E+03  0.17120000000E+03 0.  0.
        998    1    1    2    0    0 -0.90060837654E+01 -0.38884265945E+02  0.14332232797E+04  0.14338138182E+04  0.10000000000E+02 0. -1.
</event>
<event>
 5    1  0.1294251E-008  0.3751299E+03  0.7957747E-01  0.3472642E+00
         13   -1    0    0    0    0  0.00000000000E+00  0.00000000000E+00  0.14999999963E+04  0.15000000000E+04  0.10566000000E+00 0. -1.
        994   -1    0    0    0    0 -0.00000000000E+00 -0.00000000000E+00  0.11368683772E-12  0.17120000000E+03  0.17120000000E+03 0.  0.
         13    1    1    2    0    0  0.23290748703E+02 -0.42922196221E+02  0.17852737744E+03  0.18508595182E+03  0.10566000000E+00 0. -1.
        994    1    1    2    0    0 -0.15873625315E+02  0.23388841474E+02  0.93316245650E+01  0.17376860793E+03  0.17120000000E+03 0.  0.
        998    1    1    2    0    0 -0.74171233880E+01  0.19533354747E+02  0.13121409943E+04  0.13123454402E+04  0.10000000000E+02 0. -1.
</event>
<event>
 5    1  0.1294251E-008  0.3734979E+03  0.7957747E-01  0.3479968E+00
         13   -1    0    0    0    0  0.00000000000E+00  0.00000000000E+00  0.14999999963E+04  0.15000000000E+04  0.10566000000E+00 0.  1.
        994   -1    0    0    0    0 -0.00000000000E+00 -0.00000000000E+00  0.11368683772E-12  0.17120000000E+03  0.17120000000E+03 0.  0.
         13    1    1    2    0    0  0.18640045018E+02  0.15032799588E+02  0.35613145763E+02  0.42915540972E+02  0.10566000000E+00 0.  1.
        994    1    1    2    0    0 -0.12162923670E+02 -0.83725566421E+01  0.81973875549E+01  0.17203102505E+03  0.17120000000E+03 0.  0.
        998    1    1    2    0    0 -0.64771213476E+01 -0.66602429461E+01  0.14561894630E+04  0.14562534340E+04  0.10000000000E+02 0.  1.
</event>
<event>
 5    1  0.1294251E-008  0.3705413E+03  0.7957747E-01  0.3493407E+00
         13   -1    0    0    0    0  0.00000000000E+00  0.00000000000E+00  0.14999999963E+04  0.15000000000E+04  0.10566000000E+00 0.  1.
        994   -1    0    0    0    0 -0.00000000000E+00 -0.00000000000E+00  0.11368683772E-12  0.17120000000E+03  0.17120000000E+03 0.  0.
         13    1    1    2    0    0 -0.74542002294E+02  0.14315878891E+03  0.72884427111E+03  0.74650179614E+03  0.10566000000E+00 0.  1.
        994    1    1    2    0    0  0.80894998011E+02 -0.13281281075E+03  0.97724268000E+02  0.25108308577E+03  0.17120000000E+03 0.  0.
        998    1    1    2    0    0 -0.63529957171E+01 -0.10345978158E+02  0.67343145717E+03  0.67361511810E+03  0.10000000000E+02 0. -1.
</event>
<event>
 5    1  0.1294251E-008  0.3803343E+03  0.7957747E-01  0.3449704E+00
         13   -1    0    0    0    0  0.00000000000E+00  0.00000000000E+00  0.14999999963E+04  0.15000000000E+04  0.10566000000E+00 0. -1.
        994   -1    0    0    0    0 -0.00000000000E+00 -0.00000000000E+00  0.11368683772E-12  0.17120000000E+03  0.17120000000E+03 0.  0.
         13    1    1    2    0    0  0.95149211230E+01  0.46396618900E+02  0.27288890162E+03  0.27696848875E+03  0.10566000000E+00 0. -1.
        994    1    1    2    0    0 -0.90038647125E+01 -0.29294990411E+02  0.71072338709E+01  0.17406670795E+03  0.17120000000E+03 0.  0.
        998    1    1    2    0    0 -0.51105641053E+00 -0.17101628489E+02  0.12200038608E+04  0.12201648033E+04  0.10000000000E+02 0. -1.
</event>
<event>
 5    1  0.1294251E-008  0.3995259E+03  0.7957747E-01  0.3370309E+00
         13   -1    0    0    0    0  0.00000000000E+00  0.00000000000E+00  0.14999999963E+04  0.15000000000E+04  0.10566000000E+00 0. -1.
        994   -1    0    0    0    0 -0.00000000000E+00 -0.00000000000E+00  0.11368683772E-12  0.17120000000E+03  0.17120000000E+03 0.  0.
         13    1    1    2    0    0  0.49188329484E+02  0.14833566448E+02  0.38852187219E+02  0.64412965052E+02  0.10566000000E+00 0. -1.
        994    1    1    2    0    0 -0.34620868481E+02  0.37107688999E+01  0.32246291903E+02  0.17765595313E+03  0.17120000000E+03 0.  0.
        998    1    1    2    0    0 -0.14567461004E+02 -0.18544335348E+02  0.14289015172E+04  0.14291310818E+04  0.10000000000E+02 0. -1.
</event>
<event>
 5    1  0.1294251E-008  0.3756695E+03  0.7957747E-01  0.3470234E+00
         13   -1    0    0    0    0  0.00000000000E+00  0.00000000000E+00  0.14999999963E+04  0.15000000000E+04  0.10566000000E+00 0.  1.
        994   -1    0    0    0    0 -0.00000000000E+00 -0.00000000000E+00  0.11368683772E-12  0.17120000000E+03  0.17120000000E+03 0.  0.
         13    1    1    2    0    0  0.12272482491E+02 -0.25535407024E+02  0.62112519670E+02  0.68268932189E+02  0.10566000000E+00 0.  1.
        994    1    1    2    0    0  0.56792348453E+01  0.16977630529E+02  0.74230507163E+01  0.17229345701E+03  0.17120000000E+03 0.  0.
        998    1    1    2    0    0 -0.17951717336E+02  0.85577764942E+01  0.14304644259E+04  0.14306376108E+04  0.10000000000E+02 0.  1.
</event>
<event>
 5    1  0.1294251E-008  0.3742153E+03  0.7957747E-01  0.3476740E+00
         13   -1    0    0    0    0  0.00000000000E+00  0.00000000000E+00  0.14999999963E+04  0.15000000000E+04  0.10566000000E+00 0.  1.
        994   -1    0    0    0    0 -0.00000000000E+00 -0.00000000000E+00  0.11368683772E-12  0.17120000000E+03  0.17120000000E+03 0.  0.
         13    1    1    2    0    0  0.26794424696E+01  0.10753743133E+02  0.52059785177E+01  0.12244826649E+02  0.10566000000E+00 0.  1.
        994    1    1    2    0    0  0.27913316334E+02 -0.28627278386E+02  0.12550418625E+02  0.17625443910E+03  0.17120000000E+03 0.  0.
        998    1    1    2    0    0 -0.30592758804E+02  0.17873535253E+02  0.14822435991E+04  0.14827007342E+04  0.10000000000E+02 0.  1.
</event>
<event>
 5    1  0.1294251E-008  0.3801986E+03  0.7957747E-01  0.3450294E+00
         13   -1    0    0    0    0  0.00000000000E+00  0.00000000000E+00  0.14999999963E+04  0.15000000000E+04  0.10566000000E+00 0. -1.
        994   -1    0    0    0    0 -0.00000000000E+00 -0.00000000000E+00  0.11368683772E-12  0.17120000000E+03  0.17120000000E+03 0.  0.
         13    1    1    2    0    0 -0.17102407307E+02  0.14064695162E+01  0.36036729652E+02  0.39914001807E+02  0.10566000000E+00 0. -1.
        994    1    1    2    0    0  0.22732869941E+01 -0.30263278101E+00  0.40505092108E+01  0.17126326531E+03  0.17120000000E+03 0.  0.
        998    1    1    2    0    0  0.14829120313E+02 -0.11038367352E+01  0.14599127574E+04  0.14600227329E+04  0.10000000000E+02 0. -1.
</event>
<event>
 5    1  0.1294251E-008  0.4293043E+03  0.7957747E-01  0.3261075E+00
         13   -1    0    0    0    0  0.00000000000E+00  0.00000000000E+00  0.14999999963E+04  0.15000000000E+04  0.10566000000E+00 0. -1.
        994   -1    0    0    0    0 -0.00000000000E+00 -0.00000000000E+00  0.11368683772E-12  0.17120000000E+03  0.17120000000E+03 0.  0.
         13    1    1    2    0    0  0.22667215383E+02  0.60669248273E+02  0.29048272111E+02  0.70981501927E+02  0.10566000000E+00 0. -1.
        994    1    1    2    0    0 -0.20655220591E+02 -0.54957243935E+02  0.62139109427E+02  0.19135737697E+03  0.17120000000E+03 0.  0.
        998    1    1    2    0    0 -0.20119947918E+01 -0.57120043376E+01  0.14088126147E+04  0.14088611211E+04  0.10000000000E+02 0. -1.
</event>
<event>
 5    1  0.1294251E-008  0.3741868E+03  0.7957747E-01  0.3476868E+00
         13   -1    0    0    0    0  0.00000000000E+00  0.00000000000E+00  0.14999999963E+04  0.15000000000E+04  0.10566000000E+00 0. -1.
        994   -1    0    0    0    0 -0.00000000000E+00 -0.00000000000E+00  0.11368683772E-12  0.17120000000E+03  0.17120000000E+03 0.  0.
         13    1    1    2    0    0  0.89789134596E+02  0.14955240430E+03  0.88954776545E+03  0.90648951925E+03  0.10566000000E+00 0. -1.
        994    1    1    2    0    0 -0.10464497334E+03 -0.13186851035E+03  0.11081788276E+03  0.26444265467E+03  0.17120000000E+03 0.  0.
        998    1    1    2    0    0  0.14855838749E+02 -0.17683893959E+02  0.49963434806E+03  0.50026782608E+03  0.10000000000E+02 0.  1.
</event>
<event>
 5    1  0.1294251E-008  0.3848999E+03  0.7957747E-01  0.3430097E+00
         13   -1    0    0    0    0  0.00000000000E+00  0.00000000000E+00  0.14999999963E+04  0.15000000000E+04  0.10566000000E+00 0. -1.
        994   -1    0    0    0    0 -0.00000000000E+00 -0.00000000000E+00  0.11368683772E-12  0.17120000000E+03  0.17120000000E+03 0.  0.
         13    1    1    2    0    0  0.14934166436E+02 -0.68073556745E+01  0.79559132316E+02  0.81234451542E+02  0.10566000000E+00 0. -1.
        994    1    1    2    0    0 -0.93972966275E+01  0.77647586687E+01  0.21688512863E+01  0.17164715138E+03  0.17120000000E+03 0.  0.
        998    1    1    2    0    0 -0.55368698087E+01 -0.95740299425E+00  0.14182720127E+04  0.14183183971E+04  0.10000000000E+02 0. -1.
</event>
<event>
 5    1  0.1294251E-008  0.3831932E+03  0.7957747E-01  0.3437371E+00
         13   -1    0    0    0    0  0.00000000000E+00  0.00000000000E+00  0.14999999963E+04  0.15000000000E+04  0.10566000000E+00 0. -1.
        994   -1    0    0    0    0 -0.00000000000E+00 -0.00000000000E+00  0.11368683772E-12  0.17120000000E+03  0.17120000000E+03 0.  0.
         13    1    1    2    0    0 -0.18007417271E+02  0.14877783565E+02  0.89395827725E+02  0.92397189889E+02  0.10566000000E+00 0. -1.
        994    1    1    2    0    0  0.30630480961E+02 -0.34035968194E+02  0.94968500824E+01  0.17747197992E+03  0.17120000000E+03 0.  0.
        998    1    1    2    0    0 -0.12623063690E+02  0.19158184629E+02  0.14011073185E+04  0.14013308302E+04  0.10000000000E+02 0. -1.
</event>
<event>
 5    1  0.1294251E-008  0.3825843E+03  0.7957747E-01  0.3439983E+00
         13   -1    0    0    0    0  0.00000000000E+00  0.00000000000E+00  0.14999999963E+04  0.15000000000E+04  0.10566000000E+00 0.  1.
        994   -1    0    0    0    0 -0.00000000000E+00 -0.00000000000E+00  0.11368683772E-12  0.17120000000E+03  0.17120000000E+03 0.  0.
         13    1    1    2    0    0 -0.79907869471E-01  0.17547942973E+02  0.51419606690E+02  0.54331609621E+02  0.10566000000E+00 0.  1.
        994    1    1    2    0    0 -0.35555019577E+01 -0.20186390418E+02  0.42280882547E+01  0.17247448705E+03  0.17120000000E+03 0.  0.
        998    1    1    2    0    0  0.36354098271E+01  0.26384474451E+01  0.14443523013E+04  0.14443939033E+04  0.10000000000E+02 0.  1.
</event>
<event>
 5    1  0.1294251E-008  0.3785052E+03  0.7957747E-01  0.3457693E+00
         13   -1    0    0    0    0  0.00000000000E+00  0.00000000000E+00  0.14999999963E+04  0.15000000000E+04  0.10566000000E+00 0. -1.
        994   -1    0    0    0    0 -0.00000000000E+00 -0.00000000000E+00  0.11368683772E-12  0.17120000000E+03  0.17120000000E+03 0.  0.
         13    1    1    2    0    0  0.15580656837E+02 -0.82300903916E+00  0.22621939286E+02  0.27480857200E+02  0.10566000000E+00 0. -1.
        994    1    1    2    0    0 -0.14570815851E+02  0.98852642654E+00  0.56064714287E+01  0.17191322922E+03  0.17120000000E+03 0.  0.
        998    1    1    2    0    0 -0.10098409861E+01 -0.16551738738E+00  0.14717715856E+04  0.14718059136E+04  0.10000000000E+02 0. -1.
</event>
<event>
 5    1  0.1294251E-008  0.3840807E+03  0.7957747E-01  0.3433580E+00
         13   -1    0    0    0    0  0.00000000000E+00  0.00000000000E+00  0.14999999963E+04  0.15000000000E+04  0.10566000000E+00 0.  1.
        994   -1    0    0    0    0 -0.00000000000E+00 -0.00000000000E+00  0.11368683772E-12  0.17120000000E+03  0.17120000000E+03 0.  0.
         13    1    1    2    0    0 -0.13692969807E+02  0.34428950378E+01  0.46891040056E+02  0.48970723396E+02  0.10566000000E+00 0.  1.
        994    1    1    2    0    0  0.10969336927E+02 -0.23791161115E+01  0.25029070766E+01  0.17158581261E+03  0.17120000000E+03 0.  0.
        998    1    1    2    0    0  0.27236328793E+01 -0.10637789263E+01  0.14506060491E+04  0.14506434640E+04  0.10000000000E+02 0.  1.
</event>
<event>
 5    1  0.1294251E-008  0.3816482E+03  0.7957747E-01  0.3444013E+00
         13   -1    0    0    0    0  0.00000000000E+00  0.00000000000E+00  0.14999999963E+04  0.15000000000E+04  0.10566000000E+00 0. -1.
        994   -1    0    0    0    0 -0.00000000000E+00 -0.00000000000E+00  0.11368683772E-12  0.17120000000E+03  0.17120000000E+03 0.  0.
         13    1    1    2    0    0  0.15648379920E+02 -0.32726003675E+02  0.18453105859E+03  0.18806271789E+03  0.10566000000E+00 0. -1.
        994    1    1    2    0    0 -0.89392666849E+02  0.23229510354E+01  0.30362893674E+02  0.19551928370E+03  0.17120000000E+03 0.  0.
        998    1    1    2    0    0  0.73744286929E+02  0.30403052640E+02  0.12851060440E+04  0.12876179984E+04  0.10000000000E+02 0. -1.
</event>
<event>
 5    1  0.1294251E-008  0.3813669E+03  0.7957747E-01  0.3445228E+00
         13   -1    0    0    0    0  0.00000000000E+00  0.00000000000E+00  0.14999999963E+04  0.15000000000E+04  0.10566000000E+00 0.  1.
        994   -1    0    0    0    0 -0.00000000000E+00 -0.00000000000E+00  0.11368683772E-12  0.17120000000E+03  0.17120000000E+03 0.  0.
         13    1    1    2    0    0 -0.15017672223E+02 -0.12975671866E+01  0.32543251828E+02  0.35864865303E+02  0.10566000000E+00 0.  1.
        994    1    1    2    0    0  0.26287533444E+01 -0.41643964593E+01  0.35254698232E+01  0.17130709699E+03  0.17120000000E+03 0.  0.
        998    1    1    2    0    0  0.12388918878E+02  0.54619636459E+01  0.14639312746E+04  0.14640280377E+04  0.10000000000E+02 0.  1.
</event>
<event>
 5    1  0.1294251E-008  0.3838440E+03  0.7957747E-01  0.3434590E+00
         13   -1    0    0    0    0  0.00000000000E+00  0.00000000000E+00  0.14999999963E+04  0.15000000000E+04  0.10566000000E+00 0.  1.
        994   -1    0    0    0    0 -0.00000000000E+00 -0.00000000000E+00  0.11368683772E-12  0.17120000000E+03  0.17120000000E+03 0.  0.
         13    1    1    2    0    0 -0.71760467922E+01  0.11985356589E+02  0.42260949511E+02  0.44510037494E+02  0.10566000000E+00 0.  1.
        994    1    1    2    0    0  0.92024652632E+01 -0.14040563745E+02  0.31360153691E+01  0.17204969454E+03  0.17120000000E+03 0.  0.
        998    1    1    2    0    0 -0.20264184710E+01  0.20552071560E+01  0.14546030314E+04  0.14546402680E+04  0.10000000000E+02 0.  1.
</event>
<event>
 5    1  0.1294251E-008  0.3839838E+03  0.7957747E-01  0.3433994E+00
         13   -1    0    0    0    0  0.00000000000E+00  0.00000000000E+00  0.14999999963E+04  0.15000000000E+04  0.10566000000E+00 0.  1.
        994   -1    0    0    0    0 -0.00000000000E+00 -0.00000000000E+00  0.11368683772E-12  0.17120000000E+03  0.17120000000E+03 0.  0.
         13    1    1    2    0    0  0.20025346862E+02 -0.37476096361E+01  0.88656990954E+02  0.90967754199E+02  0.10566000000E+00 0.  1.
        994    1    1    2    0    0 -0.26460727395E+02  0.25959376902E+01  0.44714501366E+01  0.17330996178E+03  0.17120000000E+03 0.  0.
        998    1    1    2    0    0  0.64353805330E+01  0.11516719459E+01  0.14068715552E+04  0.14069222840E+04  0.10000000000E+02 0.  1.
</event>
<event>
 5    1  0.1294251E-008  0.3783286E+03  0.7957747E-01  0.3458469E+00
         13   -1    0    0    0    0  0.00000000000E+00  0.00000000000E+00  0.14999999963E+04  0.15000000000E+04  0.10566000000E+00 0. -1.
        994   -1    0    0    0    0 -0.00000000000E+00 -0.00000000000E+00  0.11368683772E-12  0.17120000000E+03  0.17120000000E+03 0.  0.
         13    1    1    2    0    0 -0.28178242125E+01  0.19865614625E+02  0.39029540681E+02  0.43885065655E+02  0.10566000000E+00 0. -1.
        994    1    1    2    0    0  0.41016866526E+01 -0.82994654334E+01  0.52674006620E+01  0.17153101897E+03  0.17120000000E+03 0.  0.
        998    1    1    2    0    0 -0.12838624401E+01 -0.11566149192E+02  0.14557030549E+04  0.14557839154E+04  0.10000000000E+02 0. -1.
</event>
<event>
 5    1  0.1294251E-008  0.3839024E+03  0.7957747E-01  0.3434341E+00
         13   -1    0    0    0    0  0.00000000000E+00  0.00000000000E+00  0.14999999963E+04  0.15000000000E+04  0.10566000000E+00 0.  1.
        994   -1    0    0    0    0 -0.00000000000E+00 -0.00000000000E+00  0.11368683772E-12  0.17120000000E+03  0.17120000000E+03 0.  0.
         13    1    1    2    0    0  0.28041774427E+02 -0.45990655896E+01  0.16966767380E+03  0.17203087867E+03  0.10566000000E+00 0.  1.
        994    1    1    2    0    0 -0.31963750225E+02 -0.21765776662E+02  0.71272394722E+01  0.17565781481E+03  0.17120000000E+03 0.  0.
        998    1    1    2    0    0  0.39219757981E+01  0.26364842252E+02  0.13232050830E+04  0.13235113065E+04  0.10000000000E+02 0.  1.
</event>
<event>
 5    1  0.1294251E-008  0.3852655E+03  0.7957747E-01  0.3428547E+00
         13   -1    0    0    0    0  0.00000000000E+00  0.00000000000E+00  0.14999999963E+04  0.15000000000E+04  0.10566000000E+00 0. -1.
        994   -1    0    0    0    0 -0.00000000000E+00 -0.00000000000E+00  0.11368683772E-12  0.17120000000E+03  0.17120000000E+03 0.  0.
         13    1    1    2    0    0  0.15497294677E+02  0.13157260812E+02  0.10028607721E+03  0.10232589164E+03  0.10566000000E+00 0. -1.
        994    1    1    2    0    0 -0.46343652140E+02 -0.29556036634E+02  0.11489506626E+02  0.18017419948E+03  0.17120000000E+03 0.  0.
        998    1    1    2    0    0  0.30846357463E+02  0.16398775822E+02  0.13882244124E+04  0.13886999089E+04  0.10000000000E+02 0. -1.
</event>
<event>
 5    1  0.1294251E-008  0.3777594E+03  0.7957747E-01  0.3460973E+00
         13   -1    0    0    0    0  0.00000000000E+00  0.00000000000E+00  0.14999999963E+04  0.15000000000E+04  0.10566000000E+00 0. -1.
        994   -1    0    0    0    0 -0.00000000000E+00 -0.00000000000E+00  0.11368683772E-12  0.17120000000E+03  0.17120000000E+03 0.  0.
         13    1    1    2    0    0 -0.77660726120E+02  0.45232156287E+02  0.45405705779E+03  0.46286602731E+03  0.10566000000E+00 0. -1.
        994    1    1    2    0    0  0.10037011665E+03 -0.34455637756E+02  0.44185629945E+02  0.20621144775E+03  0.17120000000E+03 0.  0.
        998    1    1    2    0    0 -0.22709390534E+02 -0.10776518531E+02  0.10017573085E+04  0.10021225249E+04  0.10000000000E+02 0. -1.
</event>
<event>
 5    1  0.1294251E-008  0.3749123E+03  0.7957747E-01  0.3473615E+00
         13   -1    0    0    0    0  0.00000000000E+00  0.00000000000E+00  0.14999999963E+04  0.15000000000E+04  0.10566000000E+00 0. -1.
        994   -1    0    0    0    0 -0.00000000000E+00 -0.00000000000E+00  0.11368683772E-12  0.17120000000E+03  0.17120000000E+03 0.  0.
         13    1    1    2    0    0  0.55467602632E+02 -0.33377214783E+02  0.35991809053E+03  0.36569350071E+03  0.10566000000E+00 0. -1.
        994    1    1    2    0    0 -0.27702014651E+02 -0.68575964329E+01  0.94979445661E+01  0.17382197558E+03  0.17120000000E+03 0.  0.
        998    1    1    2    0    0 -0.27765587981E+02  0.40234811216E+02  0.11305839612E+04  0.11316845237E+04  0.10000000000E+02 0. -1.
</event>
<event>
 5    1  0.1294251E-008  0.3800964E+03  0.7957747E-01  0.3450739E+00
         13   -1    0    0    0    0  0.00000000000E+00  0.00000000000E+00  0.14999999963E+04  0.15000000000E+04  0.10566000000E+00 0.  1.
        994   -1    0    0    0    0 -0.00000000000E+00 -0.00000000000E+00  0.11368683772E-12  0.17120000000E+03  0.17120000000E+03 0.  0.
         13    1    1    2    0    0  0.25306919316E+02 -0.13256704258E+02  0.93643650794E+02  0.97904672366E+02  0.10566000000E+00 0.  1.
        994    1    1    2    0    0 -0.27153042893E+02  0.77034601696E+01  0.67512830337E+01  0.17364230723E+03  0.17120000000E+03 0.  0.
        998    1    1    2    0    0  0.18461235767E+01  0.55532440883E+01  0.13996050625E+04  0.13996530204E+04  0.10000000000E+02 0.  1.
</event>
<event>
 5    1  0.1294251E-008  0.3827834E+03  0.7957747E-01  0.3439128E+00
         13   -1    0    0    0    0  0.00000000000E+00  0.00000000000E+00  0.14999999963E+04  0.15000000000E+04  0.10566000000E+00 0.  1.
        994   -1    0    0    0    0 -0.00000000000E+00 -0.00000000000E+00  0.11368683772E-12  0.17120000000E+03  0.17120000000E+03 0.  0.
         13    1    1    2    0    0 -0.12951028943E+01  0.19047031517E+02  0.60392126710E+02  0.63337878349E+02  0.10566000000E+00 0.  1.
        994    1    1    2    0    0  0.27612249009E+02 -0.28871111346E+02  0.80393405284E+01  0.17598309112E+03  0.17120000000E+03 0.  0.
        998    1    1    2    0    0 -0.26317146114E+02  0.98240798289E+01  0.14315685290E+04  0.14318790305E+04  0.10000000000E+02 0.  1.
</event>
<event>
 5    1  0.1294251E-008  0.3736777E+03  0.7957747E-01  0.3479158E+00
         13   -1    0    0    0    0  0.00000000000E+00  0.00000000000E+00  0.14999999963E+04  0.15000000000E+04  0.10566000000E+00 0. -1.
        994   -1    0    0    0    0 -0.00000000000E+00 -0.00000000000E+00  0.11368683772E-12  0.17120000000E+03  0.17120000000E+03 0.  0.
         13    1    1    2    0    0  0.19201338583E+02  0.10874312595E+03  0.40442432351E+03  0.41922881992E+03  0.10566000000E+00 0. -1.
        994    1    1    2    0    0  0.31719154187E+02 -0.95431756814E+02  0.49638008522E+02  0.20466239723E+03  0.17120000000E+03 0.  0.
        998    1    1    2    0    0 -0.50920492770E+02 -0.13311369131E+02  0.10459376642E+04  0.10473087828E+04  0.10000000000E+02 0. -1.
</event>
<event>
 5    1  0.1294251E-008  0.3692280E+03  0.7957747E-01  0.3499446E+00
         13   -1    0    0    0    0  0.00000000000E+00  0.00000000000E+00  0.14999999963E+04  0.15000000000E+04  0.10566000000E+00 0.  1.
        994   -1    0    0    0    0 -0.00000000000E+00 -0.00000000000E+00  0.11368683772E-12  0.17120000000E+03  0.17120000000E+03 0.  0.
         13    1    1    2    0    0 -0.14979213586E+02  0.28119606486E+00  0.59092836029E+01  0.16105486879E+02  0.10566000000E+00 0.  1.
        994    1    1    2    0    0  0.95604787689E+01  0.40290611490E+01  0.10906565054E+02  0.17186049357E+03  0.17120000000E+03 0.  0.
        998    1    1    2    0    0  0.54187348170E+01 -0.43102572139E+01  0.14831841476E+04  0.14832340196E+04  0.10000000000E+02 0.  1.
</event>
<event>
 5    1  0.1294251E-008  0.3803997E+03  0.7957747E-01  0.3449420E+00
         13   -1    0    0    0    0  0.00000000000E+00  0.00000000000E+00  0.14999999963E+04  0.15000000000E+04  0.10566000000E+00 0.  1.
        994   -1    0    0    0    0 -0.00000000000E+00 -0.00000000000E+00  0.11368683772E-12  0.17120000000E+03  0.17120000000E+03 0.  0.
         13    1    1    2    0    0 -0.11155846076E+02  0.15827211792E+02  0.49474982777E+02  0.53129451528E+02  0.10566000000E+00 0.  1.
        994    1    1    2    0    0 -0.20327456084E+02 -0.83162033530E+01  0.55435387833E+01  0.17269202509E+03  0.17120000000E+03 0.  0.
        998    1    1    2    0    0  0.31483302160E+02 -0.75110084392E+01  0.14449814747E+04  0.14453785234E+04  0.10000000000E+02 0.  1.
</event>
<event>
 5    1  0.1294251E-008  0.3812085E+03  0.7957747E-01  0.3445913E+00
         13   -1    0    0    0    0  0.00000000000E+00  0.00000000000E+00  0.14999999963E+04  0.15000000000E+04  0.10566000000E+00 0.  1.
        994   -1    0    0    0    0 -0.00000000000E+00 -0.00000000000E+00  0.11368683772E-12  0.17120000000E+03  0.17120000000E+03 0.  0.
         13    1    1    2    0    0 -0.17281723562E+02  0.15389865787E+02  0.76728983886E+02  0.80142710651E+02  0.10566000000E+00 0.  1.
        994    1    1    2    0    0 -0.13021042073E+02 -0.29491609651E+02  0.69925305329E+01  0.17434918428E+03  0.17120000000E+03 0.  0.
        998    1    1    2    0    0  0.30302765635E+02  0.14101743864E+02  0.14162784819E+04  0.14167081051E+04  0.10000000000E+02 0.  1.
</event>
<event>
 5    1  0.1294251E-008  0.3700102E+03  0.7957747E-01  0.3495844E+00
         13   -1    0    0    0    0  0.00000000000E+00  0.00000000000E+00  0.14999999963E+04  0.15000000000E+04  0.10566000000E+00 0. -1.
        994   -1    0    0    0    0 -0.00000000000E+00 -0.00000000000E+00  0.11368683772E-12  0.17120000000E+03  0.17120000000E+03 0.  0.
         13    1    1    2    0    0 -0.11277545067E+03 -0.21244319345E+02  0.65701319311E+03  0.66696024654E+03  0.10566000000E+00 0. -1.
        994    1    1    2    0    0  0.58201348629E+02  0.12236919909E+02  0.23414831562E+02  0.18274253344E+03  0.17120000000E+03 0.  0.
        998    1    1    2    0    0  0.54574102043E+02  0.90073994363E+01  0.81957197160E+03  0.82149722002E+03  0.10000000000E+02 0. -1.
</event>
<event>
 5    1  0.1294251E-008  0.3830641E+03  0.7957747E-01  0.3437924E+00
         13   -1    0    0    0    0  0.00000000000E+00  0.00000000000E+00  0.14999999963E+04  0.15000000000E+04  0.10566000000E+00 0.  1.
        994   -1    0    0    0    0 -0.00000000000E+00 -0.00000000000E+00  0.11368683772E-12  0.17120000000E+03  0.17120000000E+03 0.  0.
         13    1    1    2    0    0  0.11626221766E+02 -0.23682179847E+01  0.26826879803E+02  0.29333771203E+02  0.10566000000E+00 0.  1.
        994    1    1    2    0    0 -0.25968150535E+01 -0.40073617851E+01  0.26698217768E+01  0.17128739109E+03  0.17120000000E+03 0.  0.
        998    1    1    2    0    0 -0.90294067121E+01  0.63755797699E+01  0.14705032947E+04  0.14705788377E+04  0.10000000000E+02 0.  1.
</event>
<event>
 5    1  0.1294251E-008  0.3847544E+03  0.7957747E-01  0.3430714E+00
         13   -1    0    0    0    0  0.00000000000E+00  0.00000000000E+00  0.14999999963E+04  0.15000000000E+04  0.10566000000E+00 0. -1.
        994   -1    0    0    0    0 -0.00000000000E+00 -0.00000000000E+00  0.11368683772E-12  0.17120000000E+03  0.17120000000E+03 0.  0.
         13    1    1    2    0    0 -0.91100355245E+01 -0.48688307751E+01  0.30193926212E+02  0.31912107491E+02  0.10566000000E+00 0. -1.
        994    1    1    2    0    0  0.49042591138E+01  0.45700942774E+01  0.19000221916E+01  0.17134172756E+03  0.17120000000E+03 0.  0.
        998    1    1    2    0    0  0.42057764107E+01  0.29873649770E+00  0.14679060479E+04  0.14679461649E+04  0.10000000000E+02 0. -1.
</event>
<event>
 5    1  0.1294251E-008  0.3810414E+03  0.7957747E-01  0.3446636E+00
         13   -1    0    0    0    0  0.00000000000E+00  0.00000000000E+00  0.14999999963E+04  0.15000000000E+04  0.10566000000E+00 0.  1.
        994   -1    0    0    0    0 -0.00000000000E+00 -0.00000000000E+00  0.11368683772E-12  0.17120000000E+03  0.17120000000E+03 0.  0.
         13    1    1    2    0    0 -0.35631768514E+02  0.28378799721E+02  0.23913747920E+03  0.24343731087E+03  0.10566000000E+00 0.  1.
        994    1    1    2    0    0  0.37004216635E+02 -0.29639247634E+02  0.11133326115E+02  0.17799210095E+03  0.17120000000E+03 0.  0.
        998    1    1    2    0    0 -0.13724481215E+01  0.12604479122E+01  0.12497291910E+04  0.12497705882E+04  0.10000000000E+02 0.  0.
</event>
<event>
 5    1  0.1294251E-008  0.3769650E+03  0.7957747E-01  0.3464481E+00
         13   -1    0    0    0    0  0.00000000000E+00  0.00000000000E+00  0.14999999963E+04  0.15000000000E+04  0.10566000000E+00 0.  1.
        994   -1    0    0    0    0 -0.00000000000E+00 -0.00000000000E+00  0.11368683772E-12  0.17120000000E+03  0.17120000000E+03 0.  0.
         13    1    1    2    0    0 -0.70735518117E+02  0.36206338559E+02  0.45339610801E+03  0.46030691326E+03  0.10566000000E+00 0.  1.
        994    1    1    2    0    0  0.60796483785E+02 -0.24311828406E+02  0.20290255785E+02  0.18441369776E+03  0.17120000000E+03 0.  0.
        998    1    1    2    0    0  0.99390343321E+01 -0.11894510153E+02  0.10263136325E+04  0.10264793890E+04  0.10000000000E+02 0.  1.
</event>
<event>
 5    1  0.1294251E-008  0.3737128E+03  0.7957747E-01  0.3479000E+00
         13   -1    0    0    0    0  0.00000000000E+00  0.00000000000E+00  0.14999999963E+04  0.15000000000E+04  0.10566000000E+00 0.  1.
        994   -1    0    0    0    0 -0.00000000000E+00 -0.00000000000E+00  0.11368683772E-12  0.17120000000E+03  0.17120000000E+03 0.  0.
         13    1    1    2    0    0  0.36241542122E+02 -0.24962701214E+02  0.16317177238E+03  0.16900184701E+03  0.10566000000E+00 0.  1.
        994    1    1    2    0    0  0.33006716253E+02  0.18848095324E+02  0.12289460594E+02  0.17579864862E+03  0.17120000000E+03 0.  0.
        998    1    1    2    0    0 -0.69248258375E+02  0.61146058906E+01  0.13245387633E+04  0.13263995044E+04  0.10000000000E+02 0.  1.
</event>
<event>
 5    1  0.1294251E-008  0.3844410E+03  0.7957747E-01  0.3432047E+00
         13   -1    0    0    0    0  0.00000000000E+00  0.00000000000E+00  0.14999999963E+04  0.15000000000E+04  0.10566000000E+00 0. -1.
        994   -1    0    0    0    0 -0.00000000000E+00 -0.00000000000E+00  0.11368683772E-12  0.17120000000E+03  0.17120000000E+03 0.  0.
         13    1    1    2    0    0  0.11445628598E+02 -0.14388300141E+00  0.34118313545E+02  0.35987408903E+02  0.10566000000E+00 0. -1.
        994    1    1    2    0    0 -0.65106581709E+01 -0.38764481045E+00  0.20480970213E+01  0.17133643407E+03  0.17120000000E+03 0.  0.
        998    1    1    2    0    0 -0.49349704272E+01  0.53152781187E+00  0.14638335857E+04  0.14638761570E+04  0.10000000000E+02 0. -1.
</event>
<event>
 5    1  0.1294251E-008  0.3802469E+03  0.7957747E-01  0.3450084E+00
         13   -1    0    0    0    0  0.00000000000E+00  0.00000000000E+00  0.14999999963E+04  0.15000000000E+04  0.10566000000E+00 0.  1.
        994   -1    0    0    0    0 -0.00000000000E+00 -0.00000000000E+00  0.11368683772E-12  0.17120000000E+03  0.17120000000E+03 0.  0.
         13    1    1    2    0    0  0.42317239578E+01  0.46712752746E+02  0.25531136930E+03  0.25958408121E+03  0.10566000000E+00 0.  1.
        994    1    1    2    0    0 -0.17924445241E+01 -0.34641710975E+02  0.80381527617E+01  0.17486369805E+03  0.17120000000E+03 0.  0.
        998    1    1    2    0    0 -0.24392794337E+01 -0.12071041771E+02  0.12366504742E+04  0.12367522207E+04  0.10000000000E+02 0.  1.
</event>
<event>
 5    1  0.1294251E-008  0.3727078E+03  0.7957747E-01  0.3483538E+00
         13   -1    0    0    0    0  0.00000000000E+00  0.00000000000E+00  0.14999999963E+04  0.15000000000E+04  0.10566000000E+00 0. -1.
        994   -1    0    0    0    0 -0.00000000000E+00 -0.00000000000E+00  0.11368683772E-12  0.17120000000E+03  0.17120000000E+03 0.  0.
         13    1    1    2    0    0 -0.42629952136E+02  0.11580829402E+02  0.12588321005E+03  0.13340922819E+03  0.10566000000E+00 0. -1.
        994    1    1    2    0    0  0.20011356738E+02  0.25446298928E+01  0.92558012227E+01  0.17263267187E+03  0.17120000000E+03 0.  0.
        998    1    1    2    0    0  0.22618595398E+02 -0.14125459295E+02  0.13648609850E+04  0.13651580999E+04  0.10000000000E+02 0. -1.
</event>
<event>
 5    1  0.1294251E-008  0.3826574E+03  0.7957747E-01  0.3439669E+00
         13   -1    0    0    0    0  0.00000000000E+00  0.00000000000E+00  0.14999999963E+04  0.15000000000E+04  0.10566000000E+00 0.  1.
        994   -1    0    0    0    0 -0.00000000000E+00 -0.00000000000E+00  0.11368683772E-12  0.17120000000E+03  0.17120000000E+03 0.  0.
         13    1    1    2    0    0  0.69737044312E+01  0.76586033136E+01  0.17917057577E+02  0.20695866120E+02  0.10566000000E+00 0.  1.
        994    1    1    2    0    0 -0.50958190358E+01 -0.96250680750E+01  0.31908421189E+01  0.17157572900E+03  0.17120000000E+03 0.  0.
        998    1    1    2    0    0 -0.18778853954E+01  0.19664647614E+01  0.14788920966E+04  0.14789284049E+04  0.10000000000E+02 0.  1.
</event>
<event>
 5    1  0.1294251E-008  0.3775348E+03  0.7957747E-01  0.3461963E+00
         13   -1    0    0    0    0  0.00000000000E+00  0.00000000000E+00  0.14999999963E+04  0.15000000000E+04  0.10566000000E+00 0.  1.
        994   -1    0    0    0    0 -0.00000000000E+00 -0.00000000000E+00  0.11368683772E-12  0.17120000000E+03  0.17120000000E+03 0.  0.
         13    1    1    2    0    0 -0.60180771402E+01  0.63763675620E+02  0.27759192733E+03  0.28488473610E+03  0.10566000000E+00 0.  1.
        994    1    1    2    0    0  0.90301877174E+01 -0.77228598930E+02  0.26038386611E+02  0.18982423017E+03  0.17120000000E+03 0.  0.
        998    1    1    2    0    0 -0.30121105772E+01  0.13464923310E+02  0.11963696823E+04  0.11964910337E+04  0.10000000000E+02 0.  1.
</event>
<event>
 5    1  0.1294251E-008  0.3692985E+03  0.7957747E-01  0.3499121E+00
         13   -1    0    0    0    0  0.00000000000E+00  0.00000000000E+00  0.14999999963E+04  0.15000000000E+04  0.10566000000E+00 0. -1.
        994   -1    0    0    0    0 -0.00000000000E+00 -0.00000000000E+00  0.11368683772E-12  0.17120000000E+03  0.17120000000E+03 0.  0.
         13    1    1    2    0    0 -0.10854594823E+02 -0.25678298707E+01  0.93285794559E+00  0.11193630644E+02  0.10566000000E+00 0. -1.
        994    1    1    2    0    0  0.12069577053E+02  0.14392013633E+01  0.11083771469E+02  0.17198847630E+03  0.17120000000E+03 0.  0.
        998    1    1    2    0    0 -0.12149822305E+01  0.11286285075E+01  0.14879833669E+04  0.14880178931E+04  0.10000000000E+02 0. -1.
</event>
<event>
 5    1  0.1294251E-008  0.3837066E+03  0.7957747E-01  0.3435176E+00
         13   -1    0    0    0    0  0.00000000000E+00  0.00000000000E+00  0.14999999963E+04  0.15000000000E+04  0.10566000000E+00 0.  1.
        994   -1    0    0    0    0 -0.00000000000E+00 -0.00000000000E+00  0.11368683772E-12  0.17120000000E+03  0.17120000000E+03 0.  0.
         13    1    1    2    0    0 -0.17492741461E+02  0.17981321692E+01  0.68557279893E+02  0.70776698661E+02  0.10566000000E+00 0.  1.
        994    1    1    2    0    0  0.86057655830E+01  0.36043441251E+00  0.25187111911E+01  0.17143504023E+03  0.17120000000E+03 0.  0.
        998    1    1    2    0    0  0.88869758776E+01 -0.21585665817E+01  0.14289240052E+04  0.14289882611E+04  0.10000000000E+02 0.  1.
</event>
<event>
 5    1  0.1294251E-008  0.3818610E+03  0.7957747E-01  0.3443095E+00
         13   -1    0    0    0    0  0.00000000000E+00  0.00000000000E+00  0.14999999963E+04  0.15000000000E+04  0.10566000000E+00 0.  1.
        994   -1    0    0    0    0 -0.00000000000E+00 -0.00000000000E+00  0.11368683772E-12  0.17120000000E+03  0.17120000000E+03 0.  0.
         13    1    1    2    0    0  0.81650929202E+01 -0.20309741078E+02  0.59753805190E+01  0.22690761588E+02  0.10566000000E+00 0.  1.
        994    1    1    2    0    0 -0.10855143687E+02  0.25310485438E+02  0.20125176453E+02  0.17456493790E+03  0.17120000000E+03 0.  0.
        998    1    1    2    0    0  0.26900507670E+01 -0.50007443603E+01  0.14738994393E+04  0.14739443005E+04  0.10000000000E+02 0.  1.
</event>
<event>
 5    1  0.1294251E-008  0.3838076E+03  0.7957747E-01  0.3434745E+00
         13   -1    0    0    0    0  0.00000000000E+00  0.00000000000E+00  0.14999999963E+04  0.15000000000E+04  0.10566000000E+00 0.  1.
        994   -1    0    0    0    0 -0.00000000000E+00 -0.00000000000E+00  0.11368683772E-12  0.17120000000E+03  0.17120000000E+03 0.  0.
         13    1    1    2    0    0 -0.19707425624E+02  0.30516659675E+01  0.93873537712E+02  0.95968471575E+02  0.10566000000E+00 0.  1.
        994    1    1    2    0    0  0.40835507356E+01 -0.29594665321E+01  0.23072936843E+01  0.17128980540E+03  0.17120000000E+03 0.  0.
        998    1    1    2    0    0  0.15623874888E+02 -0.92199435373E-01  0.14038191649E+04  0.14039417230E+04  0.10000000000E+02 0.  1.
</event>
<event>
 5    1  0.1294251E-008  0.3685221E+03  0.7957747E-01  0.3502711E+00
         13   -1    0    0    0    0  0.00000000000E+00  0.00000000000E+00  0.14999999963E+04  0.15000000000E+04  0.10566000000E+00 0. -1.
        994   -1    0    0    0    0 -0.00000000000E+00 -0.00000000000E+00  0.11368683772E-12  0.17120000000E+03  0.17120000000E+03 0.  0.
         13    1    1    2    0    0  0.17770129130E+01  0.11611232024E+02  0.20565234105E+01  0.11925558124E+02  0.10566000000E+00 0. -1.
        994    1    1    2    0    0 -0.27845206570E+01 -0.10869657596E+02  0.10597470801E+02  0.17189429717E+03  0.17120000000E+03 0.  0.
        998    1    1    2    0    0  0.10075077440E+01 -0.74157442740E+00  0.14873460021E+04  0.14873801447E+04  0.10000000000E+02 0. -1.
</event>
<event>
 5    1  0.1294251E-008  0.3689193E+03  0.7957747E-01  0.3500872E+00
         13   -1    0    0    0    0  0.00000000000E+00  0.00000000000E+00  0.14999999963E+04  0.15000000000E+04  0.10566000000E+00 0.  1.
        994   -1    0    0    0    0 -0.00000000000E+00 -0.00000000000E+00  0.11368683772E-12  0.17120000000E+03  0.17120000000E+03 0.  0.
         13    1    1    2    0    0 -0.38336234007E+02 -0.92427233367E+02  0.40270022785E+03  0.41494571330E+03  0.10566000000E+00 0.  1.
        994    1    1    2    0    0  0.12213003103E+02  0.83669687214E+02  0.35702070808E+02  0.19425203181E+03  0.17120000000E+03 0.  0.
        998    1    1    2    0    0  0.26123230905E+02  0.87575461528E+01  0.10615976976E+04  0.10620022549E+04  0.10000000000E+02 0.  1.
</event>
<event>
 5    1  0.1294251E-008  0.3822606E+03  0.7957747E-01  0.3441374E+00
         13   -1    0    0    0    0  0.00000000000E+00  0.00000000000E+00  0.14999999963E+04  0.15000000000E+04  0.10566000000E+00 0. -1.
        994   -1    0    0    0    0 -0.00000000000E+00 -0.00000000000E+00  0.11368683772E-12  0.17120000000E+03  0.17120000000E+03 0.  0.
         13    1    1    2    0    0  0.54568450376E-01 -0.18060827404E+02  0.49006523855E+02  0.52228794822E+02  0.10566000000E+00 0. -1.
        994    1    1    2    0    0 -0.29178404605E+02  0.32678238250E+02  0.93909371642E+01  0.17696574881E+03  0.17120000000E+03 0.  0.
        998    1    1    2    0    0  0.29123836155E+02 -0.14617410846E+02  0.14416025353E+04  0.14420054564E+04  0.10000000000E+02 0. -1.
</event>
<event>
 5    1  0.1294251E-008  0.3843459E+03  0.7957747E-01  0.3432451E+00
         13   -1    0    0    0    0  0.00000000000E+00  0.00000000000E+00  0.14999999963E+04  0.15000000000E+04  0.10566000000E+00 0.  1.
        994   -1    0    0    0    0 -0.00000000000E+00 -0.00000000000E+00  0.11368683772E-12  0.17120000000E+03  0.17120000000E+03 0.  0.
         13    1    1    2    0    0 -0.30941814365E+01 -0.21193351108E+02  0.12237237120E+03  0.12423260638E+03  0.10566000000E+00 0.  1.
        994    1    1    2    0    0 -0.75135736777E+01  0.90695960501E+01  0.24125300677E+01  0.17162159440E+03  0.17120000000E+03 0.  0.
        998    1    1    2    0    0  0.10607755114E+02  0.12123755058E+02  0.13752150950E+04  0.13753457992E+04  0.10000000000E+02 0.  1.
</event>
<event>
 5    1  0.1294251E-008  0.3784380E+03  0.7957747E-01  0.3457988E+00
         13   -1    0    0    0    0  0.00000000000E+00  0.00000000000E+00  0.14999999963E+04  0.15000000000E+04  0.10566000000E+00 0. -1.
        994   -1    0    0    0    0 -0.00000000000E+00 -0.00000000000E+00  0.11368683772E-12  0.17120000000E+03  0.17120000000E+03 0.  0.
         13    1    1    2    0    0 -0.52491666638E+01 -0.28601345045E+02  0.78181894864E+02  0.83414690179E+02  0.10566000000E+00 0. -1.
        994    1    1    2    0    0  0.14526410194E+02  0.33192685504E+02  0.93476347077E+01  0.17524151688E+03  0.17120000000E+03 0.  0.
        998    1    1    2    0    0 -0.92772435305E+01 -0.45913404589E+01  0.14124704667E+04  0.14125437929E+04  0.10000000000E+02 0. -1.
</event>
<event>
 5    1  0.1418024E-008  0.3862564E+03  0.7957747E-01  0.3424361E+00
         13   -1    0    0    0    0  0.00000000000E+00  0.00000000000E+00  0.14999999963E+04  0.15000000000E+04  0.10566000000E+00 0.  1.
        994   -1    0    0    0    0 -0.00000000000E+00 -0.00000000000E+00  0.11368683772E-12  0.17120000000E+03  0.17120000000E+03 0.  0.
         13    1    1    2    0    0  0.10491978976E+02 -0.21017461786E+01  0.63605914922E+02  0.64499787107E+02  0.10566000000E+00 0.  1.
        994    1    1    2    0    0  0.53962951382E+01  0.26295422404E+01  0.11256445784E+01  0.17130890686E+03  0.17120000000E+03 0.  0.
        998    1    1    2    0    0 -0.15888274115E+02 -0.52779606180E+00  0.14352684368E+04  0.14353913060E+04  0.10000000000E+02 0.  1.
</event>
<event>
 5    1  0.1294251E-008  0.3827714E+03  0.7957747E-01  0.3439179E+00
         13   -1    0    0    0    0  0.00000000000E+00  0.00000000000E+00  0.14999999963E+04  0.15000000000E+04  0.10566000000E+00 0.  1.
        994   -1    0    0    0    0 -0.00000000000E+00 -0.00000000000E+00  0.11368683772E-12  0.17120000000E+03  0.17120000000E+03 0.  0.
         13    1    1    2    0    0 -0.66721487979E+01  0.22746176009E+02  0.92275267233E+02  0.95271413339E+02  0.10566000000E+00 0.  1.
        994    1    1    2    0    0  0.56342929961E+01 -0.31010672509E+02  0.60383888252E+01  0.17418182800E+03  0.17120000000E+03 0.  0.
        998    1    1    2    0    0  0.10378558018E+01  0.82644965006E+01  0.14016863402E+04  0.14017467587E+04  0.10000000000E+02 0.  1.
</event>
<event>
 5    1  0.1294251E-008  0.3854791E+03  0.7957747E-01  0.3427643E+00
         13   -1    0    0    0    0  0.00000000000E+00  0.00000000000E+00  0.14999999963E+04  0.15000000000E+04  0.10566000000E+00 0. -1.
        994   -1    0    0    0    0 -0.00000000000E+00 -0.00000000000E+00  0.11368683772E-12  0.17120000000E+03  0.17120000000E+03 0.  0.
         13    1    1    2    0    0 -0.18962210075E+01  0.16069068159E+02  0.94301265274E+02  0.95679414724E+02  0.10566000000E+00 0. -1.
        994    1    1    2    0    0  0.32465812894E+01 -0.10319056710E+02  0.17768187582E+01  0.17155063482E+03  0.17120000000E+03 0.  0.
        998    1    1    2    0    0 -0.13503602820E+01 -0.57500114481E+01  0.14039219122E+04  0.14039699505E+04  0.10000000000E+02 0. -1.
</event>
<event>
 5    1  0.1294251E-008  0.3799205E+03  0.7957747E-01  0.3451505E+00
         13   -1    0    0    0    0  0.00000000000E+00  0.00000000000E+00  0.14999999963E+04  0.15000000000E+04  0.10566000000E+00 0.  1.
        994   -1    0    0    0    0 -0.00000000000E+00 -0.00000000000E+00  0.11368683772E-12  0.17120000000E+03  0.17120000000E+03 0.  0.
         13    1    1    2    0    0  0.33231824278E+02 -0.81292405700E+01  0.13382520385E+03  0.13812905214E+03  0.10566000000E+00 0.  1.
        994    1    1    2    0    0 -0.22178710300E+02  0.21795305982E+02  0.74132277949E+01  0.17415891163E+03  0.17120000000E+03 0.  0.
        998    1    1    2    0    0 -0.11053113978E+02 -0.13666065412E+02  0.13587615646E+04  0.13589120362E+04  0.10000000000E+02 0.  1.
</event>
<event>
 5    1  0.1294251E-008  0.3716689E+03  0.7957747E-01  0.3488256E+00
         13   -1    0    0    0    0  0.00000000000E+00  0.00000000000E+00  0.14999999963E+04  0.15000000000E+04  0.10566000000E+00 0.  1.
        994   -1    0    0    0    0 -0.00000000000E+00 -0.00000000000E+00  0.11368683772E-12  0.17120000000E+03  0.17120000000E+03 0.  0.
         13    1    1    2    0    0  0.11130399301E+02 -0.33019927510E+01  0.38899577919E+01  0.12244667427E+02  0.10566000000E+00 0.  1.
        994    1    1    2    0    0 -0.28500227199E+02  0.58744657443E+01  0.11315945366E+02  0.17402374240E+03  0.17120000000E+03 0.  0.
        998    1    1    2    0    0  0.17369827898E+02 -0.25724729933E+01  0.14847940931E+04  0.14849315902E+04  0.10000000000E+02 0.  1.
</event>
<event>
 5    1  0.1294251E-008  0.3856906E+03  0.7957747E-01  0.3426749E+00
         13   -1    0    0    0    0  0.00000000000E+00  0.00000000000E+00  0.14999999963E+04  0.15000000000E+04  0.10566000000E+00 0. -1.
        994   -1    0    0    0    0 -0.00000000000E+00 -0.00000000000E+00  0.11368683772E-12  0.17120000000E+03  0.17120000000E+03 0.  0.
         13    1    1    2    0    0 -0.12489117748E+02 -0.58576479960E+01  0.75001164070E+02  0.76259267490E+02  0.10566000000E+00 0. -1.
        994    1    1    2    0    0  0.53369502279E+01  0.77171411095E+01  0.15765821984E+01  0.17146417386E+03  0.17120000000E+03 0.  0.
        998    1    1    2    0    0  0.71521675198E+01 -0.18594931135E+01  0.14234222500E+04  0.14234765587E+04  0.10000000000E+02 0. -1.
</event>
<event>
 5    1  0.1294251E-008  0.3701899E+03  0.7957747E-01  0.3495019E+00
         13   -1    0    0    0    0  0.00000000000E+00  0.00000000000E+00  0.14999999963E+04  0.15000000000E+04  0.10566000000E+00 0.  1.
        994   -1    0    0    0    0 -0.00000000000E+00 -0.00000000000E+00  0.11368683772E-12  0.17120000000E+03  0.17120000000E+03 0.  0.
         13    1    1    2    0    0 -0.26411052616E+02 -0.72299522780E+02  0.26983616720E+03  0.28059995187E+03  0.10566000000E+00 0.  1.
        994    1    1    2    0    0  0.16125501814E+02  0.71487753787E+02  0.27962935354E+02  0.18831329349E+03  0.17120000000E+03 0.  0.
        998    1    1    2    0    0  0.10285550802E+02  0.81176899272E+00  0.12022008937E+04  0.12022867546E+04  0.10000000000E+02 0.  0.
</event>
<event>
 5    1  0.1294251E-008  0.3853060E+03  0.7957747E-01  0.3428376E+00
         13   -1    0    0    0    0  0.00000000000E+00  0.00000000000E+00  0.14999999963E+04  0.15000000000E+04  0.10566000000E+00 0. -1.
        994   -1    0    0    0    0 -0.00000000000E+00 -0.00000000000E+00  0.11368683772E-12  0.17120000000E+03  0.17120000000E+03 0.  0.
         13    1    1    2    0    0  0.12063893934E+02  0.90212481070E+01  0.76607178044E+02  0.78074268144E+02  0.10566000000E+00 0. -1.
        994    1    1    2    0    0 -0.87751723241E+01 -0.58887111369E+01  0.18452998003E+01  0.17153578548E+03  0.17120000000E+03 0.  0.
        998    1    1    2    0    0 -0.32887216094E+01 -0.31325369701E+01  0.14215475184E+04  0.14215899464E+04  0.10000000000E+02 0. -1.
</event>
<event>
 5    1  0.1294251E-008  0.3841590E+03  0.7957747E-01  0.3433247E+00
         13   -1    0    0    0    0  0.00000000000E+00  0.00000000000E+00  0.14999999963E+04  0.15000000000E+04  0.10566000000E+00 0.  1.
        994   -1    0    0    0    0 -0.00000000000E+00 -0.00000000000E+00  0.11368683772E-12  0.17120000000E+03  0.17120000000E+03 0.  0.
         13    1    1    2    0    0  0.79962691764E+01 -0.25545447701E+02  0.15739739339E+03  0.15965732313E+03  0.10566000000E+00 0.  1.
        994    1    1    2    0    0 -0.19985114056E+01  0.28605653321E+02  0.47645183548E+01  0.17365027522E+03  0.17120000000E+03 0.  0.
        998    1    1    2    0    0 -0.59977577708E+01 -0.30602056197E+01  0.13378380845E+04  0.13378924017E+04  0.10000000000E+02 0.  1.
</event>
<event>
 5    1  0.1294251E-008  0.3785884E+03  0.7957747E-01  0.3457328E+00
         13   -1    0    0    0    0  0.00000000000E+00  0.00000000000E+00  0.14999999963E+04  0.15000000000E+04  0.10566000000E+00 0. -1.
        994   -1    0    0    0    0 -0.00000000000E+00 -0.00000000000E+00  0.11368683772E-12  0.17120000000E+03  0.17120000000E+03 0.  0.
         13    1    1    2    0    0 -0.35275667990E+02 -0.22346784165E+02  0.18775941324E+03  0.19234697798E+03  0.10566000000E+00 0. -1.
        994    1    1    2    0    0  0.12485828958E+02  0.10983704647E+02  0.57767139754E+01  0.17210272548E+03  0.17120000000E+03 0.  0.
        998    1    1    2    0    0  0.22789839032E+02  0.11363079518E+02  0.13064638691E+04  0.13067502965E+04  0.10000000000E+02 0. -1.
</event>
<event>
 5    1  0.1294251E-008  0.3824402E+03  0.7957747E-01  0.3440601E+00
         13   -1    0    0    0    0  0.00000000000E+00  0.00000000000E+00  0.14999999963E+04  0.15000000000E+04  0.10566000000E+00 0.  1.
        994   -1    0    0    0    0 -0.00000000000E+00 -0.00000000000E+00  0.11368683772E-12  0.17120000000E+03  0.17120000000E+03 0.  0.
         13    1    1    2    0    0 -0.64626052640E+01 -0.14553088431E+02  0.42751552494E+02  0.45620873012E+02  0.10566000000E+00 0.  1.
        994    1    1    2    0    0  0.30138248365E+01  0.96130917630E+01  0.32430110507E+01  0.17152682529E+03  0.17120000000E+03 0.  0.
        998    1    1    2    0    0  0.34487804275E+01  0.49399966683E+01  0.14540054327E+04  0.14540523017E+04  0.10000000000E+02 0.  1.
</event>
<event>
 5    1  0.1294251E-008  0.3793526E+03  0.7957747E-01  0.3453982E+00
         13   -1    0    0    0    0  0.00000000000E+00  0.00000000000E+00  0.14999999963E+04  0.15000000000E+04  0.10566000000E+00 0. -1.
        994   -1    0    0    0    0 -0.00000000000E+00 -0.00000000000E+00  0.11368683772E-12  0.17120000000E+03  0.17120000000E+03 0.  0.
         13    1    1    2    0    0 -0.18844929965E+02  0.99018158561E+00  0.37706548855E+02  0.42165232545E+02  0.10566000000E+00 0. -1.
        994    1    1    2    0    0  0.16742038487E+02  0.53419966636E+01  0.54956043098E+01  0.17218732371E+03  0.17120000000E+03 0.  0.
        998    1    1    2    0    0  0.21028914782E+01 -0.63321782492E+01  0.14567978431E+04  0.14568474437E+04  0.10000000000E+02 0. -1.
</event>
<event>
 5    1  0.1294251E-008  0.3693531E+03  0.7957747E-01  0.3498869E+00
         13   -1    0    0    0    0  0.00000000000E+00  0.00000000000E+00  0.14999999963E+04  0.15000000000E+04  0.10566000000E+00 0.  1.
        994   -1    0    0    0    0 -0.00000000000E+00 -0.00000000000E+00  0.11368683772E-12  0.17120000000E+03  0.17120000000E+03 0.  0.
         13    1    1    2    0    0  0.10713671954E+02  0.17532193247E+03  0.72717138460E+03  0.74808475222E+03  0.10566000000E+00 0.  1.
        994    1    1    2    0    0 -0.14772878247E+02 -0.16679217782E+03  0.11590480217E+03  0.26604742374E+03  0.17120000000E+03 0.  0.
        998    1    1    2    0    0  0.40592062930E+01 -0.85297546502E+01  0.65692380952E+03  0.65706782403E+03  0.10000000000E+02 0.  1.
</event>
<event>
 5    1  0.1294251E-008  0.2540253E+03  0.7957747E-01  0.4291009E+00
         13   -1    0    0    0    0  0.00000000000E+00  0.00000000000E+00  0.14999999963E+04  0.15000000000E+04  0.10566000000E+00 0. -1.
        994   -1    0    0    0    0 -0.00000000000E+00 -0.00000000000E+00  0.11368683772E-12  0.17120000000E+03  0.17120000000E+03 0.  0.
         13    1    1    2    0    0 -0.11746325852E+03 -0.70180184028E+02  0.67453818421E+02  0.15255459389E+03  0.10566000000E+00 0. -1.
        994    1    1    2    0    0 -0.10267900784E+01 -0.99024939538E+02  0.25312684854E+03  0.32123143433E+03  0.17120000000E+03 0.  0.
        998    1    1    2    0    0  0.11849004860E+03  0.16920512357E+03  0.11794193293E+04  0.11974139718E+04  0.10000000000E+02 0. -1.
</event>
<event>
 5    1  0.1294251E-008  0.3796795E+03  0.7957747E-01  0.3452555E+00
         13   -1    0    0    0    0  0.00000000000E+00  0.00000000000E+00  0.14999999963E+04  0.15000000000E+04  0.10566000000E+00 0. -1.
        994   -1    0    0    0    0 -0.00000000000E+00 -0.00000000000E+00  0.11368683772E-12  0.17120000000E+03  0.17120000000E+03 0.  0.
         13    1    1    2    0    0  0.12996808863E+02  0.28689663981E+02  0.11141193698E+03  0.11577842945E+03  0.10566000000E+00 0. -1.
        994    1    1    2    0    0 -0.54778974967E+01 -0.23089389127E+02  0.61817852345E+01  0.17294733800E+03  0.17120000000E+03 0.  0.
        998    1    1    2    0    0 -0.75189113665E+01 -0.56002748541E+01  0.13824062741E+04  0.13824742326E+04  0.10000000000E+02 0. -1.
</event>
<event>
 5    1  0.1294251E-008  0.3846782E+03  0.7957747E-01  0.3431038E+00
         13   -1    0    0    0    0  0.00000000000E+00  0.00000000000E+00  0.14999999963E+04  0.15000000000E+04  0.10566000000E+00 0. -1.
        994   -1    0    0    0    0 -0.00000000000E+00 -0.00000000000E+00  0.11368683772E-12  0.17120000000E+03  0.17120000000E+03 0.  0.
         13    1    1    2    0    0 -0.11127154324E+02  0.12194911792E+01  0.34606389148E+02  0.36371885516E+02  0.10566000000E+00 0. -1.
        994    1    1    2    0    0  0.85553094969E+01  0.33979414808E+01  0.20689972599E+01  0.17145979143E+03  0.17120000000E+03 0.  0.
        998    1    1    2    0    0  0.25718448274E+01 -0.46174326600E+01  0.14633246099E+04  0.14633683231E+04  0.10000000000E+02 0. -1.
</event>
<event>
 5    1  0.1294251E-008  0.3820792E+03  0.7957747E-01  0.3442155E+00
         13   -1    0    0    0    0  0.00000000000E+00  0.00000000000E+00  0.14999999963E+04  0.15000000000E+04  0.10566000000E+00 0. -1.
        994   -1    0    0    0    0 -0.00000000000E+00 -0.00000000000E+00  0.11368683772E-12  0.17120000000E+03  0.17120000000E+03 0.  0.
         13    1    1    2    0    0 -0.29499580669E+01 -0.10357947811E+03  0.59973610983E+03  0.60862206922E+03  0.10566000000E+00 0. -1.
        994    1    1    2    0    0 -0.10892300337E+02  0.13643360557E+03  0.68000578825E+02  0.22949137164E+03  0.17120000000E+03 0.  0.
        998    1    1    2    0    0  0.13842258404E+02 -0.32854127461E+02  0.83226330762E+03  0.83308655914E+03  0.10000000000E+02 0. -1.
</event>
<event>
 5    1  0.1294251E-008  0.3803058E+03  0.7957747E-01  0.3449828E+00
         13   -1    0    0    0    0  0.00000000000E+00  0.00000000000E+00  0.14999999963E+04  0.15000000000E+04  0.10566000000E+00 0.  1.
        994   -1    0    0    0    0 -0.00000000000E+00 -0.00000000000E+00  0.11368683772E-12  0.17120000000E+03  0.17120000000E+03 0.  0.
         13    1    1    2    0    0  0.90002437659E+00  0.11649126561E+02  0.15306491120E+02  0.19256480155E+02  0.10566000000E+00 0.  1.
        994    1    1    2    0    0 -0.29296684188E+01 -0.12041159389E+02  0.44919041753E+01  0.17170669666E+03  0.17120000000E+03 0.  0.
        998    1    1    2    0    0  0.20296440422E+01  0.39203282775E+00  0.14802016010E+04  0.14802368232E+04  0.10000000000E+02 0.  1.
</event>
<event>
 5    1  0.1823658E-008  0.3861540E+03  0.7957747E-01  0.3424793E+00
         13   -1    0    0    0    0  0.00000000000E+00  0.00000000000E+00  0.14999999963E+04  0.15000000000E+04  0.10566000000E+00 0.  1.
        994   -1    0    0    0    0 -0.00000000000E+00 -0.00000000000E+00  0.11368683772E-12  0.17120000000E+03  0.17120000000E+03 0.  0.
         13    1    1    2    0    0 -0.25590712211E+01 -0.99463166537E+01  0.51625511094E+02  0.52637274058E+02  0.10566000000E+00 0.  1.
        994    1    1    2    0    0 -0.40597196273E+01  0.51438475458E+01  0.11989721997E+01  0.17132955970E+03  0.17120000000E+03 0.  0.
        998    1    1    2    0    0  0.66187908484E+01  0.48024691079E+01  0.14471755130E+04  0.14472331662E+04  0.10000000000E+02 0.  1.
</event>
<event>
 5    1  0.1294251E-008  0.3745276E+03  0.7957747E-01  0.3475338E+00
         13   -1    0    0    0    0  0.00000000000E+00  0.00000000000E+00  0.14999999963E+04  0.15000000000E+04  0.10566000000E+00 0.  1.
        994   -1    0    0    0    0 -0.00000000000E+00 -0.00000000000E+00  0.11368683772E-12  0.17120000000E+03  0.17120000000E+03 0.  0.
         13    1    1    2    0    0 -0.56627069211E+02 -0.12591747781E+02  0.19430256868E+03  0.20277740613E+03  0.10566000000E+00 0.  1.
        994    1    1    2    0    0  0.76622290229E+02 -0.12162823393E+02  0.27698330074E+02  0.18998828154E+03  0.17120000000E+03 0.  0.
        998    1    1    2    0    0 -0.19995221018E+02  0.24754571174E+02  0.12779990975E+04  0.12784343123E+04  0.10000000000E+02 0.  1.
</event>
<event>
 5    1  0.1294251E-008  0.3793899E+03  0.7957747E-01  0.3453819E+00
         13   -1    0    0    0    0  0.00000000000E+00  0.00000000000E+00  0.14999999963E+04  0.15000000000E+04  0.10566000000E+00 0.  1.
        994   -1    0    0    0    0 -0.00000000000E+00 -0.00000000000E+00  0.11368683772E-12  0.17120000000E+03  0.17120000000E+03 0.  0.
         13    1    1    2    0    0  0.15336574382E+02 -0.62736123681E+01  0.29696205786E+02  0.34006536548E+02  0.10566000000E+00 0.  1.
        994    1    1    2    0    0 -0.10427421209E+02 -0.12936725298E+02  0.53667835223E+01  0.17208815282E+03  0.17120000000E+03 0.  0.
        998    1    1    2    0    0 -0.49091531731E+01  0.19210337667E+02  0.14649370070E+04  0.14651053106E+04  0.10000000000E+02 0.  1.
</event>
<event>
 5    1  0.1294251E-008  0.3824747E+03  0.7957747E-01  0.3440453E+00
         13   -1    0    0    0    0  0.00000000000E+00  0.00000000000E+00  0.14999999963E+04  0.15000000000E+04  0.10566000000E+00 0.  1.
        994   -1    0    0    0    0 -0.00000000000E+00 -0.00000000000E+00  0.11368683772E-12  0.17120000000E+03  0.17120000000E+03 0.  0.
         13    1    1    2    0    0 -0.18730839424E+02  0.11962316860E+02  0.82724954800E+02  0.85658453645E+02  0.10566000000E+00 0.  1.
        994    1    1    2    0    0  0.14044760691E+02 -0.11495265956E+02  0.39821007999E+01  0.17220538194E+03  0.17120000000E+03 0.  0.
        998    1    1    2    0    0  0.46860787328E+01 -0.46705090419E+00  0.14132929407E+04  0.14133361644E+04  0.10000000000E+02 0.  1.
</event>
<event>
 5    1  0.1294251E-008  0.3802158E+03  0.7957747E-01  0.3450219E+00
         13   -1    0    0    0    0  0.00000000000E+00  0.00000000000E+00  0.14999999963E+04  0.15000000000E+04  0.10566000000E+00 0. -1.
        994   -1    0    0    0    0 -0.00000000000E+00 -0.00000000000E+00  0.11368683772E-12  0.17120000000E+03  0.17120000000E+03 0.  0.
         13    1    1    2    0    0  0.16618894674E+02 -0.98991250856E+01  0.46246868998E+02  0.50129476297E+02  0.10566000000E+00 0. -1.
        994    1    1    2    0    0 -0.73207138488E+01 -0.21346275484E+01  0.42185256657E+01  0.17142165979E+03  0.17120000000E+03 0.  0.
        998    1    1    2    0    0 -0.92981808247E+01  0.12033752634E+02  0.14495346016E+04  0.14496488639E+04  0.10000000000E+02 0. -1.
</event>
<event>
 5    1  0.1294251E-008  0.3865474E+03  0.7957747E-01  0.3423136E+00
         13   -1    0    0    0    0  0.00000000000E+00  0.00000000000E+00  0.14999999963E+04  0.15000000000E+04  0.10566000000E+00 0.  1.
        994   -1    0    0    0    0 -0.00000000000E+00 -0.00000000000E+00  0.11368683772E-12  0.17120000000E+03  0.17120000000E+03 0.  0.
         13    1    1    2    0    0  0.96111156126E+01  0.75678350575E+01  0.71724466315E+02  0.72760263214E+02  0.10566000000E+00 0.  1.
        994    1    1    2    0    0 -0.32711305960E+02 -0.11121507561E+02  0.47796903669E+01  0.17471692221E+03  0.17120000000E+03 0.  0.
        998    1    1    2    0    0  0.23100190347E+02  0.35536725032E+01  0.14234958396E+04  0.14237228146E+04  0.10000000000E+02 0.  1.
</event>
<event>
 5    1  0.1294251E-008  0.3832341E+03  0.7957747E-01  0.3437196E+00
         13   -1    0    0    0    0  0.00000000000E+00  0.00000000000E+00  0.14999999963E+04  0.15000000000E+04  0.10566000000E+00 0.  1.
        994   -1    0    0    0    0 -0.00000000000E+00 -0.00000000000E+00  0.11368683772E-12  0.17120000000E+03  0.17120000000E+03 0.  0.
         13    1    1    2    0    0 -0.10611361876E+02  0.41463330540E+01  0.25462591476E+02  0.27895300811E+02  0.10566000000E+00 0.  1.
        994    1    1    2    0    0  0.13271635056E+01 -0.36036441169E+01  0.25582248891E+01  0.17126217367E+03  0.17120000000E+03 0.  0.
        998    1    1    2    0    0  0.92841983701E+01 -0.54268893707E+00  0.14719791799E+04  0.14720425255E+04  0.10000000000E+02 0.  1.
</event>
<event>
 5    1  0.1294251E-008  0.3822895E+03  0.7957747E-01  0.3441250E+00
         13   -1    0    0    0    0  0.00000000000E+00  0.00000000000E+00  0.14999999963E+04  0.15000000000E+04  0.10566000000E+00 0. -1.
        994   -1    0    0    0    0 -0.00000000000E+00 -0.00000000000E+00  0.11368683772E-12  0.17120000000E+03  0.17120000000E+03 0.  0.
         13    1    1    2    0    0 -0.32788628606E+01 -0.27952851449E+02  0.12351792889E+03  0.12668386940E+03  0.10566000000E+00 0. -1.
        994    1    1    2    0    0  0.64454388177E+01  0.26382507416E+02  0.54328415087E+01  0.17342588084E+03  0.17120000000E+03 0.  0.
        998    1    1    2    0    0 -0.31665759571E+01  0.15703440337E+01  0.13710492259E+04  0.13710902498E+04  0.10000000000E+02 0. -1.
</event>
<event>
 5    1  0.1294251E-008  0.3833532E+03  0.7957747E-01  0.3436687E+00
         13   -1    0    0    0    0  0.00000000000E+00  0.00000000000E+00  0.14999999963E+04  0.15000000000E+04  0.10566000000E+00 0. -1.
        994   -1    0    0    0    0 -0.00000000000E+00 -0.00000000000E+00  0.11368683772E-12  0.17120000000E+03  0.17120000000E+03 0.  0.
         13    1    1    2    0    0  0.92911170085E+01  0.18834092266E+02  0.90720530892E+02  0.93119674485E+02  0.10566000000E+00 0. -1.
        994    1    1    2    0    0 -0.27322483974E+01 -0.10681478093E+02  0.28519695144E+01  0.17157835786E+03  0.17120000000E+03 0.  0.
        998    1    1    2    0    0 -0.65588686111E+01 -0.81526141733E+01  0.14064274959E+04  0.14065019677E+04  0.10000000000E+02 0. -1.
</event>
<event>
 5    1  0.1294251E-008  0.3686900E+03  0.7957747E-01  0.3501933E+00
         13   -1    0    0    0    0  0.00000000000E+00  0.00000000000E+00  0.14999999963E+04  0.15000000000E+04  0.10566000000E+00 0.  1.
        994   -1    0    0    0    0 -0.00000000000E+00 -0.00000000000E+00  0.11368683772E-12  0.17120000000E+03  0.17120000000E+03 0.  0.
         13    1    1    2    0    0  0.22743154932E+02  0.18810785678E+02  0.37994465221E+02  0.48111197299E+02  0.10566000000E+00 0.  1.
        994    1    1    2    0    0 -0.28485301588E+02 -0.24773503044E+02  0.14921636483E+02  0.17594667969E+03  0.17120000000E+03 0.  0.
        998    1    1    2    0    0  0.57421466558E+01  0.59627173658E+01  0.14470838946E+04  0.14471421230E+04  0.10000000000E+02 0.  1.
</event>
<event>
 5    1  0.1294251E-008  0.3753649E+03  0.7957747E-01  0.3471593E+00
         13   -1    0    0    0    0  0.00000000000E+00  0.00000000000E+00  0.14999999963E+04  0.15000000000E+04  0.10566000000E+00 0. -1.
        994   -1    0    0    0    0 -0.00000000000E+00 -0.00000000000E+00  0.11368683772E-12  0.17120000000E+03  0.17120000000E+03 0.  0.
         13    1    1    2    0    0 -0.25318039590E+02 -0.31253602135E+02  0.11714810663E+03  0.12386073158E+03  0.10566000000E+00 0. -1.
        994    1    1    2    0    0  0.29843754936E+02  0.19281770628E+02  0.10789486556E+02  0.17518073355E+03  0.17120000000E+03 0.  0.
        998    1    1    2    0    0 -0.45257153463E+01  0.11971831507E+02  0.13720624031E+04  0.13721585349E+04  0.10000000000E+02 0. -1.
</event>
<event>
 5    1  0.1294251E-008  0.3796641E+03  0.7957747E-01  0.3452623E+00
         13   -1    0    0    0    0  0.00000000000E+00  0.00000000000E+00  0.14999999963E+04  0.15000000000E+04  0.10566000000E+00 0. -1.
        994   -1    0    0    0    0 -0.00000000000E+00 -0.00000000000E+00  0.11368683772E-12  0.17120000000E+03  0.17120000000E+03 0.  0.
         13    1    1    2    0    0 -0.43634880029E+02 -0.16210055917E+01  0.24756610146E+03  0.25138738268E+03  0.10566000000E+00 0. -1.
        994    1    1    2    0    0  0.10787518620E+02  0.65879914020E+01  0.48377020117E+01  0.17173414206E+03  0.17120000000E+03 0.  0.
        998    1    1    2    0    0  0.32847361409E+02 -0.49669858103E+01  0.12475961928E+04  0.12480784753E+04  0.10000000000E+02 0. -1.
</event>
<event>
 5    1  0.1294251E-008  0.3833786E+03  0.7957747E-01  0.3436578E+00
         13   -1    0    0    0    0  0.00000000000E+00  0.00000000000E+00  0.14999999963E+04  0.15000000000E+04  0.10566000000E+00 0.  1.
        994   -1    0    0    0    0 -0.00000000000E+00 -0.00000000000E+00  0.11368683772E-12  0.17120000000E+03  0.17120000000E+03 0.  0.
         13    1    1    2    0    0  0.81829660052E+01  0.63589687456E+01  0.21409791378E+02  0.23786293259E+02  0.10566000000E+00 0.  1.
        994    1    1    2    0    0 -0.52097111332E+01  0.47377165790E+00  0.25277352952E+01  0.17129855515E+03  0.17120000000E+03 0.  0.
        998    1    1    2    0    0 -0.29732548719E+01 -0.68327404035E+01  0.14760624696E+04  0.14761151516E+04  0.10000000000E+02 0.  1.
</event>
<event>
 5    1  0.1294251E-008  0.3790537E+03  0.7957747E-01  0.3455289E+00
         13   -1    0    0    0    0  0.00000000000E+00  0.00000000000E+00  0.14999999963E+04  0.15000000000E+04  0.10566000000E+00 0.  1.
        994   -1    0    0    0    0 -0.00000000000E+00 -0.00000000000E+00  0.11368683772E-12  0.17120000000E+03  0.17120000000E+03 0.  0.
         13    1    1    2    0    0  0.28186786639E+02  0.14743105707E+02  0.10274760796E+03  0.10755898946E+03  0.10566000000E+00 0.  1.
        994    1    1    2    0    0 -0.29700508478E+02 -0.69782474200E+01  0.77392703698E+01  0.17406938975E+03  0.17120000000E+03 0.  0.
        998    1    1    2    0    0  0.15137218388E+01 -0.77648582867E+01  0.13895131179E+04  0.13895716208E+04  0.10000000000E+02 0.  1.
</event>
<event>
 5    1  0.1294251E-008  0.3696685E+03  0.7957747E-01  0.3497416E+00
         13   -1    0    0    0    0  0.00000000000E+00  0.00000000000E+00  0.14999999963E+04  0.15000000000E+04  0.10566000000E+00 0.  1.
        994   -1    0    0    0    0 -0.00000000000E+00 -0.00000000000E+00  0.11368683772E-12  0.17120000000E+03  0.17120000000E+03 0.  0.
         13    1    1    2    0    0  0.48433083264E+02 -0.16652689722E+02  0.15048597755E+03  0.15896262527E+03  0.10566000000E+00 0.  1.
        994    1    1    2    0    0 -0.39456302785E+01  0.13821573451E+02  0.10157955087E+02  0.17210237634E+03  0.17120000000E+03 0.  0.
        998    1    1    2    0    0 -0.44487452985E+02  0.28311162708E+01  0.13393560636E+04  0.13401349984E+04  0.10000000000E+02 0.  1.
</event>
<event>
 5    1  0.1294251E-008  0.3710483E+03  0.7957747E-01  0.3491087E+00
         13   -1    0    0    0    0  0.00000000000E+00  0.00000000000E+00  0.14999999963E+04  0.15000000000E+04  0.10566000000E+00 0. -1.
        994   -1    0    0    0    0 -0.00000000000E+00 -0.00000000000E+00  0.11368683772E-12  0.17120000000E+03  0.17120000000E+03 0.  0.
         13    1    1    2    0    0 -0.66675890626E+01  0.51767107216E+02  0.13764058169E+03  0.14720472487E+03  0.10566000000E+00 0. -1.
        994    1    1    2    0    0  0.71046823535E-01  0.12998970504E+02  0.12087343580E+02  0.17211775666E+03  0.17120000000E+03 0.  0.
        998    1    1    2    0    0  0.65965422390E+01 -0.64766077720E+02  0.13502720710E+04  0.13518775185E+04  0.10000000000E+02 0. -1.
</event>
<event>
 5    1  0.1294251E-008  0.3829338E+03  0.7957747E-01  0.3438483E+00
         13   -1    0    0    0    0  0.00000000000E+00  0.00000000000E+00  0.14999999963E+04  0.15000000000E+04  0.10566000000E+00 0.  1.
        994   -1    0    0    0    0 -0.00000000000E+00 -0.00000000000E+00  0.11368683772E-12  0.17120000000E+03  0.17120000000E+03 0.  0.
         13    1    1    2    0    0  0.13106221494E+02  0.18773273723E+01  0.31726441388E+02  0.34378418333E+02  0.10566000000E+00 0.  1.
        994    1    1    2    0    0 -0.11295799088E+02 -0.49911726654E+01  0.31645239673E+01  0.17167399656E+03  0.17120000000E+03 0.  0.
        998    1    1    2    0    0 -0.18104224059E+01  0.31138452932E+01  0.14651090309E+04  0.14651475851E+04  0.10000000000E+02 0.  1.
</event>
<event>
 5    1  0.1294251E-008  0.3834881E+03  0.7957747E-01  0.3436110E+00
         13   -1    0    0    0    0  0.00000000000E+00  0.00000000000E+00  0.14999999963E+04  0.15000000000E+04  0.10566000000E+00 0.  1.
        994   -1    0    0    0    0 -0.00000000000E+00 -0.00000000000E+00  0.11368683772E-12  0.17120000000E+03  0.17120000000E+03 0.  0.
         13    1    1    2    0    0 -0.12638088346E+02 -0.12616201171E+02  0.64105078515E+02  0.66545939504E+02  0.10566000000E+00 0.  1.
        994    1    1    2    0    0  0.10071849887E+02  0.15401661635E+02  0.35026088527E+01  0.17222183837E+03  0.17120000000E+03 0.  0.
        998    1    1    2    0    0  0.25662384586E+01 -0.27854604632E+01  0.14323923089E+04  0.14324322221E+04  0.10000000000E+02 0.  1.
</event>
<event>
 5    1  0.1294251E-008  0.3829665E+03  0.7957747E-01  0.3438342E+00
         13   -1    0    0    0    0  0.00000000000E+00  0.00000000000E+00  0.14999999963E+04  0.15000000000E+04  0.10566000000E+00 0.  1.
        994   -1    0    0    0    0 -0.00000000000E+00 -0.00000000000E+00  0.11368683772E-12  0.17120000000E+03  0.17120000000E+03 0.  0.
         13    1    1    2    0    0  0.27219419007E+02  0.17824388166E+01  0.15861699054E+03  0.16094544017E+03  0.10566000000E+00 0.  1.
        994    1    1    2    0    0 -0.57817337928E+00 -0.91214244219E+01  0.29196756494E+01  0.17146865362E+03  0.17120000000E+03 0.  0.
        998    1    1    2    0    0 -0.26641245628E+02  0.73389856054E+01  0.13384633301E+04  0.13387859062E+04  0.10000000000E+02 0.  1.
</event>
<event>
 5    1  0.1294251E-008  0.3859490E+03  0.7957747E-01  0.3425658E+00
         13   -1    0    0    0    0  0.00000000000E+00  0.00000000000E+00  0.14999999963E+04  0.15000000000E+04  0.10566000000E+00 0.  1.
        994   -1    0    0    0    0 -0.00000000000E+00 -0.00000000000E+00  0.11368683772E-12  0.17120000000E+03  0.17120000000E+03 0.  0.
         13    1    1    2    0    0  0.10805101650E+02 -0.91667974155E+01  0.73897742556E+02  0.75244055682E+02  0.10566000000E+00 0.  1.
        994    1    1    2    0    0 -0.22536943724E+02  0.21683467026E+02  0.43730251202E+01  0.17408805221E+03  0.17120000000E+03 0.  0.
        998    1    1    2    0    0  0.11731842074E+02 -0.12516669611E+02  0.14217292286E+04  0.14218678921E+04  0.10000000000E+02 0.  1.
</event>
<event>
 5    1  0.1294251E-008  0.3693356E+03  0.7957747E-01  0.3498950E+00
         13   -1    0    0    0    0  0.00000000000E+00  0.00000000000E+00  0.14999999963E+04  0.15000000000E+04  0.10566000000E+00 0. -1.
        994   -1    0    0    0    0 -0.00000000000E+00 -0.00000000000E+00  0.11368683772E-12  0.17120000000E+03  0.17120000000E+03 0.  0.
         13    1    1    2    0    0 -0.19502764011E+02 -0.27498975151E+02  0.53818596408E+02  0.63505936115E+02  0.10566000000E+00 0. -1.
        994    1    1    2    0    0  0.21620841877E+02  0.24502263205E+02  0.13326399786E+02  0.17479946978E+03  0.17120000000E+03 0.  0.
        998    1    1    2    0    0 -0.21180778664E+01  0.29967119463E+01  0.14328550001E+04  0.14328945941E+04  0.10000000000E+02 0. -1.
</event>
<event>
 5    1  0.1294251E-008  0.3730884E+03  0.7957747E-01  0.3481816E+00
         13   -1    0    0    0    0  0.00000000000E+00  0.00000000000E+00  0.14999999963E+04  0.15000000000E+04  0.10566000000E+00 0.  1.
        994   -1    0    0    0    0 -0.00000000000E+00 -0.00000000000E+00  0.11368683772E-12  0.17120000000E+03  0.17120000000E+03 0.  0.
         13    1    1    2    0    0  0.47805910678E+02  0.16839018988E+02  0.19478009042E+03  0.20126662029E+03  0.10566000000E+00 0.  1.
        994    1    1    2    0    0 -0.60192885366E+01  0.14644340287E+02  0.85217766424E+01  0.17214165450E+03  0.17120000000E+03 0.  0.
        998    1    1    2    0    0 -0.41786622142E+02 -0.31483359275E+02  0.12966981292E+04  0.12977917252E+04  0.10000000000E+02 0.  1.
</event>
<event>
 5    1  0.1294251E-008  0.3810487E+03  0.7957747E-01  0.3446605E+00
         13   -1    0    0    0    0  0.00000000000E+00  0.00000000000E+00  0.14999999963E+04  0.15000000000E+04  0.10566000000E+00 0.  1.
        994   -1    0    0    0    0 -0.00000000000E+00 -0.00000000000E+00  0.11368683772E-12  0.17120000000E+03  0.17120000000E+03 0.  0.
         13    1    1    2    0    0  0.11579747293E+02 -0.12252076457E+02  0.37322974398E+02  0.40953870474E+02  0.10566000000E+00 0.  1.
        994    1    1    2    0    0 -0.23334703669E+02  0.13447616675E+01  0.54268136870E+01  0.17287338455E+03  0.17120000000E+03 0.  0.
        998    1    1    2    0    0  0.11754956376E+02  0.10907314789E+02  0.14572502082E+04  0.14573727450E+04  0.10000000000E+02 0.  1.
</event>
<event>
 5    1  0.1294251E-008  0.3847414E+03  0.7957747E-01  0.3430770E+00
         13   -1    0    0    0    0  0.00000000000E+00  0.00000000000E+00  0.14999999963E+04  0.15000000000E+04  0.10566000000E+00 0. -1.
        994   -1    0    0    0    0 -0.00000000000E+00 -0.00000000000E+00  0.11368683772E-12  0.17120000000E+03  0.17120000000E+03 0.  0.
         13    1    1    2    0    0  0.13986262808E+01 -0.16220387693E+02  0.81469836406E+02  0.83080698965E+02  0.10566000000E+00 0. -1.
        994    1    1    2    0    0  0.21321471458E+02  0.16164078852E+01  0.32649306880E+01  0.17256105497E+03  0.17120000000E+03 0.  0.
        998    1    1    2    0    0 -0.22720097739E+02  0.14603979808E+02  0.14152652292E+04  0.14155582461E+04  0.10000000000E+02 0. -1.
</event>
<event>
 5    1  0.1294251E-008  0.4053157E+03  0.7957747E-01  0.3347831E+00
         13   -1    0    0    0    0  0.00000000000E+00  0.00000000000E+00  0.14999999963E+04  0.15000000000E+04  0.10566000000E+00 0.  1.
        994   -1    0    0    0    0 -0.00000000000E+00 -0.00000000000E+00  0.11368683772E-12  0.17120000000E+03  0.17120000000E+03 0.  0.
         13    1    1    2    0    0 -0.65607993632E+02  0.67631120226E+02  0.15924313087E+03  0.18503178955E+03  0.10566000000E+00 0.  1.
        994    1    1    2    0    0 -0.20561328460E+02 -0.38512771368E+02  0.38658813293E+02  0.18085891084E+03  0.17120000000E+03 0.  0.
        998    1    1    2    0    0  0.86169322091E+02 -0.29118348858E+02  0.13020980521E+04  0.13053092996E+04  0.10000000000E+02 0.  1.
</event>
<event>
 5    1  0.1294251E-008  0.3834764E+03  0.7957747E-01  0.3436160E+00
         13   -1    0    0    0    0  0.00000000000E+00  0.00000000000E+00  0.14999999963E+04  0.15000000000E+04  0.10566000000E+00 0.  1.
        994   -1    0    0    0    0 -0.00000000000E+00 -0.00000000000E+00  0.11368683772E-12  0.17120000000E+03  0.17120000000E+03 0.  0.
         13    1    1    2    0    0 -0.22442804772E+02 -0.24456750358E+02  0.19667501394E+03  0.19945647244E+03  0.10566000000E+00 0.  1.
        994    1    1    2    0    0  0.21826883146E+02  0.29555979870E+02  0.68629213520E+01  0.17523272658E+03  0.17120000000E+03 0.  0.
        998    1    1    2    0    0  0.61592162595E+00 -0.50992295121E+01  0.12964620610E+04  0.12965108010E+04  0.10000000000E+02 0.  1.
</event>
<event>
 5    1  0.1294251E-008  0.3845291E+03  0.7957747E-01  0.3431672E+00
         13   -1    0    0    0    0  0.00000000000E+00  0.00000000000E+00  0.14999999963E+04  0.15000000000E+04  0.10566000000E+00 0. -1.
        994   -1    0    0    0    0 -0.00000000000E+00 -0.00000000000E+00  0.11368683772E-12  0.17120000000E+03  0.17120000000E+03 0.  0.
         13    1    1    2    0    0  0.90112586671E+01  0.43417124661E+01  0.27127641973E+02  0.28913204128E+02  0.10566000000E+00 0. -1.
        994    1    1    2    0    0  0.22216335170E+01 -0.44970554654E+01  0.19469764935E+01  0.17128452902E+03  0.17120000000E+03 0.  0.
        998    1    1    2    0    0 -0.11232892184E+02  0.15534299927E+00  0.14709253778E+04  0.14710022669E+04  0.10000000000E+02 0. -1.
</event>
<event>
 5    1  0.1294251E-008  0.3829163E+03  0.7957747E-01  0.3438558E+00
         13   -1    0    0    0    0  0.00000000000E+00  0.00000000000E+00  0.14999999963E+04  0.15000000000E+04  0.10566000000E+00 0.  1.
        994   -1    0    0    0    0 -0.00000000000E+00 -0.00000000000E+00  0.11368683772E-12  0.17120000000E+03  0.17120000000E+03 0.  0.
         13    1    1    2    0    0 -0.15546482343E+02 -0.18357082689E+02  0.99519345122E+02  0.10238548147E+03  0.10566000000E+00 0.  1.
        994    1    1    2    0    0  0.24250052608E+02  0.15751260708E+02  0.54417162439E+01  0.17371015958E+03  0.17120000000E+03 0.  0.
        998    1    1    2    0    0 -0.87035702652E+01  0.26058219814E+01  0.13950389349E+04  0.13951043590E+04  0.10000000000E+02 0.  1.
</event>
<event>
 5    1  0.1294251E-008  0.3799311E+03  0.7957747E-01  0.3451459E+00
         13   -1    0    0    0    0  0.00000000000E+00  0.00000000000E+00  0.14999999963E+04  0.15000000000E+04  0.10566000000E+00 0.  1.
        994   -1    0    0    0    0 -0.00000000000E+00 -0.00000000000E+00  0.11368683772E-12  0.17120000000E+03  0.17120000000E+03 0.  0.
         13    1    1    2    0    0 -0.18690813461E+02 -0.20720668034E+02  0.86279683608E+02  0.90680138725E+02  0.10566000000E+00 0.  1.
        994    1    1    2    0    0  0.19162551948E+02  0.23925182037E+02  0.73161038696E+01  0.17407637148E+03  0.17120000000E+03 0.  0.
        998    1    1    2    0    0 -0.47173848626E+00 -0.32045140028E+01  0.14064042088E+04  0.14064434898E+04  0.10000000000E+02 0.  1.
</event>
<event>
 5    1  0.1294251E-008  0.3793902E+03  0.7957747E-01  0.3453818E+00
         13   -1    0    0    0    0  0.00000000000E+00  0.00000000000E+00  0.14999999963E+04  0.15000000000E+04  0.10566000000E+00 0.  1.
        994   -1    0    0    0    0 -0.00000000000E+00 -0.00000000000E+00  0.11368683772E-12  0.17120000000E+03  0.17120000000E+03 0.  0.
         13    1    1    2    0    0  0.34525352062E+02 -0.14046753496E+02  0.13137182374E+03  0.13655723509E+03  0.10566000000E+00 0.  1.
        994    1    1    2    0    0 -0.21065809612E+02  0.10274869044E+03  0.42219521513E+02  0.20516576157E+03  0.17120000000E+03 0.  0.
        998    1    1    2    0    0 -0.13459542450E+02 -0.88701936948E+02  0.13264086510E+04  0.13294770033E+04  0.10000000000E+02 0.  1.
</event>
<event>
 5    1  0.1294251E-008  0.3826813E+03  0.7957747E-01  0.3439566E+00
         13   -1    0    0    0    0  0.00000000000E+00  0.00000000000E+00  0.14999999963E+04  0.15000000000E+04  0.10566000000E+00 0.  1.
        994   -1    0    0    0    0 -0.00000000000E+00 -0.00000000000E+00  0.11368683772E-12  0.17120000000E+03  0.17120000000E+03 0.  0.
         13    1    1    2    0    0  0.56514379558E+01 -0.15380028073E+02  0.48743662660E+02  0.51424117183E+02  0.10566000000E+00 0.  1.
        994    1    1    2    0    0 -0.58995810201E+01  0.20534937003E+01  0.29150281929E+01  0.17133872674E+03  0.17120000000E+03 0.  0.
        998    1    1    2    0    0  0.24814306431E+00  0.13326534373E+02  0.14483413054E+04  0.14484371561E+04  0.10000000000E+02 0.  1.
</event>
<event>
 5    1  0.1294251E-008  0.3853832E+03  0.7957747E-01  0.3428049E+00
         13   -1    0    0    0    0  0.00000000000E+00  0.00000000000E+00  0.14999999963E+04  0.15000000000E+04  0.10566000000E+00 0. -1.
        994   -1    0    0    0    0 -0.00000000000E+00 -0.00000000000E+00  0.11368683772E-12  0.17120000000E+03  0.17120000000E+03 0.  0.
         13    1    1    2    0    0  0.15200844946E+02  0.93244845367E+01  0.94394704768E+02  0.96064473928E+02  0.10566000000E+00 0. -1.
        994    1    1    2    0    0 -0.31921728510E+02 -0.90566872678E+01  0.50647856729E+01  0.17445948638E+03  0.17120000000E+03 0.  0.
        998    1    1    2    0    0  0.16720883564E+02 -0.26779726893E+00  0.14005405058E+04  0.14006760397E+04  0.10000000000E+02 0. -1.
</event>
<event>
 5    1  0.1294251E-008  0.4049507E+03  0.7957747E-01  0.3349229E+00
         13   -1    0    0    0    0  0.00000000000E+00  0.00000000000E+00  0.14999999963E+04  0.15000000000E+04  0.10566000000E+00 0. -1.
        994   -1    0    0    0    0 -0.00000000000E+00 -0.00000000000E+00  0.11368683772E-12  0.17120000000E+03  0.17120000000E+03 0.  0.
         13    1    1    2    0    0  0.39182755743E+02  0.33477754225E+02  0.32419872276E+02  0.60886021861E+02  0.10566000000E+00 0. -1.
        994    1    1    2    0    0 -0.25404909224E+02 -0.26497723500E+02  0.36173353213E+02  0.17878895449E+03  0.17120000000E+03 0.  0.
        998    1    1    2    0    0 -0.13777846520E+02 -0.69800307257E+01  0.14314067708E+04  0.14315250237E+04  0.10000000000E+02 0. -1.
</event>
<event>
 5    1  0.1294251E-008  0.3830566E+03  0.7957747E-01  0.3437956E+00
         13   -1    0    0    0    0  0.00000000000E+00  0.00000000000E+00  0.14999999963E+04  0.15000000000E+04  0.10566000000E+00 0. -1.
        994   -1    0    0    0    0 -0.00000000000E+00 -0.00000000000E+00  0.11368683772E-12  0.17120000000E+03  0.17120000000E+03 0.  0.
         13    1    1    2    0    0  0.87800005284E+01  0.13940088868E+02  0.49711309346E+02  0.52370219857E+02  0.10566000000E+00 0. -1.
        994    1    1    2    0    0 -0.23148603325E+02 -0.74882202545E+01  0.45595165395E+01  0.17298023144E+03  0.17120000000E+03 0.  0.
        998    1    1    2    0    0  0.14368602796E+02 -0.64518686138E+01  0.14457291704E+04  0.14458495487E+04  0.10000000000E+02 0. -1.
</event>
<event>
 5    1  0.1294251E-008  0.3855663E+03  0.7957747E-01  0.3427274E+00
         13   -1    0    0    0    0  0.00000000000E+00  0.00000000000E+00  0.14999999963E+04  0.15000000000E+04  0.10566000000E+00 0. -1.
        994   -1    0    0    0    0 -0.00000000000E+00 -0.00000000000E+00  0.11368683772E-12  0.17120000000E+03  0.17120000000E+03 0.  0.
         13    1    1    2    0    0  0.10998503796E+01  0.13325423146E+02  0.67471613958E+02  0.68783765723E+02  0.10566000000E+00 0. -1.
        994    1    1    2    0    0 -0.15683711594E+01 -0.69889763030E+01  0.15176896784E+01  0.17135649670E+03  0.17120000000E+03 0.  0.
        998    1    1    2    0    0  0.46852077978E+00 -0.63364468430E+01  0.14310106926E+04  0.14310597376E+04  0.10000000000E+02 0. -1.
</event>
<event>
 5    1  0.1294251E-008  0.3821158E+03  0.7957747E-01  0.3441997E+00
         13   -1    0    0    0    0  0.00000000000E+00  0.00000000000E+00  0.14999999963E+04  0.15000000000E+04  0.10566000000E+00 0.  1.
        994   -1    0    0    0    0 -0.00000000000E+00 -0.00000000000E+00  0.11368683772E-12  0.17120000000E+03  0.17120000000E+03 0.  0.
         13    1    1    2    0    0 -0.11675688859E+02 -0.14196420140E+02  0.58672693950E+02  0.61484601605E+02  0.10566000000E+00 0.  1.
        994    1    1    2    0    0  0.14888336108E+01 -0.89858883220E+01  0.33443428506E+01  0.17147474287E+03  0.17120000000E+03 0.  0.
        998    1    1    2    0    0  0.10186855249E+02  0.23182308462E+02  0.14379829595E+04  0.14382406555E+04  0.10000000000E+02 0.  1.
</event>
<event>
 5    1  0.1294251E-008  0.3837468E+03  0.7957747E-01  0.3435004E+00
         13   -1    0    0    0    0  0.00000000000E+00  0.00000000000E+00  0.14999999963E+04  0.15000000000E+04  0.10566000000E+00 0.  1.
        994   -1    0    0    0    0 -0.00000000000E+00 -0.00000000000E+00  0.11368683772E-12  0.17120000000E+03  0.17120000000E+03 0.  0.
         13    1    1    2    0    0  0.18353280554E+02  0.20122967435E+02  0.14814200424E+03  0.15062483629E+03  0.10566000000E+00 0.  1.
        994    1    1    2    0    0 -0.14271764619E+02 -0.26157168699E+02  0.51909373342E+01  0.17385127716E+03  0.17120000000E+03 0.  0.
        998    1    1    2    0    0 -0.40815159348E+01  0.60342012645E+01  0.13466670547E+04  0.13467238865E+04  0.10000000000E+02 0.  1.
</event>
<event>
 5    1  0.1294251E-008  0.3748831E+03  0.7957747E-01  0.3473746E+00
         13   -1    0    0    0    0  0.00000000000E+00  0.00000000000E+00  0.14999999963E+04  0.15000000000E+04  0.10566000000E+00 0. -1.
        994   -1    0    0    0    0 -0.00000000000E+00 -0.00000000000E+00  0.11368683772E-12  0.17120000000E+03  0.17120000000E+03 0.  0.
         13    1    1    2    0    0  0.30259811205E+02 -0.19858621122E+02  0.41868474948E+02  0.55344388745E+02  0.10566000000E+00 0. -1.
        994    1    1    2    0    0 -0.25704468098E+02  0.28206060160E+02  0.18742205170E+02  0.17640014673E+03  0.17120000000E+03 0.  0.
        998    1    1    2    0    0 -0.45553431062E+01 -0.83474390380E+01  0.14393893162E+04  0.14394554645E+04  0.10000000000E+02 0. -1.
</event>
<event>
 5    1  0.1294251E-008  0.3749861E+03  0.7957747E-01  0.3473285E+00
         13   -1    0    0    0    0  0.00000000000E+00  0.00000000000E+00  0.14999999963E+04  0.15000000000E+04  0.10566000000E+00 0.  1.
        994   -1    0    0    0    0 -0.00000000000E+00 -0.00000000000E+00  0.11368683772E-12  0.17120000000E+03  0.17120000000E+03 0.  0.
         13    1    1    2    0    0  0.90491223169E+02  0.10193128237E+02  0.45423925680E+03  0.46327731967E+03  0.10566000000E+00 0.  1.
        994    1    1    2    0    0 -0.85494656550E+02 -0.71010835221E+00  0.31955459314E+02  0.19401142217E+03  0.17120000000E+03 0.  0.
        998    1    1    2    0    0 -0.49965666185E+01 -0.94830198847E+01  0.10138052802E+04  0.10139112582E+04  0.10000000000E+02 0. -1.
</event>
<event>
 5    1  0.1294251E-008  0.3783581E+03  0.7957747E-01  0.3458339E+00
         13   -1    0    0    0    0  0.00000000000E+00  0.00000000000E+00  0.14999999963E+04  0.15000000000E+04  0.10566000000E+00 0. -1.
        994   -1    0    0    0    0 -0.00000000000E+00 -0.00000000000E+00  0.11368683772E-12  0.17120000000E+03  0.17120000000E+03 0.  0.
         13    1    1    2    0    0  0.35010432924E+02  0.12136027632E+02  0.12649420930E+03  0.13180974824E+03  0.10566000000E+00 0. -1.
        994    1    1    2    0    0 -0.36547413270E+02 -0.60940940019E+01  0.95925168972E+01  0.17542607497E+03  0.17120000000E+03 0.  0.
        998    1    1    2    0    0  0.15369803458E+01 -0.60419336303E+01  0.13639132701E+04  0.13639641768E+04  0.10000000000E+02 0. -1.
</event>
<event>
 5    1  0.1294251E-008  0.3856571E+03  0.7957747E-01  0.3426890E+00
         13   -1    0    0    0    0  0.00000000000E+00  0.00000000000E+00  0.14999999963E+04  0.15000000000E+04  0.10566000000E+00 0.  1.
        994   -1    0    0    0    0 -0.00000000000E+00 -0.00000000000E+00  0.11368683772E-12  0.17120000000E+03  0.17120000000E+03 0.  0.
         13    1    1    2    0    0 -0.90411951758E+01 -0.11174169121E+02  0.82974874414E+02  0.84210725052E+02  0.10566000000E+00 0.  1.
        994    1    1    2    0    0 -0.11348872789E+00  0.58468423945E+01  0.14164970214E+01  0.17130570600E+03  0.17120000000E+03 0.  0.
        998    1    1    2    0    0  0.91546839037E+01  0.53273267261E+01  0.14156086248E+04  0.14156835689E+04  0.10000000000E+02 0.  1.
</event>
<event>
 5    1  0.1294251E-008  0.3823772E+03  0.7957747E-01  0.3440872E+00
         13   -1    0    0    0    0  0.00000000000E+00  0.00000000000E+00  0.14999999963E+04  0.15000000000E+04  0.10566000000E+00 0.  1.
        994   -1    0    0    0    0 -0.00000000000E+00 -0.00000000000E+00  0.11368683772E-12  0.17120000000E+03  0.17120000000E+03 0.  0.
         13    1    1    2    0    0  0.17276698551E+02 -0.14911925927E+02  0.86270770830E+02  0.89238483354E+02  0.10566000000E+00 0.  1.
        994    1    1    2    0    0 -0.24350615307E+02 -0.13757704671E+01  0.49134492886E+01  0.17299834448E+03  0.17120000000E+03 0.  0.
        998    1    1    2    0    0  0.70739167554E+01  0.16287696394E+02  0.14088157762E+04  0.14089631722E+04  0.10000000000E+02 0.  1.
</event>
<event>
 5    1  0.1294251E-008  0.3833226E+03  0.7957747E-01  0.3436817E+00
         13   -1    0    0    0    0  0.00000000000E+00  0.00000000000E+00  0.14999999963E+04  0.15000000000E+04  0.10566000000E+00 0.  1.
        994   -1    0    0    0    0 -0.00000000000E+00 -0.00000000000E+00  0.11368683772E-12  0.17120000000E+03  0.17120000000E+03 0.  0.
         13    1    1    2    0    0  0.17380706317E+02  0.48440150613E+01  0.65130534073E+02  0.67583659760E+02  0.10566000000E+00 0.  1.
        994    1    1    2    0    0 -0.79126050890E+01 -0.18438221302E+02  0.37975115389E+01  0.17241356796E+03  0.17120000000E+03 0.  0.
        998    1    1    2    0    0 -0.94681012278E+01  0.13594206240E+02  0.14310719507E+04  0.14312027723E+04  0.10000000000E+02 0.  1.
</event>
<event>
 5    1  0.1294251E-008  0.3856401E+03  0.7957747E-01  0.3426962E+00
         13   -1    0    0    0    0  0.00000000000E+00  0.00000000000E+00  0.14999999963E+04  0.15000000000E+04  0.10566000000E+00 0. -1.
        994   -1    0    0    0    0 -0.00000000000E+00 -0.00000000000E+00  0.11368683772E-12  0.17120000000E+03  0.17120000000E+03 0.  0.
         13    1    1    2    0    0 -0.10491997516E+02  0.42169963922E+01  0.47427818505E+02  0.48757298968E+02  0.10566000000E+00 0. -1.
        994    1    1    2    0    0  0.75006156554E+01 -0.16849054708E+02  0.24297617378E+01  0.17220770489E+03  0.17120000000E+03 0.  0.
        998    1    1    2    0    0  0.29913818610E+01  0.12632058316E+02  0.14501424160E+04  0.14502349961E+04  0.10000000000E+02 0. -1.
</event>
<event>
 5    1  0.1294251E-008  0.3860337E+03  0.7957747E-01  0.3425300E+00
         13   -1    0    0    0    0  0.00000000000E+00  0.00000000000E+00  0.14999999963E+04  0.15000000000E+04  0.10566000000E+00 0. -1.
        994   -1    0    0    0    0 -0.00000000000E+00 -0.00000000000E+00  0.11368683772E-12  0.17120000000E+03  0.17120000000E+03 0.  0.
         13    1    1    2    0    0 -0.10748140799E+02  0.65960571678E+01  0.70361172801E+02  0.71482419536E+02  0.10566000000E+00 0. -1.
        994    1    1    2    0    0  0.82212185140E+01 -0.81955670501E+01  0.15595842639E+01  0.17160019830E+03  0.17120000000E+03 0.  0.
        998    1    1    2    0    0  0.25269222850E+01  0.15995098822E+01  0.14280792392E+04  0.14281173822E+04  0.10000000000E+02 0. -1.
</event>
<event>
 5    1  0.1294251E-008  0.3803400E+03  0.7957747E-01  0.3449680E+00
         13   -1    0    0    0    0  0.00000000000E+00  0.00000000000E+00  0.14999999963E+04  0.15000000000E+04  0.10566000000E+00 0. -1.
        994   -1    0    0    0    0 -0.00000000000E+00 -0.00000000000E+00  0.11368683772E-12  0.17120000000E+03  0.17120000000E+03 0.  0.
         13    1    1    2    0    0  0.39295884520E+02  0.78307335523E+01  0.22286646345E+03  0.22643974612E+03  0.10566000000E+00 0. -1.
        994    1    1    2    0    0 -0.59508279895E+01 -0.32483843874E+02  0.76119396867E+01  0.17452218797E+03  0.17120000000E+03 0.  0.
        998    1    1    2    0    0 -0.33345056530E+02  0.24653110322E+02  0.12695215931E+04  0.12702380659E+04  0.10000000000E+02 0. -1.
</event>
<event>
 5    1  0.1294251E-008  0.3825230E+03  0.7957747E-01  0.3440246E+00
         13   -1    0    0    0    0  0.00000000000E+00  0.00000000000E+00  0.14999999963E+04  0.15000000000E+04  0.10566000000E+00 0. -1.
        994   -1    0    0    0    0 -0.00000000000E+00 -0.00000000000E+00  0.11368683772E-12  0.17120000000E+03  0.17120000000E+03 0.  0.
         13    1    1    2    0    0  0.12793381148E+02  0.29915221272E+02  0.18076998246E+03  0.18367468195E+03  0.10566000000E+00 0. -1.
        994    1    1    2    0    0 -0.52437710084E+01 -0.20732677142E+02  0.43826353496E+01  0.17258617711E+03  0.17120000000E+03 0.  0.
        998    1    1    2    0    0 -0.75496101394E+01 -0.91825441302E+01  0.13148473785E+04  0.13149391409E+04  0.10000000000E+02 0. -1.
</event>
<event>
 5    1  0.1294251E-008  0.3847912E+03  0.7957747E-01  0.3430558E+00
         13   -1    0    0    0    0  0.00000000000E+00  0.00000000000E+00  0.14999999963E+04  0.15000000000E+04  0.10566000000E+00 0. -1.
        994   -1    0    0    0    0 -0.00000000000E+00 -0.00000000000E+00  0.11368683772E-12  0.17120000000E+03  0.17120000000E+03 0.  0.
         13    1    1    2    0    0  0.20706926562E+02 -0.56604951083E+01  0.37265218058E+01  0.21787981579E+02  0.10566000000E+00 0. -1.
        994    1    1    2    0    0 -0.19145100596E+02  0.79758249740E+01  0.20572427300E+02  0.17367444667E+03  0.17120000000E+03 0.  0.
        998    1    1    2    0    0 -0.15618259659E+01 -0.23153298657E+01  0.14757010472E+04  0.14757375718E+04  0.10000000000E+02 0. -1.
</event>
<event>
 5    1  0.1294251E-008  0.3779550E+03  0.7957747E-01  0.3460111E+00
         13   -1    0    0    0    0  0.00000000000E+00  0.00000000000E+00  0.14999999963E+04  0.15000000000E+04  0.10566000000E+00 0.  1.
        994   -1    0    0    0    0 -0.00000000000E+00 -0.00000000000E+00  0.11368683772E-12  0.17120000000E+03  0.17120000000E+03 0.  0.
         13    1    1    2    0    0 -0.40445054345E+02 -0.24801041705E+02  0.18763146747E+03  0.19353674803E+03  0.10566000000E+00 0.  1.
        994    1    1    2    0    0  0.44036547795E+02  0.23191137372E+02  0.13551677736E+02  0.17880194172E+03  0.17120000000E+03 0.  0.
        998    1    1    2    0    0 -0.35914934498E+01  0.16099043326E+01  0.12988168511E+04  0.12988613102E+04  0.10000000000E+02 0.  0.
</event>
<event>
 5    1  0.1294251E-008  0.3852610E+03  0.7957747E-01  0.3428566E+00
         13   -1    0    0    0    0  0.00000000000E+00  0.00000000000E+00  0.14999999963E+04  0.15000000000E+04  0.10566000000E+00 0.  1.
        994   -1    0    0    0    0 -0.00000000000E+00 -0.00000000000E+00  0.11368683772E-12  0.17120000000E+03  0.17120000000E+03 0.  0.
         13    1    1    2    0    0 -0.42549188965E+01  0.15978486919E+02  0.99708289167E+02  0.10107012650E+03  0.10566000000E+00 0.  1.
        994    1    1    2    0    0 -0.62771147079E+01 -0.18600870279E+01  0.16414852966E+01  0.17133299906E+03  0.17120000000E+03 0.  0.
        998    1    1    2    0    0  0.10532033604E+02 -0.14118399891E+02  0.13986502218E+04  0.13987968744E+04  0.10000000000E+02 0.  1.
</event>
<event>
 5    1  0.1294251E-008  0.3794842E+03  0.7957747E-01  0.3453408E+00
         13   -1    0    0    0    0  0.00000000000E+00  0.00000000000E+00  0.14999999963E+04  0.15000000000E+04  0.10566000000E+00 0. -1.
        994   -1    0    0    0    0 -0.00000000000E+00 -0.00000000000E+00  0.11368683772E-12  0.17120000000E+03  0.17120000000E+03 0.  0.
         13    1    1    2    0    0  0.28344452812E+02  0.85857463674E+01  0.81677669340E+02  0.86881389715E+02  0.10566000000E+00 0. -1.
        994    1    1    2    0    0 -0.58002831815E+02 -0.13184088640E+02  0.16334189341E+02  0.18197360917E+03  0.17120000000E+03 0.  0.
        998    1    1    2    0    0  0.29658379003E+02  0.45983422730E+01  0.14019881376E+04  0.14023450011E+04  0.10000000000E+02 0. -1.
</event>
<event>
 5    1  0.1294251E-008  0.3813569E+03  0.7957747E-01  0.3445272E+00
         13   -1    0    0    0    0  0.00000000000E+00  0.00000000000E+00  0.14999999963E+04  0.15000000000E+04  0.10566000000E+00 0.  1.
        994   -1    0    0    0    0 -0.00000000000E+00 -0.00000000000E+00  0.11368683772E-12  0.17120000000E+03  0.17120000000E+03 0.  0.
         13    1    1    2    0    0  0.84223021014E+01  0.88429413029E+01  0.19665083003E+02  0.23148637911E+02  0.10566000000E+00 0.  1.
        994    1    1    2    0    0 -0.12283086380E+02 -0.13690799184E+02  0.45764784320E+01  0.17224603435E+03  0.17120000000E+03 0.  0.
        998    1    1    2    0    0  0.38607842782E+01  0.48478578811E+01  0.14757584348E+04  0.14758053277E+04  0.10000000000E+02 0.  1.
</event>
<event>
 5    1  0.1294251E-008  0.3846301E+03  0.7957747E-01  0.3431243E+00
         13   -1    0    0    0    0  0.00000000000E+00  0.00000000000E+00  0.14999999963E+04  0.15000000000E+04  0.10566000000E+00 0. -1.
        994   -1    0    0    0    0 -0.00000000000E+00 -0.00000000000E+00  0.11368683772E-12  0.17120000000E+03  0.17120000000E+03 0.  0.
         13    1    1    2    0    0 -0.12373693268E+02 -0.16339193031E+02  0.12095536889E+03  0.12267962317E+03  0.10566000000E+00 0. -1.
        994    1    1    2    0    0  0.83507779721E+01  0.30154408442E+01  0.20735036761E+01  0.17144260787E+03  0.17120000000E+03 0.  0.
        998    1    1    2    0    0  0.40229152956E+01  0.13323752187E+02  0.13769711237E+04  0.13770777690E+04  0.10000000000E+02 0. -1.
</event>
<event>
 5    1  0.1294251E-008  0.3831632E+03  0.7957747E-01  0.3437500E+00
         13   -1    0    0    0    0  0.00000000000E+00  0.00000000000E+00  0.14999999963E+04  0.15000000000E+04  0.10566000000E+00 0.  1.
        994   -1    0    0    0    0 -0.00000000000E+00 -0.00000000000E+00  0.11368683772E-12  0.17120000000E+03  0.17120000000E+03 0.  0.
         13    1    1    2    0    0 -0.16148614075E+02  0.13661967671E+02  0.78442483867E+02  0.81244455420E+02  0.10566000000E+00 0.  1.
        994    1    1    2    0    0  0.22947928603E+02 -0.22996055214E+02  0.60443669296E+01  0.17435997349E+03  0.17120000000E+03 0.  0.
        998    1    1    2    0    0 -0.67993145284E+01  0.93340875425E+01  0.14155131455E+04  0.14155955711E+04  0.10000000000E+02 0.  1.
</event>
<event>
 5    1  0.1294251E-008  0.3816383E+03  0.7957747E-01  0.3444056E+00
         13   -1    0    0    0    0  0.00000000000E+00  0.00000000000E+00  0.14999999963E+04  0.15000000000E+04  0.10566000000E+00 0.  1.
        994   -1    0    0    0    0 -0.00000000000E+00 -0.00000000000E+00  0.11368683772E-12  0.17120000000E+03  0.17120000000E+03 0.  0.
         13    1    1    2    0    0  0.20550645491E+02 -0.13820756858E+02  0.87898926613E+02  0.91321272516E+02  0.10566000000E+00 0.  1.
        994    1    1    2    0    0 -0.87385287948E+01  0.28992510671E+02  0.63631252630E+01  0.17397372481E+03  0.17120000000E+03 0.  0.
        998    1    1    2    0    0 -0.11812116697E+02 -0.15171753813E+02  0.14057379444E+04  0.14059050027E+04  0.10000000000E+02 0.  1.
</event>
<event>
 5    1  0.1294251E-008  0.3701470E+03  0.7957747E-01  0.3495216E+00
         13   -1    0    0    0    0  0.00000000000E+00  0.00000000000E+00  0.14999999963E+04  0.15000000000E+04  0.10566000000E+00 0. -1.
        994   -1    0    0    0    0 -0.00000000000E+00 -0.00000000000E+00  0.11368683772E-12  0.17120000000E+03  0.17120000000E+03 0.  0.
         13    1    1    2    0    0  0.88021601487E+02 -0.71758143527E+01  0.50383945674E+03  0.51152077570E+03  0.10566000000E+00 0. -1.
        994    1    1    2    0    0 -0.32411920513E+02  0.15487566373E+01  0.12839782374E+02  0.17472043741E+03  0.17120000000E+03 0.  0.
        998    1    1    2    0    0 -0.55609680973E+02  0.56270577155E+01  0.98332075716E+03  0.98495878689E+03  0.10000000000E+02 0. -1.
</event>
<event>
 5    1  0.1294251E-008  0.3801864E+03  0.7957747E-01  0.3450347E+00
         13   -1    0    0    0    0  0.00000000000E+00  0.00000000000E+00  0.14999999963E+04  0.15000000000E+04  0.10566000000E+00 0.  1.
        994   -1    0    0    0    0 -0.00000000000E+00 -0.00000000000E+00  0.11368683772E-12  0.17120000000E+03  0.17120000000E+03 0.  0.
         13    1    1    2    0    0 -0.12441338152E+01 -0.16779068088E+02  0.33230557835E+02  0.37247364107E+02  0.10566000000E+00 0.  1.
        994    1    1    2    0    0  0.99042310545E+00  0.13543453417E+02  0.46554131058E+01  0.17180081181E+03  0.17120000000E+03 0.  0.
        998    1    1    2    0    0  0.25371070976E+00  0.32356146709E+01  0.14621140253E+04  0.14621518241E+04  0.10000000000E+02 0.  1.
</event>
<event>
 5    1  0.1294251E-008  0.3824298E+03  0.7957747E-01  0.3440647E+00
         13   -1    0    0    0    0  0.00000000000E+00  0.00000000000E+00  0.14999999963E+04  0.15000000000E+04  0.10566000000E+00 0.  1.
        994   -1    0    0    0    0 -0.00000000000E+00 -0.00000000000E+00  0.11368683772E-12  0.17120000000E+03  0.17120000000E+03 0.  0.
         13    1    1    2    0    0  0.63390155306E-01 -0.25764131556E+02  0.10687767035E+03  0.10993926540E+03  0.10566000000E+00 0.  1.
        994    1    1    2    0    0  0.17953353922E+02  0.25313365380E+02  0.61120688048E+01  0.17409734854E+03  0.17120000000E+03 0.  0.
        998    1    1    2    0    0 -0.18016744077E+02  0.45076617616E+00  0.13870102571E+04  0.13871633861E+04  0.10000000000E+02 0.  1.
</event>
<event>
 5    1  0.1294251E-008  0.3820869E+03  0.7957747E-01  0.3442122E+00
         13   -1    0    0    0    0  0.00000000000E+00  0.00000000000E+00  0.14999999963E+04  0.15000000000E+04  0.10566000000E+00 0.  1.
        994   -1    0    0    0    0 -0.00000000000E+00 -0.00000000000E+00  0.11368683772E-12  0.17120000000E+03  0.17120000000E+03 0.  0.
         13    1    1    2    0    0 -0.13614056297E+02 -0.12755722703E+02  0.62629212076E+02  0.65348912461E+02  0.10566000000E+00 0.  1.
        994    1    1    2    0    0 -0.15545431062E+02 -0.33612905994E+01  0.39236637448E+01  0.17198195789E+03  0.17120000000E+03 0.  0.
        998    1    1    2    0    0  0.29159487359E+02  0.16117013302E+02  0.14334471205E+04  0.14338691297E+04  0.10000000000E+02 0.  1.
</event>
<event>
 5    1  0.1294251E-008  0.3773793E+03  0.7957747E-01  0.3462650E+00
         13   -1    0    0    0    0  0.00000000000E+00  0.00000000000E+00  0.14999999963E+04  0.15000000000E+04  0.10566000000E+00 0. -1.
        994   -1    0    0    0    0 -0.00000000000E+00 -0.00000000000E+00  0.11368683772E-12  0.17120000000E+03  0.17120000000E+03 0.  0.
         13    1    1    2    0    0  0.18591251421E+03 -0.14831088722E+03  0.10436912076E+04  0.10704442677E+04  0.10566000000E+00 0. -1.
        994    1    1    2    0    0 -0.17463816722E+03  0.15539896022E+03  0.21986731911E+03  0.36372847606E+03  0.17120000000E+03 0.  0.
        998    1    1    2    0    0 -0.11274346998E+02 -0.70880730057E+01  0.23644146957E+03  0.23702725626E+03  0.10000000000E+02 0. -1.
</event>
<event>
 5    1  0.1294251E-008  0.3830366E+03  0.7957747E-01  0.3438042E+00
         13   -1    0    0    0    0  0.00000000000E+00  0.00000000000E+00  0.14999999963E+04  0.15000000000E+04  0.10566000000E+00 0.  1.
        994   -1    0    0    0    0 -0.00000000000E+00 -0.00000000000E+00  0.11368683772E-12  0.17120000000E+03  0.17120000000E+03 0.  0.
         13    1    1    2    0    0  0.18295413516E+02  0.30131143673E+01  0.64592991380E+02  0.67201686834E+02  0.10566000000E+00 0.  1.
        994    1    1    2    0    0 -0.13443419058E+02 -0.26315839717E+01  0.32294026105E+01  0.17177752994E+03  0.17120000000E+03 0.  0.
        998    1    1    2    0    0 -0.48519944577E+01 -0.38153039554E+00  0.14321776023E+04  0.14322207832E+04  0.10000000000E+02 0.  1.
</event>
<event>
 5    1  0.1294251E-008  0.3701369E+03  0.7957747E-01  0.3495262E+00
         13   -1    0    0    0    0  0.00000000000E+00  0.00000000000E+00  0.14999999963E+04  0.15000000000E+04  0.10566000000E+00 0. -1.
        994   -1    0    0    0    0 -0.00000000000E+00 -0.00000000000E+00  0.11368683772E-12  0.17120000000E+03  0.17120000000E+03 0.  0.
         13    1    1    2    0    0  0.21883470158E+02 -0.52836691886E+02  0.15715804669E+03  0.16724014195E+03  0.10566000000E+00 0. -1.
        994    1    1    2    0    0 -0.49956023109E+02 -0.21271368395E+01  0.19807480863E+02  0.17944889315E+03  0.17120000000E+03 0.  0.
        998    1    1    2    0    0  0.28072552951E+02  0.54963828725E+02  0.13230344687E+04  0.13245109649E+04  0.10000000000E+02 0. -1.
</event>
<event>
 5    1  0.1294251E-008  0.3808234E+03  0.7957747E-01  0.3447581E+00
         13   -1    0    0    0    0  0.00000000000E+00  0.00000000000E+00  0.14999999963E+04  0.15000000000E+04  0.10566000000E+00 0. -1.
        994   -1    0    0    0    0 -0.00000000000E+00 -0.00000000000E+00  0.11368683772E-12  0.17120000000E+03  0.17120000000E+03 0.  0.
         13    1    1    2    0    0 -0.11196403379E+02 -0.31563431533E+02  0.18696602470E+03  0.18994187325E+03  0.10566000000E+00 0. -1.
        994    1    1    2    0    0  0.34069121293E+01 -0.10758200270E+02  0.41427505772E+01  0.17162152635E+03  0.17120000000E+03 0.  0.
        998    1    1    2    0    0  0.77894912493E+01  0.42321631802E+02  0.13088912210E+04  0.13096366004E+04  0.10000000000E+02 0. -1.
</event>
<event>
 5    1  0.1294251E-008  0.3853022E+03  0.7957747E-01  0.3428392E+00
         13   -1    0    0    0    0  0.00000000000E+00  0.00000000000E+00  0.14999999963E+04  0.15000000000E+04  0.10566000000E+00 0. -1.
        994   -1    0    0    0    0 -0.00000000000E+00 -0.00000000000E+00  0.11368683772E-12  0.17120000000E+03  0.17120000000E+03 0.  0.
         13    1    1    2    0    0  0.34303988639E+01 -0.15765261496E+02  0.95572710234E+02  0.96925049456E+02  0.10566000000E+00 0. -1.
        994    1    1    2    0    0  0.39646053514E+01  0.15147689661E+01  0.15393562642E+01  0.17125951722E+03  0.17120000000E+03 0.  0.
        998    1    1    2    0    0 -0.73950042153E+01  0.14250492529E+02  0.14028879298E+04  0.14030154333E+04  0.10000000000E+02 0. -1.
</event>
<event>
 5    1  0.1294251E-008  0.3793187E+03  0.7957747E-01  0.3454131E+00
         13   -1    0    0    0    0  0.00000000000E+00  0.00000000000E+00  0.14999999963E+04  0.15000000000E+04  0.10566000000E+00 0. -1.
        994   -1    0    0    0    0 -0.00000000000E+00 -0.00000000000E+00  0.11368683772E-12  0.17120000000E+03  0.17120000000E+03 0.  0.
         13    1    1    2    0    0  0.42986915701E+02 -0.34585324607E+02  0.31895927803E+03  0.32369592492E+03  0.10566000000E+00 0. -1.
        994    1    1    2    0    0 -0.28956939380E+02  0.24202536902E+02  0.92642209276E+01  0.17555492850E+03  0.17120000000E+03 0.  0.
        998    1    1    2    0    0 -0.14029976321E+02  0.10382787705E+02  0.11717764973E+04  0.11719491466E+04  0.10000000000E+02 0. -1.
</event>
<event>
 5    1  0.1294251E-008  0.3859669E+03  0.7957747E-01  0.3425582E+00
         13   -1    0    0    0    0  0.00000000000E+00  0.00000000000E+00  0.14999999963E+04  0.15000000000E+04  0.10566000000E+00 0.  1.
        994   -1    0    0    0    0 -0.00000000000E+00 -0.00000000000E+00  0.11368683772E-12  0.17120000000E+03  0.17120000000E+03 0.  0.
         13    1    1    2    0    0  0.88999179722E+01 -0.94659035078E+01  0.76950489692E+02  0.78039739216E+02  0.10566000000E+00 0.  1.
        994    1    1    2    0    0  0.13511182044E+00  0.57295407146E+01  0.12585528169E+01  0.17130052495E+03  0.17120000000E+03 0.  0.
        998    1    1    2    0    0 -0.90350297927E+01  0.37363627932E+01  0.14217909538E+04  0.14218597358E+04  0.10000000000E+02 0.  1.
</event>
<event>
 5    1  0.1294251E-008  0.3828831E+03  0.7957747E-01  0.3438700E+00
         13   -1    0    0    0    0  0.00000000000E+00  0.00000000000E+00  0.14999999963E+04  0.15000000000E+04  0.10566000000E+00 0. -1.
        994   -1    0    0    0    0 -0.00000000000E+00 -0.00000000000E+00  0.11368683772E-12  0.17120000000E+03  0.17120000000E+03 0.  0.
         13    1    1    2    0    0 -0.15728593768E+02 -0.15506479166E+02  0.94899265384E+02  0.97435729034E+02  0.10566000000E+00 0. -1.
        994    1    1    2    0    0 -0.51008079761E+01  0.12923333497E+02  0.33242490583E+01  0.17179499825E+03  0.17120000000E+03 0.  0.
        998    1    1    2    0    0  0.20829401744E+02  0.25831456687E+01  0.14017764818E+04  0.14019692727E+04  0.10000000000E+02 0. -1.
</event>
<event>
 5    1  0.1294251E-008  0.3860352E+03  0.7957747E-01  0.3425293E+00
         13   -1    0    0    0    0  0.00000000000E+00  0.00000000000E+00  0.14999999963E+04  0.15000000000E+04  0.10566000000E+00 0.  1.
        994   -1    0    0    0    0 -0.00000000000E+00 -0.00000000000E+00  0.11368683772E-12  0.17120000000E+03  0.17120000000E+03 0.  0.
         13    1    1    2    0    0  0.79802807073E+01  0.63161275339E+01  0.46066272190E+02  0.47177229091E+02  0.10566000000E+00 0. -1.
        994    1    1    2    0    0 -0.71094463953E+01 -0.67591725256E+01  0.14325051654E+01  0.17148680040E+03  0.17120000000E+03 0.  0.
        998    1    1    2    0    0 -0.87083431198E+00  0.44304499177E+00  0.14525012189E+04  0.14525359705E+04  0.10000000000E+02 0.  1.
</event>
<event>
 5    1  0.1294251E-008  0.3854035E+03  0.7957747E-01  0.3427963E+00
         13   -1    0    0    0    0  0.00000000000E+00  0.00000000000E+00  0.14999999963E+04  0.15000000000E+04  0.10566000000E+00 0. -1.
        994   -1    0    0    0    0 -0.00000000000E+00 -0.00000000000E+00  0.11368683772E-12  0.17120000000E+03  0.17120000000E+03 0.  0.
         13    1    1    2    0    0 -0.17428434210E+02 -0.25315411489E+01  0.99494747598E+02  0.10104145181E+03  0.10566000000E+00 0. -1.
        994    1    1    2    0    0  0.21847258179E+02  0.40827448625E+01  0.30539830508E+01  0.17266365659E+03  0.17120000000E+03 0.  0.
        998    1    1    2    0    0 -0.44188239692E+01 -0.15512037136E+01  0.13974512656E+04  0.13974948916E+04  0.10000000000E+02 0. -1.
</event>
<event>
 5    1  0.1294251E-008  0.3753960E+03  0.7957747E-01  0.3471454E+00
         13   -1    0    0    0    0  0.00000000000E+00  0.00000000000E+00  0.14999999963E+04  0.15000000000E+04  0.10566000000E+00 0. -1.
        994   -1    0    0    0    0 -0.00000000000E+00 -0.00000000000E+00  0.11368683772E-12  0.17120000000E+03  0.17120000000E+03 0.  0.
         13    1    1    2    0    0  0.15332107804E+01 -0.15089224047E+02  0.14861052734E+02  0.21234346470E+02  0.10566000000E+00 0. -1.
        994    1    1    2    0    0 -0.53037352487E+01  0.12208714631E+02  0.70772052706E+01  0.17186247163E+03  0.17120000000E+03 0.  0.
        998    1    1    2    0    0  0.37705244683E+01  0.28805094159E+01  0.14780617383E+04  0.14781031819E+04  0.10000000000E+02 0. -1.
</event>
<event>
 5    1  0.1294251E-008  0.3756115E+03  0.7957747E-01  0.3470493E+00
         13   -1    0    0    0    0  0.00000000000E+00  0.00000000000E+00  0.14999999963E+04  0.15000000000E+04  0.10566000000E+00 0. -1.
        994   -1    0    0    0    0 -0.00000000000E+00 -0.00000000000E+00  0.11368683772E-12  0.17120000000E+03  0.17120000000E+03 0.  0.
         13    1    1    2    0    0  0.12652114735E+02  0.16847458431E+03  0.32577074813E+03  0.36697459458E+03  0.10566000000E+00 0. -1.
        994    1    1    2    0    0  0.27047534205E+02 -0.26910332587E+03  0.35570168766E+03  0.47851990524E+03  0.17120000000E+03 0.  0.
        998    1    1    2    0    0 -0.39699648940E+02  0.10062874157E+03  0.81852756049E+03  0.82570550018E+03  0.10000000000E+02 0. -1.
</event>
<event>
 5    1  0.1294251E-008  0.3848464E+03  0.7957747E-01  0.3430324E+00
         13   -1    0    0    0    0  0.00000000000E+00  0.00000000000E+00  0.14999999963E+04  0.15000000000E+04  0.10566000000E+00 0.  1.
        994   -1    0    0    0    0 -0.00000000000E+00 -0.00000000000E+00  0.11368683772E-12  0.17120000000E+03  0.17120000000E+03 0.  0.
         13    1    1    2    0    0  0.13579713019E+02  0.45445638877E+01  0.61297559249E+02  0.62948102438E+02  0.10566000000E+00 0.  1.
        994    1    1    2    0    0 -0.58613832628E+01 -0.11963064750E+01  0.18241651852E+01  0.17131419831E+03  0.17120000000E+03 0.  0.
        998    1    1    2    0    0 -0.77183297565E+01 -0.33482574127E+01  0.14368782718E+04  0.14369376993E+04  0.10000000000E+02 0.  1.
</event>
<event>
 5    1  0.1294251E-008  0.3736162E+03  0.7957747E-01  0.3479435E+00
         13   -1    0    0    0    0  0.00000000000E+00  0.00000000000E+00  0.14999999963E+04  0.15000000000E+04  0.10566000000E+00 0.  1.
        994   -1    0    0    0    0 -0.00000000000E+00 -0.00000000000E+00  0.11368683772E-12  0.17120000000E+03  0.17120000000E+03 0.  0.
         13    1    1    2    0    0  0.45288280739E+02  0.50029745435E+01  0.12307145333E+03  0.13123510169E+03  0.10566000000E+00 0.  1.
        994    1    1    2    0    0 -0.53961887199E+02  0.52841319433E+01  0.17498265167E+02  0.18043125174E+03  0.17120000000E+03 0.  0.
        998    1    1    2    0    0  0.86736064600E+01 -0.10287106487E+02  0.13594302778E+04  0.13595336466E+04  0.10000000000E+02 0.  1.
</event>
<event>
 5    1  0.1294251E-008  0.3854579E+03  0.7957747E-01  0.3427733E+00
         13   -1    0    0    0    0  0.00000000000E+00  0.00000000000E+00  0.14999999963E+04  0.15000000000E+04  0.10566000000E+00 0.  1.
        994   -1    0    0    0    0 -0.00000000000E+00 -0.00000000000E+00  0.11368683772E-12  0.17120000000E+03  0.17120000000E+03 0.  0.
         13    1    1    2    0    0  0.94408434472E+01  0.51093616109E+01  0.40975002636E+02  0.42357963904E+02  0.10566000000E+00 0.  1.
        994    1    1    2    0    0 -0.55584067222E+01 -0.68669919681E+01  0.16593297759E+01  0.17143583301E+03  0.17120000000E+03 0.  0.
        998    1    1    2    0    0 -0.38824367250E+01  0.17576303572E+01  0.14573656639E+04  0.14574062031E+04  0.10000000000E+02 0.  1.
</event>
<event>
 5    1  0.1294251E-008  0.3690249E+03  0.7957747E-01  0.3500384E+00
         13   -1    0    0    0    0  0.00000000000E+00  0.00000000000E+00  0.14999999963E+04  0.15000000000E+04  0.10566000000E+00 0.  1.
        994   -1    0    0    0    0 -0.00000000000E+00 -0.00000000000E+00  0.11368683772E-12  0.17120000000E+03  0.17120000000E+03 0.  0.
         13    1    1    2    0    0  0.36008056858E+02  0.33695653397E+02  0.89710793903E+02  0.10237194402E+03  0.10566000000E+00 0.  1.
        994    1    1    2    0    0 -0.74247665441E+02 -0.62083460172E+02  0.43811848514E+02  0.20148446571E+03  0.17120000000E+03 0.  0.
        998    1    1    2    0    0  0.38239608583E+02  0.28387806775E+02  0.13664773539E+04  0.13673435903E+04  0.10000000000E+02 0.  1.
</event>
<event>
 5    1  0.1294251E-008  0.3801095E+03  0.7957747E-01  0.3450682E+00
         13   -1    0    0    0    0  0.00000000000E+00  0.00000000000E+00  0.14999999963E+04  0.15000000000E+04  0.10566000000E+00 0. -1.
        994   -1    0    0    0    0 -0.00000000000E+00 -0.00000000000E+00  0.11368683772E-12  0.17120000000E+03  0.17120000000E+03 0.  0.
         13    1    1    2    0    0 -0.39285344988E+01 -0.28190486919E+02  0.75293253370E+02  0.80493615294E+02  0.10566000000E+00 0. -1.
        994    1    1    2    0    0  0.40876094699E+01  0.76720203008E+02  0.24061918800E+02  0.18918539594E+03  0.17120000000E+03 0.  0.
        998    1    1    2    0    0 -0.15907497102E+00 -0.48529716089E+02  0.14006448241E+04  0.14015209888E+04  0.10000000000E+02 0. -1.
</event>
<event>
 5    1  0.1294251E-008  0.3843300E+03  0.7957747E-01  0.3432519E+00
         13   -1    0    0    0    0  0.00000000000E+00  0.00000000000E+00  0.14999999963E+04  0.15000000000E+04  0.10566000000E+00 0. -1.
        994   -1    0    0    0    0 -0.00000000000E+00 -0.00000000000E+00  0.11368683772E-12  0.17120000000E+03  0.17120000000E+03 0.  0.
         13    1    1    2    0    0  0.13961064009E+02 -0.15951227744E+02  0.12243494064E+03  0.12425650417E+03  0.10566000000E+00 0. -1.
        994    1    1    2    0    0 -0.28494257569E+02 -0.16508317774E+02  0.55454532546E+01  0.17442660153E+03  0.17120000000E+03 0.  0.
        998    1    1    2    0    0  0.14533193560E+02  0.32459545517E+02  0.13720196024E+04  0.13725168943E+04  0.10000000000E+02 0. -1.
</event>
<event>
 5    1  0.1294251E-008  0.3831270E+03  0.7957747E-01  0.3437655E+00
         13   -1    0    0    0    0  0.00000000000E+00  0.00000000000E+00  0.14999999963E+04  0.15000000000E+04  0.10566000000E+00 0.  1.
        994   -1    0    0    0    0 -0.00000000000E+00 -0.00000000000E+00  0.11368683772E-12  0.17120000000E+03  0.17120000000E+03 0.  0.
         13    1    1    2    0    0 -0.48365722457E+01 -0.10193519279E+02  0.24089662580E+02  0.26601189327E+02  0.10566000000E+00 0.  1.
        994    1    1    2    0    0 -0.58256728504E+00  0.67717881164E+01  0.27157919203E+01  0.17135638892E+03  0.17120000000E+03 0.  0.
        998    1    1    2    0    0  0.54191395308E+01  0.34217311625E+01  0.14731945418E+04  0.14732424217E+04  0.10000000000E+02 0.  1.
</event>
<event>
 5    1  0.1294251E-008  0.3729828E+03  0.7957747E-01  0.3482294E+00
         13   -1    0    0    0    0  0.00000000000E+00  0.00000000000E+00  0.14999999963E+04  0.15000000000E+04  0.10566000000E+00 0.  1.
        994   -1    0    0    0    0 -0.00000000000E+00 -0.00000000000E+00  0.11368683772E-12  0.17120000000E+03  0.17120000000E+03 0.  0.
         13    1    1    2    0    0  0.78138488273E+02 -0.56613347346E+02  0.40746401119E+03  0.41873335910E+03  0.10566000000E+00 0.  1.
        994    1    1    2    0    0 -0.65668848934E+02  0.87149663689E+02  0.49638439969E+02  0.20899970412E+03  0.17120000000E+03 0.  0.
        998    1    1    2    0    0 -0.12469639339E+02 -0.30536316343E+02  0.10428975451E+04  0.10434669368E+04  0.10000000000E+02 0. -1.
</event>
<event>
 5    1  0.1294251E-008  0.3779503E+03  0.7957747E-01  0.3460132E+00
         13   -1    0    0    0    0  0.00000000000E+00  0.00000000000E+00  0.14999999963E+04  0.15000000000E+04  0.10566000000E+00 0. -1.
        994   -1    0    0    0    0 -0.00000000000E+00 -0.00000000000E+00  0.11368683772E-12  0.17120000000E+03  0.17120000000E+03 0.  0.
         13    1    1    2    0    0 -0.29442841876E+01  0.12888178932E+02  0.13755116418E+02  0.19078478903E+02  0.10566000000E+00 0. -1.
        994    1    1    2    0    0 -0.30060540344E+01 -0.36588486525E+02  0.97210075387E+01  0.17536160268E+03  0.17120000000E+03 0.  0.
        998    1    1    2    0    0  0.59503382219E+01  0.23700307593E+02  0.14765238723E+04  0.14767599184E+04  0.10000000000E+02 0. -1.
</event>
<event>
 5    1  0.1294251E-008  0.3760740E+03  0.7957747E-01  0.3468433E+00
         13   -1    0    0    0    0  0.00000000000E+00  0.00000000000E+00  0.14999999963E+04  0.15000000000E+04  0.10566000000E+00 0.  1.
        994   -1    0    0    0    0 -0.00000000000E+00 -0.00000000000E+00  0.11368683772E-12  0.17120000000E+03  0.17120000000E+03 0.  0.
         13    1    1    2    0    0  0.19812403575E+01  0.49623372379E+02  0.90797216966E+02  0.10349178795E+03  0.10566000000E+00 0.  1.
        994    1    1    2    0    0 -0.14880315743E+02  0.24512164443E+00  0.14978809482E+02  0.17249721335E+03  0.17120000000E+03 0.  0.
        998    1    1    2    0    0  0.12899075386E+02 -0.49868494023E+02  0.13942239698E+04  0.13952109987E+04  0.10000000000E+02 0.  1.
</event>
<event>
 5    1  0.1294251E-008  0.3698685E+03  0.7957747E-01  0.3496496E+00
         13   -1    0    0    0    0  0.00000000000E+00  0.00000000000E+00  0.14999999963E+04  0.15000000000E+04  0.10566000000E+00 0.  1.
        994   -1    0    0    0    0 -0.00000000000E+00 -0.00000000000E+00  0.11368683772E-12  0.17120000000E+03  0.17120000000E+03 0.  0.
         13    1    1    2    0    0  0.27073772227E+02  0.24254689235E+02  0.65268121471E+02  0.74707549397E+02  0.10566000000E+00 0.  1.
        994    1    1    2    0    0 -0.23751852891E+02 -0.23423679200E+02  0.13197048924E+02  0.17491832769E+03  0.17120000000E+03 0.  0.
        998    1    1    2    0    0 -0.33219193357E+01 -0.83101003476E+00  0.14215348259E+04  0.14215741229E+04  0.10000000000E+02 0.  1.
</event>
<event>
 5    1  0.1294251E-008  0.3785385E+03  0.7957747E-01  0.3457547E+00
         13   -1    0    0    0    0  0.00000000000E+00  0.00000000000E+00  0.14999999963E+04  0.15000000000E+04  0.10566000000E+00 0. -1.
        994   -1    0    0    0    0 -0.00000000000E+00 -0.00000000000E+00  0.11368683772E-12  0.17120000000E+03  0.17120000000E+03 0.  0.
         13    1    1    2    0    0 -0.11416581638E+02  0.17688646033E+01  0.11641531991E+02  0.16401330721E+02  0.10566000000E+00 0. -1.
        994    1    1    2    0    0  0.44780463666E+01 -0.40777582918E+00  0.49406442120E+01  0.17133029255E+03  0.17120000000E+03 0.  0.
        998    1    1    2    0    0  0.69385352716E+01 -0.13610887741E+01  0.14834178201E+04  0.14834683767E+04  0.10000000000E+02 0. -1.
</event>
<event>
 5    1  0.1294251E-008  0.3858266E+03  0.7957747E-01  0.3426174E+00
         13   -1    0    0    0    0  0.00000000000E+00  0.00000000000E+00  0.14999999963E+04  0.15000000000E+04  0.10566000000E+00 0. -1.
        994   -1    0    0    0    0 -0.00000000000E+00 -0.00000000000E+00  0.11368683772E-12  0.17120000000E+03  0.17120000000E+03 0.  0.
         13    1    1    2    0    0 -0.36481060996E+01  0.11447896042E+02  0.55153884671E+02  0.56447543438E+02  0.10566000000E+00 0. -1.
        994    1    1    2    0    0  0.37973318676E+01 -0.19780540998E+02  0.25520582054E+01  0.17239965932E+03  0.17120000000E+03 0.  0.
        998    1    1    2    0    0 -0.14922576795E+00  0.83326449561E+01  0.14422940534E+04  0.14423527972E+04  0.10000000000E+02 0. -1.
</event>
<event>
 5    1  0.1294251E-008  0.3780811E+03  0.7957747E-01  0.3459557E+00
         13   -1    0    0    0    0  0.00000000000E+00  0.00000000000E+00  0.14999999963E+04  0.15000000000E+04  0.10566000000E+00 0. -1.
        994   -1    0    0    0    0 -0.00000000000E+00 -0.00000000000E+00  0.11368683772E-12  0.17120000000E+03  0.17120000000E+03 0.  0.
         13    1    1    2    0    0 -0.90644036405E+01 -0.81889762215E+01  0.12273120067E+02  0.17316563895E+02  0.10566000000E+00 0. -1.
        994    1    1    2    0    0  0.79935451305E+01  0.88172505563E+01  0.55816114455E+01  0.17170391684E+03  0.17120000000E+03 0.  0.
        998    1    1    2    0    0  0.10708585100E+01 -0.62827433479E+00  0.14821452648E+04  0.14821795193E+04  0.10000000000E+02 0. -1.
</event>
<event>
 5    1  0.1294251E-008  0.3833454E+03  0.7957747E-01  0.3436720E+00
         13   -1    0    0    0    0  0.00000000000E+00  0.00000000000E+00  0.14999999963E+04  0.15000000000E+04  0.10566000000E+00 0.  1.
        994   -1    0    0    0    0 -0.00000000000E+00 -0.00000000000E+00  0.11368683772E-12  0.17120000000E+03  0.17120000000E+03 0.  0.
         13    1    1    2    0    0 -0.81881191871E+01 -0.68540825318E+01  0.22303605830E+02  0.24728237709E+02  0.10566000000E+00 0.  1.
        994    1    1    2    0    0  0.99609692134E+01  0.12150973417E+01  0.27868560030E+01  0.17151648299E+03  0.17120000000E+03 0.  0.
        998    1    1    2    0    0 -0.17728500263E+01  0.56389851901E+01  0.14749095344E+04  0.14749552793E+04  0.10000000000E+02 0.  1.
</event>
<event>
 5    1  0.1294251E-008  0.3735544E+03  0.7957747E-01  0.3479713E+00
         13   -1    0    0    0    0  0.00000000000E+00  0.00000000000E+00  0.14999999963E+04  0.15000000000E+04  0.10566000000E+00 0.  1.
        994   -1    0    0    0    0 -0.00000000000E+00 -0.00000000000E+00  0.11368683772E-12  0.17120000000E+03  0.17120000000E+03 0.  0.
         13    1    1    2    0    0  0.21953243373E+01 -0.17963198104E+02  0.17884148496E+02  0.25443071090E+02  0.10566000000E+00 0.  1.
        994    1    1    2    0    0 -0.13645324376E+01  0.34942662355E+02  0.11611473451E+02  0.17512029556E+03  0.17120000000E+03 0.  0.
        998    1    1    2    0    0 -0.83079189964E+00 -0.16979464251E+02  0.14705043743E+04  0.14706366333E+04  0.10000000000E+02 0.  1.
</event>
<event>
 5    1  0.1294251E-008  0.3815918E+03  0.7957747E-01  0.3444257E+00
         13   -1    0    0    0    0  0.00000000000E+00  0.00000000000E+00  0.14999999963E+04  0.15000000000E+04  0.10566000000E+00 0. -1.
        994   -1    0    0    0    0 -0.00000000000E+00 -0.00000000000E+00  0.11368683772E-12  0.17120000000E+03  0.17120000000E+03 0.  0.
         13    1    1    2    0    0  0.72684008396E+01 -0.33393550930E+02  0.20240341992E+03  0.20526839614E+03  0.10566000000E+00 0. -1.
        994    1    1    2    0    0 -0.57617546448E+01  0.95392803877E+00  0.34452058319E+01  0.17133422670E+03  0.17120000000E+03 0.  0.
        998    1    1    2    0    0 -0.15066461948E+01  0.32439622892E+02  0.12941513705E+04  0.12945973772E+04  0.10000000000E+02 0. -1.
</event>
<event>
 5    1  0.1294251E-008  0.3841342E+03  0.7957747E-01  0.3433352E+00
         13   -1    0    0    0    0  0.00000000000E+00  0.00000000000E+00  0.14999999963E+04  0.15000000000E+04  0.10566000000E+00 0. -1.
        994   -1    0    0    0    0 -0.00000000000E+00 -0.00000000000E+00  0.11368683772E-12  0.17120000000E+03  0.17120000000E+03 0.  0.
         13    1    1    2    0    0 -0.21781811768E+02 -0.14684456352E+02  0.15586468056E+03  0.15806293175E+03  0.10566000000E+00 0. -1.
        994    1    1    2    0    0  0.23846726089E+02  0.71948363863E+01  0.41093996525E+01  0.17305131950E+03  0.17120000000E+03 0.  0.
        998    1    1    2    0    0 -0.20649143204E+01  0.74896199658E+01  0.13400259161E+04  0.13400857487E+04  0.10000000000E+02 0. -1.
</event>
<event>
 5    1  0.1294251E-008  0.3851764E+03  0.7957747E-01  0.3428924E+00
         13   -1    0    0    0    0  0.00000000000E+00  0.00000000000E+00  0.14999999963E+04  0.15000000000E+04  0.10566000000E+00 0. -1.
        994   -1    0    0    0    0 -0.00000000000E+00 -0.00000000000E+00  0.11368683772E-12  0.17120000000E+03  0.17120000000E+03 0.  0.
         13    1    1    2    0    0  0.85626109720E+01 -0.11659980848E+02  0.67631430479E+02  0.69161369367E+02  0.10566000000E+00 0. -1.
        994    1    1    2    0    0 -0.84638678528E+01  0.65285288415E+01  0.19181958809E+01  0.17154409994E+03  0.17120000000E+03 0.  0.
        998    1    1    2    0    0 -0.98743119228E-01  0.51314520065E+01  0.14304503699E+04  0.14304945307E+04  0.10000000000E+02 0. -1.
</event>
<event>
 5    1  0.1294251E-008  0.3763731E+03  0.7957747E-01  0.3467105E+00
         13   -1    0    0    0    0  0.00000000000E+00  0.00000000000E+00  0.14999999963E+04  0.15000000000E+04  0.10566000000E+00 0.  1.
        994   -1    0    0    0    0 -0.00000000000E+00 -0.00000000000E+00  0.11368683772E-12  0.17120000000E+03  0.17120000000E+03 0.  0.
         13    1    1    2    0    0 -0.70406845798E+02 -0.40669921785E+01  0.35357890623E+03  0.36054364293E+03  0.10566000000E+00 0.  1.
        994    1    1    2    0    0  0.59929764787E+02 -0.12783687937E+02  0.18787969316E+02  0.18280434124E+03  0.17120000000E+03 0.  0.
        998    1    1    2    0    0  0.10477081011E+02  0.16850680115E+02  0.11276331207E+04  0.11278520158E+04  0.10000000000E+02 0.  1.
</event>
<event>
 5    1  0.1294251E-008  0.3805249E+03  0.7957747E-01  0.3448876E+00
         13   -1    0    0    0    0  0.00000000000E+00  0.00000000000E+00  0.14999999963E+04  0.15000000000E+04  0.10566000000E+00 0.  1.
        994   -1    0    0    0    0 -0.00000000000E+00 -0.00000000000E+00  0.11368683772E-12  0.17120000000E+03  0.17120000000E+03 0.  0.
         13    1    1    2    0    0 -0.81503430369E+01  0.10265133378E+02  0.20033424402E+02  0.23940557892E+02  0.10566000000E+00 0.  1.
        994    1    1    2    0    0  0.10755135027E+02 -0.16367394147E+02  0.51494639173E+01  0.17239350771E+03  0.17120000000E+03 0.  0.
        998    1    1    2    0    0 -0.26047919900E+01  0.61022607688E+01  0.14748171080E+04  0.14748659344E+04  0.10000000000E+02 0.  1.
</event>
<event>
 5    1  0.1294251E-008  0.4091086E+03  0.7957747E-01  0.3333447E+00
         13   -1    0    0    0    0  0.00000000000E+00  0.00000000000E+00  0.14999999963E+04  0.15000000000E+04  0.10566000000E+00 0.  1.
        994   -1    0    0    0    0 -0.00000000000E+00 -0.00000000000E+00  0.11368683772E-12  0.17120000000E+03  0.17120000000E+03 0.  0.
         13    1    1    2    0    0 -0.46910035097E+02  0.11316325129E+03  0.26890408705E+03  0.29549262602E+03  0.10566000000E+00 0.  1.
        994    1    1    2    0    0  0.38813207149E+02 -0.13364665748E+02  0.40220740309E+02  0.18058855803E+03  0.17120000000E+03 0.  0.
        998    1    1    2    0    0  0.80968279485E+01 -0.99798585539E+02  0.11908751689E+04  0.11951188160E+04  0.10000000000E+02 0.  1.
</event>
<event>
 5    1  0.1294251E-008  0.3767273E+03  0.7957747E-01  0.3465533E+00
         13   -1    0    0    0    0  0.00000000000E+00  0.00000000000E+00  0.14999999963E+04  0.15000000000E+04  0.10566000000E+00 0.  1.
        994   -1    0    0    0    0 -0.00000000000E+00 -0.00000000000E+00  0.11368683772E-12  0.17120000000E+03  0.17120000000E+03 0.  0.
         13    1    1    2    0    0 -0.38191325153E+02  0.86229080771E+01  0.15323998061E+03  0.15816268423E+03  0.10566000000E+00 0.  1.
        994    1    1    2    0    0 -0.24011038360E+01  0.14118925217E+02  0.64878383469E+01  0.17192045078E+03  0.17120000000E+03 0.  0.
        998    1    1    2    0    0  0.40592428989E+02 -0.22741833295E+02  0.13402721773E+04  0.13411168650E+04  0.10000000000E+02 0.  1.
</event>
<event>
 5    1  0.1294251E-008  0.3820512E+03  0.7957747E-01  0.3442275E+00
         13   -1    0    0    0    0  0.00000000000E+00  0.00000000000E+00  0.14999999963E+04  0.15000000000E+04  0.10566000000E+00 0.  1.
        994   -1    0    0    0    0 -0.00000000000E+00 -0.00000000000E+00  0.11368683772E-12  0.17120000000E+03  0.17120000000E+03 0.  0.
         13    1    1    2    0    0  0.24085832022E+02 -0.11043379210E+02  0.13245616494E+03  0.13508045870E+03  0.10566000000E+00 0.  1.
        994    1    1    2    0    0  0.14513244742E+01 -0.15204706944E+02  0.38762713092E+01  0.17192368928E+03  0.17120000000E+03 0.  0.
        998    1    1    2    0    0 -0.25537156496E+02  0.26248086154E+02  0.13636675600E+04  0.13641958520E+04  0.10000000000E+02 0.  1.
</event>
<event>
 5    1  0.1294251E-008  0.3740879E+03  0.7957747E-01  0.3477312E+00
         13   -1    0    0    0    0  0.00000000000E+00  0.00000000000E+00  0.14999999963E+04  0.15000000000E+04  0.10566000000E+00 0.  1.
        994   -1    0    0    0    0 -0.00000000000E+00 -0.00000000000E+00  0.11368683772E-12  0.17120000000E+03  0.17120000000E+03 0.  0.
         13    1    1    2    0    0 -0.98032371008E+00  0.16493136237E+02  0.15596698005E+02  0.22721195615E+02  0.10566000000E+00 0.  1.
        994    1    1    2    0    0  0.32089400231E+01 -0.21895591117E+02  0.88194120678E+01  0.17284946120E+03  0.17120000000E+03 0.  0.
        998    1    1    2    0    0 -0.22286163130E+01  0.54024548799E+01  0.14755838862E+04  0.14756293432E+04  0.10000000000E+02 0.  1.
</event>
<event>
 5    1  0.1294251E-008  0.3809740E+03  0.7957747E-01  0.3446929E+00
         13   -1    0    0    0    0  0.00000000000E+00  0.00000000000E+00  0.14999999963E+04  0.15000000000E+04  0.10566000000E+00 0.  1.
        994   -1    0    0    0    0 -0.00000000000E+00 -0.00000000000E+00  0.11368683772E-12  0.17120000000E+03  0.17120000000E+03 0.  0.
         13    1    1    2    0    0 -0.32033246015E+02 -0.73488034501E+01  0.14197821160E+03  0.14573248607E+03  0.10566000000E+00 0.  1.
        994    1    1    2    0    0  0.23808773221E+02  0.74417381877E+01  0.57184750413E+01  0.17310221866E+03  0.17120000000E+03 0.  0.
        998    1    1    2    0    0  0.82244727937E+01 -0.92934737614E-01  0.13523033096E+04  0.13523652953E+04  0.10000000000E+02 0.  1.
</event>
<event>
 5    1  0.1294251E-008  0.3728107E+03  0.7957747E-01  0.3483072E+00
         13   -1    0    0    0    0  0.00000000000E+00  0.00000000000E+00  0.14999999963E+04  0.15000000000E+04  0.10566000000E+00 0. -1.
        994   -1    0    0    0    0 -0.00000000000E+00 -0.00000000000E+00  0.11368683772E-12  0.17120000000E+03  0.17120000000E+03 0.  0.
         13    1    1    2    0    0  0.11386683458E+03 -0.12788049451E+03  0.97087801105E+03  0.98586165378E+03  0.10566000000E+00 0. -1.
        994    1    1    2    0    0 -0.11691283425E+03  0.96958236066E+02  0.91463055558E+02  0.24646387339E+03  0.17120000000E+03 0.  0.
        998    1    1    2    0    0  0.30459996769E+01  0.30922258440E+02  0.43765892967E+03  0.43887447283E+03  0.10000000000E+02 0. -1.
</event>
<event>
 5    1  0.1294251E-008  0.3842530E+03  0.7957747E-01  0.3432846E+00
         13   -1    0    0    0    0  0.00000000000E+00  0.00000000000E+00  0.14999999963E+04  0.15000000000E+04  0.10566000000E+00 0.  1.
        994   -1    0    0    0    0 -0.00000000000E+00 -0.00000000000E+00  0.11368683772E-12  0.17120000000E+03  0.17120000000E+03 0.  0.
         13    1    1    2    0    0 -0.20069398322E+02  0.17594030537E+01  0.96180190628E+02  0.98267575941E+02  0.10566000000E+00 0.  1.
        994    1    1    2    0    0  0.20647380279E+02  0.68865156292E+01  0.35647477614E+01  0.17261484825E+03  0.17120000000E+03 0.  0.
        998    1    1    2    0    0 -0.57798195675E+00 -0.86459186828E+01  0.14002550579E+04  0.14003175758E+04  0.10000000000E+02 0.  1.
</event>
<event>
 5    1  0.1294251E-008  0.3689267E+03  0.7957747E-01  0.3500838E+00
         13   -1    0    0    0    0  0.00000000000E+00  0.00000000000E+00  0.14999999963E+04  0.15000000000E+04  0.10566000000E+00 0.  1.
        994   -1    0    0    0    0 -0.00000000000E+00 -0.00000000000E+00  0.11368683772E-12  0.17120000000E+03  0.17120000000E+03 0.  0.
         13    1    1    2    0    0  0.12166662961E+03 -0.90129258315E+02  0.82734840352E+03  0.84108943872E+03  0.10566000000E+00 0.  1.
        994    1    1    2    0    0 -0.12628396396E+03  0.38842707404E+02  0.73109365695E+02  0.22827793328E+03  0.17120000000E+03 0.  0.
        998    1    1    2    0    0  0.46173343501E+01  0.51286550911E+02  0.59954222707E+03  0.60183262799E+03  0.10000000000E+02 0.  1.
</event>
<event>
 5    1  0.1294251E-008  0.3830032E+03  0.7957747E-01  0.3438185E+00
         13   -1    0    0    0    0  0.00000000000E+00  0.00000000000E+00  0.14999999963E+04  0.15000000000E+04  0.10566000000E+00 0.  1.
        994   -1    0    0    0    0 -0.00000000000E+00 -0.00000000000E+00  0.11368683772E-12  0.17120000000E+03  0.17120000000E+03 0.  0.
         13    1    1    2    0    0  0.25817456468E+02  0.16277823533E+02  0.15311084692E+03  0.15612319240E+03  0.10566000000E+00 0.  1.
        994    1    1    2    0    0 -0.30010158128E+02 -0.21339747110E+02  0.71262106756E+01  0.17526042701E+03  0.17120000000E+03 0.  0.
        998    1    1    2    0    0  0.41927016603E+01  0.50619235763E+01  0.13397629387E+04  0.13398163806E+04  0.10000000000E+02 0.  1.
</event>
<event>
 5    1  0.1294251E-008  0.3793817E+03  0.7957747E-01  0.3453855E+00
         13   -1    0    0    0    0  0.00000000000E+00  0.00000000000E+00  0.14999999963E+04  0.15000000000E+04  0.10566000000E+00 0.  1.
        994   -1    0    0    0    0 -0.00000000000E+00 -0.00000000000E+00  0.11368683772E-12  0.17120000000E+03  0.17120000000E+03 0.  0.
         13    1    1    2    0    0  0.11808721264E+03 -0.25907054949E+02  0.66536547450E+03  0.67625955897E+03  0.10566000000E+00 0.  1.
        994    1    1    2    0    0 -0.13554652418E+03  0.22928270925E+02  0.70599234701E+02  0.23063446786E+03  0.17120000000E+03 0.  0.
        998    1    1    2    0    0  0.17459311546E+02  0.29787840248E+01  0.76403528708E+03  0.76430597316E+03  0.10000000000E+02 0. -1.
</event>
<event>
 5    1  0.1294251E-008  0.3820853E+03  0.7957747E-01  0.3442129E+00
         13   -1    0    0    0    0  0.00000000000E+00  0.00000000000E+00  0.14999999963E+04  0.15000000000E+04  0.10566000000E+00 0.  1.
        994   -1    0    0    0    0 -0.00000000000E+00 -0.00000000000E+00  0.11368683772E-12  0.17120000000E+03  0.17120000000E+03 0.  0.
         13    1    1    2    0    0  0.10155240563E+02 -0.25973974724E+02  0.11716065061E+03  0.12043423720E+03  0.10566000000E+00 0.  1.
        994    1    1    2    0    0 -0.59598862142E+02  0.93816470668E+01  0.15264838098E+02  0.18216062953E+03  0.17120000000E+03 0.  0.
        998    1    1    2    0    0  0.49443621579E+02  0.16592327657E+02  0.13675745076E+04  0.13686051333E+04  0.10000000000E+02 0.  1.
</event>
<event>
 5    1  0.1294251E-008  0.3721524E+03  0.7957747E-01  0.3486057E+00
         13   -1    0    0    0    0  0.00000000000E+00  0.00000000000E+00  0.14999999963E+04  0.15000000000E+04  0.10566000000E+00 0.  1.
        994   -1    0    0    0    0 -0.00000000000E+00 -0.00000000000E+00  0.11368683772E-12  0.17120000000E+03  0.17120000000E+03 0.  0.
         13    1    1    2    0    0 -0.55240443334E+02 -0.51759478065E+02  0.21289738985E+03  0.22595543790E+03  0.10566000000E+00 0.  1.
        994    1    1    2    0    0  0.20363268356E+02  0.73127166430E+02  0.32666590644E+02  0.19010205499E+03  0.17120000000E+03 0.  0.
        998    1    1    2    0    0  0.34877174978E+02 -0.21367688365E+02  0.12544360158E+04  0.12551425071E+04  0.10000000000E+02 0.  1.
</event>
<event>
 5    1  0.1294251E-008  0.3815915E+03  0.7957747E-01  0.3444258E+00
         13   -1    0    0    0    0  0.00000000000E+00  0.00000000000E+00  0.14999999963E+04  0.15000000000E+04  0.10566000000E+00 0. -1.
        994   -1    0    0    0    0 -0.00000000000E+00 -0.00000000000E+00  0.11368683772E-12  0.17120000000E+03  0.17120000000E+03 0.  0.
         13    1    1    2    0    0 -0.16197888914E+02 -0.50431397291E+01  0.43640765154E+02  0.46822349481E+02  0.10566000000E+00 0. -1.
        994    1    1    2    0    0 -0.21946263410E+00  0.52121908725E+01  0.34224049812E+01  0.17131365373E+03  0.17120000000E+03 0.  0.
        998    1    1    2    0    0  0.16417351549E+02 -0.16905114338E+00  0.14529368261E+04  0.14530639968E+04  0.10000000000E+02 0. -1.
</event>
<event>
 5    1  0.1294251E-008  0.3822256E+03  0.7957747E-01  0.3441525E+00
         13   -1    0    0    0    0  0.00000000000E+00  0.00000000000E+00  0.14999999963E+04  0.15000000000E+04  0.10566000000E+00 0. -1.
        994   -1    0    0    0    0 -0.00000000000E+00 -0.00000000000E+00  0.11368683772E-12  0.17120000000E+03  0.17120000000E+03 0.  0.
         13    1    1    2    0    0  0.23557357230E+02  0.33318253752E+02  0.23518599989E+03  0.23869964563E+03  0.10566000000E+00 0. -1.
        994    1    1    2    0    0 -0.22240708523E+02 -0.34167604946E+02  0.85492068595E+01  0.17619478789E+03  0.17120000000E+03 0.  0.
        998    1    1    2    0    0 -0.13166487075E+01  0.84935119381E+00  0.12562647895E+04  0.12563055665E+04  0.10000000000E+02 0. -1.
</event>
<event>
 5    1  0.1294251E-008  0.3769790E+03  0.7957747E-01  0.3464419E+00
         13   -1    0    0    0    0  0.00000000000E+00  0.00000000000E+00  0.14999999963E+04  0.15000000000E+04  0.10566000000E+00 0. -1.
        994   -1    0    0    0    0 -0.00000000000E+00 -0.00000000000E+00  0.11368683772E-12  0.17120000000E+03  0.17120000000E+03 0.  0.
         13    1    1    2    0    0 -0.41707802297E+01  0.28418857110E+02  0.79652246551E+02  0.84673008638E+02  0.10566000000E+00 0. -1.
        994    1    1    2    0    0  0.57776079653E+01  0.11953897509E+02  0.62614011909E+01  0.17182817454E+03  0.17120000000E+03 0.  0.
        998    1    1    2    0    0 -0.16068277356E+01 -0.40372754619E+02  0.14140863485E+04  0.14146988168E+04  0.10000000000E+02 0. -1.
</event>
<event>
 5    1  0.1294251E-008  0.3772013E+03  0.7957747E-01  0.3463436E+00
         13   -1    0    0    0    0  0.00000000000E+00  0.00000000000E+00  0.14999999963E+04  0.15000000000E+04  0.10566000000E+00 0.  1.
        994   -1    0    0    0    0 -0.00000000000E+00 -0.00000000000E+00  0.11368683772E-12  0.17120000000E+03  0.17120000000E+03 0.  0.
         13    1    1    2    0    0 -0.87870481248E+01 -0.98357325686E+01 -0.96454670829E+00  0.13224801106E+02  0.10566000000E+00 0.  1.
        994    1    1    2    0    0  0.10461219001E+02  0.81696942449E+01  0.15430574088E+02  0.17240569487E+03  0.17120000000E+03 0.  0.
        998    1    1    2    0    0 -0.16741708757E+01  0.16660383237E+01  0.14855339689E+04  0.14855695040E+04  0.10000000000E+02 0.  1.
</event>
<event>
 5    1  0.1294251E-008  0.3803339E+03  0.7957747E-01  0.3449706E+00
         13   -1    0    0    0    0  0.00000000000E+00  0.00000000000E+00  0.14999999963E+04  0.15000000000E+04  0.10566000000E+00 0.  1.
        994   -1    0    0    0    0 -0.00000000000E+00 -0.00000000000E+00  0.11368683772E-12  0.17120000000E+03  0.17120000000E+03 0.  0.
         13    1    1    2    0    0  0.64867845879E+01 -0.35926639113E+02  0.17113931043E+03  0.17498993260E+03  0.10566000000E+00 0.  1.
        994    1    1    2    0    0 -0.20146390643E+02  0.14598908146E+02  0.60344536510E+01  0.17310361003E+03  0.17120000000E+03 0.  0.
        998    1    1    2    0    0  0.13659606055E+02  0.21327730967E+02  0.13228262322E+04  0.13231064574E+04  0.10000000000E+02 0.  1.
</event>
<event>
 5    1  0.1294251E-008  0.3725320E+03  0.7957747E-01  0.3484335E+00
         13   -1    0    0    0    0  0.00000000000E+00  0.00000000000E+00  0.14999999963E+04  0.15000000000E+04  0.10566000000E+00 0.  1.
        994   -1    0    0    0    0 -0.00000000000E+00 -0.00000000000E+00  0.11368683772E-12  0.17120000000E+03  0.17120000000E+03 0.  0.
         13    1    1    2    0    0 -0.33649685404E+02  0.92301626693E+02  0.42724251768E+03  0.43839259996E+03  0.10566000000E+00 0.  1.
        994    1    1    2    0    0  0.27062648296E+02 -0.94259080595E+02  0.41672685814E+02  0.20165121857E+03  0.17120000000E+03 0.  0.
        998    1    1    2    0    0  0.65870371080E+01  0.19574539027E+01  0.10310847928E+04  0.10311561815E+04  0.10000000000E+02 0.  1.
</event>
<event>
 5    1  0.1294251E-008  0.3854187E+03  0.7957747E-01  0.3427899E+00
         13   -1    0    0    0    0  0.00000000000E+00  0.00000000000E+00  0.14999999963E+04  0.15000000000E+04  0.10566000000E+00 0. -1.
        994   -1    0    0    0    0 -0.00000000000E+00 -0.00000000000E+00  0.11368683772E-12  0.17120000000E+03  0.17120000000E+03 0.  0.
         13    1    1    2    0    0  0.50710361650E+01 -0.10360881948E+02  0.45892422717E+02  0.47320068781E+02  0.10566000000E+00 0. -1.
        994    1    1    2    0    0 -0.39867094731E+01  0.11005207373E+02  0.18725104983E+01  0.17160989114E+03  0.17120000000E+03 0.  0.
        998    1    1    2    0    0 -0.10843266919E+01 -0.64432542553E+00  0.14522350631E+04  0.14522700401E+04  0.10000000000E+02 0. -1.
</event>
<event>
 5    1  0.1294251E-008  0.3841348E+03  0.7957747E-01  0.3433350E+00
         13   -1    0    0    0    0  0.00000000000E+00  0.00000000000E+00  0.14999999963E+04  0.15000000000E+04  0.10566000000E+00 0. -1.
        994   -1    0    0    0    0 -0.00000000000E+00 -0.00000000000E+00  0.11368683772E-12  0.17120000000E+03  0.17120000000E+03 0.  0.
         13    1    1    2    0    0 -0.13512343116E+01 -0.20102615306E+02  0.10141318387E+03  0.10339529004E+03  0.10566000000E+00 0. -1.
        994    1    1    2    0    0  0.12702193556E+02  0.74640144616E+01  0.27764793516E+01  0.17185518925E+03  0.17120000000E+03 0.  0.
        998    1    1    2    0    0 -0.11350959245E+02  0.12638600844E+02  0.13958103331E+04  0.13959495207E+04  0.10000000000E+02 0. -1.
</event>
<event>
 5    1  0.1294251E-008  0.3852472E+03  0.7957747E-01  0.3428624E+00
         13   -1    0    0    0    0  0.00000000000E+00  0.00000000000E+00  0.14999999963E+04  0.15000000000E+04  0.10566000000E+00 0. -1.
        994   -1    0    0    0    0 -0.00000000000E+00 -0.00000000000E+00  0.11368683772E-12  0.17120000000E+03  0.17120000000E+03 0.  0.
         13    1    1    2    0    0 -0.20574668113E-01  0.13103423773E+02  0.57584628079E+02  0.59056758233E+02  0.10566000000E+00 0. -1.
        994    1    1    2    0    0 -0.91459058145E+01 -0.73850666962E+01  0.19616725337E+01  0.17161432039E+03  0.17120000000E+03 0.  0.
        998    1    1    2    0    0  0.91664804826E+01 -0.57183570764E+01  0.14404536957E+04  0.14405289214E+04  0.10000000000E+02 0. -1.
</event>
<event>
 5    1  0.1294251E-008  0.3699340E+03  0.7957747E-01  0.3496194E+00
         13   -1    0    0    0    0  0.00000000000E+00  0.00000000000E+00  0.14999999963E+04  0.15000000000E+04  0.10566000000E+00 0.  1.
        994   -1    0    0    0    0 -0.00000000000E+00 -0.00000000000E+00  0.11368683772E-12  0.17120000000E+03  0.17120000000E+03 0.  0.
         13    1    1    2    0    0 -0.99721806505E+02  0.79882766091E+02  0.48465021441E+03  0.50121007223E+03  0.10566000000E+00 0.  1.
        994    1    1    2    0    0  0.10930196177E+03 -0.67889510581E+02  0.71236437654E+02  0.22569885809E+03  0.17120000000E+03 0.  0.
        998    1    1    2    0    0 -0.95801552688E+01 -0.11993255509E+02  0.94411334422E+03  0.94429106968E+03  0.10000000000E+02 0. -1.
</event>
<event>
 5    1  0.1294251E-008  0.3803750E+03  0.7957747E-01  0.3449527E+00
         13   -1    0    0    0    0  0.00000000000E+00  0.00000000000E+00  0.14999999963E+04  0.15000000000E+04  0.10566000000E+00 0.  1.
        994   -1    0    0    0    0 -0.00000000000E+00 -0.00000000000E+00  0.11368683772E-12  0.17120000000E+03  0.17120000000E+03 0.  0.
         13    1    1    2    0    0  0.12019424044E+01 -0.12055301095E+02  0.17164136119E+02  0.21009371308E+02  0.10566000000E+00 0.  1.
        994    1    1    2    0    0  0.85072114606E+01  0.44975404468E+01  0.42532117933E+01  0.17152297318E+03  0.17120000000E+03 0.  0.
        998    1    1    2    0    0 -0.97091538650E+01  0.75577606480E+01  0.14785826484E+04  0.14786676555E+04  0.10000000000E+02 0.  1.
</event>
<event>
 5    1  0.1294251E-008  0.3777185E+03  0.7957747E-01  0.3461153E+00
         13   -1    0    0    0    0  0.00000000000E+00  0.00000000000E+00  0.14999999963E+04  0.15000000000E+04  0.10566000000E+00 0. -1.
        994   -1    0    0    0    0 -0.00000000000E+00 -0.00000000000E+00  0.11368683772E-12  0.17120000000E+03  0.17120000000E+03 0.  0.
         13    1    1    2    0    0  0.47345000909E+02  0.92656734974E+02  0.59646803290E+03  0.60547580058E+03  0.10566000000E+00 0. -1.
        994    1    1    2    0    0 -0.45982399206E+02 -0.93791215693E+02  0.42970235962E+02  0.20510254595E+03  0.17120000000E+03 0.  0.
        998    1    1    2    0    0 -0.13626017030E+01  0.11344807183E+01  0.86056172741E+03  0.86062165347E+03  0.10000000000E+02 0.  0.
</event>
<event>
 5    1  0.1294251E-008  0.3850165E+03  0.7957747E-01  0.3429602E+00
         13   -1    0    0    0    0  0.00000000000E+00  0.00000000000E+00  0.14999999963E+04  0.15000000000E+04  0.10566000000E+00 0.  1.
        994   -1    0    0    0    0 -0.00000000000E+00 -0.00000000000E+00  0.11368683772E-12  0.17120000000E+03  0.17120000000E+03 0.  0.
         13    1    1    2    0    0  0.94689044075E+01  0.74341535179E+01  0.44459757613E+02  0.46060916190E+02  0.10566000000E+00 0.  1.
        994    1    1    2    0    0 -0.78257755966E+01 -0.40454410565E+01  0.18772166997E+01  0.17143678806E+03  0.17120000000E+03 0.  0.
        998    1    1    2    0    0 -0.16431288109E+01 -0.33887124614E+01  0.14536630220E+04  0.14537022958E+04  0.10000000000E+02 0.  1.
</event>
<event>
 5    1  0.1294251E-008  0.3837860E+03  0.7957747E-01  0.3434837E+00
         13   -1    0    0    0    0  0.00000000000E+00  0.00000000000E+00  0.14999999963E+04  0.15000000000E+04  0.10566000000E+00 0.  1.
        994   -1    0    0    0    0 -0.00000000000E+00 -0.00000000000E+00  0.11368683772E-12  0.17120000000E+03  0.17120000000E+03 0.  0.
         13    1    1    2    0    0  0.12164333696E+02 -0.32800587346E+01  0.36911858303E+02  0.39002900494E+02  0.10566000000E+00 0.  1.
        994    1    1    2    0    0  0.19470712908E+01 -0.10331500495E+02  0.25990653386E+01  0.17154219927E+03  0.17120000000E+03 0.  0.
        998    1    1    2    0    0 -0.14111404987E+02  0.13611559230E+02  0.14604890726E+04  0.14606549002E+04  0.10000000000E+02 0.  1.
</event>
