<event>
 5    1  0.8566659E-012  0.2511289E+03  0.7957747E-01  0.4321441E+00
         13   -1    0    0    0    0  0.00000000000E+00  0.00000000000E+00  0.49999998884E+03  0.50000000000E+03  0.10566000000E+00 0.  1.
        994   -1    0    0    0    0 -0.00000000000E+00 -0.00000000000E+00  0.00000000000E+00  0.13100000000E+03  0.13100000000E+03 0.  0.
         13    1    1    2    0    0  0.43213672982E+02 -0.11298320448E+02  0.50209296028E+02  0.67201623115E+02  0.10566000000E+00 0. -1.
        994    1    1    2    0    0 -0.10032241585E+02 -0.23903867796E+02  0.16045139537E+03  0.20875270308E+03  0.13100000000E+03 0.  0.
        997    1    1    2    0    0 -0.33181431397E+02  0.35202188244E+02  0.28933929743E+03  0.35504567380E+03  0.20000000000E+03 0.  0.
</event>
<event>
 5    1  0.8566659E-012  0.2420161E+03  0.7957747E-01  0.4422764E+00
         13   -1    0    0    0    0  0.00000000000E+00  0.00000000000E+00  0.49999998884E+03  0.50000000000E+03  0.10566000000E+00 0.  1.
        994   -1    0    0    0    0 -0.00000000000E+00 -0.00000000000E+00  0.00000000000E+00  0.13100000000E+03  0.13100000000E+03 0.  0.
         13    1    1    2    0    0  0.81181703319E+01  0.18819718708E+02  0.59743126956E+01  0.21349240689E+02  0.10566000000E+00 0. -1.
        994    1    1    2    0    0  0.30328949519E+02 -0.25785327507E+01  0.10644249639E+03  0.17151530266E+03  0.13100000000E+03 0.  0.
        997    1    1    2    0    0 -0.38447119851E+02 -0.16241185957E+02  0.38758317975E+03  0.43813545665E+03  0.20000000000E+03 0.  0.
</event>
<event>
 5    1  0.8566659E-012  0.2380325E+03  0.7957747E-01  0.4469946E+00
         13   -1    0    0    0    0  0.00000000000E+00  0.00000000000E+00  0.49999998884E+03  0.50000000000E+03  0.10566000000E+00 0. -1.
        994   -1    0    0    0    0 -0.00000000000E+00 -0.00000000000E+00  0.00000000000E+00  0.13100000000E+03  0.13100000000E+03 0.  0.
         13    1    1    2    0    0 -0.60223501172E+01 -0.27865131125E+02  0.28524168904E+02  0.40328322668E+02  0.10566000000E+00 0.  1.
        994    1    1    2    0    0 -0.15719002108E+02  0.41823681026E+02  0.11019440332E+03  0.17691838187E+03  0.13100000000E+03 0.  0.
        997    1    1    2    0    0  0.21741352225E+02 -0.13958549901E+02  0.36128141662E+03  0.41375329546E+03  0.20000000000E+03 0.  0.
</event>
<event>
 5    1  0.8566659E-012  0.2420280E+03  0.7957747E-01  0.4422627E+00
         13   -1    0    0    0    0  0.00000000000E+00  0.00000000000E+00  0.49999998884E+03  0.50000000000E+03  0.10566000000E+00 0. -1.
        994   -1    0    0    0    0 -0.00000000000E+00 -0.00000000000E+00  0.00000000000E+00  0.13100000000E+03  0.13100000000E+03 0.  0.
         13    1    1    2    0    0 -0.30743121298E+01  0.28211051727E+02  0.23271197012E+02  0.36699790313E+02  0.10566000000E+00 0.  1.
        994    1    1    2    0    0 -0.35014263129E+02 -0.42183310949E+01  0.11206985155E+03  0.17596716900E+03  0.13100000000E+03 0.  0.
        997    1    1    2    0    0  0.38088575259E+02 -0.23992720632E+02  0.36465894027E+03  0.41833304069E+03  0.20000000000E+03 0.  0.
</event>
<event>
 5    1  0.8566659E-012  0.2354931E+03  0.7957747E-01  0.4501016E+00
         13   -1    0    0    0    0  0.00000000000E+00  0.00000000000E+00  0.49999998884E+03  0.50000000000E+03  0.10566000000E+00 0.  1.
        994   -1    0    0    0    0 -0.00000000000E+00 -0.00000000000E+00  0.00000000000E+00  0.13100000000E+03  0.13100000000E+03 0.  0.
         13    1    1    2    0    0 -0.67603552018E+01 -0.96955644360E+01  0.30349947082E+00  0.11824112996E+02  0.10566000000E+00 0. -1.
        994    1    1    2    0    0  0.42429120141E+02 -0.12048970529E+02  0.10106053659E+03  0.17122978708E+03  0.13100000000E+03 0.  0.
        997    1    1    2    0    0 -0.35668764939E+02  0.21744534965E+02  0.39863595278E+03  0.44794609993E+03  0.20000000000E+03 0.  0.
</event>
<event>
 5    1  0.8566659E-012  0.2356888E+03  0.7957747E-01  0.4498592E+00
         13   -1    0    0    0    0  0.00000000000E+00  0.00000000000E+00  0.49999998884E+03  0.50000000000E+03  0.10566000000E+00 0.  1.
        994   -1    0    0    0    0 -0.00000000000E+00 -0.00000000000E+00  0.00000000000E+00  0.13100000000E+03  0.13100000000E+03 0.  0.
         13    1    1    2    0    0  0.22029408745E+01 -0.19563329182E+02  0.14944365024E+02  0.24716836513E+02  0.10566000000E+00 0. -1.
        994    1    1    2    0    0  0.52942544528E+02  0.11508443997E+02  0.11743323278E+03  0.18408400654E+03  0.13100000000E+03 0.  0.
        997    1    1    2    0    0 -0.55145485402E+02  0.80548851848E+01  0.36762239103E+03  0.42219915694E+03  0.20000000000E+03 0.  0.
</event>
<event>
 5    1  0.8566659E-012  0.2451159E+03  0.7957747E-01  0.4387304E+00
         13   -1    0    0    0    0  0.00000000000E+00  0.00000000000E+00  0.49999998884E+03  0.50000000000E+03  0.10566000000E+00 0. -1.
        994   -1    0    0    0    0 -0.00000000000E+00 -0.00000000000E+00  0.00000000000E+00  0.13100000000E+03  0.13100000000E+03 0.  0.
         13    1    1    2    0    0 -0.99289745412E+01 -0.31095621663E+02  0.14694009498E+02  0.35797308575E+02  0.10566000000E+00 0.  1.
        994    1    1    2    0    0  0.18403107392E+02  0.38616477060E+02  0.14303494073E+03  0.19861999127E+03  0.13100000000E+03 0.  0.
        997    1    1    2    0    0 -0.84741328503E+01 -0.75208553964E+01  0.34227103860E+03  0.39658270015E+03  0.20000000000E+03 0.  0.
</event>
<event>
 5    1  0.1025162E-011  0.2439316E+03  0.7957747E-01  0.4400727E+00
         13   -1    0    0    0    0  0.00000000000E+00  0.00000000000E+00  0.49999998884E+03  0.50000000000E+03  0.10566000000E+00 0. -1.
        994   -1    0    0    0    0 -0.00000000000E+00 -0.00000000000E+00  0.00000000000E+00  0.13100000000E+03  0.13100000000E+03 0.  0.
         13    1    1    2    0    0  0.34440962288E+01  0.21211188620E+02  0.20728782395E+01  0.21588985843E+02  0.10566000000E+00 0.  1.
        994    1    1    2    0    0 -0.59093370881E+01 -0.29118609716E+02  0.11295162089E+03  0.17550465054E+03  0.13100000000E+03 0.  0.
        997    1    1    2    0    0  0.24652408593E+01  0.79074210963E+01  0.38497548970E+03  0.43390636362E+03  0.20000000000E+03 0.  0.
</event>
<event>
 5    1  0.8566659E-012  0.2293058E+03  0.7957747E-01  0.4580195E+00
         13   -1    0    0    0    0  0.00000000000E+00  0.00000000000E+00  0.49999998884E+03  0.50000000000E+03  0.10566000000E+00 0. -1.
        994   -1    0    0    0    0 -0.00000000000E+00 -0.00000000000E+00  0.00000000000E+00  0.13100000000E+03  0.13100000000E+03 0.  0.
         13    1    1    2    0    0  0.23486705661E+01  0.14304373862E+02  0.25901298557E+02  0.29681977629E+02  0.10566000000E+00 0.  1.
        994    1    1    2    0    0 -0.24397973846E+02 -0.22384416174E+02  0.75605908168E+02  0.15483402909E+03  0.13100000000E+03 0.  0.
        997    1    1    2    0    0  0.22049303280E+02  0.80800423125E+01  0.39849278211E+03  0.44648399328E+03  0.20000000000E+03 0.  0.
</event>
<event>
 5    1  0.8566659E-012  0.2492466E+03  0.7957747E-01  0.4341659E+00
         13   -1    0    0    0    0  0.00000000000E+00  0.00000000000E+00  0.49999998884E+03  0.50000000000E+03  0.10566000000E+00 0.  1.
        994   -1    0    0    0    0 -0.00000000000E+00 -0.00000000000E+00  0.00000000000E+00  0.13100000000E+03  0.13100000000E+03 0.  0.
         13    1    1    2    0    0 -0.85436762204E+01  0.15089716564E+02 -0.53849826417E+01  0.18157729798E+02  0.10566000000E+00 0. -1.
        994    1    1    2    0    0 -0.59230817847E+01  0.91419073379E+01  0.12120570758E+03  0.17880291082E+03  0.13100000000E+03 0.  0.
        997    1    1    2    0    0  0.14466758005E+02 -0.24231623902E+02  0.38417926390E+03  0.43403935938E+03  0.20000000000E+03 0.  0.
</event>
<event>
 5    1  0.8566659E-012  0.2320241E+03  0.7957747E-01  0.4544782E+00
         13   -1    0    0    0    0  0.00000000000E+00  0.00000000000E+00  0.49999998884E+03  0.50000000000E+03  0.10566000000E+00 0. -1.
        994   -1    0    0    0    0 -0.00000000000E+00 -0.00000000000E+00  0.00000000000E+00  0.13100000000E+03  0.13100000000E+03 0.  0.
         13    1    1    2    0    0 -0.27783164485E+01 -0.13235970870E+02  0.75159117598E+01  0.15472881463E+02  0.10566000000E+00 0.  1.
        994    1    1    2    0    0 -0.15437127650E+02  0.30606711694E+02  0.82223591009E+02  0.15841967879E+03  0.13100000000E+03 0.  0.
        997    1    1    2    0    0  0.18215444099E+02 -0.17370740824E+02  0.41026048607E+03  0.45710743974E+03  0.20000000000E+03 0.  0.
</event>
<event>
 5    1  0.8566659E-012  0.2506036E+03  0.7957747E-01  0.4327048E+00
         13   -1    0    0    0    0  0.00000000000E+00  0.00000000000E+00  0.49999998884E+03  0.50000000000E+03  0.10566000000E+00 0. -1.
        994   -1    0    0    0    0 -0.00000000000E+00 -0.00000000000E+00  0.00000000000E+00  0.13100000000E+03  0.13100000000E+03 0.  0.
         13    1    1    2    0    0 -0.43873157759E+01  0.18516022094E+02 -0.70284575322E+01  0.20285511905E+02  0.10566000000E+00 0.  1.
        994    1    1    2    0    0  0.60439349290E+01 -0.21062416678E+02  0.14172864076E+03  0.19423738610E+03  0.13100000000E+03 0.  0.
        997    1    1    2    0    0 -0.16566191531E+01  0.25463945834E+01  0.36529980561E+03  0.41647710200E+03  0.20000000000E+03 0.  0.
</event>
<event>
 5    1  0.8566659E-012  0.2457050E+03  0.7957747E-01  0.4380684E+00
         13   -1    0    0    0    0  0.00000000000E+00  0.00000000000E+00  0.49999998884E+03  0.50000000000E+03  0.10566000000E+00 0.  1.
        994   -1    0    0    0    0 -0.00000000000E+00 -0.00000000000E+00  0.00000000000E+00  0.13100000000E+03  0.13100000000E+03 0.  0.
         13    1    1    2    0    0 -0.11312658544E+02  0.15254218264E+02 -0.45714779474E+00  0.18997040988E+02  0.10566000000E+00 0. -1.
        994    1    1    2    0    0 -0.31446634714E+01  0.33236054883E+01  0.10397779622E+03  0.16731203594E+03  0.13100000000E+03 0.  0.
        997    1    1    2    0    0  0.14457322016E+02 -0.18577823752E+02  0.39647934041E+03  0.44469092308E+03  0.20000000000E+03 0.  0.
</event>
<event>
 5    1  0.8566659E-012  0.2314424E+03  0.7957747E-01  0.4552276E+00
         13   -1    0    0    0    0  0.00000000000E+00  0.00000000000E+00  0.49999998884E+03  0.50000000000E+03  0.10566000000E+00 0.  1.
        994   -1    0    0    0    0 -0.00000000000E+00 -0.00000000000E+00  0.00000000000E+00  0.13100000000E+03  0.13100000000E+03 0.  0.
         13    1    1    2    0    0 -0.21234219433E+02  0.38552540834E+01  0.26029957944E+02  0.33813088200E+02  0.10566000000E+00 0. -1.
        994    1    1    2    0    0  0.63950128363E+02 -0.28023767496E+02  0.13548037255E+03  0.20097482879E+03  0.13100000000E+03 0.  0.
        997    1    1    2    0    0 -0.42715908930E+02  0.24168513413E+02  0.33848965834E+03  0.39621208301E+03  0.20000000000E+03 0.  0.
</event>
<event>
 5    1  0.8566659E-012  0.2404798E+03  0.7957747E-01  0.4440741E+00
         13   -1    0    0    0    0  0.00000000000E+00  0.00000000000E+00  0.49999998884E+03  0.50000000000E+03  0.10566000000E+00 0.  1.
        994   -1    0    0    0    0 -0.00000000000E+00 -0.00000000000E+00  0.00000000000E+00  0.13100000000E+03  0.13100000000E+03 0.  0.
         13    1    1    2    0    0  0.34143598888E+02  0.64234550674E+00  0.27625394211E+02  0.43924611804E+02  0.10566000000E+00 0. -1.
        994    1    1    2    0    0 -0.54234167811E+02  0.20503056144E+02  0.15742194171E+03  0.21284827460E+03  0.13100000000E+03 0.  0.
        997    1    1    2    0    0  0.20090568923E+02 -0.21145401650E+02  0.31495265292E+03  0.37422711360E+03  0.20000000000E+03 0.  0.
</event>
<event>
 5    1  0.8566659E-012  0.2351575E+03  0.7957747E-01  0.4505182E+00
         13   -1    0    0    0    0  0.00000000000E+00  0.00000000000E+00  0.49999998884E+03  0.50000000000E+03  0.10566000000E+00 0. -1.
        994   -1    0    0    0    0 -0.00000000000E+00 -0.00000000000E+00  0.00000000000E+00  0.13100000000E+03  0.13100000000E+03 0.  0.
         13    1    1    2    0    0  0.16105967891E+02  0.20855681169E+01  0.71889132889E+01  0.17760727305E+02  0.10566000000E+00 0.  1.
        994    1    1    2    0    0 -0.23345660143E+02  0.34786086765E+02  0.97388471357E+02  0.16852479353E+03  0.13100000000E+03 0.  0.
        997    1    1    2    0    0  0.72396922517E+01 -0.36871654882E+02  0.39542260419E+03  0.44471447917E+03  0.20000000000E+03 0.  0.
</event>
<event>
 5    1  0.8566659E-012  0.2309285E+03  0.7957747E-01  0.4558934E+00
         13   -1    0    0    0    0  0.00000000000E+00  0.00000000000E+00  0.49999998884E+03  0.50000000000E+03  0.10566000000E+00 0. -1.
        994   -1    0    0    0    0 -0.00000000000E+00 -0.00000000000E+00  0.00000000000E+00  0.13100000000E+03  0.13100000000E+03 0.  0.
         13    1    1    2    0    0 -0.19296988715E+02  0.25731642970E+01  0.24430858330E+02  0.31238965263E+02  0.10566000000E+00 0.  1.
        994    1    1    2    0    0  0.54934356933E+02 -0.29653415827E+02  0.11557047450E+03  0.18551184118E+03  0.13100000000E+03 0.  0.
        997    1    1    2    0    0 -0.35637368218E+02  0.27080251530E+02  0.35999865600E+03  0.41424919355E+03  0.20000000000E+03 0.  0.
</event>
<event>
 5    1  0.8566659E-012  0.2450275E+03  0.7957747E-01  0.4388301E+00
         13   -1    0    0    0    0  0.00000000000E+00  0.00000000000E+00  0.49999998884E+03  0.50000000000E+03  0.10566000000E+00 0.  1.
        994   -1    0    0    0    0 -0.00000000000E+00 -0.00000000000E+00  0.00000000000E+00  0.13100000000E+03  0.13100000000E+03 0.  0.
         13    1    1    2    0    0  0.37036221596E+01  0.15806947221E+02 -0.79676933518E+01  0.18085123691E+02  0.10566000000E+00 0. -1.
        994    1    1    2    0    0 -0.59041879342E+01 -0.48413116524E+02  0.19059494862E+03  0.23636015681E+03  0.13100000000E+03 0.  0.
        997    1    1    2    0    0  0.22005657746E+01  0.32606169303E+02  0.31737273357E+03  0.37655471950E+03  0.20000000000E+03 0.  0.
</event>
<event>
 5    1  0.8566659E-012  0.2306737E+03  0.7957747E-01  0.4562249E+00
         13   -1    0    0    0    0  0.00000000000E+00  0.00000000000E+00  0.49999998884E+03  0.50000000000E+03  0.10566000000E+00 0.  1.
        994   -1    0    0    0    0 -0.00000000000E+00 -0.00000000000E+00  0.00000000000E+00  0.13100000000E+03  0.13100000000E+03 0.  0.
         13    1    1    2    0    0  0.10216115884E+02 -0.21884211969E+01  0.39769012538E+01  0.11179674356E+02  0.10566000000E+00 0. -1.
        994    1    1    2    0    0 -0.34383917020E+02 -0.86698124605E+01  0.80201200645E+02  0.15764089565E+03  0.13100000000E+03 0.  0.
        997    1    1    2    0    0  0.24167801137E+02  0.10858233657E+02  0.41582188694E+03  0.46217942999E+03  0.20000000000E+03 0.  0.
</event>
<event>
 5    1  0.8566659E-012  0.2378404E+03  0.7957747E-01  0.4472268E+00
         13   -1    0    0    0    0  0.00000000000E+00  0.00000000000E+00  0.49999998884E+03  0.50000000000E+03  0.10566000000E+00 0. -1.
        994   -1    0    0    0    0 -0.00000000000E+00 -0.00000000000E+00  0.00000000000E+00  0.13100000000E+03  0.13100000000E+03 0.  0.
         13    1    1    2    0    0 -0.46418758051E+01 -0.23996074885E+02  0.31423373910E+02  0.39809524147E+02  0.10566000000E+00 0.  1.
        994    1    1    2    0    0  0.71958135449E+01 -0.10661526698E+02  0.83489486381E+02  0.15587476454E+03  0.13100000000E+03 0.  0.
        997    1    1    2    0    0 -0.25539377398E+01  0.34657601583E+02  0.38508712854E+03  0.43531571131E+03  0.20000000000E+03 0.  0.
</event>
<event>
 5    1  0.8566659E-012  0.2416933E+03  0.7957747E-01  0.4426519E+00
         13   -1    0    0    0    0  0.00000000000E+00  0.00000000000E+00  0.49999998884E+03  0.50000000000E+03  0.10566000000E+00 0.  1.
        994   -1    0    0    0    0 -0.00000000000E+00 -0.00000000000E+00  0.00000000000E+00  0.13100000000E+03  0.13100000000E+03 0.  0.
         13    1    1    2    0    0 -0.10723690151E+02 -0.33606475412E+02  0.48330464787E+02  0.59835087621E+02  0.10566000000E+00 0. -1.
        994    1    1    2    0    0 -0.38952109646E+02  0.41829491213E+02  0.17092994485E+03  0.22281162274E+03  0.13100000000E+03 0.  0.
        997    1    1    2    0    0  0.49675799797E+02 -0.82230158007E+01  0.28073957920E+03  0.34835328964E+03  0.20000000000E+03 0.  0.
</event>
<event>
 5    1  0.8566659E-012  0.2314108E+03  0.7957747E-01  0.4552684E+00
         13   -1    0    0    0    0  0.00000000000E+00  0.00000000000E+00  0.49999998884E+03  0.50000000000E+03  0.10566000000E+00 0.  1.
        994   -1    0    0    0    0 -0.00000000000E+00 -0.00000000000E+00  0.00000000000E+00  0.13100000000E+03  0.13100000000E+03 0.  0.
         13    1    1    2    0    0  0.19443807669E+02  0.28962710070E+01  0.38764922858E+02  0.43464703503E+02  0.10566000000E+00 0. -1.
        994    1    1    2    0    0 -0.37935098824E+02 -0.10564789027E+02  0.85207963078E+02  0.16115856621E+03  0.13100000000E+03 0.  0.
        997    1    1    2    0    0  0.18491291156E+02  0.76685180199E+01  0.37602710290E+03  0.42637673029E+03  0.20000000000E+03 0.  0.
</event>
<event>
 5    1  0.8566659E-012  0.2512206E+03  0.7957747E-01  0.4320465E+00
         13   -1    0    0    0    0  0.00000000000E+00  0.00000000000E+00  0.49999998884E+03  0.50000000000E+03  0.10566000000E+00 0.  1.
        994   -1    0    0    0    0 -0.00000000000E+00 -0.00000000000E+00  0.00000000000E+00  0.13100000000E+03  0.13100000000E+03 0.  0.
         13    1    1    2    0    0 -0.21690156554E+02  0.65173779430E-01 -0.33849464491E+01  0.21953044560E+02  0.10566000000E+00 0. -1.
        994    1    1    2    0    0 -0.16938881574E+02  0.46359823754E+01  0.14066671694E+03  0.19301954123E+03  0.13100000000E+03 0.  0.
        997    1    1    2    0    0  0.38629038128E+02 -0.47011561549E+01  0.36271821834E+03  0.41602741421E+03  0.20000000000E+03 0.  0.
</event>
<event>
 5    1  0.8566659E-012  0.2444743E+03  0.7957747E-01  0.4394557E+00
         13   -1    0    0    0    0  0.00000000000E+00  0.00000000000E+00  0.49999998884E+03  0.50000000000E+03  0.10566000000E+00 0. -1.
        994   -1    0    0    0    0 -0.00000000000E+00 -0.00000000000E+00  0.00000000000E+00  0.13100000000E+03  0.13100000000E+03 0.  0.
         13    1    1    2    0    0 -0.26666790257E+02  0.87510108018E+01  0.20631958821E+02  0.34833701805E+02  0.10566000000E+00 0.  1.
        994    1    1    2    0    0 -0.19983315598E+02  0.33745064697E+02  0.12994721887E+03  0.18864077498E+03  0.13100000000E+03 0.  0.
        997    1    1    2    0    0  0.46650105855E+02 -0.42496075499E+02  0.34942081114E+03  0.40752552321E+03  0.20000000000E+03 0.  0.
</event>
<event>
 5    1  0.8566659E-012  0.2328592E+03  0.7957747E-01  0.4534103E+00
         13   -1    0    0    0    0  0.00000000000E+00  0.00000000000E+00  0.49999998884E+03  0.50000000000E+03  0.10566000000E+00 0. -1.
        994   -1    0    0    0    0 -0.00000000000E+00 -0.00000000000E+00  0.00000000000E+00  0.13100000000E+03  0.13100000000E+03 0.  0.
         13    1    1    2    0    0  0.16324268564E+02 -0.43144911231E+01  0.19412196591E+02  0.25728216384E+02  0.10566000000E+00 0.  1.
        994    1    1    2    0    0 -0.99019321571E+00 -0.18146318682E+02  0.74513945738E+02  0.15180117745E+03  0.13100000000E+03 0.  0.
        997    1    1    2    0    0 -0.15334075348E+02  0.22460809805E+02  0.40607384651E+03  0.45347060617E+03  0.20000000000E+03 0.  0.
</event>
<event>
 5    1  0.8566659E-012  0.2423991E+03  0.7957747E-01  0.4418325E+00
         13   -1    0    0    0    0  0.00000000000E+00  0.00000000000E+00  0.49999998884E+03  0.50000000000E+03  0.10566000000E+00 0.  1.
        994   -1    0    0    0    0 -0.00000000000E+00 -0.00000000000E+00  0.00000000000E+00  0.13100000000E+03  0.13100000000E+03 0.  0.
         13    1    1    2    0    0  0.27909693746E+02  0.58774402173E+01  0.26492056322E+02  0.38927310731E+02  0.10566000000E+00 0. -1.
        994    1    1    2    0    0  0.11958182716E+02 -0.76102818671E+01  0.96099324649E+02  0.16308585077E+03  0.13100000000E+03 0.  0.
        997    1    1    2    0    0 -0.39867876462E+02  0.17328416498E+01  0.37740860786E+03  0.42898683850E+03  0.20000000000E+03 0.  0.
</event>
<event>
 5    1  0.8566659E-012  0.2451645E+03  0.7957747E-01  0.4386757E+00
         13   -1    0    0    0    0  0.00000000000E+00  0.00000000000E+00  0.49999998884E+03  0.50000000000E+03  0.10566000000E+00 0.  1.
        994   -1    0    0    0    0 -0.00000000000E+00 -0.00000000000E+00  0.00000000000E+00  0.13100000000E+03  0.13100000000E+03 0.  0.
         13    1    1    2    0    0 -0.24766021473E+02  0.14034770481E+02  0.14780326731E+02  0.32074909577E+02  0.10566000000E+00 0. -1.
        994    1    1    2    0    0  0.88904105807E+01  0.53378732095E+01  0.10356574515E+03  0.16731525890E+03  0.13100000000E+03 0.  0.
        997    1    1    2    0    0  0.15875610892E+02 -0.19372643691E+02  0.38165391695E+03  0.43160983153E+03  0.20000000000E+03 0.  0.
</event>
<event>
 5    1  0.8566659E-012  0.2338609E+03  0.7957747E-01  0.4521414E+00
         13   -1    0    0    0    0  0.00000000000E+00  0.00000000000E+00  0.49999998884E+03  0.50000000000E+03  0.10566000000E+00 0. -1.
        994   -1    0    0    0    0 -0.00000000000E+00 -0.00000000000E+00  0.00000000000E+00  0.13100000000E+03  0.13100000000E+03 0.  0.
         13    1    1    2    0    0  0.20754033077E+02 -0.35789597629E+01  0.62991556369E+02  0.66419019714E+02  0.10566000000E+00 0.  1.
        994    1    1    2    0    0 -0.29302114391E+02  0.15006904102E+02  0.85360959955E+02  0.15978521384E+03  0.13100000000E+03 0.  0.
        997    1    1    2    0    0  0.85480813144E+01 -0.11427944339E+02  0.35164747251E+03  0.40479576644E+03  0.20000000000E+03 0.  0.
</event>
<event>
 5    1  0.8566659E-012  0.2358789E+03  0.7957747E-01  0.4496244E+00
         13   -1    0    0    0    0  0.00000000000E+00  0.00000000000E+00  0.49999998884E+03  0.50000000000E+03  0.10566000000E+00 0.  1.
        994   -1    0    0    0    0 -0.00000000000E+00 -0.00000000000E+00  0.00000000000E+00  0.13100000000E+03  0.13100000000E+03 0.  0.
         13    1    1    2    0    0  0.13072299939E+02  0.12818558332E+02  0.98187450894E+01  0.20775451441E+02  0.10566000000E+00 0. -1.
        994    1    1    2    0    0 -0.29395436002E+02 -0.39277682957E+01  0.87715174436E+02  0.16041967101E+03  0.13100000000E+03 0.  0.
        997    1    1    2    0    0  0.16323136063E+02 -0.88907900360E+01  0.40246606931E+03  0.44980487755E+03  0.20000000000E+03 0.  0.
</event>
<event>
 5    1  0.8566659E-012  0.2291245E+03  0.7957747E-01  0.4582593E+00
         13   -1    0    0    0    0  0.00000000000E+00  0.00000000000E+00  0.49999998884E+03  0.50000000000E+03  0.10566000000E+00 0. -1.
        994   -1    0    0    0    0 -0.00000000000E+00 -0.00000000000E+00  0.00000000000E+00  0.13100000000E+03  0.13100000000E+03 0.  0.
         13    1    1    2    0    0  0.90683001376E+01  0.95587823025E+01  0.15489828130E+02  0.20335936812E+02  0.10566000000E+00 0.  1.
        994    1    1    2    0    0 -0.71875467400E+01 -0.36257652086E+02  0.78129326733E+02  0.15694416159E+03  0.13100000000E+03 0.  0.
        997    1    1    2    0    0 -0.18807533976E+01  0.26698869784E+02  0.40638083397E+03  0.45371990159E+03  0.20000000000E+03 0.  0.
</event>
<event>
 5    1  0.8566659E-012  0.2361709E+03  0.7957747E-01  0.4492645E+00
         13   -1    0    0    0    0  0.00000000000E+00  0.00000000000E+00  0.49999998884E+03  0.50000000000E+03  0.10566000000E+00 0.  1.
        994   -1    0    0    0    0 -0.00000000000E+00 -0.00000000000E+00  0.00000000000E+00  0.13100000000E+03  0.13100000000E+03 0.  0.
         13    1    1    2    0    0  0.10999466052E+01  0.24242732410E+02  0.35043318451E+02  0.42625875819E+02  0.10566000000E+00 0. -1.
        994    1    1    2    0    0 -0.16774332177E+02 -0.76922650442E+01  0.81747077837E+02  0.15551248791E+03  0.13100000000E+03 0.  0.
        997    1    1    2    0    0  0.15674385571E+02 -0.16550467366E+02  0.38320959255E+03  0.43286163627E+03  0.20000000000E+03 0.  0.
</event>
<event>
 5    1  0.8566659E-012  0.2352308E+03  0.7957747E-01  0.4504271E+00
         13   -1    0    0    0    0  0.00000000000E+00  0.00000000000E+00  0.49999998884E+03  0.50000000000E+03  0.10566000000E+00 0. -1.
        994   -1    0    0    0    0 -0.00000000000E+00 -0.00000000000E+00  0.00000000000E+00  0.13100000000E+03  0.13100000000E+03 0.  0.
         13    1    1    2    0    0  0.12964396432E+02  0.31181362859E+01  0.43098691762E+01  0.14013724883E+02  0.10566000000E+00 0.  1.
        994    1    1    2    0    0  0.12142907670E+02  0.35736830570E+02  0.93115118733E+02  0.16509390238E+03  0.13100000000E+03 0.  0.
        997    1    1    2    0    0 -0.25107304102E+02 -0.38854966856E+02  0.40257500093E+03  0.45189237274E+03  0.20000000000E+03 0.  0.
</event>
<event>
 5    1  0.8566659E-012  0.2364206E+03  0.7957747E-01  0.4489575E+00
         13   -1    0    0    0    0  0.00000000000E+00  0.00000000000E+00  0.49999998884E+03  0.50000000000E+03  0.10566000000E+00 0. -1.
        994   -1    0    0    0    0 -0.00000000000E+00 -0.00000000000E+00  0.00000000000E+00  0.13100000000E+03  0.13100000000E+03 0.  0.
         13    1    1    2    0    0  0.18822796654E+02  0.85352896028E+00  0.93333388362E+01  0.21027328966E+02  0.10566000000E+00 0.  1.
        994    1    1    2    0    0 -0.28079971723E+02  0.20114343290E+02  0.93217859321E+02  0.16444950871E+03  0.13100000000E+03 0.  0.
        997    1    1    2    0    0  0.92571750691E+01 -0.20967872251E+02  0.39744879068E+03  0.44552316233E+03  0.20000000000E+03 0.  0.
</event>
<event>
 5    1  0.8566659E-012  0.2470489E+03  0.7957747E-01  0.4365722E+00
         13   -1    0    0    0    0  0.00000000000E+00  0.00000000000E+00  0.49999998884E+03  0.50000000000E+03  0.10566000000E+00 0. -1.
        994   -1    0    0    0    0 -0.00000000000E+00 -0.00000000000E+00  0.00000000000E+00  0.13100000000E+03  0.13100000000E+03 0.  0.
         13    1    1    2    0    0  0.28166022807E+00  0.31227786907E+02  0.14175373113E+02  0.34295865269E+02  0.10566000000E+00 0.  1.
        994    1    1    2    0    0  0.26310905733E+02 -0.13437856149E+02  0.12793316980E+03  0.18547435314E+03  0.13100000000E+03 0.  0.
        997    1    1    2    0    0 -0.26592565961E+02 -0.17789930758E+02  0.35789144592E+03  0.41122978159E+03  0.20000000000E+03 0.  0.
</event>
<event>
 5    1  0.9114094E-012  0.2405767E+03  0.7957747E-01  0.4439598E+00
         13   -1    0    0    0    0  0.00000000000E+00  0.00000000000E+00  0.49999998884E+03  0.50000000000E+03  0.10566000000E+00 0.  1.
        994   -1    0    0    0    0 -0.00000000000E+00 -0.00000000000E+00  0.00000000000E+00  0.13100000000E+03  0.13100000000E+03 0.  0.
         13    1    1    2    0    0  0.96754990072E+01 -0.43213878367E+01 -0.41678174727E+01  0.11387341235E+02  0.10566000000E+00 0. -1.
        994    1    1    2    0    0  0.95399712381E+01  0.11971901368E+02  0.91364500751E+02  0.16044565894E+03  0.13100000000E+03 0.  0.
        997    1    1    2    0    0 -0.19215470245E+02 -0.76505135313E+01  0.41280330556E+03  0.45916699983E+03  0.20000000000E+03 0.  0.
</event>
<event>
 5    1  0.8566659E-012  0.2431133E+03  0.7957747E-01  0.4410091E+00
         13   -1    0    0    0    0  0.00000000000E+00  0.00000000000E+00  0.49999998884E+03  0.50000000000E+03  0.10566000000E+00 0.  1.
        994   -1    0    0    0    0 -0.00000000000E+00 -0.00000000000E+00  0.00000000000E+00  0.13100000000E+03  0.13100000000E+03 0.  0.
         13    1    1    2    0    0 -0.19903020956E+01 -0.31830514126E+02  0.33084269214E+02  0.45953486978E+02  0.10566000000E+00 0. -1.
        994    1    1    2    0    0 -0.18739043912E+02  0.32247668349E+01  0.10084134258E+03  0.16640771395E+03  0.13100000000E+03 0.  0.
        997    1    1    2    0    0  0.20729346007E+02  0.28605747291E+02  0.36607437704E+03  0.41863879907E+03  0.20000000000E+03 0.  0.
</event>
<event>
 5    1  0.8566659E-012  0.2458916E+03  0.7957747E-01  0.4378596E+00
         13   -1    0    0    0    0  0.00000000000E+00  0.00000000000E+00  0.49999998884E+03  0.50000000000E+03  0.10566000000E+00 0. -1.
        994   -1    0    0    0    0 -0.00000000000E+00 -0.00000000000E+00  0.00000000000E+00  0.13100000000E+03  0.13100000000E+03 0.  0.
         13    1    1    2    0    0 -0.85668088439E+01 -0.20963651486E+02  0.50735717883E+00  0.22652449596E+02  0.10566000000E+00 0.  1.
        994    1    1    2    0    0  0.31716799551E+02  0.17984811180E+02  0.13314646924E+03  0.19031130045E+03  0.13100000000E+03 0.  0.
        997    1    1    2    0    0 -0.23149990707E+02  0.29788403055E+01  0.36634616242E+03  0.41803624996E+03  0.20000000000E+03 0.  0.
</event>
<event>
 5    1  0.8566659E-012  0.2346100E+03  0.7957747E-01  0.4512011E+00
         13   -1    0    0    0    0  0.00000000000E+00  0.00000000000E+00  0.49999998884E+03  0.50000000000E+03  0.10566000000E+00 0.  1.
        994   -1    0    0    0    0 -0.00000000000E+00 -0.00000000000E+00  0.00000000000E+00  0.13100000000E+03  0.13100000000E+03 0.  0.
         13    1    1    2    0    0 -0.45177931425E+01 -0.15440316374E+02  0.70103723880E+01  0.17549082872E+02  0.10566000000E+00 0. -1.
        994    1    1    2    0    0  0.28877189759E+01  0.34372244854E+02  0.88484066680E+02  0.16180302900E+03  0.13100000000E+03 0.  0.
        997    1    1    2    0    0  0.16300741666E+01 -0.18931928481E+02  0.40450554977E+03  0.45164788813E+03  0.20000000000E+03 0.  0.
</event>
<event>
 5    1  0.8566659E-012  0.2340700E+03  0.7957747E-01  0.4518781E+00
         13   -1    0    0    0    0  0.00000000000E+00  0.00000000000E+00  0.49999998884E+03  0.50000000000E+03  0.10566000000E+00 0. -1.
        994   -1    0    0    0    0 -0.00000000000E+00 -0.00000000000E+00  0.00000000000E+00  0.13100000000E+03  0.13100000000E+03 0.  0.
         13    1    1    2    0    0  0.13775771763E+02  0.44108740523E+01  0.67315916593E+01  0.15954723058E+02  0.10566000000E+00 0.  1.
        994    1    1    2    0    0 -0.10123276959E+02 -0.10981920700E+02  0.75810140862E+02  0.15208964717E+03  0.13100000000E+03 0.  0.
        997    1    1    2    0    0 -0.36524948039E+01  0.65710466473E+01  0.41745825631E+03  0.46295562977E+03  0.20000000000E+03 0.  0.
</event>
<event>
 5    1  0.8566659E-012  0.2478126E+03  0.7957747E-01  0.4357303E+00
         13   -1    0    0    0    0  0.00000000000E+00  0.00000000000E+00  0.49999998884E+03  0.50000000000E+03  0.10566000000E+00 0.  1.
        994   -1    0    0    0    0 -0.00000000000E+00 -0.00000000000E+00  0.00000000000E+00  0.13100000000E+03  0.13100000000E+03 0.  0.
         13    1    1    2    0    0  0.93576554199E+01  0.46196172104E+01 -0.10923289342E+02  0.15107481332E+02  0.10566000000E+00 0. -1.
        994    1    1    2    0    0 -0.36557944842E+02  0.10059708153E+02  0.15497594475E+03  0.20643697467E+03  0.13100000000E+03 0.  0.
        997    1    1    2    0    0  0.27200289422E+02 -0.14679325364E+02  0.35594733342E+03  0.40945554400E+03  0.20000000000E+03 0.  0.
</event>
<event>
 5    1  0.8566659E-012  0.2377035E+03  0.7957747E-01  0.4473926E+00
         13   -1    0    0    0    0  0.00000000000E+00  0.00000000000E+00  0.49999998884E+03  0.50000000000E+03  0.10566000000E+00 0.  1.
        994   -1    0    0    0    0 -0.00000000000E+00 -0.00000000000E+00  0.00000000000E+00  0.13100000000E+03  0.13100000000E+03 0.  0.
         13    1    1    2    0    0 -0.18085303661E+02  0.22522111988E+02  0.77849311430E+02  0.83035234636E+02  0.10566000000E+00 0. -1.
        994    1    1    2    0    0  0.43118533943E+02 -0.38682752310E+02  0.13550991266E+03  0.19717885212E+03  0.13100000000E+03 0.  0.
        997    1    1    2    0    0 -0.25033230282E+02  0.16160640322E+02  0.28664076474E+03  0.35078591324E+03  0.20000000000E+03 0.  0.
</event>
<event>
 5    1  0.8566659E-012  0.2344489E+03  0.7957747E-01  0.4514026E+00
         13   -1    0    0    0    0  0.00000000000E+00  0.00000000000E+00  0.49999998884E+03  0.50000000000E+03  0.10566000000E+00 0.  1.
        994   -1    0    0    0    0 -0.00000000000E+00 -0.00000000000E+00  0.00000000000E+00  0.13100000000E+03  0.13100000000E+03 0.  0.
         13    1    1    2    0    0  0.65580685272E+01 -0.11882382094E+02  0.35739485056E+01  0.14035082436E+02  0.10566000000E+00 0. -1.
        994    1    1    2    0    0 -0.12235903309E+02  0.27033363112E+02  0.84282396524E+02  0.15857188406E+03  0.13100000000E+03 0.  0.
        997    1    1    2    0    0  0.56778347818E+01 -0.15150981018E+02  0.41214364381E+03  0.45839303350E+03  0.20000000000E+03 0.  0.
</event>
<event>
 5    1  0.8566659E-012  0.2310694E+03  0.7957747E-01  0.4557105E+00
         13   -1    0    0    0    0  0.00000000000E+00  0.00000000000E+00  0.49999998884E+03  0.50000000000E+03  0.10566000000E+00 0.  1.
        994   -1    0    0    0    0 -0.00000000000E+00 -0.00000000000E+00  0.00000000000E+00  0.13100000000E+03  0.13100000000E+03 0.  0.
         13    1    1    2    0    0 -0.55108148137E+01  0.14607952102E+02  0.35281994009E+02  0.38582270666E+02  0.10566000000E+00 0. -1.
        994    1    1    2    0    0  0.74834703185E+01  0.53267263072E+01  0.68457511818E+02  0.14809391367E+03  0.13100000000E+03 0.  0.
        997    1    1    2    0    0 -0.19726555048E+01 -0.19934678409E+02  0.39626048301E+03  0.44432381567E+03  0.20000000000E+03 0.  0.
</event>
<event>
 5    1  0.8566659E-012  0.2450128E+03  0.7957747E-01  0.4388466E+00
         13   -1    0    0    0    0  0.00000000000E+00  0.00000000000E+00  0.49999998884E+03  0.50000000000E+03  0.10566000000E+00 0.  1.
        994   -1    0    0    0    0 -0.00000000000E+00 -0.00000000000E+00  0.00000000000E+00  0.13100000000E+03  0.13100000000E+03 0.  0.
         13    1    1    2    0    0 -0.63830925620E+01  0.24713014272E+02  0.61060123002E+01  0.26244456469E+02  0.10566000000E+00 0. -1.
        994    1    1    2    0    0  0.40316401810E+02 -0.73855192929E+01  0.13737473623E+03  0.19419777626E+03  0.13100000000E+03 0.  0.
        997    1    1    2    0    0 -0.33933309249E+02 -0.17327494980E+02  0.35651924030E+03  0.41055776727E+03  0.20000000000E+03 0.  0.
</event>
<event>
 5    1  0.8566659E-012  0.2452180E+03  0.7957747E-01  0.4386154E+00
         13   -1    0    0    0    0  0.00000000000E+00  0.00000000000E+00  0.49999998884E+03  0.50000000000E+03  0.10566000000E+00 0. -1.
        994   -1    0    0    0    0 -0.00000000000E+00 -0.00000000000E+00  0.00000000000E+00  0.13100000000E+03  0.13100000000E+03 0.  0.
         13    1    1    2    0    0 -0.26360052483E+01 -0.29760851906E+02  0.17831875137E+02  0.34794306499E+02  0.10566000000E+00 0.  1.
        994    1    1    2    0    0 -0.38860277925E+02 -0.51460094994E+00  0.13383059977E+03  0.19126425554E+03  0.13100000000E+03 0.  0.
        997    1    1    2    0    0  0.41496283173E+02  0.30275452856E+02  0.34833751393E+03  0.40494143796E+03  0.20000000000E+03 0.  0.
</event>
<event>
 5    1  0.8566659E-012  0.2399026E+03  0.7957747E-01  0.4447564E+00
         13   -1    0    0    0    0  0.00000000000E+00  0.00000000000E+00  0.49999998884E+03  0.50000000000E+03  0.10566000000E+00 0.  1.
        994   -1    0    0    0    0 -0.00000000000E+00 -0.00000000000E+00  0.00000000000E+00  0.13100000000E+03  0.13100000000E+03 0.  0.
         13    1    1    2    0    0  0.20136373110E+02 -0.71982369350E+01  0.10061934446E+02  0.23633489497E+02  0.10566000000E+00 0. -1.
        994    1    1    2    0    0 -0.64285672415E+01  0.80690164537E+01  0.87827293549E+02  0.15805400658E+03  0.13100000000E+03 0.  0.
        997    1    1    2    0    0 -0.13707805868E+02 -0.87077951868E+00  0.40211076084E+03  0.44931250392E+03  0.20000000000E+03 0.  0.
</event>
<event>
 5    1  0.8566659E-012  0.2368150E+03  0.7957747E-01  0.4484743E+00
         13   -1    0    0    0    0  0.00000000000E+00  0.00000000000E+00  0.49999998884E+03  0.50000000000E+03  0.10566000000E+00 0.  1.
        994   -1    0    0    0    0 -0.00000000000E+00 -0.00000000000E+00  0.00000000000E+00  0.13100000000E+03  0.13100000000E+03 0.  0.
         13    1    1    2    0    0 -0.64226378150E+01  0.10931310257E+02  0.10214215303E+01  0.12719995535E+02  0.10566000000E+00 0. -1.
        994    1    1    2    0    0 -0.49039999328E+02 -0.66770771395E+00  0.11261233820E+03  0.17957701992E+03  0.13100000000E+03 0.  0.
        997    1    1    2    0    0  0.55462637143E+02 -0.10263602543E+02  0.38636622911E+03  0.43870298455E+03  0.20000000000E+03 0.  0.
</event>
<event>
 5    1  0.8566659E-012  0.2374039E+03  0.7957747E-01  0.4477563E+00
         13   -1    0    0    0    0  0.00000000000E+00  0.00000000000E+00  0.49999998884E+03  0.50000000000E+03  0.10566000000E+00 0.  1.
        994   -1    0    0    0    0 -0.00000000000E+00 -0.00000000000E+00  0.00000000000E+00  0.13100000000E+03  0.13100000000E+03 0.  0.
         13    1    1    2    0    0  0.25797747129E+02  0.12646558115E+02  0.54842725507E+02  0.61912800729E+02  0.10566000000E+00 0. -1.
        994    1    1    2    0    0 -0.21883377431E+02 -0.10877531952E+02  0.87912833463E+02  0.15964607479E+03  0.13100000000E+03 0.  0.
        997    1    1    2    0    0 -0.39143696974E+01 -0.17690261628E+01  0.35724442987E+03  0.40944112448E+03  0.20000000000E+03 0.  0.
</event>
<event>
 5    1  0.8566659E-012  0.2474872E+03  0.7957747E-01  0.4360882E+00
         13   -1    0    0    0    0  0.00000000000E+00  0.00000000000E+00  0.49999998884E+03  0.50000000000E+03  0.10566000000E+00 0.  1.
        994   -1    0    0    0    0 -0.00000000000E+00 -0.00000000000E+00  0.00000000000E+00  0.13100000000E+03  0.13100000000E+03 0.  0.
         13    1    1    2    0    0 -0.15571703629E+02 -0.13154678967E+02 -0.26283950594E+01  0.20553422032E+02  0.10566000000E+00 0. -1.
        994    1    1    2    0    0  0.27416299229E+02 -0.20071845053E+02  0.13933301438E+03  0.19424011255E+03  0.13100000000E+03 0.  0.
        997    1    1    2    0    0 -0.11844595600E+02  0.33226524020E+02  0.36329536952E+03  0.41620646542E+03  0.20000000000E+03 0.  0.
</event>
<event>
 5    1  0.8566659E-012  0.2364742E+03  0.7957747E-01  0.4488918E+00
         13   -1    0    0    0    0  0.00000000000E+00  0.00000000000E+00  0.49999998884E+03  0.50000000000E+03  0.10566000000E+00 0. -1.
        994   -1    0    0    0    0 -0.00000000000E+00 -0.00000000000E+00  0.00000000000E+00  0.13100000000E+03  0.13100000000E+03 0.  0.
         13    1    1    2    0    0  0.26009317734E+01  0.29968389911E+02  0.32057012340E+02  0.43960578296E+02  0.10566000000E+00 0.  1.
        994    1    1    2    0    0 -0.46329583136E+02 -0.52160472373E+02  0.18845657945E+03  0.23988336226E+03  0.13100000000E+03 0.  0.
        997    1    1    2    0    0  0.43728651363E+02  0.22192082462E+02  0.27948639705E+03  0.34715605945E+03  0.20000000000E+03 0.  0.
</event>
<event>
 5    1  0.8566659E-012  0.2347595E+03  0.7957747E-01  0.4510142E+00
         13   -1    0    0    0    0  0.00000000000E+00  0.00000000000E+00  0.49999998884E+03  0.50000000000E+03  0.10566000000E+00 0.  1.
        994   -1    0    0    0    0 -0.00000000000E+00 -0.00000000000E+00  0.00000000000E+00  0.13100000000E+03  0.13100000000E+03 0.  0.
         13    1    1    2    0    0  0.23502990637E+02  0.17547736122E+01  0.37384590535E+02  0.44193761696E+02  0.10566000000E+00 0. -1.
        994    1    1    2    0    0 -0.20383511417E+02  0.42914233641E+01  0.79688495586E+02  0.15474223787E+03  0.13100000000E+03 0.  0.
        997    1    1    2    0    0 -0.31194792204E+01 -0.60461969763E+01  0.38292690272E+03  0.43206400043E+03  0.20000000000E+03 0.  0.
</event>
<event>
 5    1  0.8566659E-012  0.2380023E+03  0.7957747E-01  0.4470311E+00
         13   -1    0    0    0    0  0.00000000000E+00  0.00000000000E+00  0.49999998884E+03  0.50000000000E+03  0.10566000000E+00 0. -1.
        994   -1    0    0    0    0 -0.00000000000E+00 -0.00000000000E+00  0.00000000000E+00  0.13100000000E+03  0.13100000000E+03 0.  0.
         13    1    1    2    0    0 -0.97423953061E+00  0.33678186937E+02  0.48151014568E+02  0.58768195361E+02  0.10566000000E+00 0.  1.
        994    1    1    2    0    0 -0.27789467069E+02 -0.56508645681E+02  0.15577846446E+03  0.21305729630E+03  0.13100000000E+03 0.  0.
        997    1    1    2    0    0  0.28763706599E+02  0.22830458744E+02  0.29607050981E+03  0.35917450834E+03  0.20000000000E+03 0.  0.
</event>
<event>
 5    1  0.8566659E-012  0.2399525E+03  0.7957747E-01  0.4446973E+00
         13   -1    0    0    0    0  0.00000000000E+00  0.00000000000E+00  0.49999998884E+03  0.50000000000E+03  0.10566000000E+00 0.  1.
        994   -1    0    0    0    0 -0.00000000000E+00 -0.00000000000E+00  0.00000000000E+00  0.13100000000E+03  0.13100000000E+03 0.  0.
         13    1    1    2    0    0 -0.61840012547E+01  0.26767494543E+02  0.28686993456E+02  0.39720213912E+02  0.10566000000E+00 0. -1.
        994    1    1    2    0    0 -0.42466495077E+02 -0.10633547769E+02  0.11615381208E+03  0.18046934256E+03  0.13100000000E+03 0.  0.
        997    1    1    2    0    0  0.48650496332E+02 -0.16133946774E+02  0.35515918330E+03  0.41081044353E+03  0.20000000000E+03 0.  0.
</event>
<event>
 5    1  0.8566659E-012  0.2367355E+03  0.7957747E-01  0.4485716E+00
         13   -1    0    0    0    0  0.00000000000E+00  0.00000000000E+00  0.49999998884E+03  0.50000000000E+03  0.10566000000E+00 0. -1.
        994   -1    0    0    0    0 -0.00000000000E+00 -0.00000000000E+00  0.00000000000E+00  0.13100000000E+03  0.13100000000E+03 0.  0.
         13    1    1    2    0    0  0.14387443178E+02 -0.78427107651E+01  0.58137993532E+01  0.17387295946E+02  0.10566000000E+00 0.  1.
        994    1    1    2    0    0 -0.15976911547E+02 -0.17797608367E+01  0.82049303418E+02  0.15540758489E+03  0.13100000000E+03 0.  0.
        997    1    1    2    0    0  0.15894683685E+01  0.96224716018E+01  0.41213688606E+03  0.45820511916E+03  0.20000000000E+03 0.  0.
</event>
<event>
 5    1  0.8566659E-012  0.2410999E+03  0.7957747E-01  0.4433452E+00
         13   -1    0    0    0    0  0.00000000000E+00  0.00000000000E+00  0.49999998884E+03  0.50000000000E+03  0.10566000000E+00 0. -1.
        994   -1    0    0    0    0 -0.00000000000E+00 -0.00000000000E+00  0.00000000000E+00  0.13100000000E+03  0.13100000000E+03 0.  0.
         13    1    1    2    0    0 -0.15782893549E+02  0.13343904613E+02  0.23525324029E+01  0.20801564649E+02  0.10566000000E+00 0.  1.
        994    1    1    2    0    0  0.33791729804E+02 -0.34137429572E+02  0.12967221270E+03  0.19048130577E+03  0.13100000000E+03 0.  0.
        997    1    1    2    0    0 -0.18008836255E+02  0.20793524959E+02  0.36797524374E+03  0.41971712958E+03  0.20000000000E+03 0.  0.
</event>
<event>
 5    1  0.8566659E-012  0.2409867E+03  0.7957747E-01  0.4434779E+00
         13   -1    0    0    0    0  0.00000000000E+00  0.00000000000E+00  0.49999998884E+03  0.50000000000E+03  0.10566000000E+00 0.  1.
        994   -1    0    0    0    0 -0.00000000000E+00 -0.00000000000E+00  0.00000000000E+00  0.13100000000E+03  0.13100000000E+03 0.  0.
         13    1    1    2    0    0  0.36449069241E+02  0.11971180326E+02  0.68036474882E+02  0.78107726157E+02  0.10566000000E+00 0. -1.
        994    1    1    2    0    0 -0.58151138534E+02 -0.12940828341E+02  0.18298867285E+03  0.23279792598E+03  0.13100000000E+03 0.  0.
        997    1    1    2    0    0  0.21702069293E+02  0.96964801427E+00  0.24897484111E+03  0.32009434786E+03  0.20000000000E+03 0.  0.
</event>
<event>
 5    1  0.8566659E-012  0.2384192E+03  0.7957747E-01  0.4465283E+00
         13   -1    0    0    0    0  0.00000000000E+00  0.00000000000E+00  0.49999998884E+03  0.50000000000E+03  0.10566000000E+00 0.  1.
        994   -1    0    0    0    0 -0.00000000000E+00 -0.00000000000E+00  0.00000000000E+00  0.13100000000E+03  0.13100000000E+03 0.  0.
         13    1    1    2    0    0  0.52749008842E+01 -0.12107836324E+02 -0.88911544321E+00  0.13237294667E+02  0.10566000000E+00 0. -1.
        994    1    1    2    0    0 -0.13385354898E+02  0.20143224953E+02  0.90371404619E+02  0.16097486763E+03  0.13100000000E+03 0.  0.
        997    1    1    2    0    0  0.81104540140E+01 -0.80353886293E+01  0.41051769966E+03  0.45678783770E+03  0.20000000000E+03 0.  0.
</event>
<event>
 5    1  0.8566659E-012  0.2362751E+03  0.7957747E-01  0.4491363E+00
         13   -1    0    0    0    0  0.00000000000E+00  0.00000000000E+00  0.49999998884E+03  0.50000000000E+03  0.10566000000E+00 0. -1.
        994   -1    0    0    0    0 -0.00000000000E+00 -0.00000000000E+00  0.00000000000E+00  0.13100000000E+03  0.13100000000E+03 0.  0.
         13    1    1    2    0    0  0.24092743897E+02 -0.17083831137E+02  0.52644156624E+02  0.60363366254E+02  0.10566000000E+00 0.  1.
        994    1    1    2    0    0 -0.28719769950E+02  0.40597866130E+02  0.11176945390E+03  0.17923845219E+03  0.13100000000E+03 0.  0.
        997    1    1    2    0    0  0.46270260530E+01 -0.23514034993E+02  0.33558637832E+03  0.39139818155E+03  0.20000000000E+03 0.  0.
</event>
<event>
 5    1  0.8566659E-012  0.2328026E+03  0.7957747E-01  0.4534824E+00
         13   -1    0    0    0    0  0.00000000000E+00  0.00000000000E+00  0.49999998884E+03  0.50000000000E+03  0.10566000000E+00 0. -1.
        994   -1    0    0    0    0 -0.00000000000E+00 -0.00000000000E+00  0.00000000000E+00  0.13100000000E+03  0.13100000000E+03 0.  0.
         13    1    1    2    0    0 -0.80395610755E+01  0.61138323099E+01  0.10746346847E+01  0.10157730630E+02  0.10566000000E+00 0.  1.
        994    1    1    2    0    0  0.34585408773E+02  0.84054083467E+01  0.85076972589E+02  0.16020578221E+03  0.13100000000E+03 0.  0.
        997    1    1    2    0    0 -0.26545847698E+02 -0.14519240657E+02  0.41384838156E+03  0.46063648716E+03  0.20000000000E+03 0.  0.
</event>
<event>
 5    1  0.8566659E-012  0.2318138E+03  0.7957747E-01  0.4547486E+00
         13   -1    0    0    0    0  0.00000000000E+00  0.00000000000E+00  0.49999998884E+03  0.50000000000E+03  0.10566000000E+00 0.  1.
        994   -1    0    0    0    0 -0.00000000000E+00 -0.00000000000E+00  0.00000000000E+00  0.13100000000E+03  0.13100000000E+03 0.  0.
         13    1    1    2    0    0 -0.12271926476E+02  0.11184361915E+02  0.18735243278E+02  0.25034189334E+02  0.10566000000E+00 0. -1.
        994    1    1    2    0    0  0.42760158044E+01 -0.20416271080E+02  0.73554134597E+02  0.15167834108E+03  0.13100000000E+03 0.  0.
        997    1    1    2    0    0  0.79959106719E+01  0.92319091647E+01  0.40771061096E+03  0.45428746959E+03  0.20000000000E+03 0.  0.
</event>
<event>
 5    1  0.8566659E-012  0.2290568E+03  0.7957747E-01  0.4583490E+00
         13   -1    0    0    0    0  0.00000000000E+00  0.00000000000E+00  0.49999998884E+03  0.50000000000E+03  0.10566000000E+00 0.  1.
        994   -1    0    0    0    0 -0.00000000000E+00 -0.00000000000E+00  0.00000000000E+00  0.13100000000E+03  0.13100000000E+03 0.  0.
         13    1    1    2    0    0  0.10045522041E+02  0.15995186535E+01  0.77193388186E+01  0.12769899327E+02  0.10566000000E+00 0. -1.
        994    1    1    2    0    0 -0.11314389670E+02 -0.21677784940E+02  0.69954252622E+02  0.15050760523E+03  0.13100000000E+03 0.  0.
        997    1    1    2    0    0  0.12688676288E+01  0.20078266287E+02  0.42232639740E+03  0.46772249544E+03  0.20000000000E+03 0.  0.
</event>
<event>
 5    1  0.8566659E-012  0.2353775E+03  0.7957747E-01  0.4502450E+00
         13   -1    0    0    0    0  0.00000000000E+00  0.00000000000E+00  0.49999998884E+03  0.50000000000E+03  0.10566000000E+00 0.  1.
        994   -1    0    0    0    0 -0.00000000000E+00 -0.00000000000E+00  0.00000000000E+00  0.13100000000E+03  0.13100000000E+03 0.  0.
         13    1    1    2    0    0 -0.47024160259E+01 -0.21378528385E+02  0.16198548609E+02  0.27231568692E+02  0.10566000000E+00 0. -1.
        994    1    1    2    0    0  0.71771964794E+01  0.43272314784E+02  0.10040587871E+03  0.17078157352E+03  0.13100000000E+03 0.  0.
        997    1    1    2    0    0 -0.24747804536E+01 -0.21893786399E+02  0.38339556152E+03  0.43298685778E+03  0.20000000000E+03 0.  0.
</event>
<event>
 5    1  0.8566659E-012  0.2318904E+03  0.7957747E-01  0.4546501E+00
         13   -1    0    0    0    0  0.00000000000E+00  0.00000000000E+00  0.49999998884E+03  0.50000000000E+03  0.10566000000E+00 0.  1.
        994   -1    0    0    0    0 -0.00000000000E+00 -0.00000000000E+00  0.00000000000E+00  0.13100000000E+03  0.13100000000E+03 0.  0.
         13    1    1    2    0    0  0.10950153521E+02  0.10826487241E+02  0.10408159468E+02  0.18586544479E+02  0.10566000000E+00 0. -1.
        994    1    1    2    0    0 -0.16808030440E+02 -0.41513049999E+02  0.91904994540E+02  0.16617271506E+03  0.13100000000E+03 0.  0.
        997    1    1    2    0    0  0.58578769194E+01  0.30686562758E+02  0.39768683483E+03  0.44624074047E+03  0.20000000000E+03 0.  0.
</event>
<event>
 5    1  0.1380931E-011  0.2395584E+03  0.7957747E-01  0.4451653E+00
         13   -1    0    0    0    0  0.00000000000E+00  0.00000000000E+00  0.49999998884E+03  0.50000000000E+03  0.10566000000E+00 0.  1.
        994   -1    0    0    0    0 -0.00000000000E+00 -0.00000000000E+00  0.00000000000E+00  0.13100000000E+03  0.13100000000E+03 0.  0.
         13    1    1    2    0    0 -0.14393709643E+02 -0.80774191328E-01 -0.14307329083E+01  0.14465253626E+02  0.10566000000E+00 0. -1.
        994    1    1    2    0    0  0.35038487964E+02  0.91871705546E+01  0.10433369581E+03  0.17134357246E+03  0.13100000000E+03 0.  0.
        997    1    1    2    0    0 -0.20644778321E+02 -0.91063963633E+01  0.39709702593E+03  0.44519117391E+03  0.20000000000E+03 0.  0.
</event>
<event>
 5    1  0.8566659E-012  0.2339866E+03  0.7957747E-01  0.4519830E+00
         13   -1    0    0    0    0  0.00000000000E+00  0.00000000000E+00  0.49999998884E+03  0.50000000000E+03  0.10566000000E+00 0. -1.
        994   -1    0    0    0    0 -0.00000000000E+00 -0.00000000000E+00  0.00000000000E+00  0.13100000000E+03  0.13100000000E+03 0.  0.
         13    1    1    2    0    0 -0.14239268164E+02 -0.18648828003E+02  0.37421128179E+02  0.44168852622E+02  0.10566000000E+00 0.  1.
        994    1    1    2    0    0 -0.10935700653E+01  0.41292091871E+02  0.93513819743E+02  0.16616879138E+03  0.13100000000E+03 0.  0.
        997    1    1    2    0    0  0.15332838229E+02 -0.22643263868E+02  0.36906504091E+03  0.42066235600E+03  0.20000000000E+03 0.  0.
</event>
<event>
 5    1  0.8566659E-012  0.2440839E+03  0.7957747E-01  0.4398992E+00
         13   -1    0    0    0    0  0.00000000000E+00  0.00000000000E+00  0.49999998884E+03  0.50000000000E+03  0.10566000000E+00 0.  1.
        994   -1    0    0    0    0 -0.00000000000E+00 -0.00000000000E+00  0.00000000000E+00  0.13100000000E+03  0.13100000000E+03 0.  0.
         13    1    1    2    0    0 -0.13090221785E+02 -0.20451835627E+02  0.10480223712E+02  0.26447641483E+02  0.10566000000E+00 0. -1.
        994    1    1    2    0    0 -0.11672629502E+02 -0.50362309245E+02  0.18202453773E+03  0.23014461716E+03  0.13100000000E+03 0.  0.
        997    1    1    2    0    0  0.24762851288E+02  0.70814144873E+02  0.30749522740E+03  0.37440774136E+03  0.20000000000E+03 0.  0.
</event>
<event>
 5    1  0.8566659E-012  0.2308866E+03  0.7957747E-01  0.4559478E+00
         13   -1    0    0    0    0  0.00000000000E+00  0.00000000000E+00  0.49999998884E+03  0.50000000000E+03  0.10566000000E+00 0. -1.
        994   -1    0    0    0    0 -0.00000000000E+00 -0.00000000000E+00  0.00000000000E+00  0.13100000000E+03  0.13100000000E+03 0.  0.
         13    1    1    2    0    0  0.61675669627E+01 -0.16320670466E+02  0.33192594521E+02  0.37498835472E+02  0.10566000000E+00 0.  1.
        994    1    1    2    0    0 -0.11716382365E+02  0.21660112696E+02  0.73548103394E+02  0.15223914612E+03  0.13100000000E+03 0.  0.
        997    1    1    2    0    0  0.55488154020E+01 -0.53394422298E+01  0.39325929092E+03  0.44126201841E+03  0.20000000000E+03 0.  0.
</event>
<event>
 5    1  0.8566659E-012  0.2314115E+03  0.7957747E-01  0.4552675E+00
         13   -1    0    0    0    0  0.00000000000E+00  0.00000000000E+00  0.49999998884E+03  0.50000000000E+03  0.10566000000E+00 0. -1.
        994   -1    0    0    0    0 -0.00000000000E+00 -0.00000000000E+00  0.00000000000E+00  0.13100000000E+03  0.13100000000E+03 0.  0.
         13    1    1    2    0    0  0.62982961942E+01  0.19737901088E+02  0.35777734447E+02  0.41343811151E+02  0.10566000000E+00 0.  1.
        994    1    1    2    0    0 -0.48847551220E+02 -0.40943701589E+02  0.12009381913E+03  0.18880147074E+03  0.13100000000E+03 0.  0.
        997    1    1    2    0    0  0.42549255026E+02  0.21205800501E+02  0.34412843525E+03  0.40085471811E+03  0.20000000000E+03 0.  0.
</event>
<event>
 5    1  0.8566659E-012  0.2432152E+03  0.7957747E-01  0.4408921E+00
         13   -1    0    0    0    0  0.00000000000E+00  0.00000000000E+00  0.49999998884E+03  0.50000000000E+03  0.10566000000E+00 0.  1.
        994   -1    0    0    0    0 -0.00000000000E+00 -0.00000000000E+00  0.00000000000E+00  0.13100000000E+03  0.13100000000E+03 0.  0.
         13    1    1    2    0    0  0.18388884193E+02 -0.29722155856E+02  0.53778445117E+02  0.64138053711E+02  0.10566000000E+00 0. -1.
        994    1    1    2    0    0  0.10647284886E+02  0.13875235784E+02  0.10027839974E+03  0.16589950060E+03  0.13100000000E+03 0.  0.
        997    1    1    2    0    0 -0.29036169079E+02  0.15846920072E+02  0.34594314398E+03  0.40096244569E+03  0.20000000000E+03 0.  0.
</event>
<event>
 5    1  0.8566659E-012  0.2524154E+03  0.7957747E-01  0.4307823E+00
         13   -1    0    0    0    0  0.00000000000E+00  0.00000000000E+00  0.49999998884E+03  0.50000000000E+03  0.10566000000E+00 0.  1.
        994   -1    0    0    0    0 -0.00000000000E+00 -0.00000000000E+00  0.00000000000E+00  0.13100000000E+03  0.13100000000E+03 0.  0.
         13    1    1    2    0    0  0.31210637341E+02  0.21184257560E+02  0.13051008552E+02  0.39915117936E+02  0.10566000000E+00 0. -1.
        994    1    1    2    0    0 -0.91939875754E+01 -0.17449487963E+02  0.16789888894E+03  0.21386923796E+03  0.13100000000E+03 0.  0.
        997    1    1    2    0    0 -0.22016649766E+02 -0.37347695972E+01  0.31905009135E+03  0.37721564411E+03  0.20000000000E+03 0.  0.
</event>
<event>
 5    1  0.8566659E-012  0.2452508E+03  0.7957747E-01  0.4385785E+00
         13   -1    0    0    0    0  0.00000000000E+00  0.00000000000E+00  0.49999998884E+03  0.50000000000E+03  0.10566000000E+00 0.  1.
        994   -1    0    0    0    0 -0.00000000000E+00 -0.00000000000E+00  0.00000000000E+00  0.13100000000E+03  0.13100000000E+03 0.  0.
         13    1    1    2    0    0  0.10182054603E+02  0.84080801041E+01 -0.54680126763E+01  0.14292668528E+02  0.10566000000E+00 0. -1.
        994    1    1    2    0    0  0.19439498699E+02 -0.71701124550E+00  0.10871490596E+03  0.17134275296E+03  0.13100000000E+03 0.  0.
        997    1    1    2    0    0 -0.29621553302E+02 -0.76910688586E+01  0.39675309556E+03  0.44536457851E+03  0.20000000000E+03 0.  0.
</event>
<event>
 5    1  0.8566659E-012  0.2452891E+03  0.7957747E-01  0.4385355E+00
         13   -1    0    0    0    0  0.00000000000E+00  0.00000000000E+00  0.49999998884E+03  0.50000000000E+03  0.10566000000E+00 0. -1.
        994   -1    0    0    0    0 -0.00000000000E+00 -0.00000000000E+00  0.00000000000E+00  0.13100000000E+03  0.13100000000E+03 0.  0.
         13    1    1    2    0    0  0.36665162324E+02 -0.11052596497E+01  0.44898625558E+02  0.57978042983E+02  0.10566000000E+00 0.  1.
        994    1    1    2    0    0 -0.20533623719E+01  0.44319229654E+02  0.14998989976E+03  0.20402544068E+03  0.13100000000E+03 0.  0.
        997    1    1    2    0    0 -0.34611799952E+02 -0.43213970005E+02  0.30511146352E+03  0.36899651634E+03  0.20000000000E+03 0.  0.
</event>
<event>
 5    1  0.8566659E-012  0.2397773E+03  0.7957747E-01  0.4449051E+00
         13   -1    0    0    0    0  0.00000000000E+00  0.00000000000E+00  0.49999998884E+03  0.50000000000E+03  0.10566000000E+00 0.  1.
        994   -1    0    0    0    0 -0.00000000000E+00 -0.00000000000E+00  0.00000000000E+00  0.13100000000E+03  0.13100000000E+03 0.  0.
         13    1    1    2    0    0 -0.17783908200E+02 -0.99164170234E+01  0.13015674706E+02  0.24166540289E+02  0.10566000000E+00 0. -1.
        994    1    1    2    0    0 -0.36252282864E+02 -0.27827461637E+02  0.11867700671E+03  0.18257553931E+03  0.13100000000E+03 0.  0.
        997    1    1    2    0    0  0.54036191064E+02  0.37743878660E+02  0.36830730742E+03  0.42425792040E+03  0.20000000000E+03 0.  0.
</event>
<event>
 5    1  0.8566659E-012  0.2366175E+03  0.7957747E-01  0.4487161E+00
         13   -1    0    0    0    0  0.00000000000E+00  0.00000000000E+00  0.49999998884E+03  0.50000000000E+03  0.10566000000E+00 0.  1.
        994   -1    0    0    0    0 -0.00000000000E+00 -0.00000000000E+00  0.00000000000E+00  0.13100000000E+03  0.13100000000E+03 0.  0.
         13    1    1    2    0    0 -0.25718949914E+02  0.75014179552E+01  0.31759955612E+02  0.41550470521E+02  0.10566000000E+00 0. -1.
        994    1    1    2    0    0  0.33274627234E+02 -0.49980956971E+01  0.92928803177E+02  0.16410040901E+03  0.13100000000E+03 0.  0.
        997    1    1    2    0    0 -0.75556773200E+01 -0.25033222580E+01  0.37531123005E+03  0.42534912047E+03  0.20000000000E+03 0.  0.
</event>
<event>
 5    1  0.8566659E-012  0.2494682E+03  0.7957747E-01  0.4339260E+00
         13   -1    0    0    0    0  0.00000000000E+00  0.00000000000E+00  0.49999998884E+03  0.50000000000E+03  0.10566000000E+00 0.  1.
        994   -1    0    0    0    0 -0.00000000000E+00 -0.00000000000E+00  0.00000000000E+00  0.13100000000E+03  0.13100000000E+03 0.  0.
         13    1    1    2    0    0 -0.57084328177E+01  0.40534714719E+02  0.53251877742E+02  0.67167127002E+02  0.10566000000E+00 0. -1.
        994    1    1    2    0    0 -0.90055006900E+01  0.64819027608E+01  0.12251720716E+03  0.17970692851E+03  0.13100000000E+03 0.  0.
        997    1    1    2    0    0  0.14713933508E+02 -0.47016617480E+02  0.32423090394E+03  0.38412594449E+03  0.20000000000E+03 0.  0.
</event>
<event>
 5    1  0.8566659E-012  0.2309115E+03  0.7957747E-01  0.4559155E+00
         13   -1    0    0    0    0  0.00000000000E+00  0.00000000000E+00  0.49999998884E+03  0.50000000000E+03  0.10566000000E+00 0. -1.
        994   -1    0    0    0    0 -0.00000000000E+00 -0.00000000000E+00  0.00000000000E+00  0.13100000000E+03  0.13100000000E+03 0.  0.
         13    1    1    2    0    0  0.93328078490E+01  0.58054788418E+01  0.38263329344E+01  0.11638594189E+02  0.10566000000E+00 0.  1.
        994    1    1    2    0    0 -0.54139613457E+02  0.40575592116E+02  0.12712039115E+03  0.19467426709E+03  0.13100000000E+03 0.  0.
        997    1    1    2    0    0  0.44806805608E+02 -0.46381070958E+02  0.36905326475E+03  0.42468713872E+03  0.20000000000E+03 0.  0.
</event>
<event>
 5    1  0.8566659E-012  0.2351703E+03  0.7957747E-01  0.4505023E+00
         13   -1    0    0    0    0  0.00000000000E+00  0.00000000000E+00  0.49999998884E+03  0.50000000000E+03  0.10566000000E+00 0.  1.
        994   -1    0    0    0    0 -0.00000000000E+00 -0.00000000000E+00  0.00000000000E+00  0.13100000000E+03  0.13100000000E+03 0.  0.
         13    1    1    2    0    0 -0.41657479549E+01  0.20201745426E+02  0.18764166696E+02  0.27884925858E+02  0.10566000000E+00 0. -1.
        994    1    1    2    0    0  0.46119523854E+02 -0.54113067886E+01  0.10314554297E+03  0.17307887149E+03  0.13100000000E+03 0.  0.
        997    1    1    2    0    0 -0.41953775899E+02 -0.14790438638E+02  0.37809027917E+03  0.43003620265E+03  0.20000000000E+03 0.  0.
</event>
<event>
 5    1  0.8566659E-012  0.2417826E+03  0.7957747E-01  0.4425480E+00
         13   -1    0    0    0    0  0.00000000000E+00  0.00000000000E+00  0.49999998884E+03  0.50000000000E+03  0.10566000000E+00 0. -1.
        994   -1    0    0    0    0 -0.00000000000E+00 -0.00000000000E+00  0.00000000000E+00  0.13100000000E+03  0.13100000000E+03 0.  0.
         13    1    1    2    0    0 -0.10913979778E+02  0.57129703014E+00 -0.49787182737E+01  0.12010001439E+02  0.10566000000E+00 0.  1.
        994    1    1    2    0    0  0.43027270605E+01  0.20430618853E+02  0.97793607776E+02  0.16480447011E+03  0.13100000000E+03 0.  0.
        997    1    1    2    0    0  0.66112527174E+01 -0.21001915883E+02  0.40718509933E+03  0.45418552845E+03  0.20000000000E+03 0.  0.
</event>
<event>
 5    1  0.8566659E-012  0.2438423E+03  0.7957747E-01  0.4401746E+00
         13   -1    0    0    0    0  0.00000000000E+00  0.00000000000E+00  0.49999998884E+03  0.50000000000E+03  0.10566000000E+00 0. -1.
        994   -1    0    0    0    0 -0.00000000000E+00 -0.00000000000E+00  0.00000000000E+00  0.13100000000E+03  0.13100000000E+03 0.  0.
         13    1    1    2    0    0  0.49758567584E+01  0.10336443481E+02 -0.88064734927E+01  0.14462584615E+02  0.10566000000E+00 0.  1.
        994    1    1    2    0    0  0.15030790697E+02 -0.49682846500E+02  0.17204556832E+03  0.22238477350E+03  0.13100000000E+03 0.  0.
        997    1    1    2    0    0 -0.20006647455E+02  0.39346403019E+02  0.33676089401E+03  0.39415264189E+03  0.20000000000E+03 0.  0.
</event>
<event>
 5    1  0.8566659E-012  0.2314735E+03  0.7957747E-01  0.4551874E+00
         13   -1    0    0    0    0  0.00000000000E+00  0.00000000000E+00  0.49999998884E+03  0.50000000000E+03  0.10566000000E+00 0.  1.
        994   -1    0    0    0    0 -0.00000000000E+00 -0.00000000000E+00  0.00000000000E+00  0.13100000000E+03  0.13100000000E+03 0.  0.
         13    1    1    2    0    0 -0.15723228421E+02 -0.36417562074E+01  0.36312629486E+02  0.39737897837E+02  0.10566000000E+00 0. -1.
        994    1    1    2    0    0 -0.58951818945E+01  0.76066285765E+01  0.69293812947E+02  0.14851008882E+03  0.13100000000E+03 0.  0.
        997    1    1    2    0    0  0.21618410316E+02 -0.39648723691E+01  0.39439354640E+03  0.44275201335E+03  0.20000000000E+03 0.  0.
</event>
<event>
 5    1  0.8566659E-012  0.2337376E+03  0.7957747E-01  0.4522968E+00
         13   -1    0    0    0    0  0.00000000000E+00  0.00000000000E+00  0.49999998884E+03  0.50000000000E+03  0.10566000000E+00 0. -1.
        994   -1    0    0    0    0 -0.00000000000E+00 -0.00000000000E+00  0.00000000000E+00  0.13100000000E+03  0.13100000000E+03 0.  0.
         13    1    1    2    0    0  0.18877628348E+02 -0.13242816525E+02  0.42978873780E+02  0.48774294428E+02  0.10566000000E+00 0.  1.
        994    1    1    2    0    0 -0.33645030594E+02  0.42513828566E+01  0.85872887361E+02  0.16026607602E+03  0.13100000000E+03 0.  0.
        997    1    1    2    0    0  0.14767402246E+02  0.89914336685E+01  0.37114822769E+03  0.42195962955E+03  0.20000000000E+03 0.  0.
</event>
<event>
 5    1  0.8566659E-012  0.2481023E+03  0.7957747E-01  0.4354126E+00
         13   -1    0    0    0    0  0.00000000000E+00  0.00000000000E+00  0.49999998884E+03  0.50000000000E+03  0.10566000000E+00 0. -1.
        994   -1    0    0    0    0 -0.00000000000E+00 -0.00000000000E+00  0.00000000000E+00  0.13100000000E+03  0.13100000000E+03 0.  0.
         13    1    1    2    0    0 -0.35446838123E+02 -0.49017679291E+01  0.18620528722E+02  0.40339074303E+02  0.10566000000E+00 0.  1.
        994    1    1    2    0    0  0.20840264102E+02  0.26097060074E+02  0.14326051168E+03  0.19697702242E+03  0.13100000000E+03 0.  0.
        997    1    1    2    0    0  0.14606574021E+02 -0.21195292145E+02  0.33811894843E+03  0.39368390328E+03  0.20000000000E+03 0.  0.
</event>
<event>
 5    1  0.8566659E-012  0.2302534E+03  0.7957747E-01  0.4567736E+00
         13   -1    0    0    0    0  0.00000000000E+00  0.00000000000E+00  0.49999998884E+03  0.50000000000E+03  0.10566000000E+00 0.  1.
        994   -1    0    0    0    0 -0.00000000000E+00 -0.00000000000E+00  0.00000000000E+00  0.13100000000E+03  0.13100000000E+03 0.  0.
         13    1    1    2    0    0 -0.12006979842E+02  0.28159274700E+01  0.11400689794E+02  0.16795353650E+02  0.10566000000E+00 0. -1.
        994    1    1    2    0    0  0.48503390442E+01  0.10951417883E+00  0.66358699993E+02  0.14692860459E+03  0.13100000000E+03 0.  0.
        997    1    1    2    0    0  0.71566407975E+01 -0.29254416488E+01  0.42224059905E+03  0.46727604176E+03  0.20000000000E+03 0.  0.
</event>
<event>
 5    1  0.8566659E-012  0.2432105E+03  0.7957747E-01  0.4408975E+00
         13   -1    0    0    0    0  0.00000000000E+00  0.00000000000E+00  0.49999998884E+03  0.50000000000E+03  0.10566000000E+00 0.  1.
        994   -1    0    0    0    0 -0.00000000000E+00 -0.00000000000E+00  0.00000000000E+00  0.13100000000E+03  0.13100000000E+03 0.  0.
         13    1    1    2    0    0 -0.17758300593E+02  0.91466052262E+01  0.42320619916E+01  0.20419087635E+02  0.10566000000E+00 0. -1.
        994    1    1    2    0    0 -0.29036307588E+02 -0.87323265210E+01  0.11075520402E+03  0.17420412137E+03  0.13100000000E+03 0.  0.
        997    1    1    2    0    0  0.46794608181E+02 -0.41427870516E+00  0.38501272283E+03  0.43637679100E+03  0.20000000000E+03 0.  0.
</event>
<event>
 5    1  0.8566659E-012  0.2317622E+03  0.7957747E-01  0.4548151E+00
         13   -1    0    0    0    0  0.00000000000E+00  0.00000000000E+00  0.49999998884E+03  0.50000000000E+03  0.10566000000E+00 0. -1.
        994   -1    0    0    0    0 -0.00000000000E+00 -0.00000000000E+00  0.00000000000E+00  0.13100000000E+03  0.13100000000E+03 0.  0.
         13    1    1    2    0    0  0.15419511236E+02  0.50202431091E+01  0.22959781128E+02  0.28109195668E+02  0.10566000000E+00 0.  1.
        994    1    1    2    0    0  0.66888319512E+01 -0.14738366415E+02  0.71611360180E+02  0.15017039264E+03  0.13100000000E+03 0.  0.
        997    1    1    2    0    0 -0.22108343187E+02  0.97181233054E+01  0.40542884753E+03  0.45272041170E+03  0.20000000000E+03 0.  0.
</event>
<event>
 5    1  0.8566659E-012  0.2390591E+03  0.7957747E-01  0.4457607E+00
         13   -1    0    0    0    0  0.00000000000E+00  0.00000000000E+00  0.49999998884E+03  0.50000000000E+03  0.10566000000E+00 0.  1.
        994   -1    0    0    0    0 -0.00000000000E+00 -0.00000000000E+00  0.00000000000E+00  0.13100000000E+03  0.13100000000E+03 0.  0.
         13    1    1    2    0    0 -0.16972127780E+02  0.13308031070E+00  0.34694627742E+01  0.17323947810E+02  0.10566000000E+00 0. -1.
        994    1    1    2    0    0 -0.52727551762E+01 -0.47301271355E+02  0.11898981735E+03  0.18326153129E+03  0.13100000000E+03 0.  0.
        997    1    1    2    0    0  0.22244882956E+02  0.47168191044E+02  0.37754070871E+03  0.43041452090E+03  0.20000000000E+03 0.  0.
</event>
<event>
 5    1  0.8566659E-012  0.2374473E+03  0.7957747E-01  0.4477035E+00
         13   -1    0    0    0    0  0.00000000000E+00  0.00000000000E+00  0.49999998884E+03  0.50000000000E+03  0.10566000000E+00 0. -1.
        994   -1    0    0    0    0 -0.00000000000E+00 -0.00000000000E+00  0.00000000000E+00  0.13100000000E+03  0.13100000000E+03 0.  0.
         13    1    1    2    0    0 -0.33408150288E+02 -0.73697166705E+01  0.43857034582E+02  0.55622548268E+02  0.10566000000E+00 0.  1.
        994    1    1    2    0    0  0.59923273599E+02  0.30791835631E+02  0.18028123305E+03  0.23281163813E+03  0.13100000000E+03 0.  0.
        997    1    1    2    0    0 -0.26515123311E+02 -0.23422118961E+02  0.27586172120E+03  0.34256581360E+03  0.20000000000E+03 0.  0.
</event>
<event>
 5    1  0.8566659E-012  0.2329688E+03  0.7957747E-01  0.4532708E+00
         13   -1    0    0    0    0  0.00000000000E+00  0.00000000000E+00  0.49999998884E+03  0.50000000000E+03  0.10566000000E+00 0. -1.
        994   -1    0    0    0    0 -0.00000000000E+00 -0.00000000000E+00  0.00000000000E+00  0.13100000000E+03  0.13100000000E+03 0.  0.
         13    1    1    2    0    0 -0.19763417827E+02 -0.78039659837E+01  0.56029862503E+02  0.59923711713E+02  0.10566000000E+00 0.  1.
        994    1    1    2    0    0  0.32731267759E+02  0.26139717406E+02  0.91485143212E+02  0.16518217865E+03  0.13100000000E+03 0.  0.
        997    1    1    2    0    0 -0.12967849932E+02 -0.18335751423E+02  0.35248498312E+03  0.40589410964E+03  0.20000000000E+03 0.  0.
</event>
<event>
 5    1  0.8566659E-012  0.2422724E+03  0.7957747E-01  0.4419792E+00
         13   -1    0    0    0    0  0.00000000000E+00  0.00000000000E+00  0.49999998884E+03  0.50000000000E+03  0.10566000000E+00 0. -1.
        994   -1    0    0    0    0 -0.00000000000E+00 -0.00000000000E+00  0.00000000000E+00  0.13100000000E+03  0.13100000000E+03 0.  0.
         13    1    1    2    0    0  0.26908272344E+02  0.57201227939E+01  0.13283238995E+02  0.30548822032E+02  0.10566000000E+00 0.  1.
        994    1    1    2    0    0 -0.34197477051E+02 -0.10439268481E+02  0.11368614468E+03  0.17709880083E+03  0.13100000000E+03 0.  0.
        997    1    1    2    0    0  0.72892047071E+01  0.47191456875E+01  0.37303060516E+03  0.42335237714E+03  0.20000000000E+03 0.  0.
</event>
<event>
 5    1  0.8566659E-012  0.2339218E+03  0.7957747E-01  0.4520647E+00
         13   -1    0    0    0    0  0.00000000000E+00  0.00000000000E+00  0.49999998884E+03  0.50000000000E+03  0.10566000000E+00 0.  1.
        994   -1    0    0    0    0 -0.00000000000E+00 -0.00000000000E+00  0.00000000000E+00  0.13100000000E+03  0.13100000000E+03 0.  0.
         13    1    1    2    0    0  0.11269281077E+02 -0.16804112992E+02  0.25081657815E+02  0.32225388007E+02  0.10566000000E+00 0. -1.
        994    1    1    2    0    0 -0.25172330830E+02 -0.21037598888E+01  0.80217633151E+02  0.15567254322E+03  0.13100000000E+03 0.  0.
        997    1    1    2    0    0  0.13903049753E+02  0.18907872881E+02  0.39470069787E+03  0.44310206877E+03  0.20000000000E+03 0.  0.
</event>
<event>
 5    1  0.8566659E-012  0.2439189E+03  0.7957747E-01  0.4400871E+00
         13   -1    0    0    0    0  0.00000000000E+00  0.00000000000E+00  0.49999998884E+03  0.50000000000E+03  0.10566000000E+00 0.  1.
        994   -1    0    0    0    0 -0.00000000000E+00 -0.00000000000E+00  0.00000000000E+00  0.13100000000E+03  0.13100000000E+03 0.  0.
         13    1    1    2    0    0  0.20038820639E+02 -0.18500580327E+02  0.86297038791E+01  0.28606096520E+02  0.10566000000E+00 0. -1.
        994    1    1    2    0    0 -0.23862227487E+02 -0.39331354470E+02  0.22341117752E+03  0.26303976047E+03  0.13100000000E+03 0.  0.
        997    1    1    2    0    0  0.38234068477E+01  0.57831934797E+02  0.26795910744E+03  0.33935414301E+03  0.20000000000E+03 0.  0.
</event>
<event>
 5    1  0.8566659E-012  0.2331854E+03  0.7957747E-01  0.4529956E+00
         13   -1    0    0    0    0  0.00000000000E+00  0.00000000000E+00  0.49999998884E+03  0.50000000000E+03  0.10566000000E+00 0.  1.
        994   -1    0    0    0    0 -0.00000000000E+00 -0.00000000000E+00  0.00000000000E+00  0.13100000000E+03  0.13100000000E+03 0.  0.
         13    1    1    2    0    0  0.14606428556E+01  0.17526940298E+02  0.44028585895E+02  0.47411545574E+02  0.10566000000E+00 0. -1.
        994    1    1    2    0    0  0.26687030719E+02  0.10416204752E+02  0.80707962756E+02  0.15651028778E+03  0.13100000000E+03 0.  0.
        997    1    1    2    0    0 -0.28147673575E+02 -0.27943145050E+02  0.37526344018E+03  0.42707816664E+03  0.20000000000E+03 0.  0.
</event>
<event>
 5    1  0.8566659E-012  0.2404601E+03  0.7957747E-01  0.4440973E+00
         13   -1    0    0    0    0  0.00000000000E+00  0.00000000000E+00  0.49999998884E+03  0.50000000000E+03  0.10566000000E+00 0. -1.
        994   -1    0    0    0    0 -0.00000000000E+00 -0.00000000000E+00  0.00000000000E+00  0.13100000000E+03  0.13100000000E+03 0.  0.
         13    1    1    2    0    0 -0.17618244610E+02 -0.30755160494E+02  0.50949156598E+02  0.62065370073E+02  0.10566000000E+00 0.  1.
        994    1    1    2    0    0  0.23000963808E+02  0.30967947531E+02  0.11042975617E+03  0.17562399938E+03  0.13100000000E+03 0.  0.
        997    1    1    2    0    0 -0.53827191980E+01 -0.21278703635E+00  0.33862107607E+03  0.39331063055E+03  0.20000000000E+03 0.  0.
</event>
<event>
 5    1  0.8566659E-012  0.2340132E+03  0.7957747E-01  0.4519497E+00
         13   -1    0    0    0    0  0.00000000000E+00  0.00000000000E+00  0.49999998884E+03  0.50000000000E+03  0.10566000000E+00 0.  1.
        994   -1    0    0    0    0 -0.00000000000E+00 -0.00000000000E+00  0.00000000000E+00  0.13100000000E+03  0.13100000000E+03 0.  0.
         13    1    1    2    0    0  0.65990687329E+01 -0.14125301341E+02  0.10164072085E+02  0.18611592396E+02  0.10566000000E+00 0. -1.
        994    1    1    2    0    0  0.84655686131E+01  0.62074106760E+01  0.74438162599E+02  0.15103720684E+03  0.13100000000E+03 0.  0.
        997    1    1    2    0    0 -0.15064637346E+02  0.79178906653E+01  0.41539775415E+03  0.46135120076E+03  0.20000000000E+03 0.  0.
</event>
<event>
 5    1  0.8566659E-012  0.2432067E+03  0.7957747E-01  0.4409018E+00
         13   -1    0    0    0    0  0.00000000000E+00  0.00000000000E+00  0.49999998884E+03  0.50000000000E+03  0.10566000000E+00 0.  1.
        994   -1    0    0    0    0 -0.00000000000E+00 -0.00000000000E+00  0.00000000000E+00  0.13100000000E+03  0.13100000000E+03 0.  0.
         13    1    1    2    0    0  0.19462038877E+02 -0.18946719759E+02  0.14265368622E+02  0.30679978044E+02  0.10566000000E+00 0. -1.
        994    1    1    2    0    0 -0.75725225826E+00  0.21694374561E+02  0.10294445926E+03  0.16801720451E+03  0.13100000000E+03 0.  0.
        997    1    1    2    0    0 -0.18704786618E+02 -0.27476548015E+01  0.38279016095E+03  0.43230281745E+03  0.20000000000E+03 0.  0.
</event>
<event>
 5    1  0.8566659E-012  0.2476248E+03  0.7957747E-01  0.4359368E+00
         13   -1    0    0    0    0  0.00000000000E+00  0.00000000000E+00  0.49999998884E+03  0.50000000000E+03  0.10566000000E+00 0. -1.
        994   -1    0    0    0    0 -0.00000000000E+00 -0.00000000000E+00  0.00000000000E+00  0.13100000000E+03  0.13100000000E+03 0.  0.
         13    1    1    2    0    0 -0.14822966210E+02  0.13055185048E+02 -0.18307637772E+01  0.19837364844E+02  0.10566000000E+00 0.  1.
        994    1    1    2    0    0 -0.34133690559E+02  0.16705885654E+02  0.15273667831E+03  0.20477716754E+03  0.13100000000E+03 0.  0.
        997    1    1    2    0    0  0.48956656770E+02 -0.29761070702E+02  0.34909407431E+03  0.40638546761E+03  0.20000000000E+03 0.  0.
</event>
<event>
 5    1  0.8566659E-012  0.2404973E+03  0.7957747E-01  0.4440534E+00
         13   -1    0    0    0    0  0.00000000000E+00  0.00000000000E+00  0.49999998884E+03  0.50000000000E+03  0.10566000000E+00 0.  1.
        994   -1    0    0    0    0 -0.00000000000E+00 -0.00000000000E+00  0.00000000000E+00  0.13100000000E+03  0.13100000000E+03 0.  0.
         13    1    1    2    0    0  0.23852920244E+02 -0.82736579848E+01  0.17913952131E+02  0.30957003498E+02  0.10566000000E+00 0. -1.
        994    1    1    2    0    0 -0.87519306769E+01 -0.23874152820E+01  0.89052200544E+02  0.15866187464E+03  0.13100000000E+03 0.  0.
        997    1    1    2    0    0 -0.15100989567E+02  0.10661073267E+02  0.39303383616E+03  0.44138112186E+03  0.20000000000E+03 0.  0.
</event>
<event>
 5    1  0.8566659E-012  0.2271212E+03  0.7957747E-01  0.4609404E+00
         13   -1    0    0    0    0  0.00000000000E+00  0.00000000000E+00  0.49999998884E+03  0.50000000000E+03  0.10566000000E+00 0. -1.
        994   -1    0    0    0    0 -0.00000000000E+00 -0.00000000000E+00  0.00000000000E+00  0.13100000000E+03  0.13100000000E+03 0.  0.
         13    1    1    2    0    0 -0.39057339165E+01 -0.10289400045E+02  0.16838330901E+02  0.20116338193E+02  0.10566000000E+00 0.  1.
        994    1    1    2    0    0  0.31719881959E+02  0.35621667935E+02  0.83803667931E+02  0.16266256145E+03  0.13100000000E+03 0.  0.
        997    1    1    2    0    0 -0.27814148043E+02 -0.25332267890E+02  0.39935799000E+03  0.44822110036E+03  0.20000000000E+03 0.  0.
</event>
<event>
 5    1  0.8566659E-012  0.2363256E+03  0.7957747E-01  0.4490742E+00
         13   -1    0    0    0    0  0.00000000000E+00  0.00000000000E+00  0.49999998884E+03  0.50000000000E+03  0.10566000000E+00 0.  1.
        994   -1    0    0    0    0 -0.00000000000E+00 -0.00000000000E+00  0.00000000000E+00  0.13100000000E+03  0.13100000000E+03 0.  0.
         13    1    1    2    0    0  0.21221799836E+02  0.21610450173E+02  0.47813909424E+02  0.56599977415E+02  0.10566000000E+00 0. -1.
        994    1    1    2    0    0 -0.55338714980E+02 -0.19566370904E+02  0.13009784266E+03  0.19373090851E+03  0.13100000000E+03 0.  0.
        997    1    1    2    0    0  0.34116915144E+02 -0.20440792689E+01  0.32208823675E+03  0.38066911408E+03  0.20000000000E+03 0.  0.
</event>
<event>
 5    1  0.8566659E-012  0.2359207E+03  0.7957747E-01  0.4495728E+00
         13   -1    0    0    0    0  0.00000000000E+00  0.00000000000E+00  0.49999998884E+03  0.50000000000E+03  0.10566000000E+00 0. -1.
        994   -1    0    0    0    0 -0.00000000000E+00 -0.00000000000E+00  0.00000000000E+00  0.13100000000E+03  0.13100000000E+03 0.  0.
         13    1    1    2    0    0  0.95546181141E+01  0.10491535525E+02  0.39652199373E+01  0.14734217936E+02  0.10566000000E+00 0.  1.
        994    1    1    2    0    0  0.63331656754E+00 -0.68981884286E+01  0.77732014400E+02  0.15248361275E+03  0.13100000000E+03 0.  0.
        997    1    1    2    0    0 -0.10187934682E+02 -0.35933470967E+01  0.41830275450E+03  0.46378216932E+03  0.20000000000E+03 0.  0.
</event>
<event>
 5    1  0.8566659E-012  0.2505773E+03  0.7957747E-01  0.4327329E+00
         13   -1    0    0    0    0  0.00000000000E+00  0.00000000000E+00  0.49999998884E+03  0.50000000000E+03  0.10566000000E+00 0. -1.
        994   -1    0    0    0    0 -0.00000000000E+00 -0.00000000000E+00  0.00000000000E+00  0.13100000000E+03  0.13100000000E+03 0.  0.
         13    1    1    2    0    0 -0.14054827489E+02  0.16094642522E+02 -0.53260644315E+01  0.22021667058E+02  0.10566000000E+00 0.  1.
        994    1    1    2    0    0  0.19190168108E+02  0.22663427474E+02  0.17113159455E+03  0.21755209985E+03  0.13100000000E+03 0.  0.
        997    1    1    2    0    0 -0.51353406192E+01 -0.38758069996E+02  0.33419445872E+03  0.39142623309E+03  0.20000000000E+03 0.  0.
</event>
<event>
 5    1  0.8566659E-012  0.2437601E+03  0.7957747E-01  0.4402683E+00
         13   -1    0    0    0    0  0.00000000000E+00  0.00000000000E+00  0.49999998884E+03  0.50000000000E+03  0.10566000000E+00 0.  1.
        994   -1    0    0    0    0 -0.00000000000E+00 -0.00000000000E+00  0.00000000000E+00  0.13100000000E+03  0.13100000000E+03 0.  0.
         13    1    1    2    0    0 -0.23614365157E+02  0.22202251906E+02  0.21795259227E+02  0.39059220682E+02  0.10566000000E+00 0. -1.
        994    1    1    2    0    0  0.42427807982E+02  0.77048986696E+01  0.13405098212E+03  0.19232823548E+03  0.13100000000E+03 0.  0.
        997    1    1    2    0    0 -0.18813442825E+02 -0.29907150575E+02  0.34415374748E+03  0.39961254384E+03  0.20000000000E+03 0.  0.
</event>
<event>
 5    1  0.8566659E-012  0.2419993E+03  0.7957747E-01  0.4422960E+00
         13   -1    0    0    0    0  0.00000000000E+00  0.00000000000E+00  0.49999998884E+03  0.50000000000E+03  0.10566000000E+00 0. -1.
        994   -1    0    0    0    0 -0.00000000000E+00 -0.00000000000E+00  0.00000000000E+00  0.13100000000E+03  0.13100000000E+03 0.  0.
         13    1    1    2    0    0  0.36191313311E+02  0.28080022117E+01  0.50945307536E+02  0.62555028252E+02  0.10566000000E+00 0.  1.
        994    1    1    2    0    0 -0.27044313932E+02 -0.28148973599E+02  0.11725259309E+03  0.18009144959E+03  0.13100000000E+03 0.  0.
        997    1    1    2    0    0 -0.91469993796E+01  0.25340971387E+02  0.33180208821E+03  0.38835352215E+03  0.20000000000E+03 0.  0.
</event>
<event>
 5    1  0.8566659E-012  0.2326500E+03  0.7957747E-01  0.4536769E+00
         13   -1    0    0    0    0  0.00000000000E+00  0.00000000000E+00  0.49999998884E+03  0.50000000000E+03  0.10566000000E+00 0.  1.
        994   -1    0    0    0    0 -0.00000000000E+00 -0.00000000000E+00  0.00000000000E+00  0.13100000000E+03  0.13100000000E+03 0.  0.
         13    1    1    2    0    0 -0.86402628901E+01  0.12944729554E+02  0.18587520638E+02  0.24243086716E+02  0.10566000000E+00 0. -1.
        994    1    1    2    0    0 -0.18593348671E+02  0.14375871712E+02  0.76528875072E+02  0.15352539537E+03  0.13100000000E+03 0.  0.
        997    1    1    2    0    0  0.27233611561E+02 -0.27320601265E+02  0.40488359313E+03  0.45323151792E+03  0.20000000000E+03 0.  0.
</event>
<event>
 5    1  0.8566659E-012  0.2506249E+03  0.7957747E-01  0.4326820E+00
         13   -1    0    0    0    0  0.00000000000E+00  0.00000000000E+00  0.49999998884E+03  0.50000000000E+03  0.10566000000E+00 0. -1.
        994   -1    0    0    0    0 -0.00000000000E+00 -0.00000000000E+00  0.00000000000E+00  0.13100000000E+03  0.13100000000E+03 0.  0.
         13    1    1    2    0    0 -0.36373904572E+02 -0.13487018615E+02  0.29115102025E+02  0.48504236258E+02  0.10566000000E+00 0.  1.
        994    1    1    2    0    0 -0.19769886214E+01  0.15708371746E+00  0.12610629776E+03  0.18184535049E+03  0.13100000000E+03 0.  0.
        997    1    1    2    0    0  0.38350893194E+02  0.13329934898E+02  0.34477858905E+03  0.40065041325E+03  0.20000000000E+03 0.  0.
</event>
<event>
 5    1  0.8566659E-012  0.2396081E+03  0.7957747E-01  0.4451061E+00
         13   -1    0    0    0    0  0.00000000000E+00  0.00000000000E+00  0.49999998884E+03  0.50000000000E+03  0.10566000000E+00 0. -1.
        994   -1    0    0    0    0 -0.00000000000E+00 -0.00000000000E+00  0.00000000000E+00  0.13100000000E+03  0.13100000000E+03 0.  0.
         13    1    1    2    0    0  0.32975969578E+02  0.12863776936E+02  0.54562333171E+02  0.65038071095E+02  0.10566000000E+00 0.  1.
        994    1    1    2    0    0 -0.34098671471E+02 -0.43897959223E+02  0.14057069612E+03  0.20002717522E+03  0.13100000000E+03 0.  0.
        997    1    1    2    0    0  0.11227018932E+01  0.31034182286E+02  0.30486695955E+03  0.36593475368E+03  0.20000000000E+03 0.  0.
</event>
<event>
 5    1  0.8566659E-012  0.2444822E+03  0.7957747E-01  0.4394467E+00
         13   -1    0    0    0    0  0.00000000000E+00  0.00000000000E+00  0.49999998884E+03  0.50000000000E+03  0.10566000000E+00 0. -1.
        994   -1    0    0    0    0 -0.00000000000E+00 -0.00000000000E+00  0.00000000000E+00  0.13100000000E+03  0.13100000000E+03 0.  0.
         13    1    1    2    0    0 -0.22387127347E+02  0.33128965802E+02  0.61083372782E+02  0.73006173988E+02  0.10566000000E+00 0.  1.
        994    1    1    2    0    0 -0.15568050425E+02 -0.46309847439E+02  0.16080268945E+03  0.21308559571E+03  0.13100000000E+03 0.  0.
        997    1    1    2    0    0  0.37955177771E+02  0.13180881637E+02  0.27811392660E+03  0.34490823030E+03  0.20000000000E+03 0.  0.
</event>
<event>
 5    1  0.8566659E-012  0.2367025E+03  0.7957747E-01  0.4486119E+00
         13   -1    0    0    0    0  0.00000000000E+00  0.00000000000E+00  0.49999998884E+03  0.50000000000E+03  0.10566000000E+00 0.  1.
        994   -1    0    0    0    0 -0.00000000000E+00 -0.00000000000E+00  0.00000000000E+00  0.13100000000E+03  0.13100000000E+03 0.  0.
         13    1    1    2    0    0  0.12825275421E+02 -0.21702868866E+02  0.27715815717E+02  0.37465715147E+02  0.10566000000E+00 0. -1.
        994    1    1    2    0    0  0.18017428774E+02  0.37570065417E+02  0.10169180539E+03  0.17099228298E+03  0.13100000000E+03 0.  0.
        997    1    1    2    0    0 -0.30842704195E+02 -0.15867196551E+02  0.37059236773E+03  0.42254200187E+03  0.20000000000E+03 0.  0.
</event>
<event>
 5    1  0.8566659E-012  0.2500122E+03  0.7957747E-01  0.4333393E+00
         13   -1    0    0    0    0  0.00000000000E+00  0.00000000000E+00  0.49999998884E+03  0.50000000000E+03  0.10566000000E+00 0.  1.
        994   -1    0    0    0    0 -0.00000000000E+00 -0.00000000000E+00  0.00000000000E+00  0.13100000000E+03  0.13100000000E+03 0.  0.
         13    1    1    2    0    0  0.27093899553E+02 -0.78824569204E+01  0.51346100361E+01  0.28680793301E+02  0.10566000000E+00 0. -1.
        994    1    1    2    0    0 -0.98812800260E+01 -0.58569935520E+01  0.12588642629E+03  0.18204487467E+03  0.13100000000E+03 0.  0.
        997    1    1    2    0    0 -0.17212619527E+02  0.13739450472E+02  0.36897895251E+03  0.42027433203E+03  0.20000000000E+03 0.  0.
</event>
<event>
 5    1  0.8566659E-012  0.2333916E+03  0.7957747E-01  0.4527342E+00
         13   -1    0    0    0    0  0.00000000000E+00  0.00000000000E+00  0.49999998884E+03  0.50000000000E+03  0.10566000000E+00 0. -1.
        994   -1    0    0    0    0 -0.00000000000E+00 -0.00000000000E+00  0.00000000000E+00  0.13100000000E+03  0.13100000000E+03 0.  0.
         13    1    1    2    0    0 -0.25481528756E+02  0.13208737595E+01  0.48315265263E+02  0.54639079757E+02  0.10566000000E+00 0.  1.
        994    1    1    2    0    0  0.62324152685E+02 -0.24007378325E+02  0.13685898849E+03  0.20087816445E+03  0.13100000000E+03 0.  0.
        997    1    1    2    0    0 -0.36842623929E+02  0.22686504565E+02  0.31482573509E+03  0.37548275580E+03  0.20000000000E+03 0.  0.
</event>
<event>
 5    1  0.8566659E-012  0.2317695E+03  0.7957747E-01  0.4548057E+00
         13   -1    0    0    0    0  0.00000000000E+00  0.00000000000E+00  0.49999998884E+03  0.50000000000E+03  0.10566000000E+00 0.  1.
        994   -1    0    0    0    0 -0.00000000000E+00 -0.00000000000E+00  0.00000000000E+00  0.13100000000E+03  0.13100000000E+03 0.  0.
         13    1    1    2    0    0  0.15005923235E+02 -0.43860551368E+01  0.11698950621E+02  0.19526695099E+02  0.10566000000E+00 0. -1.
        994    1    1    2    0    0 -0.44941836318E+02 -0.45779653153E+02  0.12243775097E+03  0.19044040579E+03  0.13100000000E+03 0.  0.
        997    1    1    2    0    0  0.29935913083E+02  0.50165708290E+02  0.36586328725E+03  0.42103289911E+03  0.20000000000E+03 0.  0.
</event>
<event>
 5    1  0.8566659E-012  0.2315669E+03  0.7957747E-01  0.4550668E+00
         13   -1    0    0    0    0  0.00000000000E+00  0.00000000000E+00  0.49999998884E+03  0.50000000000E+03  0.10566000000E+00 0.  1.
        994   -1    0    0    0    0 -0.00000000000E+00 -0.00000000000E+00  0.00000000000E+00  0.13100000000E+03  0.13100000000E+03 0.  0.
         13    1    1    2    0    0  0.64245104355E+01 -0.95334126734E+01  0.62484825462E+01  0.13084914585E+02  0.10566000000E+00 0. -1.
        994    1    1    2    0    0  0.24769859553E+02  0.12342460826E+02  0.76640661292E+02  0.15427466819E+03  0.13100000000E+03 0.  0.
        997    1    1    2    0    0 -0.31194369989E+02 -0.28090481524E+01  0.41711084500E+03  0.46364041723E+03  0.20000000000E+03 0.  0.
</event>
<event>
 5    1  0.8566659E-012  0.2363494E+03  0.7957747E-01  0.4490449E+00
         13   -1    0    0    0    0  0.00000000000E+00  0.00000000000E+00  0.49999998884E+03  0.50000000000E+03  0.10566000000E+00 0. -1.
        994   -1    0    0    0    0 -0.00000000000E+00 -0.00000000000E+00  0.00000000000E+00  0.13100000000E+03  0.13100000000E+03 0.  0.
         13    1    1    2    0    0 -0.21757342407E+02  0.16210242901E+02  0.53230574039E+02  0.59746624173E+02  0.10566000000E+00 0.  1.
        994    1    1    2    0    0  0.16474419827E+02 -0.21553958433E+02  0.87059338942E+02  0.15961299486E+03  0.13100000000E+03 0.  0.
        997    1    1    2    0    0  0.52829225804E+01  0.53437155324E+01  0.35971007586E+03  0.41164038096E+03  0.20000000000E+03 0.  0.
</event>
<event>
 5    1  0.8566659E-012  0.2349474E+03  0.7957747E-01  0.4507798E+00
         13   -1    0    0    0    0  0.00000000000E+00  0.00000000000E+00  0.49999998884E+03  0.50000000000E+03  0.10566000000E+00 0. -1.
        994   -1    0    0    0    0 -0.00000000000E+00 -0.00000000000E+00  0.00000000000E+00  0.13100000000E+03  0.13100000000E+03 0.  0.
         13    1    1    2    0    0 -0.12649094531E+02  0.11629458753E+02  0.86095052613E+01  0.19219226004E+02  0.10566000000E+00 0.  1.
        994    1    1    2    0    0  0.28016619835E+02 -0.16681974092E+02  0.87728514741E+02  0.16099848305E+03  0.13100000000E+03 0.  0.
        997    1    1    2    0    0 -0.15367525304E+02  0.50525153393E+01  0.40366196883E+03  0.45078229094E+03  0.20000000000E+03 0.  0.
</event>
<event>
 5    1  0.8566659E-012  0.2349387E+03  0.7957747E-01  0.4507906E+00
         13   -1    0    0    0    0  0.00000000000E+00  0.00000000000E+00  0.49999998884E+03  0.50000000000E+03  0.10566000000E+00 0. -1.
        994   -1    0    0    0    0 -0.00000000000E+00 -0.00000000000E+00  0.00000000000E+00  0.13100000000E+03  0.13100000000E+03 0.  0.
         13    1    1    2    0    0 -0.10977154335E+02 -0.21878995334E+02  0.63740550052E+02  0.68279259216E+02  0.10566000000E+00 0.  1.
        994    1    1    2    0    0  0.10574515438E+02  0.37539390235E+02  0.93612981632E+02  0.16566658241E+03  0.13100000000E+03 0.  0.
        997    1    1    2    0    0  0.40263889701E+00 -0.15660394901E+02  0.34264645715E+03  0.39705415838E+03  0.20000000000E+03 0.  0.
</event>
<event>
 5    1  0.8566659E-012  0.2440130E+03  0.7957747E-01  0.4399800E+00
         13   -1    0    0    0    0  0.00000000000E+00  0.00000000000E+00  0.49999998884E+03  0.50000000000E+03  0.10566000000E+00 0.  1.
        994   -1    0    0    0    0 -0.00000000000E+00 -0.00000000000E+00  0.00000000000E+00  0.13100000000E+03  0.13100000000E+03 0.  0.
         13    1    1    2    0    0 -0.19024887649E+02  0.24238217333E+02  0.15879715659E+02  0.34664305316E+02  0.10566000000E+00 0. -1.
        994    1    1    2    0    0  0.23561912149E+02 -0.27483968233E+02  0.12208122988E+03  0.18268924135E+03  0.13100000000E+03 0.  0.
        997    1    1    2    0    0 -0.45370245000E+01  0.32457508992E+01  0.36203904329E+03  0.41364645334E+03  0.20000000000E+03 0.  0.
</event>
<event>
 5    1  0.8566659E-012  0.2369252E+03  0.7957747E-01  0.4483396E+00
         13   -1    0    0    0    0  0.00000000000E+00  0.00000000000E+00  0.49999998884E+03  0.50000000000E+03  0.10566000000E+00 0. -1.
        994   -1    0    0    0    0 -0.00000000000E+00 -0.00000000000E+00  0.00000000000E+00  0.13100000000E+03  0.13100000000E+03 0.  0.
         13    1    1    2    0    0  0.24369762433E+02  0.11336265332E+02  0.24015093347E+02  0.36043475210E+02  0.10566000000E+00 0.  1.
        994    1    1    2    0    0 -0.52056770049E+02  0.18910035451E+01  0.11843174470E+03  0.18412105082E+03  0.13100000000E+03 0.  0.
        997    1    1    2    0    0  0.27687007616E+02 -0.13227268877E+02  0.35755315079E+03  0.41083547397E+03  0.20000000000E+03 0.  0.
</event>
<event>
 5    1  0.8566659E-012  0.2399326E+03  0.7957747E-01  0.4447209E+00
         13   -1    0    0    0    0  0.00000000000E+00  0.00000000000E+00  0.49999998884E+03  0.50000000000E+03  0.10566000000E+00 0. -1.
        994   -1    0    0    0    0 -0.00000000000E+00 -0.00000000000E+00  0.00000000000E+00  0.13100000000E+03  0.13100000000E+03 0.  0.
         13    1    1    2    0    0 -0.28531698814E+02 -0.52622629124E+01  0.19275022329E+02  0.34832268057E+02  0.10566000000E+00 0.  1.
        994    1    1    2    0    0  0.42090800822E+02  0.26934728316E+02  0.12782518332E+03  0.18972978837E+03  0.13100000000E+03 0.  0.
        997    1    1    2    0    0 -0.13559102008E+02 -0.21672465404E+02  0.35289978319E+03  0.40643794358E+03  0.20000000000E+03 0.  0.
</event>
<event>
 5    1  0.8566659E-012  0.2499711E+03  0.7957747E-01  0.4333834E+00
         13   -1    0    0    0    0  0.00000000000E+00  0.00000000000E+00  0.49999998884E+03  0.50000000000E+03  0.10566000000E+00 0. -1.
        994   -1    0    0    0    0 -0.00000000000E+00 -0.00000000000E+00  0.00000000000E+00  0.13100000000E+03  0.13100000000E+03 0.  0.
         13    1    1    2    0    0 -0.14879680493E+02 -0.41776806291E+02  0.79344931152E+02  0.90897391046E+02  0.10566000000E+00 0.  1.
        994    1    1    2    0    0  0.24119354079E+02  0.36232565663E+01  0.14034404383E+03  0.19352602375E+03  0.13100000000E+03 0.  0.
        997    1    1    2    0    0 -0.92396735853E+01  0.38153549725E+02  0.28031101386E+03  0.34657658521E+03  0.20000000000E+03 0.  0.
</event>
<event>
 5    1  0.8566659E-012  0.2515103E+03  0.7957747E-01  0.4317387E+00
         13   -1    0    0    0    0  0.00000000000E+00  0.00000000000E+00  0.49999998884E+03  0.50000000000E+03  0.10566000000E+00 0. -1.
        994   -1    0    0    0    0 -0.00000000000E+00 -0.00000000000E+00  0.00000000000E+00  0.13100000000E+03  0.13100000000E+03 0.  0.
         13    1    1    2    0    0  0.61282848399E+01 -0.47634354997E+02  0.63172694973E+02  0.79356084866E+02  0.10566000000E+00 0.  1.
        994    1    1    2    0    0 -0.21243614406E+02  0.13394219251E+02  0.16940354411E+03  0.21561367540E+03  0.13100000000E+03 0.  0.
        997    1    1    2    0    0  0.15115329566E+02  0.34240135746E+02  0.26742374975E+03  0.33603023973E+03  0.20000000000E+03 0.  0.
</event>
<event>
 5    1  0.8566659E-012  0.2376718E+03  0.7957747E-01  0.4474310E+00
         13   -1    0    0    0    0  0.00000000000E+00  0.00000000000E+00  0.49999998884E+03  0.50000000000E+03  0.10566000000E+00 0. -1.
        994   -1    0    0    0    0 -0.00000000000E+00 -0.00000000000E+00  0.00000000000E+00  0.13100000000E+03  0.13100000000E+03 0.  0.
         13    1    1    2    0    0 -0.14676443729E+02  0.26940058421E+02  0.36559899242E+02  0.47726325491E+02  0.10566000000E+00 0.  1.
        994    1    1    2    0    0  0.11384151721E+02 -0.46554007981E+02  0.11397294824E+03  0.18013247209E+03  0.13100000000E+03 0.  0.
        997    1    1    2    0    0  0.32922920088E+01  0.19613949560E+02  0.34946714136E+03  0.40314120242E+03  0.20000000000E+03 0.  0.
</event>
<event>
 5    1  0.8566659E-012  0.2310945E+03  0.7957747E-01  0.4556780E+00
         13   -1    0    0    0    0  0.00000000000E+00  0.00000000000E+00  0.49999998884E+03  0.50000000000E+03  0.10566000000E+00 0. -1.
        994   -1    0    0    0    0 -0.00000000000E+00 -0.00000000000E+00  0.00000000000E+00  0.13100000000E+03  0.13100000000E+03 0.  0.
         13    1    1    2    0    0 -0.14269478055E+02 -0.46621162405E+01  0.48410008941E+02  0.50684252599E+02  0.10566000000E+00 0.  1.
        994    1    1    2    0    0  0.76338402879E+01  0.53730684915E+01  0.68532259384E+02  0.14813782758E+03  0.13100000000E+03 0.  0.
        997    1    1    2    0    0  0.66356377672E+01 -0.71095225108E+00  0.38305772051E+03  0.43217791983E+03  0.20000000000E+03 0.  0.
</event>
<event>
 5    1  0.8566659E-012  0.2403039E+03  0.7957747E-01  0.4442815E+00
         13   -1    0    0    0    0  0.00000000000E+00  0.00000000000E+00  0.49999998884E+03  0.50000000000E+03  0.10566000000E+00 0. -1.
        994   -1    0    0    0    0 -0.00000000000E+00 -0.00000000000E+00  0.00000000000E+00  0.13100000000E+03  0.13100000000E+03 0.  0.
         13    1    1    2    0    0 -0.15595699535E+02  0.27722779229E+02  0.37125816344E+02  0.48888809920E+02  0.10566000000E+00 0.  1.
        994    1    1    2    0    0  0.47485148855E+02 -0.12547169993E+01  0.12445468745E+03  0.18683249960E+03  0.13100000000E+03 0.  0.
        997    1    1    2    0    0 -0.31889449319E+02 -0.26468062230E+02  0.33841948504E+03  0.39527869048E+03  0.20000000000E+03 0.  0.
</event>
<event>
 5    1  0.8566659E-012  0.2301833E+03  0.7957747E-01  0.4568653E+00
         13   -1    0    0    0    0  0.00000000000E+00  0.00000000000E+00  0.49999998884E+03  0.50000000000E+03  0.10566000000E+00 0. -1.
        994   -1    0    0    0    0 -0.00000000000E+00 -0.00000000000E+00  0.00000000000E+00  0.13100000000E+03  0.13100000000E+03 0.  0.
         13    1    1    2    0    0  0.35395446792E+01 -0.12296383546E+02  0.25272172630E+00  0.12798611532E+02  0.10566000000E+00 0.  1.
        994    1    1    2    0    0 -0.14631965772E+02  0.63044958023E+02  0.28446786260E+03  0.31979950908E+03  0.13100000000E+03 0.  0.
        997    1    1    2    0    0  0.11092421092E+02 -0.50748574478E+02  0.21527940451E+03  0.29840187939E+03  0.20000000000E+03 0.  0.
</event>
<event>
 5    1  0.8566659E-012  0.2350187E+03  0.7957747E-01  0.4506910E+00
         13   -1    0    0    0    0  0.00000000000E+00  0.00000000000E+00  0.49999998884E+03  0.50000000000E+03  0.10566000000E+00 0.  1.
        994   -1    0    0    0    0 -0.00000000000E+00 -0.00000000000E+00  0.00000000000E+00  0.13100000000E+03  0.13100000000E+03 0.  0.
         13    1    1    2    0    0  0.21162266869E+02  0.80243321177E+01  0.36233034151E+02  0.42720900889E+02  0.10566000000E+00 0. -1.
        994    1    1    2    0    0 -0.16671786364E+02  0.22481207786E+02  0.84439887812E+02  0.15834913267E+03  0.13100000000E+03 0.  0.
        997    1    1    2    0    0 -0.44904805051E+01 -0.30505539903E+02  0.37932706687E+03  0.42992996644E+03  0.20000000000E+03 0.  0.
</event>
<event>
 5    1  0.8566659E-012  0.2412646E+03  0.7957747E-01  0.4431524E+00
         13   -1    0    0    0    0  0.00000000000E+00  0.00000000000E+00  0.49999998884E+03  0.50000000000E+03  0.10566000000E+00 0.  1.
        994   -1    0    0    0    0 -0.00000000000E+00 -0.00000000000E+00  0.00000000000E+00  0.13100000000E+03  0.13100000000E+03 0.  0.
         13    1    1    2    0    0 -0.97092793521E+01 -0.22584125345E+02  0.11938806974E+02  0.27328722969E+02  0.10566000000E+00 0. -1.
        994    1    1    2    0    0  0.11855150727E+02  0.19872053714E+02  0.97722190855E+02  0.16506383524E+03  0.13100000000E+03 0.  0.
        997    1    1    2    0    0 -0.21458713754E+01  0.27120716311E+01  0.39033899101E+03  0.43860744179E+03  0.20000000000E+03 0.  0.
</event>
<event>
 5    1  0.8566659E-012  0.2386577E+03  0.7957747E-01  0.4462417E+00
         13   -1    0    0    0    0  0.00000000000E+00  0.00000000000E+00  0.49999998884E+03  0.50000000000E+03  0.10566000000E+00 0. -1.
        994   -1    0    0    0    0 -0.00000000000E+00 -0.00000000000E+00  0.00000000000E+00  0.13100000000E+03  0.13100000000E+03 0.  0.
         13    1    1    2    0    0  0.26926360773E+02  0.64984568844E+01  0.82270150242E+02  0.86808108097E+02  0.10566000000E+00 0.  1.
        994    1    1    2    0    0 -0.60701243024E+02  0.60353142346E+01  0.15297807480E+03  0.21043848814E+03  0.13100000000E+03 0.  0.
        997    1    1    2    0    0  0.33774882250E+02 -0.12533771119E+02  0.26475176380E+03  0.33375340376E+03  0.20000000000E+03 0.  0.
</event>
<event>
 5    1  0.8566659E-012  0.2441674E+03  0.7957747E-01  0.4398042E+00
         13   -1    0    0    0    0  0.00000000000E+00  0.00000000000E+00  0.49999998884E+03  0.50000000000E+03  0.10566000000E+00 0.  1.
        994   -1    0    0    0    0 -0.00000000000E+00 -0.00000000000E+00  0.00000000000E+00  0.13100000000E+03  0.13100000000E+03 0.  0.
         13    1    1    2    0    0  0.65261783988E+01  0.37210227861E+02  0.22513601235E+02  0.43978011171E+02  0.10566000000E+00 0. -1.
        994    1    1    2    0    0 -0.56673525032E+01 -0.51123316774E+02  0.18598308376E+03  0.23323040078E+03  0.13100000000E+03 0.  0.
        997    1    1    2    0    0 -0.85882589556E+00  0.13913088913E+02  0.29150330385E+03  0.35379158805E+03  0.20000000000E+03 0.  0.
</event>
<event>
 5    1  0.8566659E-012  0.2313002E+03  0.7957747E-01  0.4554115E+00
         13   -1    0    0    0    0  0.00000000000E+00  0.00000000000E+00  0.49999998884E+03  0.50000000000E+03  0.10566000000E+00 0.  1.
        994   -1    0    0    0    0 -0.00000000000E+00 -0.00000000000E+00  0.00000000000E+00  0.13100000000E+03  0.13100000000E+03 0.  0.
         13    1    1    2    0    0 -0.65287672599E+00  0.18499197598E+02  0.19876410726E+02  0.27161174996E+02  0.10566000000E+00 0. -1.
        994    1    1    2    0    0  0.23232890882E+02 -0.50606156852E+02  0.10485675084E+03  0.17679561230E+03  0.13100000000E+03 0.  0.
        997    1    1    2    0    0 -0.22580014156E+02  0.32106959254E+02  0.37526682727E+03  0.42704321271E+03  0.20000000000E+03 0.  0.
</event>
<event>
 5    1  0.8566659E-012  0.2406728E+03  0.7957747E-01  0.4438467E+00
         13   -1    0    0    0    0  0.00000000000E+00  0.00000000000E+00  0.49999998884E+03  0.50000000000E+03  0.10566000000E+00 0. -1.
        994   -1    0    0    0    0 -0.00000000000E+00 -0.00000000000E+00  0.00000000000E+00  0.13100000000E+03  0.13100000000E+03 0.  0.
         13    1    1    2    0    0 -0.20017611355E+02 -0.15079142562E+02  0.94833746260E+02  0.98089428067E+02  0.10566000000E+00 0.  1.
        994    1    1    2    0    0  0.17994256584E+02 -0.39509832801E+01  0.93114065444E+02  0.16177339930E+03  0.13100000000E+03 0.  0.
        997    1    1    2    0    0  0.20233547709E+01  0.19030125842E+02  0.31205217713E+03  0.37113717263E+03  0.20000000000E+03 0.  0.
</event>
<event>
 5    1  0.8566659E-012  0.2348841E+03  0.7957747E-01  0.4508587E+00
         13   -1    0    0    0    0  0.00000000000E+00  0.00000000000E+00  0.49999998884E+03  0.50000000000E+03  0.10566000000E+00 0.  1.
        994   -1    0    0    0    0 -0.00000000000E+00 -0.00000000000E+00  0.00000000000E+00  0.13100000000E+03  0.13100000000E+03 0.  0.
         13    1    1    2    0    0  0.81652515282E+01 -0.58996425218E+01 -0.69876466272E+00  0.10098343948E+02  0.10566000000E+00 0. -1.
        994    1    1    2    0    0 -0.27429949088E+02 -0.15680277180E+02  0.86762649090E+02  0.16027173948E+03  0.13100000000E+03 0.  0.
        997    1    1    2    0    0  0.19264697560E+02  0.21579919702E+02  0.41393610441E+03  0.46062991657E+03  0.20000000000E+03 0.  0.
</event>
<event>
 5    1  0.8566659E-012  0.2397793E+03  0.7957747E-01  0.4449027E+00
         13   -1    0    0    0    0  0.00000000000E+00  0.00000000000E+00  0.49999998884E+03  0.50000000000E+03  0.10566000000E+00 0.  1.
        994   -1    0    0    0    0 -0.00000000000E+00 -0.00000000000E+00  0.00000000000E+00  0.13100000000E+03  0.13100000000E+03 0.  0.
         13    1    1    2    0    0 -0.59847673851E+01 -0.24101908570E+02  0.15238984199E+02  0.29136870814E+02  0.10566000000E+00 0. -1.
        994    1    1    2    0    0  0.34215060357E+02  0.14622341672E+02  0.10624737638E+03  0.17272518119E+03  0.13100000000E+03 0.  0.
        997    1    1    2    0    0 -0.28230292972E+02  0.94795668974E+01  0.37851362826E+03  0.42913794799E+03  0.20000000000E+03 0.  0.
</event>
<event>
 5    1  0.8566659E-012  0.2300417E+03  0.7957747E-01  0.4570509E+00
         13   -1    0    0    0    0  0.00000000000E+00  0.00000000000E+00  0.49999998884E+03  0.50000000000E+03  0.10566000000E+00 0. -1.
        994   -1    0    0    0    0 -0.00000000000E+00 -0.00000000000E+00  0.00000000000E+00  0.13100000000E+03  0.13100000000E+03 0.  0.
         13    1    1    2    0    0 -0.90381075427E+01  0.10031843312E+02  0.38719557401E+02  0.41006591635E+02  0.10566000000E+00 0.  1.
        994    1    1    2    0    0  0.27373532073E+02  0.17517811384E+02  0.76666083025E+02  0.15522523075E+03  0.13100000000E+03 0.  0.
        997    1    1    2    0    0 -0.18335424530E+02 -0.27549654696E+02  0.38461434841E+03  0.43476817762E+03  0.20000000000E+03 0.  0.
</event>
<event>
 5    1  0.8566659E-012  0.2400189E+03  0.7957747E-01  0.4446186E+00
         13   -1    0    0    0    0  0.00000000000E+00  0.00000000000E+00  0.49999998884E+03  0.50000000000E+03  0.10566000000E+00 0.  1.
        994   -1    0    0    0    0 -0.00000000000E+00 -0.00000000000E+00  0.00000000000E+00  0.13100000000E+03  0.13100000000E+03 0.  0.
         13    1    1    2    0    0 -0.11675294546E+02 -0.24897456675E+02  0.14570387610E+02  0.31120784225E+02  0.10566000000E+00 0. -1.
        994    1    1    2    0    0 -0.19911914511E+02  0.55200540932E+02  0.15581134160E+03  0.21185315251E+03  0.13100000000E+03 0.  0.
        997    1    1    2    0    0  0.31587209057E+02 -0.30303084257E+02  0.32961825963E+03  0.38802606326E+03  0.20000000000E+03 0.  0.
</event>
<event>
 5    1  0.8566659E-012  0.2459113E+03  0.7957747E-01  0.4378375E+00
         13   -1    0    0    0    0  0.00000000000E+00  0.00000000000E+00  0.49999998884E+03  0.50000000000E+03  0.10566000000E+00 0. -1.
        994   -1    0    0    0    0 -0.00000000000E+00 -0.00000000000E+00  0.00000000000E+00  0.13100000000E+03  0.13100000000E+03 0.  0.
         13    1    1    2    0    0  0.14774554248E+02  0.14371731180E+02  0.11979878900E+01  0.20646560231E+02  0.10566000000E+00 0.  1.
        994    1    1    2    0    0  0.14761424724E+02 -0.61426875910E+01  0.10899843209E+03  0.17116451288E+03  0.13100000000E+03 0.  0.
        997    1    1    2    0    0 -0.29535978972E+02 -0.82290435886E+01  0.38980356885E+03  0.43918892689E+03  0.20000000000E+03 0.  0.
</event>
<event>
 5    1  0.8566659E-012  0.2371428E+03  0.7957747E-01  0.4480740E+00
         13   -1    0    0    0    0  0.00000000000E+00  0.00000000000E+00  0.49999998884E+03  0.50000000000E+03  0.10566000000E+00 0.  1.
        994   -1    0    0    0    0 -0.00000000000E+00 -0.00000000000E+00  0.00000000000E+00  0.13100000000E+03  0.13100000000E+03 0.  0.
         13    1    1    2    0    0  0.22247081396E+02  0.13608327553E+02  0.33660363217E+02  0.42581104088E+02  0.10566000000E+00 0. -1.
        994    1    1    2    0    0 -0.37186931435E+01 -0.24251548100E+02  0.87319140986E+02  0.15933486325E+03  0.13100000000E+03 0.  0.
        997    1    1    2    0    0 -0.18528388253E+02  0.10643220547E+02  0.37902048463E+03  0.42908403266E+03  0.20000000000E+03 0.  0.
</event>
<event>
 5    1  0.8566659E-012  0.2433909E+03  0.7957747E-01  0.4406906E+00
         13   -1    0    0    0    0  0.00000000000E+00  0.00000000000E+00  0.49999998884E+03  0.50000000000E+03  0.10566000000E+00 0.  1.
        994   -1    0    0    0    0 -0.00000000000E+00 -0.00000000000E+00  0.00000000000E+00  0.13100000000E+03  0.13100000000E+03 0.  0.
         13    1    1    2    0    0  0.73528743358E+01  0.33004757714E+02  0.82142775385E+02  0.88830318612E+02  0.10566000000E+00 0. -1.
        994    1    1    2    0    0 -0.14767023499E+02 -0.58490646527E+01  0.99988673695E+02  0.16556271140E+03  0.13100000000E+03 0.  0.
        997    1    1    2    0    0  0.74141491629E+01 -0.27155693061E+02  0.31786853976E+03  0.37660696998E+03  0.20000000000E+03 0.  0.
</event>
<event>
 5    1  0.8566659E-012  0.2422677E+03  0.7957747E-01  0.4419846E+00
         13   -1    0    0    0    0  0.00000000000E+00  0.00000000000E+00  0.49999998884E+03  0.50000000000E+03  0.10566000000E+00 0.  1.
        994   -1    0    0    0    0 -0.00000000000E+00 -0.00000000000E+00  0.00000000000E+00  0.13100000000E+03  0.13100000000E+03 0.  0.
         13    1    1    2    0    0  0.12365911834E+02  0.12426077263E+02 -0.14071993924E+00  0.17531518410E+02  0.10566000000E+00 0. -1.
        994    1    1    2    0    0 -0.33904453482E+02  0.27529545661E+02  0.12663971063E+03  0.18736596318E+03  0.13100000000E+03 0.  0.
        997    1    1    2    0    0  0.21538541648E+02 -0.39955622924E+02  0.37350099814E+03  0.42610251841E+03  0.20000000000E+03 0.  0.
</event>
<event>
 5    1  0.8566659E-012  0.2446883E+03  0.7957747E-01  0.4392133E+00
         13   -1    0    0    0    0  0.00000000000E+00  0.00000000000E+00  0.49999998884E+03  0.50000000000E+03  0.10566000000E+00 0.  1.
        994   -1    0    0    0    0 -0.00000000000E+00 -0.00000000000E+00  0.00000000000E+00  0.13100000000E+03  0.13100000000E+03 0.  0.
         13    1    1    2    0    0  0.13771482636E+02 -0.33163620424E+02  0.35067939073E+02  0.50192140505E+02  0.10566000000E+00 0. -1.
        994    1    1    2    0    0 -0.30176569319E+02  0.57652233269E+01  0.11742336184E+03  0.17858641897E+03  0.13100000000E+03 0.  0.
        997    1    1    2    0    0  0.16405086683E+02  0.27398397097E+02  0.34750868793E+03  0.40222144052E+03  0.20000000000E+03 0.  0.
</event>
<event>
 5    1  0.8566659E-012  0.2489225E+03  0.7957747E-01  0.4345176E+00
         13   -1    0    0    0    0  0.00000000000E+00  0.00000000000E+00  0.49999998884E+03  0.50000000000E+03  0.10566000000E+00 0. -1.
        994   -1    0    0    0    0 -0.00000000000E+00 -0.00000000000E+00  0.00000000000E+00  0.13100000000E+03  0.13100000000E+03 0.  0.
         13    1    1    2    0    0  0.21869020838E+02 -0.70472155523E+01 -0.16645722256E+00  0.22977297306E+02  0.10566000000E+00 0.  1.
        994    1    1    2    0    0  0.31242621524E+02  0.15800442447E+02  0.15964082057E+03  0.20945631280E+03  0.13100000000E+03 0.  0.
        997    1    1    2    0    0 -0.53111642362E+02 -0.87532268947E+01  0.34052562549E+03  0.39856638989E+03  0.20000000000E+03 0.  0.
</event>
<event>
 5    1  0.8566659E-012  0.2431685E+03  0.7957747E-01  0.4409457E+00
         13   -1    0    0    0    0  0.00000000000E+00  0.00000000000E+00  0.49999998884E+03  0.50000000000E+03  0.10566000000E+00 0. -1.
        994   -1    0    0    0    0 -0.00000000000E+00 -0.00000000000E+00  0.00000000000E+00  0.13100000000E+03  0.13100000000E+03 0.  0.
         13    1    1    2    0    0 -0.22468394634E+02  0.81222580448E+01  0.12598066695E+02  0.27009670151E+02  0.10566000000E+00 0.  1.
        994    1    1    2    0    0 -0.22886094164E+02  0.31729656121E+02  0.12276764548E+03  0.18374830383E+03  0.13100000000E+03 0.  0.
        997    1    1    2    0    0  0.45354488799E+02 -0.39851914166E+02  0.36463427666E+03  0.42024202602E+03  0.20000000000E+03 0.  0.
</event>
<event>
 5    1  0.8566659E-012  0.2487148E+03  0.7957747E-01  0.4347436E+00
         13   -1    0    0    0    0  0.00000000000E+00  0.00000000000E+00  0.49999998884E+03  0.50000000000E+03  0.10566000000E+00 0.  1.
        994   -1    0    0    0    0 -0.00000000000E+00 -0.00000000000E+00  0.00000000000E+00  0.13100000000E+03  0.13100000000E+03 0.  0.
         13    1    1    2    0    0 -0.51195919974E+01  0.37415442885E+02  0.34557032870E+02  0.51189112840E+02  0.10566000000E+00 0. -1.
        994    1    1    2    0    0  0.17772279549E+02  0.81995040966E+01  0.12490540937E+03  0.18205891101E+03  0.13100000000E+03 0.  0.
        997    1    1    2    0    0 -0.12652687552E+02 -0.45614946982E+02  0.34053754660E+03  0.39775197615E+03  0.20000000000E+03 0.  0.
</event>
<event>
 5    1  0.8566659E-012  0.2312379E+03  0.7957747E-01  0.4554921E+00
         13   -1    0    0    0    0  0.00000000000E+00  0.00000000000E+00  0.49999998884E+03  0.50000000000E+03  0.10566000000E+00 0.  1.
        994   -1    0    0    0    0 -0.00000000000E+00 -0.00000000000E+00  0.00000000000E+00  0.13100000000E+03  0.13100000000E+03 0.  0.
         13    1    1    2    0    0  0.14842654790E+02  0.12769004495E+02  0.34447410622E+02  0.39623063228E+02  0.10566000000E+00 0. -1.
        994    1    1    2    0    0 -0.27707963217E+02 -0.32395569144E+02  0.87971817669E+02  0.16345410619E+03  0.13100000000E+03 0.  0.
        997    1    1    2    0    0  0.12865308427E+02  0.19626564649E+02  0.37758076055E+03  0.42792283058E+03  0.20000000000E+03 0.  0.
</event>
<event>
 5    1  0.8566659E-012  0.2501566E+03  0.7957747E-01  0.4331840E+00
         13   -1    0    0    0    0  0.00000000000E+00  0.00000000000E+00  0.49999998884E+03  0.50000000000E+03  0.10566000000E+00 0. -1.
        994   -1    0    0    0    0 -0.00000000000E+00 -0.00000000000E+00  0.00000000000E+00  0.13100000000E+03  0.13100000000E+03 0.  0.
         13    1    1    2    0    0  0.25388516204E+02 -0.34244381869E+02  0.69908485845E+02  0.81880779197E+02  0.10566000000E+00 0.  1.
        994    1    1    2    0    0  0.60992446092E+01 -0.83862837680E+00  0.12422086614E+03  0.18063700525E+03  0.13100000000E+03 0.  0.
        997    1    1    2    0    0 -0.31487760813E+02  0.35083010246E+02  0.30587063685E+03  0.36848221555E+03  0.20000000000E+03 0.  0.
</event>
<event>
 5    1  0.8566659E-012  0.2494049E+03  0.7957747E-01  0.4339945E+00
         13   -1    0    0    0    0  0.00000000000E+00  0.00000000000E+00  0.49999998884E+03  0.50000000000E+03  0.10566000000E+00 0. -1.
        994   -1    0    0    0    0 -0.00000000000E+00 -0.00000000000E+00  0.00000000000E+00  0.13100000000E+03  0.13100000000E+03 0.  0.
         13    1    1    2    0    0 -0.37848636714E+02  0.27566400354E+02  0.58513244282E+02  0.74941554895E+02  0.10566000000E+00 0.  1.
        994    1    1    2    0    0  0.27818291166E+02 -0.57582585863E+01  0.14342687801E+03  0.19631424859E+03  0.13100000000E+03 0.  0.
        997    1    1    2    0    0  0.10030345548E+02 -0.21808141768E+02  0.29805986654E+03  0.35974419651E+03  0.20000000000E+03 0.  0.
</event>
<event>
 5    1  0.8566659E-012  0.2378093E+03  0.7957747E-01  0.4472644E+00
         13   -1    0    0    0    0  0.00000000000E+00  0.00000000000E+00  0.49999998884E+03  0.50000000000E+03  0.10566000000E+00 0.  1.
        994   -1    0    0    0    0 -0.00000000000E+00 -0.00000000000E+00  0.00000000000E+00  0.13100000000E+03  0.13100000000E+03 0.  0.
         13    1    1    2    0    0 -0.43624342571E+01 -0.13857563887E+02  0.19402380160E+01  0.14657373473E+02  0.10566000000E+00 0. -1.
        994    1    1    2    0    0 -0.10080536321E+02  0.11252333100E+02  0.84202175281E+02  0.15645842430E+03  0.13100000000E+03 0.  0.
        997    1    1    2    0    0  0.14442970578E+02  0.26052307869E+01  0.41385757554E+03  0.45988420223E+03  0.20000000000E+03 0.  0.
</event>
<event>
 5    1  0.8566659E-012  0.2533943E+03  0.7957747E-01  0.4297570E+00
         13   -1    0    0    0    0  0.00000000000E+00  0.00000000000E+00  0.49999998884E+03  0.50000000000E+03  0.10566000000E+00 0.  1.
        994   -1    0    0    0    0 -0.00000000000E+00 -0.00000000000E+00  0.00000000000E+00  0.13100000000E+03  0.13100000000E+03 0.  0.
         13    1    1    2    0    0 -0.75199434783E+01 -0.20007923935E+02 -0.83812595143E+01  0.22959164732E+02  0.10566000000E+00 0. -1.
        994    1    1    2    0    0 -0.81244569487E+01 -0.18640477661E+01  0.18433393965E+03  0.22629512320E+03  0.13100000000E+03 0.  0.
        997    1    1    2    0    0  0.15644400427E+02  0.21871971701E+02  0.32404730870E+03  0.38174571207E+03  0.20000000000E+03 0.  0.
</event>
<event>
 5    1  0.8566659E-012  0.2344265E+03  0.7957747E-01  0.4514307E+00
         13   -1    0    0    0    0  0.00000000000E+00  0.00000000000E+00  0.49999998884E+03  0.50000000000E+03  0.10566000000E+00 0. -1.
        994   -1    0    0    0    0 -0.00000000000E+00 -0.00000000000E+00  0.00000000000E+00  0.13100000000E+03  0.13100000000E+03 0.  0.
         13    1    1    2    0    0 -0.18459229740E+02  0.31794046562E+01  0.17492233360E+02  0.25628912746E+02  0.10566000000E+00 0.  1.
        994    1    1    2    0    0 -0.67596898265E+01 -0.50522821692E+02  0.10738571569E+03  0.17689245561E+03  0.13100000000E+03 0.  0.
        997    1    1    2    0    0  0.25218919567E+02  0.47343417035E+02  0.37512203979E+03  0.42847863164E+03  0.20000000000E+03 0.  0.
</event>
<event>
 5    1  0.8566659E-012  0.2366767E+03  0.7957747E-01  0.4486435E+00
         13   -1    0    0    0    0  0.00000000000E+00  0.00000000000E+00  0.49999998884E+03  0.50000000000E+03  0.10566000000E+00 0.  1.
        994   -1    0    0    0    0 -0.00000000000E+00 -0.00000000000E+00  0.00000000000E+00  0.13100000000E+03  0.13100000000E+03 0.  0.
         13    1    1    2    0    0 -0.90889190768E+01 -0.24442923049E+02  0.64955577308E+02  0.69995022142E+02  0.10566000000E+00 0. -1.
        994    1    1    2    0    0  0.38557679319E+02  0.15133364588E+02  0.10131093960E+03  0.17070623843E+03  0.13100000000E+03 0.  0.
        997    1    1    2    0    0 -0.29468760242E+02  0.93095584617E+01  0.33373347193E+03  0.39029873943E+03  0.20000000000E+03 0.  0.
</event>
<event>
 5    1  0.8566659E-012  0.2488702E+03  0.7957747E-01  0.4345745E+00
         13   -1    0    0    0    0  0.00000000000E+00  0.00000000000E+00  0.49999998884E+03  0.50000000000E+03  0.10566000000E+00 0.  1.
        994   -1    0    0    0    0 -0.00000000000E+00 -0.00000000000E+00  0.00000000000E+00  0.13100000000E+03  0.13100000000E+03 0.  0.
         13    1    1    2    0    0  0.39388015365E+02 -0.65780155383E+01  0.74669039811E+02  0.84676813315E+02  0.10566000000E+00 0. -1.
        994    1    1    2    0    0  0.97225008857E+01  0.14214179920E+02  0.12357359028E+03  0.18090882275E+03  0.13100000000E+03 0.  0.
        997    1    1    2    0    0 -0.49110516251E+02 -0.76361643819E+01  0.30175735875E+03  0.36541436393E+03  0.20000000000E+03 0.  0.
</event>
<event>
 5    1  0.8566659E-012  0.2464966E+03  0.7957747E-01  0.4371847E+00
         13   -1    0    0    0    0  0.00000000000E+00  0.00000000000E+00  0.49999998884E+03  0.50000000000E+03  0.10566000000E+00 0. -1.
        994   -1    0    0    0    0 -0.00000000000E+00 -0.00000000000E+00  0.00000000000E+00  0.13100000000E+03  0.13100000000E+03 0.  0.
         13    1    1    2    0    0  0.17863354226E+02  0.21037831404E+02  0.11988929473E+02  0.30090453109E+02  0.10566000000E+00 0.  1.
        994    1    1    2    0    0  0.35449286485E+02 -0.45188486088E+01  0.13575393045E+03  0.19200833716E+03  0.13100000000E+03 0.  0.
        997    1    1    2    0    0 -0.53312640711E+02 -0.16518982795E+02  0.35225712891E+03  0.40890120973E+03  0.20000000000E+03 0.  0.
</event>
<event>
 5    1  0.8566659E-012  0.2413175E+03  0.7957747E-01  0.4430905E+00
         13   -1    0    0    0    0  0.00000000000E+00  0.00000000000E+00  0.49999998884E+03  0.50000000000E+03  0.10566000000E+00 0. -1.
        994   -1    0    0    0    0 -0.00000000000E+00 -0.00000000000E+00  0.00000000000E+00  0.13100000000E+03  0.13100000000E+03 0.  0.
         13    1    1    2    0    0 -0.13638938325E+02 -0.66232185618E+01 -0.54723066021E+00  0.15172286847E+02  0.10566000000E+00 0.  1.
        994    1    1    2    0    0 -0.15256280192E+01  0.26626081181E+01  0.90239811443E+02  0.15910261026E+03  0.13100000000E+03 0.  0.
        997    1    1    2    0    0  0.15164566344E+02  0.39606104437E+01  0.41030740805E+03  0.45672510289E+03  0.20000000000E+03 0.  0.
</event>
<event>
 5    1  0.8566659E-012  0.2285591E+03  0.7957747E-01  0.4590102E+00
         13   -1    0    0    0    0  0.00000000000E+00  0.00000000000E+00  0.49999998884E+03  0.50000000000E+03  0.10566000000E+00 0.  1.
        994   -1    0    0    0    0 -0.00000000000E+00 -0.00000000000E+00  0.00000000000E+00  0.13100000000E+03  0.13100000000E+03 0.  0.
         13    1    1    2    0    0  0.99386385650E+01 -0.77914501896E+01  0.19708388920E+02  0.23407584036E+02  0.10566000000E+00 0. -1.
        994    1    1    2    0    0 -0.45620055596E+02 -0.18393905738E+02  0.88738209015E+02  0.16569548871E+03  0.13100000000E+03 0.  0.
        997    1    1    2    0    0  0.35681417031E+02  0.26185355928E+02  0.39155339090E+03  0.44189692725E+03  0.20000000000E+03 0.  0.
</event>
<event>
 5    1  0.8566659E-012  0.2306549E+03  0.7957747E-01  0.4562494E+00
         13   -1    0    0    0    0  0.00000000000E+00  0.00000000000E+00  0.49999998884E+03  0.50000000000E+03  0.10566000000E+00 0.  1.
        994   -1    0    0    0    0 -0.00000000000E+00 -0.00000000000E+00  0.00000000000E+00  0.13100000000E+03  0.13100000000E+03 0.  0.
         13    1    1    2    0    0  0.92943315582E+01 -0.93272798751E+01  0.17195446836E+02  0.21658192559E+02  0.10566000000E+00 0. -1.
        994    1    1    2    0    0  0.20989205220E+02 -0.58911418494E+01  0.71715475610E+02  0.15092833309E+03  0.13100000000E+03 0.  0.
        997    1    1    2    0    0 -0.30283536778E+02  0.15218421725E+02  0.41108906639E+03  0.45841347435E+03  0.20000000000E+03 0.  0.
</event>
<event>
 5    1  0.8566659E-012  0.2493579E+03  0.7957747E-01  0.4340453E+00
         13   -1    0    0    0    0  0.00000000000E+00  0.00000000000E+00  0.49999998884E+03  0.50000000000E+03  0.10566000000E+00 0.  1.
        994   -1    0    0    0    0 -0.00000000000E+00 -0.00000000000E+00  0.00000000000E+00  0.13100000000E+03  0.13100000000E+03 0.  0.
         13    1    1    2    0    0 -0.70250359106E+00  0.14883046188E+02 -0.80635375139E+01  0.16941970853E+02  0.10566000000E+00 0. -1.
        994    1    1    2    0    0 -0.24766495908E+02  0.12861605580E+02  0.14184161254E+03  0.19508675831E+03  0.13100000000E+03 0.  0.
        997    1    1    2    0    0  0.25468999499E+02 -0.27744651768E+02  0.36622191381E+03  0.41897127084E+03  0.20000000000E+03 0.  0.
</event>
<event>
 5    1  0.8566659E-012  0.2432554E+03  0.7957747E-01  0.4408459E+00
         13   -1    0    0    0    0  0.00000000000E+00  0.00000000000E+00  0.49999998884E+03  0.50000000000E+03  0.10566000000E+00 0. -1.
        994   -1    0    0    0    0 -0.00000000000E+00 -0.00000000000E+00  0.00000000000E+00  0.13100000000E+03  0.13100000000E+03 0.  0.
         13    1    1    2    0    0 -0.24693775344E+02  0.10656631075E+01  0.38879597730E+01  0.25020902738E+02  0.10566000000E+00 0.  1.
        994    1    1    2    0    0  0.45751906878E+02  0.21463820942E+02  0.15321408163E+03  0.20782080599E+03  0.13100000000E+03 0.  0.
        997    1    1    2    0    0 -0.21058131534E+02 -0.22529484050E+02  0.34289794744E+03  0.39815829128E+03  0.20000000000E+03 0.  0.
</event>
<event>
 5    1  0.8566659E-012  0.2487215E+03  0.7957747E-01  0.4347364E+00
         13   -1    0    0    0    0  0.00000000000E+00  0.00000000000E+00  0.49999998884E+03  0.50000000000E+03  0.10566000000E+00 0.  1.
        994   -1    0    0    0    0 -0.00000000000E+00 -0.00000000000E+00  0.00000000000E+00  0.13100000000E+03  0.13100000000E+03 0.  0.
         13    1    1    2    0    0  0.21333330656E+02 -0.39491056038E+01 -0.75230922148E+00  0.21709066428E+02  0.10566000000E+00 0. -1.
        994    1    1    2    0    0  0.94238044293E+01 -0.21218109605E+02  0.12914459708E+03  0.18541397795E+03  0.13100000000E+03 0.  0.
        997    1    1    2    0    0 -0.30757135086E+02  0.25167215209E+02  0.37160770098E+03  0.42387695562E+03  0.20000000000E+03 0.  0.
</event>
<event>
 5    1  0.8566659E-012  0.2372283E+03  0.7957747E-01  0.4479699E+00
         13   -1    0    0    0    0  0.00000000000E+00  0.00000000000E+00  0.49999998884E+03  0.50000000000E+03  0.10566000000E+00 0. -1.
        994   -1    0    0    0    0 -0.00000000000E+00 -0.00000000000E+00  0.00000000000E+00  0.13100000000E+03  0.13100000000E+03 0.  0.
         13    1    1    2    0    0  0.16501192736E+02 -0.13942267767E+02  0.36620892904E+01  0.21911144520E+02  0.10566000000E+00 0.  1.
        994    1    1    2    0    0 -0.30358377184E+02 -0.17089265438E+02  0.28795473693E+03  0.31826499113E+03  0.13100000000E+03 0.  0.
        997    1    1    2    0    0  0.13857184448E+02  0.31031533205E+02  0.20838316262E+03  0.29082386435E+03  0.20000000000E+03 0.  0.
</event>
<event>
 5    1  0.8566659E-012  0.2316110E+03  0.7957747E-01  0.4550100E+00
         13   -1    0    0    0    0  0.00000000000E+00  0.00000000000E+00  0.49999998884E+03  0.50000000000E+03  0.10566000000E+00 0.  1.
        994   -1    0    0    0    0 -0.00000000000E+00 -0.00000000000E+00  0.00000000000E+00  0.13100000000E+03  0.13100000000E+03 0.  0.
         13    1    1    2    0    0  0.21352557978E+02 -0.16336153262E+00  0.41510236014E+02  0.46680502109E+02  0.10566000000E+00 0. -1.
        994    1    1    2    0    0 -0.53808851987E+02  0.91849282989E+00  0.10291687440E+03  0.17506889849E+03  0.13100000000E+03 0.  0.
        997    1    1    2    0    0  0.32456294009E+02 -0.75513129727E+00  0.35557287842E+03  0.40925059940E+03  0.20000000000E+03 0.  0.
</event>
<event>
 5    1  0.8566659E-012  0.2319381E+03  0.7957747E-01  0.4545887E+00
         13   -1    0    0    0    0  0.00000000000E+00  0.00000000000E+00  0.49999998884E+03  0.50000000000E+03  0.10566000000E+00 0. -1.
        994   -1    0    0    0    0 -0.00000000000E+00 -0.00000000000E+00  0.00000000000E+00  0.13100000000E+03  0.13100000000E+03 0.  0.
         13    1    1    2    0    0 -0.68544278718E+01  0.14425527054E+02  0.14909996608E+02  0.21849443359E+02  0.10566000000E+00 0.  1.
        994    1    1    2    0    0 -0.33511376174E+02 -0.35552337961E+02  0.96940064326E+02  0.17013335105E+03  0.13100000000E+03 0.  0.
        997    1    1    2    0    0  0.40365804046E+02  0.21126810908E+02  0.38814992790E+03  0.43901720559E+03  0.20000000000E+03 0.  0.
</event>
<event>
 5    1  0.8566659E-012  0.2327527E+03  0.7957747E-01  0.4535460E+00
         13   -1    0    0    0    0  0.00000000000E+00  0.00000000000E+00  0.49999998884E+03  0.50000000000E+03  0.10566000000E+00 0.  1.
        994   -1    0    0    0    0 -0.00000000000E+00 -0.00000000000E+00  0.00000000000E+00  0.13100000000E+03  0.13100000000E+03 0.  0.
         13    1    1    2    0    0 -0.98331653942E+01  0.24020341741E+01 -0.63573749421E+00  0.10142792320E+02  0.10566000000E+00 0. -1.
        994    1    1    2    0    0  0.52345301865E+02 -0.35968571886E+02  0.12509807392E+03  0.19194868296E+03  0.13100000000E+03 0.  0.
        997    1    1    2    0    0 -0.42512136471E+02  0.33566537712E+02  0.37553765241E+03  0.42890852472E+03  0.20000000000E+03 0.  0.
</event>
<event>
 5    1  0.8566659E-012  0.2404019E+03  0.7957747E-01  0.4441659E+00
         13   -1    0    0    0    0  0.00000000000E+00  0.00000000000E+00  0.49999998884E+03  0.50000000000E+03  0.10566000000E+00 0. -1.
        994   -1    0    0    0    0 -0.00000000000E+00 -0.00000000000E+00  0.00000000000E+00  0.13100000000E+03  0.13100000000E+03 0.  0.
         13    1    1    2    0    0  0.29059138020E+02 -0.11729980475E+02  0.57242427777E+02  0.65258966022E+02  0.10566000000E+00 0.  1.
        994    1    1    2    0    0 -0.12288921885E+02 -0.74182937026E+01  0.90496533508E+02  0.15986454034E+03  0.13100000000E+03 0.  0.
        997    1    1    2    0    0 -0.16770216135E+02  0.19148274177E+02  0.35226102755E+03  0.40587649363E+03  0.20000000000E+03 0.  0.
</event>
<event>
 5    1  0.8566659E-012  0.2485628E+03  0.7957747E-01  0.4349093E+00
         13   -1    0    0    0    0  0.00000000000E+00  0.00000000000E+00  0.49999998884E+03  0.50000000000E+03  0.10566000000E+00 0. -1.
        994   -1    0    0    0    0 -0.00000000000E+00 -0.00000000000E+00  0.00000000000E+00  0.13100000000E+03  0.13100000000E+03 0.  0.
         13    1    1    2    0    0  0.18463561080E+02  0.25680305202E+02  0.12272477130E+02  0.33926479658E+02  0.10566000000E+00 0.  1.
        994    1    1    2    0    0 -0.19494121194E+02  0.31863941266E+02  0.18697192674E+03  0.23133273202E+03  0.13100000000E+03 0.  0.
        997    1    1    2    0    0  0.10305601146E+01 -0.57544246468E+02  0.30075558497E+03  0.36574078833E+03  0.20000000000E+03 0.  0.
</event>
<event>
 5    1  0.8566659E-012  0.2415675E+03  0.7957747E-01  0.4427986E+00
         13   -1    0    0    0    0  0.00000000000E+00  0.00000000000E+00  0.49999998884E+03  0.50000000000E+03  0.10566000000E+00 0. -1.
        994   -1    0    0    0    0 -0.00000000000E+00 -0.00000000000E+00  0.00000000000E+00  0.13100000000E+03  0.13100000000E+03 0.  0.
         13    1    1    2    0    0 -0.80255196123E+01 -0.14644342130E+02  0.10321115655E+01  0.16731471537E+02  0.10566000000E+00 0.  1.
        994    1    1    2    0    0  0.76324097807E+01 -0.63747128911E+01  0.92191590860E+02  0.16049666685E+03  0.13100000000E+03 0.  0.
        997    1    1    2    0    0  0.39310983161E+00  0.21019055021E+02  0.40677628641E+03  0.45377186162E+03  0.20000000000E+03 0.  0.
</event>
<event>
 5    1  0.1734534E-011  0.2425197E+03  0.7957747E-01  0.4416931E+00
         13   -1    0    0    0    0  0.00000000000E+00  0.00000000000E+00  0.49999998884E+03  0.50000000000E+03  0.10566000000E+00 0. -1.
        994   -1    0    0    0    0 -0.00000000000E+00 -0.00000000000E+00  0.00000000000E+00  0.13100000000E+03  0.13100000000E+03 0.  0.
         13    1    1    2    0    0  0.55613638905E+01  0.14216649592E+02 -0.23185123048E+01  0.15441131995E+02  0.10566000000E+00 0.  1.
        994    1    1    2    0    0 -0.27372119566E+02 -0.18950009946E+01  0.10528070475E+03  0.17028755313E+03  0.13100000000E+03 0.  0.
        997    1    1    2    0    0  0.21810755676E+02 -0.12321648597E+02  0.39703779639E+03  0.44527131488E+03  0.20000000000E+03 0.  0.
</event>
<event>
 5    1  0.8566659E-012  0.2279170E+03  0.7957747E-01  0.4598685E+00
         13   -1    0    0    0    0  0.00000000000E+00  0.00000000000E+00  0.49999998884E+03  0.50000000000E+03  0.10566000000E+00 0.  1.
        994   -1    0    0    0    0 -0.00000000000E+00 -0.00000000000E+00  0.00000000000E+00  0.13100000000E+03  0.13100000000E+03 0.  0.
         13    1    1    2    0    0 -0.89989366422E+01 -0.86521937055E+01  0.20757600248E+02  0.24222519454E+02  0.10566000000E+00 0. -1.
        994    1    1    2    0    0  0.53036437896E+01  0.52174924314E+02  0.91105379655E+02  0.16796291724E+03  0.13100000000E+03 0.  0.
        997    1    1    2    0    0  0.36952928526E+01 -0.43522730609E+02  0.38813700893E+03  0.43881456331E+03  0.20000000000E+03 0.  0.
</event>
<event>
 5    1  0.8566659E-012  0.2391031E+03  0.7957747E-01  0.4457081E+00
         13   -1    0    0    0    0  0.00000000000E+00  0.00000000000E+00  0.49999998884E+03  0.50000000000E+03  0.10566000000E+00 0.  1.
        994   -1    0    0    0    0 -0.00000000000E+00 -0.00000000000E+00  0.00000000000E+00  0.13100000000E+03  0.13100000000E+03 0.  0.
         13    1    1    2    0    0 -0.95348454169E+01  0.17742721922E+02  0.93538570968E+01  0.22208630416E+02  0.10566000000E+00 0. -1.
        994    1    1    2    0    0  0.30287963498E+02  0.16640529711E+02  0.10103252276E+03  0.16900543961E+03  0.13100000000E+03 0.  0.
        997    1    1    2    0    0 -0.20753118081E+02 -0.34383251633E+02  0.38961360898E+03  0.43978592998E+03  0.20000000000E+03 0.  0.
</event>
<event>
 5    1  0.1004117E-011  0.2431556E+03  0.7957747E-01  0.4409605E+00
         13   -1    0    0    0    0  0.00000000000E+00  0.00000000000E+00  0.49999998884E+03  0.50000000000E+03  0.10566000000E+00 0. -1.
        994   -1    0    0    0    0 -0.00000000000E+00 -0.00000000000E+00  0.00000000000E+00  0.13100000000E+03  0.13100000000E+03 0.  0.
         13    1    1    2    0    0 -0.12768975072E+02  0.90671542075E+01 -0.25944900116E+01  0.15874588255E+02  0.10566000000E+00 0.  1.
        994    1    1    2    0    0 -0.11424525465E+01 -0.26583089850E+02  0.10677905035E+03  0.17108691200E+03  0.13100000000E+03 0.  0.
        997    1    1    2    0    0  0.13911427619E+02  0.17515935643E+02  0.39581542850E+03  0.44403849974E+03  0.20000000000E+03 0.  0.
</event>
<event>
 5    1  0.8566659E-012  0.2504524E+03  0.7957747E-01  0.4328667E+00
         13   -1    0    0    0    0  0.00000000000E+00  0.00000000000E+00  0.49999998884E+03  0.50000000000E+03  0.10566000000E+00 0. -1.
        994   -1    0    0    0    0 -0.00000000000E+00 -0.00000000000E+00  0.00000000000E+00  0.13100000000E+03  0.13100000000E+03 0.  0.
         13    1    1    2    0    0 -0.31773855322E+02  0.17140854322E+01  0.12267782709E+02  0.34103161547E+02  0.10566000000E+00 0.  1.
        994    1    1    2    0    0 -0.53238468045E+01  0.10961367666E+01  0.12575707486E+03  0.18167384715E+03  0.13100000000E+03 0.  0.
        997    1    1    2    0    0  0.37097702126E+02 -0.28102221988E+01  0.36197513126E+03  0.41522299130E+03  0.20000000000E+03 0.  0.
</event>
<event>
 5    1  0.8566659E-012  0.2317492E+03  0.7957747E-01  0.4548318E+00
         13   -1    0    0    0    0  0.00000000000E+00  0.00000000000E+00  0.49999998884E+03  0.50000000000E+03  0.10566000000E+00 0. -1.
        994   -1    0    0    0    0 -0.00000000000E+00 -0.00000000000E+00  0.00000000000E+00  0.13100000000E+03  0.13100000000E+03 0.  0.
         13    1    1    2    0    0 -0.25940498986E+01  0.18726377852E+02  0.28873038493E+02  0.34511879667E+02  0.10566000000E+00 0.  1.
        994    1    1    2    0    0 -0.21626298584E+02 -0.31927715835E+02  0.85241996384E+02  0.16097910975E+03  0.13100000000E+03 0.  0.
        997    1    1    2    0    0  0.24220348483E+02  0.13201337983E+02  0.38588495396E+03  0.43550901058E+03  0.20000000000E+03 0.  0.
</event>
<event>
 5    1  0.9499410E-012  0.2355776E+03  0.7957747E-01  0.4499970E+00
         13   -1    0    0    0    0  0.00000000000E+00  0.00000000000E+00  0.49999998884E+03  0.50000000000E+03  0.10566000000E+00 0.  1.
        994   -1    0    0    0    0 -0.00000000000E+00 -0.00000000000E+00  0.00000000000E+00  0.13100000000E+03  0.13100000000E+03 0.  0.
         13    1    1    2    0    0  0.12770864198E+02  0.14144771286E+02  0.10163304733E+02  0.21597996533E+02  0.10566000000E+00 0. -1.
        994    1    1    2    0    0 -0.83711643319E+01 -0.42322399131E+02  0.10010380951E+03  0.17042017057E+03  0.13100000000E+03 0.  0.
        997    1    1    2    0    0 -0.43996998661E+01  0.28177627845E+02  0.38973287460E+03  0.43898183289E+03  0.20000000000E+03 0.  0.
</event>
<event>
 5    1  0.8566659E-012  0.2303731E+03  0.7957747E-01  0.4566170E+00
         13   -1    0    0    0    0  0.00000000000E+00  0.00000000000E+00  0.49999998884E+03  0.50000000000E+03  0.10566000000E+00 0. -1.
        994   -1    0    0    0    0 -0.00000000000E+00 -0.00000000000E+00  0.00000000000E+00  0.13100000000E+03  0.13100000000E+03 0.  0.
         13    1    1    2    0    0  0.55927297757E+01 -0.87003622100E+01  0.58325609691E+01  0.11874546746E+02  0.10566000000E+00 0.  1.
        994    1    1    2    0    0 -0.53992859783E+00  0.47686908819E+01  0.66568341576E+02  0.14702168560E+03  0.13100000000E+03 0.  0.
        997    1    1    2    0    0 -0.50528011778E+01  0.39316713281E+01  0.42759908629E+03  0.47210376766E+03  0.20000000000E+03 0.  0.
</event>
<event>
 5    1  0.8566659E-012  0.2317877E+03  0.7957747E-01  0.4547822E+00
         13   -1    0    0    0    0  0.00000000000E+00  0.00000000000E+00  0.49999998884E+03  0.50000000000E+03  0.10566000000E+00 0. -1.
        994   -1    0    0    0    0 -0.00000000000E+00 -0.00000000000E+00  0.00000000000E+00  0.13100000000E+03  0.13100000000E+03 0.  0.
         13    1    1    2    0    0  0.65304610351E+01 -0.15764989134E+02  0.49058801218E+02  0.51941880450E+02  0.10566000000E+00 0.  1.
        994    1    1    2    0    0 -0.50964386878E+01  0.12805483553E+02  0.70902733146E+02  0.14959328750E+03  0.13100000000E+03 0.  0.
        997    1    1    2    0    0 -0.14340223473E+01  0.29595055813E+01  0.38003845447E+03  0.42946483205E+03  0.20000000000E+03 0.  0.
</event>
<event>
 5    1  0.8566659E-012  0.2286311E+03  0.7957747E-01  0.4589144E+00
         13   -1    0    0    0    0  0.00000000000E+00  0.00000000000E+00  0.49999998884E+03  0.50000000000E+03  0.10566000000E+00 0.  1.
        994   -1    0    0    0    0 -0.00000000000E+00 -0.00000000000E+00  0.00000000000E+00  0.13100000000E+03  0.13100000000E+03 0.  0.
         13    1    1    2    0    0  0.11394952893E+02  0.31057251546E+01  0.91734833062E+01  0.14955080748E+02  0.10566000000E+00 0. -1.
        994    1    1    2    0    0 -0.38678846921E+02 -0.54351512987E+02  0.11604969639E+03  0.18729301160E+03  0.13100000000E+03 0.  0.
        997    1    1    2    0    0  0.27283894028E+02  0.51245787832E+02  0.37477680914E+03  0.42875190765E+03  0.20000000000E+03 0.  0.
</event>
<event>
 5    1  0.8566659E-012  0.2481585E+03  0.7957747E-01  0.4353510E+00
         13   -1    0    0    0    0  0.00000000000E+00  0.00000000000E+00  0.49999998884E+03  0.50000000000E+03  0.10566000000E+00 0. -1.
        994   -1    0    0    0    0 -0.00000000000E+00 -0.00000000000E+00  0.00000000000E+00  0.13100000000E+03  0.13100000000E+03 0.  0.
         13    1    1    2    0    0 -0.28408154341E+02 -0.24269457685E+02  0.28763848693E+02  0.47152942274E+02  0.10566000000E+00 0.  1.
        994    1    1    2    0    0  0.33864729322E+01 -0.25659291942E+02  0.22605480930E+03  0.26254836558E+03  0.13100000000E+03 0.  0.
        997    1    1    2    0    0  0.25021681409E+02  0.49928749627E+02  0.24518133084E+03  0.32129869214E+03  0.20000000000E+03 0.  0.
</event>
<event>
 5    1  0.8566659E-012  0.2294121E+03  0.7957747E-01  0.4578791E+00
         13   -1    0    0    0    0  0.00000000000E+00  0.00000000000E+00  0.49999998884E+03  0.50000000000E+03  0.10566000000E+00 0. -1.
        994   -1    0    0    0    0 -0.00000000000E+00 -0.00000000000E+00  0.00000000000E+00  0.13100000000E+03  0.13100000000E+03 0.  0.
         13    1    1    2    0    0  0.50864862429E+01 -0.11321440927E+02  0.20578036318E+02  0.24031523250E+02  0.10566000000E+00 0.  1.
        994    1    1    2    0    0 -0.30274642176E+01 -0.10912815159E+02  0.65900369711E+02  0.14707859736E+03  0.13100000000E+03 0.  0.
        997    1    1    2    0    0 -0.20590220254E+01  0.22234256086E+02  0.41352158281E+03  0.45988987939E+03  0.20000000000E+03 0.  0.
</event>
<event>
 5    1  0.8566659E-012  0.2304629E+03  0.7957747E-01  0.4564997E+00
         13   -1    0    0    0    0  0.00000000000E+00  0.00000000000E+00  0.49999998884E+03  0.50000000000E+03  0.10566000000E+00 0.  1.
        994   -1    0    0    0    0 -0.00000000000E+00 -0.00000000000E+00  0.00000000000E+00  0.13100000000E+03  0.13100000000E+03 0.  0.
         13    1    1    2    0    0  0.33013111271E+01 -0.11783548443E+02  0.80826648368E+01  0.14665991407E+02  0.10566000000E+00 0. -1.
        994    1    1    2    0    0 -0.39706985102E+02  0.15766826557E+02  0.86235145465E+02  0.16255072377E+03  0.13100000000E+03 0.  0.
        997    1    1    2    0    0  0.36405673975E+02 -0.39832781143E+01  0.40568217853E+03  0.45378328482E+03  0.20000000000E+03 0.  0.
</event>
<event>
 5    1  0.8566659E-012  0.2364955E+03  0.7957747E-01  0.4488656E+00
         13   -1    0    0    0    0  0.00000000000E+00  0.00000000000E+00  0.49999998884E+03  0.50000000000E+03  0.10566000000E+00 0. -1.
        994   -1    0    0    0    0 -0.00000000000E+00 -0.00000000000E+00  0.00000000000E+00  0.13100000000E+03  0.13100000000E+03 0.  0.
         13    1    1    2    0    0 -0.21397380783E+02  0.16574973603E+02  0.45336129757E+02  0.52801074608E+02  0.10566000000E+00 0.  1.
        994    1    1    2    0    0  0.12052240489E+02 -0.23110807205E+02  0.86701962858E+02  0.15924068662E+03  0.13100000000E+03 0.  0.
        997    1    1    2    0    0  0.93451402948E+01  0.65358336019E+01  0.36796189622E+03  0.41895823878E+03  0.20000000000E+03 0.  0.
</event>
<event>
 5    1  0.8566659E-012  0.2374301E+03  0.7957747E-01  0.4477244E+00
         13   -1    0    0    0    0  0.00000000000E+00  0.00000000000E+00  0.49999998884E+03  0.50000000000E+03  0.10566000000E+00 0. -1.
        994   -1    0    0    0    0 -0.00000000000E+00 -0.00000000000E+00  0.00000000000E+00  0.13100000000E+03  0.13100000000E+03 0.  0.
         13    1    1    2    0    0  0.19738965653E+02  0.13370768104E+02  0.72178296335E+02  0.76013958130E+02  0.10566000000E+00 0.  1.
        994    1    1    2    0    0 -0.27568774184E+02  0.19467943059E+02  0.95262444206E+02  0.16545383463E+03  0.13100000000E+03 0.  0.
        997    1    1    2    0    0  0.78298085313E+01 -0.32838711163E+02  0.33255924829E+03  0.38953220724E+03  0.20000000000E+03 0.  0.
</event>
<event>
 5    1  0.8566659E-012  0.2484717E+03  0.7957747E-01  0.4350086E+00
         13   -1    0    0    0    0  0.00000000000E+00  0.00000000000E+00  0.49999998884E+03  0.50000000000E+03  0.10566000000E+00 0.  1.
        994   -1    0    0    0    0 -0.00000000000E+00 -0.00000000000E+00  0.00000000000E+00  0.13100000000E+03  0.13100000000E+03 0.  0.
         13    1    1    2    0    0  0.38775706520E+02 -0.24098513105E+02  0.50750771076E+02  0.68263794788E+02  0.10566000000E+00 0. -1.
        994    1    1    2    0    0 -0.33937311630E+02  0.26026235351E+01  0.14895167624E+03  0.20126131428E+03  0.13100000000E+03 0.  0.
        997    1    1    2    0    0 -0.48383948907E+01  0.21495889570E+02  0.30029754152E+03  0.36147489093E+03  0.20000000000E+03 0.  0.
</event>
<event>
 5    1  0.8566659E-012  0.2441957E+03  0.7957747E-01  0.4397720E+00
         13   -1    0    0    0    0  0.00000000000E+00  0.00000000000E+00  0.49999998884E+03  0.50000000000E+03  0.10566000000E+00 0. -1.
        994   -1    0    0    0    0 -0.00000000000E+00 -0.00000000000E+00  0.00000000000E+00  0.13100000000E+03  0.13100000000E+03 0.  0.
         13    1    1    2    0    0 -0.11263186924E+02 -0.14709893717E+02  0.28333197992E-01  0.18527069915E+02  0.10566000000E+00 0.  1.
        994    1    1    2    0    0  0.19431159497E+02 -0.15152067988E+02  0.10885595058E+03  0.17209814962E+03  0.13100000000E+03 0.  0.
        997    1    1    2    0    0 -0.81679725729E+01  0.29861961705E+02  0.39111570505E+03  0.44037478047E+03  0.20000000000E+03 0.  0.
</event>
<event>
 5    1  0.8566659E-012  0.2415025E+03  0.7957747E-01  0.4428744E+00
         13   -1    0    0    0    0  0.00000000000E+00  0.00000000000E+00  0.49999998884E+03  0.50000000000E+03  0.10566000000E+00 0.  1.
        994   -1    0    0    0    0 -0.00000000000E+00 -0.00000000000E+00  0.00000000000E+00  0.13100000000E+03  0.13100000000E+03 0.  0.
         13    1    1    2    0    0  0.17646518683E+02 -0.26106265584E+01  0.27074252759E+01  0.18043178997E+02  0.10566000000E+00 0. -1.
        994    1    1    2    0    0  0.72175118386E+01  0.13186934684E+02  0.93839109717E+02  0.16184179385E+03  0.13100000000E+03 0.  0.
        997    1    1    2    0    0 -0.24864030521E+02 -0.10576308126E+02  0.40345345384E+03  0.45111502716E+03  0.20000000000E+03 0.  0.
</event>
<event>
 5    1  0.8566659E-012  0.2388159E+03  0.7957747E-01  0.4460519E+00
         13   -1    0    0    0    0  0.00000000000E+00  0.00000000000E+00  0.49999998884E+03  0.50000000000E+03  0.10566000000E+00 0.  1.
        994   -1    0    0    0    0 -0.00000000000E+00 -0.00000000000E+00  0.00000000000E+00  0.13100000000E+03  0.13100000000E+03 0.  0.
         13    1    1    2    0    0 -0.18030041655E+02  0.75779463335E+01  0.58697580922E+01  0.20419914222E+02  0.10566000000E+00 0. -1.
        994    1    1    2    0    0  0.38938977811E+02  0.25286593344E+02  0.11594338202E+03  0.18099592159E+03  0.13100000000E+03 0.  0.
        997    1    1    2    0    0 -0.20908936156E+02 -0.32864539677E+02  0.37818684872E+03  0.42958416419E+03  0.20000000000E+03 0.  0.
</event>
<event>
 5    1  0.8566659E-012  0.2395680E+03  0.7957747E-01  0.4451538E+00
         13   -1    0    0    0    0  0.00000000000E+00  0.00000000000E+00  0.49999998884E+03  0.50000000000E+03  0.10566000000E+00 0. -1.
        994   -1    0    0    0    0 -0.00000000000E+00 -0.00000000000E+00  0.00000000000E+00  0.13100000000E+03  0.13100000000E+03 0.  0.
         13    1    1    2    0    0  0.22561473023E+02  0.35497941006E+01  0.12396507623E+02  0.25986644039E+02  0.10566000000E+00 0.  1.
        994    1    1    2    0    0 -0.84907872970E+01  0.56453665372E+02  0.14524230776E+03  0.20375337486E+03  0.13100000000E+03 0.  0.
        997    1    1    2    0    0 -0.14070685726E+02 -0.60003459473E+02  0.34236117346E+03  0.40125998110E+03  0.20000000000E+03 0.  0.
</event>
<event>
 5    1  0.8566659E-012  0.2397436E+03  0.7957747E-01  0.4449451E+00
         13   -1    0    0    0    0  0.00000000000E+00  0.00000000000E+00  0.49999998884E+03  0.50000000000E+03  0.10566000000E+00 0. -1.
        994   -1    0    0    0    0 -0.00000000000E+00 -0.00000000000E+00  0.00000000000E+00  0.13100000000E+03  0.13100000000E+03 0.  0.
         13    1    1    2    0    0 -0.25031177306E+02 -0.17446584781E+02  0.24331031125E+02  0.39025035522E+02  0.10566000000E+00 0.  1.
        994    1    1    2    0    0  0.11033922606E+02  0.56061697008E+02  0.14679508933E+03  0.20487669358E+03  0.13100000000E+03 0.  0.
        997    1    1    2    0    0  0.13997254700E+02 -0.38615112227E+02  0.32887386838E+03  0.38709827090E+03  0.20000000000E+03 0.  0.
</event>
<event>
 5    1  0.8691501E-012  0.2431042E+03  0.7957747E-01  0.4410195E+00
         13   -1    0    0    0    0  0.00000000000E+00  0.00000000000E+00  0.49999998884E+03  0.50000000000E+03  0.10566000000E+00 0. -1.
        994   -1    0    0    0    0 -0.00000000000E+00 -0.00000000000E+00  0.00000000000E+00  0.13100000000E+03  0.13100000000E+03 0.  0.
         13    1    1    2    0    0  0.81676972432E+01 -0.73423874604E+01 -0.55839255483E+01  0.12321254824E+02  0.10566000000E+00 0.  1.
        994    1    1    2    0    0  0.32456731861E+02 -0.16106361777E+02  0.11788615800E+03  0.17991942802E+03  0.13100000000E+03 0.  0.
        997    1    1    2    0    0 -0.40624429104E+02  0.23448749238E+02  0.38769775639E+03  0.43875931715E+03  0.20000000000E+03 0.  0.
</event>
<event>
 5    1  0.8566659E-012  0.2420493E+03  0.7957747E-01  0.4422379E+00
         13   -1    0    0    0    0  0.00000000000E+00  0.00000000000E+00  0.49999998884E+03  0.50000000000E+03  0.10566000000E+00 0.  1.
        994   -1    0    0    0    0 -0.00000000000E+00 -0.00000000000E+00  0.00000000000E+00  0.13100000000E+03  0.13100000000E+03 0.  0.
         13    1    1    2    0    0  0.16159614121E+02  0.31976554657E+02  0.26660968278E+02  0.44659283131E+02  0.10566000000E+00 0. -1.
        994    1    1    2    0    0 -0.34295497006E+02 -0.42352733521E+02  0.15814145511E+03  0.21246094930E+03  0.13100000000E+03 0.  0.
        997    1    1    2    0    0  0.18135882885E+02  0.10376178864E+02  0.31519756544E+03  0.37387976757E+03  0.20000000000E+03 0.  0.
</event>
<event>
 5    1  0.8566659E-012  0.2521105E+03  0.7957747E-01  0.4311036E+00
         13   -1    0    0    0    0  0.00000000000E+00  0.00000000000E+00  0.49999998884E+03  0.50000000000E+03  0.10566000000E+00 0. -1.
        994   -1    0    0    0    0 -0.00000000000E+00 -0.00000000000E+00  0.00000000000E+00  0.13100000000E+03  0.13100000000E+03 0.  0.
         13    1    1    2    0    0 -0.46246409859E+02 -0.17055484664E+00  0.45572400434E+02  0.64927762622E+02  0.10566000000E+00 0.  1.
        994    1    1    2    0    0  0.11456669939E+02 -0.82250942135E+01  0.14519886389E+03  0.19606789012E+03  0.13100000000E+03 0.  0.
        997    1    1    2    0    0  0.34789739920E+02  0.83956490601E+01  0.30922872451E+03  0.37000434726E+03  0.20000000000E+03 0.  0.
</event>
<event>
 5    1  0.8566659E-012  0.2525860E+03  0.7957747E-01  0.4306031E+00
         13   -1    0    0    0    0  0.00000000000E+00  0.00000000000E+00  0.49999998884E+03  0.50000000000E+03  0.10566000000E+00 0.  1.
        994   -1    0    0    0    0 -0.00000000000E+00 -0.00000000000E+00  0.00000000000E+00  0.13100000000E+03  0.13100000000E+03 0.  0.
         13    1    1    2    0    0 -0.13804540711E+02  0.34828045683E+01 -0.11735827917E+02  0.18450910353E+02  0.10566000000E+00 0. -1.
        994    1    1    2    0    0  0.61082967666E+01  0.16637843337E+02  0.16201270855E+03  0.20910104460E+03  0.13100000000E+03 0.  0.
        997    1    1    2    0    0  0.76962439445E+01 -0.20120647906E+02  0.34972310820E+03  0.40344804505E+03  0.20000000000E+03 0.  0.
</event>
<event>
 5    1  0.8566659E-012  0.2409779E+03  0.7957747E-01  0.4434882E+00
         13   -1    0    0    0    0  0.00000000000E+00  0.00000000000E+00  0.49999998884E+03  0.50000000000E+03  0.10566000000E+00 0. -1.
        994   -1    0    0    0    0 -0.00000000000E+00 -0.00000000000E+00  0.00000000000E+00  0.13100000000E+03  0.13100000000E+03 0.  0.
         13    1    1    2    0    0 -0.25111921335E+02 -0.18768565262E+02  0.58286875974E+02  0.66183371854E+02  0.10566000000E+00 0.  1.
        994    1    1    2    0    0 -0.17831547068E+02  0.35369801143E+02  0.11387378867E+03  0.17803714963E+03  0.13100000000E+03 0.  0.
        997    1    1    2    0    0  0.42943468402E+02 -0.16601235881E+02  0.32783932419E+03  0.38677947851E+03  0.20000000000E+03 0.  0.
</event>
<event>
 5    1  0.8566659E-012  0.2457509E+03  0.7957747E-01  0.4380170E+00
         13   -1    0    0    0    0  0.00000000000E+00  0.00000000000E+00  0.49999998884E+03  0.50000000000E+03  0.10566000000E+00 0.  1.
        994   -1    0    0    0    0 -0.00000000000E+00 -0.00000000000E+00  0.00000000000E+00  0.13100000000E+03  0.13100000000E+03 0.  0.
         13    1    1    2    0    0 -0.13581475228E+02  0.44161547792E+01 -0.55304057088E+01  0.15315203027E+02  0.10566000000E+00 0. -1.
        994    1    1    2    0    0  0.51828003475E+01 -0.13940591999E+02  0.10773782328E+03  0.17026344320E+03  0.13100000000E+03 0.  0.
        997    1    1    2    0    0  0.83986748808E+01  0.95244372201E+01  0.39779257127E+03  0.44542135378E+03  0.20000000000E+03 0.  0.
</event>
<event>
 5    1  0.8566659E-012  0.2419995E+03  0.7957747E-01  0.4422958E+00
         13   -1    0    0    0    0  0.00000000000E+00  0.00000000000E+00  0.49999998884E+03  0.50000000000E+03  0.10566000000E+00 0.  1.
        994   -1    0    0    0    0 -0.00000000000E+00 -0.00000000000E+00  0.00000000000E+00  0.13100000000E+03  0.13100000000E+03 0.  0.
         13    1    1    2    0    0 -0.14049738298E+01  0.32330247572E+02  0.46557545095E+02  0.56699515244E+02  0.10566000000E+00 0. -1.
        994    1    1    2    0    0  0.28466477701E+02 -0.11136521476E+01  0.10445865103E+03  0.16995349467E+03  0.13100000000E+03 0.  0.
        997    1    1    2    0    0 -0.27061503871E+02 -0.31216595424E+02  0.34898379271E+03  0.40434699009E+03  0.20000000000E+03 0.  0.
</event>
<event>
 5    1  0.8566659E-012  0.2442267E+03  0.7957747E-01  0.4397368E+00
         13   -1    0    0    0    0  0.00000000000E+00  0.00000000000E+00  0.49999998884E+03  0.50000000000E+03  0.10566000000E+00 0.  1.
        994   -1    0    0    0    0 -0.00000000000E+00 -0.00000000000E+00  0.00000000000E+00  0.13100000000E+03  0.13100000000E+03 0.  0.
         13    1    1    2    0    0  0.28126973465E+02 -0.55439170596E+00  0.11826094575E+02  0.30517235513E+02  0.10566000000E+00 0. -1.
        994    1    1    2    0    0 -0.23641296061E+02  0.28375389503E+02  0.12436452707E+03  0.18436813500E+03  0.13100000000E+03 0.  0.
        997    1    1    2    0    0 -0.44856774031E+01 -0.27820997797E+02  0.36380936719E+03  0.41611462949E+03  0.20000000000E+03 0.  0.
</event>
<event>
 5    1  0.8566659E-012  0.2295663E+03  0.7957747E-01  0.4576758E+00
         13   -1    0    0    0    0  0.00000000000E+00  0.00000000000E+00  0.49999998884E+03  0.50000000000E+03  0.10566000000E+00 0. -1.
        994   -1    0    0    0    0 -0.00000000000E+00 -0.00000000000E+00  0.00000000000E+00  0.13100000000E+03  0.13100000000E+03 0.  0.
         13    1    1    2    0    0 -0.10468920304E+02 -0.12238819274E+02  0.18458711318E+02  0.24497391230E+02  0.10566000000E+00 0.  1.
        994    1    1    2    0    0  0.41770898708E+02  0.41352283071E+02  0.10456558958E+03  0.17762258251E+03  0.13100000000E+03 0.  0.
        997    1    1    2    0    0 -0.31301978404E+02 -0.29113463797E+02  0.37697568794E+03  0.42888002626E+03  0.20000000000E+03 0.  0.
</event>
<event>
 5    1  0.8566659E-012  0.2390314E+03  0.7957747E-01  0.4457939E+00
         13   -1    0    0    0    0  0.00000000000E+00  0.00000000000E+00  0.49999998884E+03  0.50000000000E+03  0.10566000000E+00 0. -1.
        994   -1    0    0    0    0 -0.00000000000E+00 -0.00000000000E+00  0.00000000000E+00  0.13100000000E+03  0.13100000000E+03 0.  0.
         13    1    1    2    0    0  0.15208945635E+02  0.19687288889E+02  0.33142630292E+02  0.41440879308E+02  0.10566000000E+00 0.  1.
        994    1    1    2    0    0  0.47366563580E+01  0.26239365568E+02  0.93765502184E+02  0.16329087427E+03  0.13100000000E+03 0.  0.
        997    1    1    2    0    0 -0.19945601993E+02 -0.45926654457E+02  0.37309185636E+03  0.42626824643E+03  0.20000000000E+03 0.  0.
</event>
<event>
 5    1  0.8566659E-012  0.2330333E+03  0.7957747E-01  0.4531887E+00
         13   -1    0    0    0    0  0.00000000000E+00  0.00000000000E+00  0.49999998884E+03  0.50000000000E+03  0.10566000000E+00 0. -1.
        994   -1    0    0    0    0 -0.00000000000E+00 -0.00000000000E+00  0.00000000000E+00  0.13100000000E+03  0.13100000000E+03 0.  0.
         13    1    1    2    0    0 -0.56918203915E+01  0.20889417938E+02  0.53603121751E+02  0.57810642849E+02  0.10566000000E+00 0.  1.
        994    1    1    2    0    0  0.41874548894E+02 -0.34926452599E+02  0.10849396249E+03  0.17862047708E+03  0.13100000000E+03 0.  0.
        997    1    1    2    0    0 -0.36182728502E+02  0.14037034661E+02  0.33790290460E+03  0.39456888007E+03  0.20000000000E+03 0.  0.
</event>
<event>
 5    1  0.8566659E-012  0.2501219E+03  0.7957747E-01  0.4332213E+00
         13   -1    0    0    0    0  0.00000000000E+00  0.00000000000E+00  0.49999998884E+03  0.50000000000E+03  0.10566000000E+00 0.  1.
        994   -1    0    0    0    0 -0.00000000000E+00 -0.00000000000E+00  0.00000000000E+00  0.13100000000E+03  0.13100000000E+03 0.  0.
         13    1    1    2    0    0  0.21421292900E+02  0.34904466530E+02  0.30986164690E+02  0.51355108212E+02  0.10566000000E+00 0. -1.
        994    1    1    2    0    0  0.21608741522E+02 -0.97369387899E+01  0.20975314101E+03  0.24843334288E+03  0.13100000000E+03 0.  0.
        997    1    1    2    0    0 -0.43030034422E+02 -0.25167527740E+02  0.25926068313E+03  0.33121154891E+03  0.20000000000E+03 0.  0.
</event>
<event>
 5    1  0.8566659E-012  0.2509644E+03  0.7957747E-01  0.4323194E+00
         13   -1    0    0    0    0  0.00000000000E+00  0.00000000000E+00  0.49999998884E+03  0.50000000000E+03  0.10566000000E+00 0.  1.
        994   -1    0    0    0    0 -0.00000000000E+00 -0.00000000000E+00  0.00000000000E+00  0.13100000000E+03  0.13100000000E+03 0.  0.
         13    1    1    2    0    0 -0.37526214916E+02 -0.16533889387E+02  0.29705158856E+02  0.50635895675E+02  0.10566000000E+00 0. -1.
        994    1    1    2    0    0 -0.62491474286E+01  0.25892070649E+02  0.16001242260E+03  0.20850521949E+03  0.13100000000E+03 0.  0.
        997    1    1    2    0    0  0.43775362345E+02 -0.93581812621E+01  0.31028240738E+03  0.37185888484E+03  0.20000000000E+03 0.  0.
</event>
<event>
 5    1  0.8566659E-012  0.2356713E+03  0.7957747E-01  0.4498809E+00
         13   -1    0    0    0    0  0.00000000000E+00  0.00000000000E+00  0.49999998884E+03  0.50000000000E+03  0.10566000000E+00 0.  1.
        994   -1    0    0    0    0 -0.00000000000E+00 -0.00000000000E+00  0.00000000000E+00  0.13100000000E+03  0.13100000000E+03 0.  0.
         13    1    1    2    0    0  0.68896592753E+01  0.19400690225E+02  0.78126784004E+02  0.80793933739E+02  0.10566000000E+00 0. -1.
        994    1    1    2    0    0 -0.92196583469E+01 -0.24984898545E+02  0.85078101083E+02  0.15845671503E+03  0.13100000000E+03 0.  0.
        997    1    1    2    0    0  0.23299990716E+01  0.55842083200E+01  0.33679510375E+03  0.39174935123E+03  0.20000000000E+03 0.  0.
</event>
<event>
 5    1  0.8911631E-012  0.2389897E+03  0.7957747E-01  0.4458438E+00
         13   -1    0    0    0    0  0.00000000000E+00  0.00000000000E+00  0.49999998884E+03  0.50000000000E+03  0.10566000000E+00 0.  1.
        994   -1    0    0    0    0 -0.00000000000E+00 -0.00000000000E+00  0.00000000000E+00  0.13100000000E+03  0.13100000000E+03 0.  0.
         13    1    1    2    0    0 -0.13432534841E+02 -0.68583864910E+01 -0.82966660758E+00  0.15105296033E+02  0.10566000000E+00 0. -1.
        994    1    1    2    0    0  0.46851228117E+02 -0.35137414939E+01  0.11760661367E+03  0.18220784707E+03  0.13100000000E+03 0.  0.
        997    1    1    2    0    0 -0.33418693276E+02  0.10372127985E+02  0.38322304177E+03  0.43368685689E+03  0.20000000000E+03 0.  0.
</event>
<event>
 5    1  0.8566659E-012  0.2305935E+03  0.7957747E-01  0.4563293E+00
         13   -1    0    0    0    0  0.00000000000E+00  0.00000000000E+00  0.49999998884E+03  0.50000000000E+03  0.10566000000E+00 0. -1.
        994   -1    0    0    0    0 -0.00000000000E+00 -0.00000000000E+00  0.00000000000E+00  0.13100000000E+03  0.13100000000E+03 0.  0.
         13    1    1    2    0    0 -0.56113759194E+01  0.92303488876E+01  0.45702758849E+01  0.11729683116E+02  0.10566000000E+00 0.  1.
        994    1    1    2    0    0  0.64079095523E+02  0.21804654247E+02  0.12582264930E+03  0.19383991464E+03  0.13100000000E+03 0.  0.
        997    1    1    2    0    0 -0.58467719604E+02 -0.31035003134E+02  0.36960706365E+03  0.42543040225E+03  0.20000000000E+03 0.  0.
</event>
<event>
 5    1  0.8566659E-012  0.2488238E+03  0.7957747E-01  0.4346250E+00
         13   -1    0    0    0    0  0.00000000000E+00  0.00000000000E+00  0.49999998884E+03  0.50000000000E+03  0.10566000000E+00 0. -1.
        994   -1    0    0    0    0 -0.00000000000E+00 -0.00000000000E+00  0.00000000000E+00  0.13100000000E+03  0.13100000000E+03 0.  0.
         13    1    1    2    0    0 -0.30208842730E+02 -0.10318108047E+02  0.14096561126E+02  0.34896442976E+02  0.10566000000E+00 0.  1.
        994    1    1    2    0    0  0.27663501140E+00  0.14354795268E+02  0.12108928021E+03  0.17896857394E+03  0.13100000000E+03 0.  0.
        997    1    1    2    0    0  0.29932207718E+02 -0.40366872205E+01  0.36481414750E+03  0.41713498309E+03  0.20000000000E+03 0.  0.
</event>
<event>
 5    1  0.8566659E-012  0.2434122E+03  0.7957747E-01  0.4406662E+00
         13   -1    0    0    0    0  0.00000000000E+00  0.00000000000E+00  0.49999998884E+03  0.50000000000E+03  0.10566000000E+00 0. -1.
        994   -1    0    0    0    0 -0.00000000000E+00 -0.00000000000E+00  0.00000000000E+00  0.13100000000E+03  0.13100000000E+03 0.  0.
         13    1    1    2    0    0 -0.35597453079E+02  0.54005932446E+01  0.72028464412E+02  0.80526119506E+02  0.10566000000E+00 0.  1.
        994    1    1    2    0    0  0.11648543342E+02 -0.26434704347E+02  0.10998645686E+03  0.17347190795E+03  0.13100000000E+03 0.  0.
        997    1    1    2    0    0  0.23948909737E+02  0.21034111102E+02  0.31798506756E+03  0.37700197254E+03  0.20000000000E+03 0.  0.
</event>
<event>
 5    1  0.8566659E-012  0.2275375E+03  0.7957747E-01  0.4603784E+00
         13   -1    0    0    0    0  0.00000000000E+00  0.00000000000E+00  0.49999998884E+03  0.50000000000E+03  0.10566000000E+00 0. -1.
        994   -1    0    0    0    0 -0.00000000000E+00 -0.00000000000E+00  0.00000000000E+00  0.13100000000E+03  0.13100000000E+03 0.  0.
         13    1    1    2    0    0 -0.93979235358E+01 -0.68224463995E+01  0.16628600485E+02  0.20282708393E+02  0.10566000000E+00 0.  1.
        994    1    1    2    0    0  0.28836189623E+02  0.33419141815E+02  0.81114411670E+02  0.16027761120E+03  0.13100000000E+03 0.  0.
        997    1    1    2    0    0 -0.19438266087E+02 -0.26596695415E+02  0.40225697668E+03  0.45043968041E+03  0.20000000000E+03 0.  0.
</event>
<event>
 5    1  0.8566659E-012  0.2358654E+03  0.7957747E-01  0.4496410E+00
         13   -1    0    0    0    0  0.00000000000E+00  0.00000000000E+00  0.49999998884E+03  0.50000000000E+03  0.10566000000E+00 0.  1.
        994   -1    0    0    0    0 -0.00000000000E+00 -0.00000000000E+00  0.00000000000E+00  0.13100000000E+03  0.13100000000E+03 0.  0.
         13    1    1    2    0    0  0.76989434442E+01 -0.25846506979E+02  0.27749865844E+02  0.38696018807E+02  0.10566000000E+00 0. -1.
        994    1    1    2    0    0 -0.37990057199E+01  0.52930995075E+02  0.11604213502E+03  0.18287399975E+03  0.13100000000E+03 0.  0.
        997    1    1    2    0    0 -0.38999377242E+01 -0.27084488097E+02  0.35620798797E+03  0.40942998144E+03  0.20000000000E+03 0.  0.
</event>
<event>
 5    1  0.8566659E-012  0.2367299E+03  0.7957747E-01  0.4485783E+00
         13   -1    0    0    0    0  0.00000000000E+00  0.00000000000E+00  0.49999998884E+03  0.50000000000E+03  0.10566000000E+00 0.  1.
        994   -1    0    0    0    0 -0.00000000000E+00 -0.00000000000E+00  0.00000000000E+00  0.13100000000E+03  0.13100000000E+03 0.  0.
         13    1    1    2    0    0 -0.26976704592E+01 -0.24744727164E+02  0.71135334267E+02  0.75364619641E+02  0.10566000000E+00 0. -1.
        994    1    1    2    0    0  0.25783691033E+02  0.22363660081E+02  0.93677417630E+02  0.16462499989E+03  0.13100000000E+03 0.  0.
        997    1    1    2    0    0 -0.23086020574E+02  0.23810670835E+01  0.33518723694E+03  0.39101038047E+03  0.20000000000E+03 0.  0.
</event>
<event>
 5    1  0.8566659E-012  0.2355382E+03  0.7957747E-01  0.4500457E+00
         13   -1    0    0    0    0  0.00000000000E+00  0.00000000000E+00  0.49999998884E+03  0.50000000000E+03  0.10566000000E+00 0.  1.
        994   -1    0    0    0    0 -0.00000000000E+00 -0.00000000000E+00  0.00000000000E+00  0.13100000000E+03  0.13100000000E+03 0.  0.
         13    1    1    2    0    0 -0.43650477014E+01 -0.12806188035E+02  0.38259640230E+01  0.14060627943E+02  0.10566000000E+00 0. -1.
        994    1    1    2    0    0 -0.28709702357E+02  0.79404591531E+00  0.86192292644E+02  0.15942079171E+03  0.13100000000E+03 0.  0.
        997    1    1    2    0    0  0.33074750059E+02  0.12012142120E+02  0.40998173217E+03  0.45751858035E+03  0.20000000000E+03 0.  0.
</event>
<event>
 5    1  0.8566659E-012  0.2263821E+03  0.7957747E-01  0.4619440E+00
         13   -1    0    0    0    0  0.00000000000E+00  0.00000000000E+00  0.49999998884E+03  0.50000000000E+03  0.10566000000E+00 0. -1.
        994   -1    0    0    0    0 -0.00000000000E+00 -0.00000000000E+00  0.00000000000E+00  0.13100000000E+03  0.13100000000E+03 0.  0.
         13    1    1    2    0    0  0.58569452098E+01 -0.83367890532E+01  0.13445372843E+02  0.16869945875E+02  0.10566000000E+00 0.  1.
        994    1    1    2    0    0 -0.45071800915E+02  0.47597205134E+02  0.10655122980E+03  0.18113841599E+03  0.13100000000E+03 0.  0.
        997    1    1    2    0    0  0.39214855705E+02 -0.39260416081E+02  0.38000338620E+03  0.43299163814E+03  0.20000000000E+03 0.  0.
</event>
<event>
 5    1  0.8566659E-012  0.2441308E+03  0.7957747E-01  0.4398458E+00
         13   -1    0    0    0    0  0.00000000000E+00  0.00000000000E+00  0.49999998884E+03  0.50000000000E+03  0.10566000000E+00 0.  1.
        994   -1    0    0    0    0 -0.00000000000E+00 -0.00000000000E+00  0.00000000000E+00  0.13100000000E+03  0.13100000000E+03 0.  0.
         13    1    1    2    0    0  0.26732535337E-01 -0.16533509008E+02 -0.44676401865E+01  0.17126838810E+02  0.10566000000E+00 0. -1.
        994    1    1    2    0    0 -0.33444173302E+02  0.30997696270E+02  0.14338653854E+03  0.19949954721E+03  0.13100000000E+03 0.  0.
        997    1    1    2    0    0  0.33417440766E+02 -0.14464187262E+02  0.36108109048E+03  0.41437361398E+03  0.20000000000E+03 0.  0.
</event>
<event>
 5    1  0.8566659E-012  0.2444840E+03  0.7957747E-01  0.4394447E+00
         13   -1    0    0    0    0  0.00000000000E+00  0.00000000000E+00  0.49999998884E+03  0.50000000000E+03  0.10566000000E+00 0.  1.
        994   -1    0    0    0    0 -0.00000000000E+00 -0.00000000000E+00  0.00000000000E+00  0.13100000000E+03  0.13100000000E+03 0.  0.
         13    1    1    2    0    0  0.15296579194E+02 -0.22666783056E+02  0.90286541623E+02  0.94336838783E+02  0.10566000000E+00 0. -1.
        994    1    1    2    0    0 -0.50106747284E+02 -0.37112338483E+01  0.19224738564E+03  0.23800108543E+03  0.13100000000E+03 0.  0.
        997    1    1    2    0    0  0.34810168090E+02  0.26378016904E+02  0.21746606157E+03  0.29866207579E+03  0.20000000000E+03 0.  0.
</event>
<event>
 5    1  0.8566659E-012  0.2304838E+03  0.7957747E-01  0.4564724E+00
         13   -1    0    0    0    0  0.00000000000E+00  0.00000000000E+00  0.49999998884E+03  0.50000000000E+03  0.10566000000E+00 0.  1.
        994   -1    0    0    0    0 -0.00000000000E+00 -0.00000000000E+00  0.00000000000E+00  0.13100000000E+03  0.13100000000E+03 0.  0.
         13    1    1    2    0    0  0.70642414577E+01  0.13204077666E+02  0.18237468373E+02  0.23598042103E+02  0.10566000000E+00 0. -1.
        994    1    1    2    0    0  0.14980631463E+02 -0.30369759204E+02  0.78569470846E+02  0.15646374450E+03  0.13100000000E+03 0.  0.
        997    1    1    2    0    0 -0.22044872921E+02  0.17165681538E+02  0.40319304962E+03  0.45093821340E+03  0.20000000000E+03 0.  0.
</event>
<event>
 5    1  0.8566659E-012  0.2468617E+03  0.7957747E-01  0.4367794E+00
         13   -1    0    0    0    0  0.00000000000E+00  0.00000000000E+00  0.49999998884E+03  0.50000000000E+03  0.10566000000E+00 0. -1.
        994   -1    0    0    0    0 -0.00000000000E+00 -0.00000000000E+00  0.00000000000E+00  0.13100000000E+03  0.13100000000E+03 0.  0.
         13    1    1    2    0    0 -0.10715339761E+02  0.15585728988E+02  0.99207743360E+02  0.10099465808E+03  0.10566000000E+00 0.  1.
        994    1    1    2    0    0 -0.38739972364E+02  0.18427817141E+02  0.16686061808E+03  0.21643436827E+03  0.13100000000E+03 0.  0.
        997    1    1    2    0    0  0.49455312125E+02 -0.34013546129E+02  0.23393162740E+03  0.31357097365E+03  0.20000000000E+03 0.  0.
</event>
<event>
 5    1  0.8566659E-012  0.2437271E+03  0.7957747E-01  0.4403060E+00
         13   -1    0    0    0    0  0.00000000000E+00  0.00000000000E+00  0.49999998884E+03  0.50000000000E+03  0.10566000000E+00 0. -1.
        994   -1    0    0    0    0 -0.00000000000E+00 -0.00000000000E+00  0.00000000000E+00  0.13100000000E+03  0.13100000000E+03 0.  0.
         13    1    1    2    0    0 -0.31233424818E+02 -0.58878517944E+01  0.25236842243E+02  0.40584516691E+02  0.10566000000E+00 0.  1.
        994    1    1    2    0    0  0.47497258802E+01  0.34977279826E+02  0.11933125363E+03  0.18068458178E+03  0.13100000000E+03 0.  0.
        997    1    1    2    0    0  0.26483698938E+02 -0.29089428032E+02  0.35543189296E+03  0.40973090153E+03  0.20000000000E+03 0.  0.
</event>
<event>
 5    1  0.8566659E-012  0.2472047E+03  0.7957747E-01  0.4363999E+00
         13   -1    0    0    0    0  0.00000000000E+00  0.00000000000E+00  0.49999998884E+03  0.50000000000E+03  0.10566000000E+00 0. -1.
        994   -1    0    0    0    0 -0.00000000000E+00 -0.00000000000E+00  0.00000000000E+00  0.13100000000E+03  0.13100000000E+03 0.  0.
         13    1    1    2    0    0 -0.25298138471E+02 -0.12870214345E+02  0.11191627767E+02  0.30510685399E+02  0.10566000000E+00 0.  1.
        994    1    1    2    0    0 -0.21060647416E+01  0.51823665480E+01  0.10987157820E+03  0.17106740229E+03  0.13100000000E+03 0.  0.
        997    1    1    2    0    0  0.27404203212E+02  0.76878477972E+01  0.37893678287E+03  0.42942191231E+03  0.20000000000E+03 0.  0.
</event>
<event>
 5    1  0.8566659E-012  0.2420116E+03  0.7957747E-01  0.4422817E+00
         13   -1    0    0    0    0  0.00000000000E+00  0.00000000000E+00  0.49999998884E+03  0.50000000000E+03  0.10566000000E+00 0. -1.
        994   -1    0    0    0    0 -0.00000000000E+00 -0.00000000000E+00  0.00000000000E+00  0.13100000000E+03  0.13100000000E+03 0.  0.
         13    1    1    2    0    0  0.14320969507E+02 -0.12306231090E+02  0.89721393183E+00  0.18903694034E+02  0.10566000000E+00 0.  1.
        994    1    1    2    0    0 -0.34954246516E+02  0.74007121394E+01  0.11260629220E+03  0.17640223052E+03  0.13100000000E+03 0.  0.
        997    1    1    2    0    0  0.20633277009E+02  0.49055189503E+01  0.38649648270E+03  0.43569407544E+03  0.20000000000E+03 0.  0.
</event>
<event>
 5    1  0.8566659E-012  0.2437177E+03  0.7957747E-01  0.4403167E+00
         13   -1    0    0    0    0  0.00000000000E+00  0.00000000000E+00  0.49999998884E+03  0.50000000000E+03  0.10566000000E+00 0.  1.
        994   -1    0    0    0    0 -0.00000000000E+00 -0.00000000000E+00  0.00000000000E+00  0.13100000000E+03  0.13100000000E+03 0.  0.
         13    1    1    2    0    0  0.17290956102E+02  0.59832378073E+01  0.13151028203E+01  0.18344398520E+02  0.10566000000E+00 0. -1.
        994    1    1    2    0    0  0.16330991000E+02  0.66499501861E+01  0.10202055791E+03  0.16697340309E+03  0.13100000000E+03 0.  0.
        997    1    1    2    0    0 -0.33621947103E+02 -0.12633187993E+02  0.39666432811E+03  0.44568219839E+03  0.20000000000E+03 0.  0.
</event>
<event>
 5    1  0.8566659E-012  0.2456773E+03  0.7957747E-01  0.4380994E+00
         13   -1    0    0    0    0  0.00000000000E+00  0.00000000000E+00  0.49999998884E+03  0.50000000000E+03  0.10566000000E+00 0. -1.
        994   -1    0    0    0    0 -0.00000000000E+00 -0.00000000000E+00  0.00000000000E+00  0.13100000000E+03  0.13100000000E+03 0.  0.
         13    1    1    2    0    0 -0.87045297677E+01  0.12360779310E+02 -0.53413600342E+01  0.16034306803E+02  0.10566000000E+00 0.  1.
        994    1    1    2    0    0  0.29943998430E+02  0.10705411140E+02  0.12371879718E+03  0.18297155420E+03  0.13100000000E+03 0.  0.
        997    1    1    2    0    0 -0.21239468663E+02 -0.23066190450E+02  0.38162255169E+03  0.43199413900E+03  0.20000000000E+03 0.  0.
</event>
<event>
 5    1  0.8566659E-012  0.2408107E+03  0.7957747E-01  0.4436846E+00
         13   -1    0    0    0    0  0.00000000000E+00  0.00000000000E+00  0.49999998884E+03  0.50000000000E+03  0.10566000000E+00 0.  1.
        994   -1    0    0    0    0 -0.00000000000E+00 -0.00000000000E+00  0.00000000000E+00  0.13100000000E+03  0.13100000000E+03 0.  0.
         13    1    1    2    0    0  0.18263273380E+01 -0.14591327302E+02 -0.11359184982E+01  0.14749365371E+02  0.10566000000E+00 0. -1.
        994    1    1    2    0    0 -0.11010067232E+02  0.12289199971E+02  0.92545138144E+02  0.16123848365E+03  0.13100000000E+03 0.  0.
        997    1    1    2    0    0  0.91837398942E+01  0.23021273310E+01  0.40859076919E+03  0.45501215098E+03  0.20000000000E+03 0.  0.
</event>
<event>
 5    1  0.8566659E-012  0.2525333E+03  0.7957747E-01  0.4306584E+00
         13   -1    0    0    0    0  0.00000000000E+00  0.00000000000E+00  0.49999998884E+03  0.50000000000E+03  0.10566000000E+00 0.  1.
        994   -1    0    0    0    0 -0.00000000000E+00 -0.00000000000E+00  0.00000000000E+00  0.13100000000E+03  0.13100000000E+03 0.  0.
         13    1    1    2    0    0  0.25837324161E+02 -0.36676433794E+02  0.36907239622E+02  0.58093748512E+02  0.10566000000E+00 0. -1.
        994    1    1    2    0    0 -0.12047118838E+02  0.38486904888E+01  0.14852286777E+03  0.19844391586E+03  0.13100000000E+03 0.  0.
        997    1    1    2    0    0 -0.13790205322E+02  0.32827743305E+02  0.31456988144E+03  0.37446233563E+03  0.20000000000E+03 0.  0.
</event>
<event>
 5    1  0.8566659E-012  0.2346803E+03  0.7957747E-01  0.4511132E+00
         13   -1    0    0    0    0  0.00000000000E+00  0.00000000000E+00  0.49999998884E+03  0.50000000000E+03  0.10566000000E+00 0.  1.
        994   -1    0    0    0    0 -0.00000000000E+00 -0.00000000000E+00  0.00000000000E+00  0.13100000000E+03  0.13100000000E+03 0.  0.
         13    1    1    2    0    0  0.17395246933E+02  0.14392483998E+02  0.32535381883E+02  0.39601773317E+02  0.10566000000E+00 0. -1.
        994    1    1    2    0    0 -0.84970929759E+01 -0.13974071523E+02  0.77596549266E+02  0.15313294787E+03  0.13100000000E+03 0.  0.
        997    1    1    2    0    0 -0.88981539575E+01 -0.41841247533E+00  0.38986805769E+03  0.43826527882E+03  0.20000000000E+03 0.  0.
</event>
<event>
 5    1  0.8566659E-012  0.2390410E+03  0.7957747E-01  0.4457824E+00
         13   -1    0    0    0    0  0.00000000000E+00  0.00000000000E+00  0.49999998884E+03  0.50000000000E+03  0.10566000000E+00 0.  1.
        994   -1    0    0    0    0 -0.00000000000E+00 -0.00000000000E+00  0.00000000000E+00  0.13100000000E+03  0.13100000000E+03 0.  0.
         13    1    1    2    0    0 -0.20181408911E+02  0.20354350149E+02  0.21962747907E+02  0.36110418099E+02  0.10566000000E+00 0. -1.
        994    1    1    2    0    0  0.54168856741E+02 -0.48211485857E+01  0.13362648611E+03  0.19487058861E+03  0.13100000000E+03 0.  0.
        997    1    1    2    0    0 -0.33987447830E+02 -0.15533201563E+02  0.34441075482E+03  0.40001899329E+03  0.20000000000E+03 0.  0.
</event>
<event>
 5    1  0.8566659E-012  0.2508639E+03  0.7957747E-01  0.4324266E+00
         13   -1    0    0    0    0  0.00000000000E+00  0.00000000000E+00  0.49999998884E+03  0.50000000000E+03  0.10566000000E+00 0.  1.
        994   -1    0    0    0    0 -0.00000000000E+00 -0.00000000000E+00  0.00000000000E+00  0.13100000000E+03  0.13100000000E+03 0.  0.
         13    1    1    2    0    0  0.39679627382E+02  0.76097362041E+01  0.10006372151E+03  0.10791265191E+03  0.10566000000E+00 0. -1.
        994    1    1    2    0    0 -0.18604164850E+02 -0.20121118111E+02  0.18664178469E+03  0.22966743378E+03  0.13100000000E+03 0.  0.
        997    1    1    2    0    0 -0.21075462531E+02  0.12511381907E+02  0.21329448263E+03  0.29341991432E+03  0.20000000000E+03 0.  0.
</event>
<event>
 5    1  0.8566659E-012  0.2330040E+03  0.7957747E-01  0.4532260E+00
         13   -1    0    0    0    0  0.00000000000E+00  0.00000000000E+00  0.49999998884E+03  0.50000000000E+03  0.10566000000E+00 0. -1.
        994   -1    0    0    0    0 -0.00000000000E+00 -0.00000000000E+00  0.00000000000E+00  0.13100000000E+03  0.13100000000E+03 0.  0.
         13    1    1    2    0    0  0.18348006680E+02 -0.79533403610E+00  0.16714694912E+02  0.24832923618E+02  0.10566000000E+00 0.  1.
        994    1    1    2    0    0 -0.29841574381E+02  0.22613537454E+02  0.87184793366E+02  0.16175314474E+03  0.13100000000E+03 0.  0.
        997    1    1    2    0    0  0.11493567701E+02 -0.21818203418E+02  0.39610050056E+03  0.44441393165E+03  0.20000000000E+03 0.  0.
</event>
<event>
 5    1  0.8566659E-012  0.2406971E+03  0.7957747E-01  0.4438182E+00
         13   -1    0    0    0    0  0.00000000000E+00  0.00000000000E+00  0.49999998884E+03  0.50000000000E+03  0.10566000000E+00 0. -1.
        994   -1    0    0    0    0 -0.00000000000E+00 -0.00000000000E+00  0.00000000000E+00  0.13100000000E+03  0.13100000000E+03 0.  0.
         13    1    1    2    0    0  0.13239861784E+02 -0.22698312671E+01 -0.49026632907E+01  0.14300116972E+02  0.10566000000E+00 0.  1.
        994    1    1    2    0    0 -0.38847232888E+02  0.40679814216E+02  0.15163329180E+03  0.20812883023E+03  0.13100000000E+03 0.  0.
        997    1    1    2    0    0  0.25607371103E+02 -0.38409982949E+02  0.35326936032E+03  0.40857105280E+03  0.20000000000E+03 0.  0.
</event>
<event>
 5    1  0.8566659E-012  0.2289671E+03  0.7957747E-01  0.4584680E+00
         13   -1    0    0    0    0  0.00000000000E+00  0.00000000000E+00  0.49999998884E+03  0.50000000000E+03  0.10566000000E+00 0. -1.
        994   -1    0    0    0    0 -0.00000000000E+00 -0.00000000000E+00  0.00000000000E+00  0.13100000000E+03  0.13100000000E+03 0.  0.
         13    1    1    2    0    0 -0.60159203607E+01 -0.89278815611E+01  0.11764705029E+02  0.15947345090E+02  0.10566000000E+00 0.  1.
        994    1    1    2    0    0  0.24458736067E+02 -0.20349083500E+02  0.74048817944E+02  0.15380683473E+03  0.13100000000E+03 0.  0.
        997    1    1    2    0    0 -0.18442815706E+02  0.29276965061E+02  0.41418646586E+03  0.46124582018E+03  0.20000000000E+03 0.  0.
</event>
<event>
 5    1  0.8566659E-012  0.2485282E+03  0.7957747E-01  0.4349470E+00
         13   -1    0    0    0    0  0.00000000000E+00  0.00000000000E+00  0.49999998884E+03  0.50000000000E+03  0.10566000000E+00 0. -1.
        994   -1    0    0    0    0 -0.00000000000E+00 -0.00000000000E+00  0.00000000000E+00  0.13100000000E+03  0.13100000000E+03 0.  0.
         13    1    1    2    0    0 -0.10017271007E+02  0.41383863333E+02  0.93528506956E+02  0.10276459819E+03  0.10566000000E+00 0.  1.
        994    1    1    2    0    0 -0.95766494137E+01 -0.26788832369E+02  0.13596994122E+03  0.19094024895E+03  0.13100000000E+03 0.  0.
        997    1    1    2    0    0  0.19593920420E+02 -0.14595030964E+02  0.27050154066E+03  0.33729515287E+03  0.20000000000E+03 0.  0.
</event>
<event>
 5    1  0.8566659E-012  0.2339796E+03  0.7957747E-01  0.4519919E+00
         13   -1    0    0    0    0  0.00000000000E+00  0.00000000000E+00  0.49999998884E+03  0.50000000000E+03  0.10566000000E+00 0.  1.
        994   -1    0    0    0    0 -0.00000000000E+00 -0.00000000000E+00  0.00000000000E+00  0.13100000000E+03  0.13100000000E+03 0.  0.
         13    1    1    2    0    0  0.31416466090E+01 -0.20675726939E+02  0.34745330485E+02  0.40553727109E+02  0.10566000000E+00 0. -1.
        994    1    1    2    0    0 -0.69880234329E+00  0.53079110315E+01  0.73472939975E+02  0.15029283134E+03  0.13100000000E+03 0.  0.
        997    1    1    2    0    0 -0.24428442657E+01  0.15367815907E+02  0.39178171838E+03  0.44015344155E+03  0.20000000000E+03 0.  0.
</event>
<event>
 5    1  0.8566659E-012  0.2380425E+03  0.7957747E-01  0.4469824E+00
         13   -1    0    0    0    0  0.00000000000E+00  0.00000000000E+00  0.49999998884E+03  0.50000000000E+03  0.10566000000E+00 0. -1.
        994   -1    0    0    0    0 -0.00000000000E+00 -0.00000000000E+00  0.00000000000E+00  0.13100000000E+03  0.13100000000E+03 0.  0.
         13    1    1    2    0    0 -0.14738348243E+02  0.72291787657E+00  0.27653755523E+01  0.15013326919E+02  0.10566000000E+00 0.  1.
        994    1    1    2    0    0 -0.96174693488E+01 -0.23749827200E+01  0.83128336322E+02  0.15546529053E+03  0.13100000000E+03 0.  0.
        997    1    1    2    0    0  0.24355817592E+02  0.16520648435E+01  0.41410627696E+03  0.46052138255E+03  0.20000000000E+03 0.  0.
</event>
<event>
 5    1  0.8566659E-012  0.2526106E+03  0.7957747E-01  0.4305771E+00
         13   -1    0    0    0    0  0.00000000000E+00  0.00000000000E+00  0.49999998884E+03  0.50000000000E+03  0.10566000000E+00 0. -1.
        994   -1    0    0    0    0 -0.00000000000E+00 -0.00000000000E+00  0.00000000000E+00  0.13100000000E+03  0.13100000000E+03 0.  0.
         13    1    1    2    0    0 -0.28021939041E+02  0.18418099300E+02  0.83776996599E+01  0.34563744951E+02  0.10566000000E+00 0.  1.
        994    1    1    2    0    0  0.11986667026E+02  0.90296777509E+01  0.15400090418E+03  0.20273749962E+03  0.13100000000E+03 0.  0.
        997    1    1    2    0    0  0.16035272015E+02 -0.27447777051E+02  0.33762138500E+03  0.39369875543E+03  0.20000000000E+03 0.  0.
</event>
<event>
 5    1  0.8566659E-012  0.2346645E+03  0.7957747E-01  0.4511328E+00
         13   -1    0    0    0    0  0.00000000000E+00  0.00000000000E+00  0.49999998884E+03  0.50000000000E+03  0.10566000000E+00 0. -1.
        994   -1    0    0    0    0 -0.00000000000E+00 -0.00000000000E+00  0.00000000000E+00  0.13100000000E+03  0.13100000000E+03 0.  0.
         13    1    1    2    0    0  0.96613750191E+01  0.73712347953E+01  0.12495483225E+01  0.12216783730E+02  0.10566000000E+00 0.  1.
        994    1    1    2    0    0 -0.10077840434E+02 -0.36372584984E+02  0.91622208794E+02  0.16425637568E+03  0.13100000000E+03 0.  0.
        997    1    1    2    0    0  0.41646541541E+00  0.29001350189E+02  0.40712823172E+03  0.45452684059E+03  0.20000000000E+03 0.  0.
</event>
<event>
 5    1  0.8566659E-012  0.2310093E+03  0.7957747E-01  0.4557885E+00
         13   -1    0    0    0    0  0.00000000000E+00  0.00000000000E+00  0.49999998884E+03  0.50000000000E+03  0.10566000000E+00 0. -1.
        994   -1    0    0    0    0 -0.00000000000E+00 -0.00000000000E+00  0.00000000000E+00  0.13100000000E+03  0.13100000000E+03 0.  0.
         13    1    1    2    0    0  0.20376759035E+02  0.54909822816E+01  0.17931492149E+02  0.27693189956E+02  0.10566000000E+00 0.  1.
        994    1    1    2    0    0 -0.78398420922E+02 -0.19336912577E+02  0.19579883715E+03  0.24903496385E+03  0.13100000000E+03 0.  0.
        997    1    1    2    0    0  0.58021661887E+02  0.13845930296E+02  0.28626965954E+03  0.35427184619E+03  0.20000000000E+03 0.  0.
</event>
<event>
 5    1  0.8566659E-012  0.2323452E+03  0.7957747E-01  0.4540664E+00
         13   -1    0    0    0    0  0.00000000000E+00  0.00000000000E+00  0.49999998884E+03  0.50000000000E+03  0.10566000000E+00 0.  1.
        994   -1    0    0    0    0 -0.00000000000E+00 -0.00000000000E+00  0.00000000000E+00  0.13100000000E+03  0.13100000000E+03 0.  0.
         13    1    1    2    0    0 -0.19288408403E+02  0.38383769654E+01  0.45827019943E+02  0.49868855585E+02  0.10566000000E+00 0. -1.
        994    1    1    2    0    0  0.23264043896E+02 -0.22657218544E+01  0.75833395193E+02  0.15316022023E+03  0.13100000000E+03 0.  0.
        997    1    1    2    0    0 -0.39756354933E+01 -0.15726551109E+01  0.37833957370E+03  0.42797092419E+03  0.20000000000E+03 0.  0.
</event>
<event>
 5    1  0.8566659E-012  0.2329087E+03  0.7957747E-01  0.4533473E+00
         13   -1    0    0    0    0  0.00000000000E+00  0.00000000000E+00  0.49999998884E+03  0.50000000000E+03  0.10566000000E+00 0.  1.
        994   -1    0    0    0    0 -0.00000000000E+00 -0.00000000000E+00  0.00000000000E+00  0.13100000000E+03  0.13100000000E+03 0.  0.
         13    1    1    2    0    0  0.14154244857E+02 -0.10222609547E+02  0.45384092655E+02  0.48626859076E+02  0.10566000000E+00 0. -1.
        994    1    1    2    0    0 -0.15631658344E+02 -0.30519234362E+02  0.84239544693E+02  0.15947750092E+03  0.13100000000E+03 0.  0.
        997    1    1    2    0    0  0.14774134877E+01  0.40741843909E+02  0.37037635149E+03  0.42289564001E+03  0.20000000000E+03 0.  0.
</event>
<event>
 5    1  0.8566659E-012  0.2373639E+03  0.7957747E-01  0.4478049E+00
         13   -1    0    0    0    0  0.00000000000E+00  0.00000000000E+00  0.49999998884E+03  0.50000000000E+03  0.10566000000E+00 0. -1.
        994   -1    0    0    0    0 -0.00000000000E+00 -0.00000000000E+00  0.00000000000E+00  0.13100000000E+03  0.13100000000E+03 0.  0.
         13    1    1    2    0    0 -0.15753945471E+02 -0.17750603886E+02  0.41072718364E+02  0.47436801052E+02  0.10566000000E+00 0.  1.
        994    1    1    2    0    0  0.19283760975E+02 -0.38104825141E+02  0.10512527473E+03  0.17330944730E+03  0.13100000000E+03 0.  0.
        997    1    1    2    0    0 -0.35298155036E+01  0.55855429027E+02  0.35380199575E+03  0.41025375165E+03  0.20000000000E+03 0.  0.
</event>
<event>
 5    1  0.8566659E-012  0.2481595E+03  0.7957747E-01  0.4353500E+00
         13   -1    0    0    0    0  0.00000000000E+00  0.00000000000E+00  0.49999998884E+03  0.50000000000E+03  0.10566000000E+00 0.  1.
        994   -1    0    0    0    0 -0.00000000000E+00 -0.00000000000E+00  0.00000000000E+00  0.13100000000E+03  0.13100000000E+03 0.  0.
         13    1    1    2    0    0  0.21182103725E+02  0.33004031354E+02  0.21501239167E+02  0.44724289302E+02  0.10566000000E+00 0. -1.
        994    1    1    2    0    0 -0.34412215500E+02 -0.18441887092E+02  0.17082855745E+03  0.21878688218E+03  0.13100000000E+03 0.  0.
        997    1    1    2    0    0  0.13230111775E+02 -0.14562144262E+02  0.30767019222E+03  0.36748882852E+03  0.20000000000E+03 0.  0.
</event>
<event>
 5    1  0.8566659E-012  0.2485859E+03  0.7957747E-01  0.4348840E+00
         13   -1    0    0    0    0  0.00000000000E+00  0.00000000000E+00  0.49999998884E+03  0.50000000000E+03  0.10566000000E+00 0. -1.
        994   -1    0    0    0    0 -0.00000000000E+00 -0.00000000000E+00  0.00000000000E+00  0.13100000000E+03  0.13100000000E+03 0.  0.
         13    1    1    2    0    0  0.78554205709E+01  0.65399646039E+01 -0.10548532144E+02  0.14688821049E+02  0.10566000000E+00 0.  1.
        994    1    1    2    0    0 -0.23052947930E+02 -0.92255719341E+01  0.13047654955E+03  0.18655208272E+03  0.13100000000E+03 0.  0.
        997    1    1    2    0    0  0.15197527359E+02  0.26856073302E+01  0.38007197143E+03  0.42975909623E+03  0.20000000000E+03 0.  0.
</event>
<event>
 5    1  0.8566659E-012  0.2382711E+03  0.7957747E-01  0.4467067E+00
         13   -1    0    0    0    0  0.00000000000E+00  0.00000000000E+00  0.49999998884E+03  0.50000000000E+03  0.10566000000E+00 0.  1.
        994   -1    0    0    0    0 -0.00000000000E+00 -0.00000000000E+00  0.00000000000E+00  0.13100000000E+03  0.13100000000E+03 0.  0.
         13    1    1    2    0    0 -0.29299565504E+02 -0.77098626448E+01  0.40637591305E+02  0.50688573779E+02  0.10566000000E+00 0. -1.
        994    1    1    2    0    0  0.35496458473E+02 -0.98074200732E+01  0.10088378094E+03  0.16939516318E+03  0.13100000000E+03 0.  0.
        997    1    1    2    0    0 -0.61968929690E+01  0.17517282718E+02  0.35847861659E+03  0.41091626304E+03  0.20000000000E+03 0.  0.
</event>
<event>
 5    1  0.8566659E-012  0.2405716E+03  0.7957747E-01  0.4439658E+00
         13   -1    0    0    0    0  0.00000000000E+00  0.00000000000E+00  0.49999998884E+03  0.50000000000E+03  0.10566000000E+00 0.  1.
        994   -1    0    0    0    0 -0.00000000000E+00 -0.00000000000E+00  0.00000000000E+00  0.13100000000E+03  0.13100000000E+03 0.  0.
         13    1    1    2    0    0  0.48325705883E+01 -0.36306405845E+02  0.59937104308E+02  0.70242269900E+02  0.10566000000E+00 0. -1.
        994    1    1    2    0    0  0.54764370316E+01  0.44363184765E+02  0.12038044568E+03  0.18344082214E+03  0.13100000000E+03 0.  0.
        997    1    1    2    0    0 -0.10309007620E+02 -0.80567789201E+01  0.31968243885E+03  0.37731690796E+03  0.20000000000E+03 0.  0.
</event>
<event>
 5    1  0.8566659E-012  0.2297587E+03  0.7957747E-01  0.4574225E+00
         13   -1    0    0    0    0  0.00000000000E+00  0.00000000000E+00  0.49999998884E+03  0.50000000000E+03  0.10566000000E+00 0.  1.
        994   -1    0    0    0    0 -0.00000000000E+00 -0.00000000000E+00  0.00000000000E+00  0.13100000000E+03  0.13100000000E+03 0.  0.
         13    1    1    2    0    0 -0.23629607998E+01 -0.12467817389E+02  0.91981250055E+01  0.15673120999E+02  0.10566000000E+00 0. -1.
        994    1    1    2    0    0 -0.61743013141E+02  0.43872659522E+02  0.14532976951E+03  0.20980646279E+03  0.13100000000E+03 0.  0.
        997    1    1    2    0    0  0.64105973941E+02 -0.31404842133E+02  0.34547209432E+03  0.40552041621E+03  0.20000000000E+03 0.  0.
</event>
<event>
 5    1  0.8566659E-012  0.2414022E+03  0.7957747E-01  0.4429915E+00
         13   -1    0    0    0    0  0.00000000000E+00  0.00000000000E+00  0.49999998884E+03  0.50000000000E+03  0.10566000000E+00 0.  1.
        994   -1    0    0    0    0 -0.00000000000E+00 -0.00000000000E+00  0.00000000000E+00  0.13100000000E+03  0.13100000000E+03 0.  0.
         13    1    1    2    0    0  0.12313568786E+02 -0.20862743431E+02  0.13150196246E+02  0.27564775803E+02  0.10566000000E+00 0. -1.
        994    1    1    2    0    0  0.14171462000E+02  0.15330310624E+02  0.96639717289E+02  0.16412216096E+03  0.13100000000E+03 0.  0.
        997    1    1    2    0    0 -0.26485030786E+02  0.55324328072E+01  0.39021007530E+03  0.43931306324E+03  0.20000000000E+03 0.  0.
</event>
<event>
 5    1  0.8566659E-012  0.2338676E+03  0.7957747E-01  0.4521329E+00
         13   -1    0    0    0    0  0.00000000000E+00  0.00000000000E+00  0.49999998884E+03  0.50000000000E+03  0.10566000000E+00 0. -1.
        994   -1    0    0    0    0 -0.00000000000E+00 -0.00000000000E+00  0.00000000000E+00  0.13100000000E+03  0.13100000000E+03 0.  0.
         13    1    1    2    0    0  0.14111714871E+02  0.88848193952E+01  0.10037858860E+02  0.19464076830E+02  0.10566000000E+00 0.  1.
        994    1    1    2    0    0 -0.14944823961E+02 -0.30778833359E+02  0.86434970816E+02  0.16063215284E+03  0.13100000000E+03 0.  0.
        997    1    1    2    0    0  0.83310908998E+00  0.21894013964E+02  0.40352715916E+03  0.45090377033E+03  0.20000000000E+03 0.  0.
</event>
<event>
 5    1  0.8566659E-012  0.2437437E+03  0.7957747E-01  0.4402870E+00
         13   -1    0    0    0    0  0.00000000000E+00  0.00000000000E+00  0.49999998884E+03  0.50000000000E+03  0.10566000000E+00 0. -1.
        994   -1    0    0    0    0 -0.00000000000E+00 -0.00000000000E+00  0.00000000000E+00  0.13100000000E+03  0.13100000000E+03 0.  0.
         13    1    1    2    0    0 -0.10262048324E+02 -0.14763053885E+02 -0.18924043368E+00  0.17980666612E+02  0.10566000000E+00 0.  1.
        994    1    1    2    0    0 -0.33011032689E+02  0.12554341176E+02  0.11943717972E+03  0.18075834603E+03  0.13100000000E+03 0.  0.
        997    1    1    2    0    0  0.43273081013E+02  0.22087127091E+01  0.38075204955E+03  0.43226098735E+03  0.20000000000E+03 0.  0.
</event>
<event>
 5    1  0.8566659E-012  0.2430591E+03  0.7957747E-01  0.4410714E+00
         13   -1    0    0    0    0  0.00000000000E+00  0.00000000000E+00  0.49999998884E+03  0.50000000000E+03  0.10566000000E+00 0.  1.
        994   -1    0    0    0    0 -0.00000000000E+00 -0.00000000000E+00  0.00000000000E+00  0.13100000000E+03  0.13100000000E+03 0.  0.
         13    1    1    2    0    0 -0.21704565862E+01  0.12994374150E+02 -0.45730304250E+01  0.13945910248E+02  0.10566000000E+00 0. -1.
        994    1    1    2    0    0 -0.12805573388E+02 -0.18493185881E+02  0.10301850913E+03  0.16816597116E+03  0.13100000000E+03 0.  0.
        997    1    1    2    0    0  0.14976029974E+02  0.54988117308E+01  0.40155451013E+03  0.44888811859E+03  0.20000000000E+03 0.  0.
</event>
<event>
 5    1  0.8566659E-012  0.2343304E+03  0.7957747E-01  0.4515512E+00
         13   -1    0    0    0    0  0.00000000000E+00  0.00000000000E+00  0.49999998884E+03  0.50000000000E+03  0.10566000000E+00 0.  1.
        994   -1    0    0    0    0 -0.00000000000E+00 -0.00000000000E+00  0.00000000000E+00  0.13100000000E+03  0.13100000000E+03 0.  0.
         13    1    1    2    0    0  0.64021318532E+01 -0.15860011773E+02  0.11168909266E+02  0.20427505083E+02  0.10566000000E+00 0. -1.
        994    1    1    2    0    0  0.64824417852E+01  0.23254560166E+02  0.80477118506E+02  0.15562892798E+03  0.13100000000E+03 0.  0.
        997    1    1    2    0    0 -0.12884573638E+02 -0.73945483939E+01  0.40835396106E+03  0.45494356694E+03  0.20000000000E+03 0.  0.
</event>
<event>
 5    1  0.8566659E-012  0.2371950E+03  0.7957747E-01  0.4480105E+00
         13   -1    0    0    0    0  0.00000000000E+00  0.00000000000E+00  0.49999998884E+03  0.50000000000E+03  0.10566000000E+00 0. -1.
        994   -1    0    0    0    0 -0.00000000000E+00 -0.00000000000E+00  0.00000000000E+00  0.13100000000E+03  0.13100000000E+03 0.  0.
         13    1    1    2    0    0  0.49255170791E+01 -0.28994070190E+02  0.23244176160E+02  0.37486260337E+02  0.10566000000E+00 0.  1.
        994    1    1    2    0    0 -0.51520909128E+02  0.38628588621E+02  0.22906066799E+03  0.27161804350E+03  0.13100000000E+03 0.  0.
        997    1    1    2    0    0  0.46595392049E+02 -0.96345184310E+01  0.24769514468E+03  0.32189569616E+03  0.20000000000E+03 0.  0.
</event>
<event>
 5    1  0.8566659E-012  0.2295101E+03  0.7957747E-01  0.4577499E+00
         13   -1    0    0    0    0  0.00000000000E+00  0.00000000000E+00  0.49999998884E+03  0.50000000000E+03  0.10566000000E+00 0. -1.
        994   -1    0    0    0    0 -0.00000000000E+00 -0.00000000000E+00  0.00000000000E+00  0.13100000000E+03  0.13100000000E+03 0.  0.
         13    1    1    2    0    0 -0.69729115276E+01 -0.12050157217E+02  0.31415744138E+02  0.34362594895E+02  0.10566000000E+00 0.  1.
        994    1    1    2    0    0  0.13358504886E+02  0.51235183356E+01  0.66832657215E+02  0.14775758581E+03  0.13100000000E+03 0.  0.
        997    1    1    2    0    0 -0.63855933584E+01  0.69266388812E+01  0.40175158748E+03  0.44887981930E+03  0.20000000000E+03 0.  0.
</event>
<event>
 5    1  0.8566659E-012  0.2328315E+03  0.7957747E-01  0.4534456E+00
         13   -1    0    0    0    0  0.00000000000E+00  0.00000000000E+00  0.49999998884E+03  0.50000000000E+03  0.10566000000E+00 0. -1.
        994   -1    0    0    0    0 -0.00000000000E+00 -0.00000000000E+00  0.00000000000E+00  0.13100000000E+03  0.13100000000E+03 0.  0.
         13    1    1    2    0    0  0.75843611912E+01 -0.22147091983E+02  0.35732569794E+02  0.42718191981E+02  0.10566000000E+00 0.  1.
        994    1    1    2    0    0 -0.49911281217E+02  0.38905110776E+02  0.12490243593E+03  0.19174556615E+03  0.13100000000E+03 0.  0.
        997    1    1    2    0    0  0.42326920026E+02 -0.16758018793E+02  0.33936498311E+03  0.39653624187E+03  0.20000000000E+03 0.  0.
</event>
<event>
 5    1  0.8566659E-012  0.2286742E+03  0.7957747E-01  0.4588570E+00
         13   -1    0    0    0    0  0.00000000000E+00  0.00000000000E+00  0.49999998884E+03  0.50000000000E+03  0.10566000000E+00 0.  1.
        994   -1    0    0    0    0 -0.00000000000E+00 -0.00000000000E+00  0.00000000000E+00  0.13100000000E+03  0.13100000000E+03 0.  0.
         13    1    1    2    0    0 -0.30717935020E+01  0.11445391879E+02  0.64601047072E+01  0.13497297042E+02  0.10566000000E+00 0. -1.
        994    1    1    2    0    0 -0.51483448079E+02 -0.67824300780E+02  0.20344936268E+03  0.25652158657E+03  0.13100000000E+03 0.  0.
        997    1    1    2    0    0  0.54555241581E+02  0.56378908902E+02  0.29009052145E+03  0.36098111639E+03  0.20000000000E+03 0.  0.
</event>
<event>
 5    1  0.8566659E-012  0.2466734E+03  0.7957747E-01  0.4369884E+00
         13   -1    0    0    0    0  0.00000000000E+00  0.00000000000E+00  0.49999998884E+03  0.50000000000E+03  0.10566000000E+00 0. -1.
        994   -1    0    0    0    0 -0.00000000000E+00 -0.00000000000E+00  0.00000000000E+00  0.13100000000E+03  0.13100000000E+03 0.  0.
         13    1    1    2    0    0 -0.65185203675E+00  0.40980925372E+02  0.48744968494E+02  0.63686295802E+02  0.10566000000E+00 0.  1.
        994    1    1    2    0    0 -0.50236427469E+01 -0.19507175792E+02  0.11515035174E+03  0.17557440132E+03  0.13100000000E+03 0.  0.
        997    1    1    2    0    0  0.56754947836E+01 -0.21473749580E+02  0.33610466860E+03  0.39173930287E+03  0.20000000000E+03 0.  0.
</event>
<event>
 5    1  0.8566659E-012  0.2405779E+03  0.7957747E-01  0.4439584E+00
         13   -1    0    0    0    0  0.00000000000E+00  0.00000000000E+00  0.49999998884E+03  0.50000000000E+03  0.10566000000E+00 0.  1.
        994   -1    0    0    0    0 -0.00000000000E+00 -0.00000000000E+00  0.00000000000E+00  0.13100000000E+03  0.13100000000E+03 0.  0.
         13    1    1    2    0    0  0.27988010857E+02  0.11898891834E+02  0.20749397117E+02  0.36816586254E+02  0.10566000000E+00 0. -1.
        994    1    1    2    0    0 -0.32408893723E+02 -0.39709078029E+02  0.13448530148E+03  0.19461357503E+03  0.13100000000E+03 0.  0.
        997    1    1    2    0    0  0.44208828656E+01  0.27810186195E+02  0.34476529024E+03  0.39956983872E+03  0.20000000000E+03 0.  0.
</event>
<event>
 5    1  0.8566659E-012  0.2360451E+03  0.7957747E-01  0.4494194E+00
         13   -1    0    0    0    0  0.00000000000E+00  0.00000000000E+00  0.49999998884E+03  0.50000000000E+03  0.10566000000E+00 0.  1.
        994   -1    0    0    0    0 -0.00000000000E+00 -0.00000000000E+00  0.00000000000E+00  0.13100000000E+03  0.13100000000E+03 0.  0.
         13    1    1    2    0    0 -0.32697097838E+01 -0.20112962831E+02  0.67669950753E+02  0.70671462946E+02  0.10566000000E+00 0. -1.
        994    1    1    2    0    0 -0.34868714757E+02  0.94872138004E+01  0.93720367044E+02  0.16507677515E+03  0.13100000000E+03 0.  0.
        997    1    1    2    0    0  0.38138424540E+02  0.10625749031E+02  0.33860967104E+03  0.39525176191E+03  0.20000000000E+03 0.  0.
</event>
<event>
 5    1  0.8566659E-012  0.2479670E+03  0.7957747E-01  0.4355608E+00
         13   -1    0    0    0    0  0.00000000000E+00  0.00000000000E+00  0.49999998884E+03  0.50000000000E+03  0.10566000000E+00 0. -1.
        994   -1    0    0    0    0 -0.00000000000E+00 -0.00000000000E+00  0.00000000000E+00  0.13100000000E+03  0.13100000000E+03 0.  0.
         13    1    1    2    0    0 -0.29227424103E+02 -0.15041572150E+02  0.11464561123E+03  0.11926490913E+03  0.10566000000E+00 0.  1.
        994    1    1    2    0    0  0.22013617227E+02 -0.73263363942E+01  0.12462426934E+03  0.18229230114E+03  0.13100000000E+03 0.  0.
        997    1    1    2    0    0  0.72138068758E+01  0.22367908544E+02  0.26073010827E+03  0.32944278972E+03  0.20000000000E+03 0.  0.
</event>
<event>
 5    1  0.8566659E-012  0.2336027E+03  0.7957747E-01  0.4524673E+00
         13   -1    0    0    0    0  0.00000000000E+00  0.00000000000E+00  0.49999998884E+03  0.50000000000E+03  0.10566000000E+00 0. -1.
        994   -1    0    0    0    0 -0.00000000000E+00 -0.00000000000E+00  0.00000000000E+00  0.13100000000E+03  0.13100000000E+03 0.  0.
         13    1    1    2    0    0  0.54195822756E+01 -0.22439685097E+02  0.23598672200E+02  0.33012419374E+02  0.10566000000E+00 0.  1.
        994    1    1    2    0    0 -0.11946426580E+02  0.54154962431E+02  0.11201407588E+03  0.18106250373E+03  0.13100000000E+03 0.  0.
        997    1    1    2    0    0  0.65268443048E+01 -0.31715277334E+02  0.36438724076E+03  0.41692507689E+03  0.20000000000E+03 0.  0.
</event>
<event>
 5    1  0.8566659E-012  0.2313724E+03  0.7957747E-01  0.4553181E+00
         13   -1    0    0    0    0  0.00000000000E+00  0.00000000000E+00  0.49999998884E+03  0.50000000000E+03  0.10566000000E+00 0. -1.
        994   -1    0    0    0    0 -0.00000000000E+00 -0.00000000000E+00  0.00000000000E+00  0.13100000000E+03  0.13100000000E+03 0.  0.
         13    1    1    2    0    0  0.18748561613E+02 -0.50773821986E+01  0.42738321016E+02  0.46945325857E+02  0.10566000000E+00 0.  1.
        994    1    1    2    0    0 -0.34756312018E+02  0.37280497325E+02  0.98170423277E+02  0.17145340099E+03  0.13100000000E+03 0.  0.
        997    1    1    2    0    0  0.16007750406E+02 -0.32203115127E+02  0.35909124454E+03  0.41260127315E+03  0.20000000000E+03 0.  0.
</event>
<event>
 5    1  0.8566659E-012  0.2337429E+03  0.7957747E-01  0.4522902E+00
         13   -1    0    0    0    0  0.00000000000E+00  0.00000000000E+00  0.49999998884E+03  0.50000000000E+03  0.10566000000E+00 0. -1.
        994   -1    0    0    0    0 -0.00000000000E+00 -0.00000000000E+00  0.00000000000E+00  0.13100000000E+03  0.13100000000E+03 0.  0.
         13    1    1    2    0    0  0.11629515697E+02 -0.11605837982E+02  0.70626399233E+02  0.72512347523E+02  0.10566000000E+00 0.  1.
        994    1    1    2    0    0 -0.52427810437E+01  0.21863314951E+02  0.78306543362E+02  0.15426732002E+03  0.13100000000E+03 0.  0.
        997    1    1    2    0    0 -0.63867346534E+01 -0.10257476969E+02  0.35106704624E+03  0.40422033245E+03  0.20000000000E+03 0.  0.
</event>
<event>
 5    1  0.8566659E-012  0.2332812E+03  0.7957747E-01  0.4528741E+00
         13   -1    0    0    0    0  0.00000000000E+00  0.00000000000E+00  0.49999998884E+03  0.50000000000E+03  0.10566000000E+00 0. -1.
        994   -1    0    0    0    0 -0.00000000000E+00 -0.00000000000E+00  0.00000000000E+00  0.13100000000E+03  0.13100000000E+03 0.  0.
         13    1    1    2    0    0  0.12930745974E+01 -0.19356275583E+02  0.29182172945E+02  0.35042086527E+02  0.10566000000E+00 0.  1.
        994    1    1    2    0    0  0.63685646070E+02  0.13089356242E+02  0.13129315977E+03  0.19653520439E+03  0.13100000000E+03 0.  0.
        997    1    1    2    0    0 -0.64978720667E+02  0.62669193412E+01  0.33952465612E+03  0.39942270908E+03  0.20000000000E+03 0.  0.
</event>
<event>
 5    1  0.8566659E-012  0.2280329E+03  0.7957747E-01  0.4597131E+00
         13   -1    0    0    0    0  0.00000000000E+00  0.00000000000E+00  0.49999998884E+03  0.50000000000E+03  0.10566000000E+00 0. -1.
        994   -1    0    0    0    0 -0.00000000000E+00 -0.00000000000E+00  0.00000000000E+00  0.13100000000E+03  0.13100000000E+03 0.  0.
         13    1    1    2    0    0 -0.77921762228E+01  0.85903739493E+01  0.12164227424E+02  0.16807502127E+02  0.10566000000E+00 0.  1.
        994    1    1    2    0    0 -0.66055308252E+01 -0.65545094199E+02  0.11234271380E+03  0.18472053961E+03  0.13100000000E+03 0.  0.
        997    1    1    2    0    0  0.14397707048E+02  0.56954720250E+02  0.37549304761E+03  0.42947195826E+03  0.20000000000E+03 0.  0.
</event>
<event>
 5    1  0.8665253E-012  0.2349302E+03  0.7957747E-01  0.4508012E+00
         13   -1    0    0    0    0  0.00000000000E+00  0.00000000000E+00  0.49999998884E+03  0.50000000000E+03  0.10566000000E+00 0. -1.
        994   -1    0    0    0    0 -0.00000000000E+00 -0.00000000000E+00  0.00000000000E+00  0.13100000000E+03  0.13100000000E+03 0.  0.
         13    1    1    2    0    0  0.58772393293E+01  0.10206653002E+02  0.16081911784E+01  0.11887604912E+02  0.10566000000E+00 0.  1.
        994    1    1    2    0    0 -0.74082150580E+01 -0.43244136650E+01  0.75921194398E+02  0.15165292599E+03  0.13100000000E+03 0.  0.
        997    1    1    2    0    0  0.15309757287E+01 -0.58822393375E+01  0.42247060326E+03  0.46745946909E+03  0.20000000000E+03 0.  0.
</event>
<event>
 5    1  0.8566659E-012  0.2340806E+03  0.7957747E-01  0.4518649E+00
         13   -1    0    0    0    0  0.00000000000E+00  0.00000000000E+00  0.49999998884E+03  0.50000000000E+03  0.10566000000E+00 0.  1.
        994   -1    0    0    0    0 -0.00000000000E+00 -0.00000000000E+00  0.00000000000E+00  0.13100000000E+03  0.13100000000E+03 0.  0.
         13    1    1    2    0    0  0.14558884053E+02 -0.37009412786E+01  0.74613430227E+01  0.16773218980E+02  0.10566000000E+00 0. -1.
        994    1    1    2    0    0 -0.61217338404E+01  0.32205741436E+02  0.85770809694E+02  0.15997598946E+03  0.13100000000E+03 0.  0.
        997    1    1    2    0    0 -0.84371502131E+01 -0.28504800157E+02  0.40676783612E+03  0.45425079156E+03  0.20000000000E+03 0.  0.
</event>
<event>
 5    1  0.8566659E-012  0.2526947E+03  0.7957747E-01  0.4304889E+00
         13   -1    0    0    0    0  0.00000000000E+00  0.00000000000E+00  0.49999998884E+03  0.50000000000E+03  0.10566000000E+00 0.  1.
        994   -1    0    0    0    0 -0.00000000000E+00 -0.00000000000E+00  0.00000000000E+00  0.13100000000E+03  0.13100000000E+03 0.  0.
         13    1    1    2    0    0 -0.48730465621E+02  0.87955861699E+01  0.61372293380E+02  0.78858038109E+02  0.10566000000E+00 0. -1.
        994    1    1    2    0    0  0.16633093962E+02  0.65849890186E+01  0.17388600851E+03  0.21844304944E+03  0.13100000000E+03 0.  0.
        997    1    1    2    0    0  0.32097371659E+02 -0.15380575189E+02  0.26474168695E+03  0.33369891245E+03  0.20000000000E+03 0.  0.
</event>
<event>
 5    1  0.9218238E-012  0.2332235E+03  0.7957747E-01  0.4529473E+00
         13   -1    0    0    0    0  0.00000000000E+00  0.00000000000E+00  0.49999998884E+03  0.50000000000E+03  0.10566000000E+00 0. -1.
        994   -1    0    0    0    0 -0.00000000000E+00 -0.00000000000E+00  0.00000000000E+00  0.13100000000E+03  0.13100000000E+03 0.  0.
         13    1    1    2    0    0  0.54737562670E+01  0.10291540617E+02  0.17215931619E+01  0.11783584471E+02  0.10566000000E+00 0.  1.
        994    1    1    2    0    0 -0.69549384802E+01 -0.43855718813E+02  0.94958491611E+02  0.16777905224E+03  0.13100000000E+03 0.  0.
        997    1    1    2    0    0  0.14811822132E+01  0.33564178195E+02  0.40331990406E+03  0.45143736329E+03  0.20000000000E+03 0.  0.
</event>
<event>
 5    1  0.8566659E-012  0.2435001E+03  0.7957747E-01  0.4405655E+00
         13   -1    0    0    0    0  0.00000000000E+00  0.00000000000E+00  0.49999998884E+03  0.50000000000E+03  0.10566000000E+00 0.  1.
        994   -1    0    0    0    0 -0.00000000000E+00 -0.00000000000E+00  0.00000000000E+00  0.13100000000E+03  0.13100000000E+03 0.  0.
         13    1    1    2    0    0 -0.41906813259E+01 -0.31267643970E+02  0.15843204278E+02  0.35302204679E+02  0.10566000000E+00 0. -1.
        994    1    1    2    0    0 -0.24578710126E+02  0.52531300397E+00  0.26116828926E+03  0.29321368362E+03  0.13100000000E+03 0.  0.
        997    1    1    2    0    0  0.28769391451E+02  0.30742330966E+02  0.22298849530E+03  0.30248411170E+03  0.20000000000E+03 0.  0.
</event>
<event>
 5    1  0.8566659E-012  0.2332996E+03  0.7957747E-01  0.4528507E+00
         13   -1    0    0    0    0  0.00000000000E+00  0.00000000000E+00  0.49999998884E+03  0.50000000000E+03  0.10566000000E+00 0.  1.
        994   -1    0    0    0    0 -0.00000000000E+00 -0.00000000000E+00  0.00000000000E+00  0.13100000000E+03  0.13100000000E+03 0.  0.
         13    1    1    2    0    0 -0.86820880874E+01  0.25296583977E+02  0.39043389769E+02  0.47325397654E+02  0.10566000000E+00 0. -1.
        994    1    1    2    0    0  0.42003367203E+02 -0.61739113991E+02  0.17098735177E+03  0.22797735747E+03  0.13100000000E+03 0.  0.
        997    1    1    2    0    0 -0.33321279116E+02  0.36442530014E+02  0.28996924729E+03  0.35569724488E+03  0.20000000000E+03 0.  0.
</event>
<event>
 5    1  0.8566659E-012  0.2430032E+03  0.7957747E-01  0.4411356E+00
         13   -1    0    0    0    0  0.00000000000E+00  0.00000000000E+00  0.49999998884E+03  0.50000000000E+03  0.10566000000E+00 0.  1.
        994   -1    0    0    0    0 -0.00000000000E+00 -0.00000000000E+00  0.00000000000E+00  0.13100000000E+03  0.13100000000E+03 0.  0.
         13    1    1    2    0    0  0.21313299305E+02  0.24394769029E+02  0.37048736037E+02  0.49213631133E+02  0.10566000000E+00 0. -1.
        994    1    1    2    0    0  0.11322905785E+02 -0.11548307175E+02  0.98895526100E+02  0.16493300663E+03  0.13100000000E+03 0.  0.
        997    1    1    2    0    0 -0.32636205090E+02 -0.12846461855E+02  0.36405572670E+03  0.41685336224E+03  0.20000000000E+03 0.  0.
</event>
<event>
 5    1  0.9439133E-012  0.2360683E+03  0.7957747E-01  0.4493908E+00
         13   -1    0    0    0    0  0.00000000000E+00  0.00000000000E+00  0.49999998884E+03  0.50000000000E+03  0.10566000000E+00 0. -1.
        994   -1    0    0    0    0 -0.00000000000E+00 -0.00000000000E+00  0.00000000000E+00  0.13100000000E+03  0.13100000000E+03 0.  0.
         13    1    1    2    0    0 -0.10260181340E+02  0.14227956846E+01 -0.11472670523E+01  0.10422238455E+02  0.10566000000E+00 0.  1.
        994    1    1    2    0    0  0.98063793303E+01  0.26438555409E+01  0.78696255198E+02  0.15315761695E+03  0.13100000000E+03 0.  0.
        997    1    1    2    0    0  0.45380200987E+00 -0.40666512256E+01  0.42245100069E+03  0.46742014459E+03  0.20000000000E+03 0.  0.
</event>
<event>
 5    1  0.8566659E-012  0.2394141E+03  0.7957747E-01  0.4453370E+00
         13   -1    0    0    0    0  0.00000000000E+00  0.00000000000E+00  0.49999998884E+03  0.50000000000E+03  0.10566000000E+00 0. -1.
        994   -1    0    0    0    0 -0.00000000000E+00 -0.00000000000E+00  0.00000000000E+00  0.13100000000E+03  0.13100000000E+03 0.  0.
         13    1    1    2    0    0 -0.49354648971E+01  0.20724363101E+02  0.13446538874E+02  0.25192828571E+02  0.10566000000E+00 0.  1.
        994    1    1    2    0    0  0.23816974286E+02  0.23812149620E+02  0.10109487268E+03  0.16886515335E+03  0.13100000000E+03 0.  0.
        997    1    1    2    0    0 -0.18881509389E+02 -0.44536512721E+02  0.38545857728E+03  0.43694201808E+03  0.20000000000E+03 0.  0.
</event>
<event>
 5    1  0.8566659E-012  0.2441924E+03  0.7957747E-01  0.4397758E+00
         13   -1    0    0    0    0  0.00000000000E+00  0.00000000000E+00  0.49999998884E+03  0.50000000000E+03  0.10566000000E+00 0. -1.
        994   -1    0    0    0    0 -0.00000000000E+00 -0.00000000000E+00  0.00000000000E+00  0.13100000000E+03  0.13100000000E+03 0.  0.
         13    1    1    2    0    0  0.11802714620E+02 -0.22241710931E+02  0.12371116333E+02  0.28054473100E+02  0.10566000000E+00 0.  1.
        994    1    1    2    0    0  0.35547340251E+02 -0.82125105924E+01  0.12343536980E+03  0.18365279537E+03  0.13100000000E+03 0.  0.
        997    1    1    2    0    0 -0.47350054871E+02  0.30454221523E+02  0.36419350270E+03  0.41929273153E+03  0.20000000000E+03 0.  0.
</event>
<event>
 5    1  0.8566659E-012  0.2429445E+03  0.7957747E-01  0.4412032E+00
         13   -1    0    0    0    0  0.00000000000E+00  0.00000000000E+00  0.49999998884E+03  0.50000000000E+03  0.10566000000E+00 0.  1.
        994   -1    0    0    0    0 -0.00000000000E+00 -0.00000000000E+00  0.00000000000E+00  0.13100000000E+03  0.13100000000E+03 0.  0.
         13    1    1    2    0    0 -0.11219140147E+02  0.11238782481E+02 -0.12786973329E+01  0.15931904098E+02  0.10566000000E+00 0. -1.
        994    1    1    2    0    0 -0.19460002105E+02  0.45424302512E+02  0.14586635065E+03  0.20218815789E+03  0.13100000000E+03 0.  0.
        997    1    1    2    0    0  0.30679142252E+02 -0.56663084993E+02  0.35541233552E+03  0.41287993801E+03  0.20000000000E+03 0.  0.
</event>
<event>
 5    1  0.8566659E-012  0.2299589E+03  0.7957747E-01  0.4571595E+00
         13   -1    0    0    0    0  0.00000000000E+00  0.00000000000E+00  0.49999998884E+03  0.50000000000E+03  0.10566000000E+00 0. -1.
        994   -1    0    0    0    0 -0.00000000000E+00 -0.00000000000E+00  0.00000000000E+00  0.13100000000E+03  0.13100000000E+03 0.  0.
         13    1    1    2    0    0  0.78056342670E+01  0.10696403493E+02  0.42067270267E+02  0.44102237650E+02  0.10566000000E+00 0.  1.
        994    1    1    2    0    0 -0.21572506826E+02  0.51347223196E+01  0.70560669587E+02  0.15043784935E+03  0.13100000000E+03 0.  0.
        997    1    1    2    0    0  0.13766872559E+02 -0.15831125813E+02  0.38737204898E+03  0.43645991300E+03  0.20000000000E+03 0.  0.
</event>
<event>
 5    1  0.8566659E-012  0.2364439E+03  0.7957747E-01  0.4489289E+00
         13   -1    0    0    0    0  0.00000000000E+00  0.00000000000E+00  0.49999998884E+03  0.50000000000E+03  0.10566000000E+00 0.  1.
        994   -1    0    0    0    0 -0.00000000000E+00 -0.00000000000E+00  0.00000000000E+00  0.13100000000E+03  0.13100000000E+03 0.  0.
         13    1    1    2    0    0  0.53661797189E+01  0.18624376693E+02  0.10425497392E+02  0.22008304158E+02  0.10566000000E+00 0. -1.
        994    1    1    2    0    0  0.13454128787E+02 -0.31626386590E+02  0.93121251931E+02  0.16435878276E+03  0.13100000000E+03 0.  0.
        997    1    1    2    0    0 -0.18820308506E+02  0.13002009897E+02  0.39645323951E+03  0.44463291308E+03  0.20000000000E+03 0.  0.
</event>
<event>
 5    1  0.8566659E-012  0.2316331E+03  0.7957747E-01  0.4549814E+00
         13   -1    0    0    0    0  0.00000000000E+00  0.00000000000E+00  0.49999998884E+03  0.50000000000E+03  0.10566000000E+00 0.  1.
        994   -1    0    0    0    0 -0.00000000000E+00 -0.00000000000E+00  0.00000000000E+00  0.13100000000E+03  0.13100000000E+03 0.  0.
         13    1    1    2    0    0 -0.12054055142E+02  0.45019548502E+01  0.56317390841E+01  0.14046191370E+02  0.10566000000E+00 0. -1.
        994    1    1    2    0    0  0.42293457178E+02 -0.14197726055E+02  0.91059587338E+02  0.16565977300E+03  0.13100000000E+03 0.  0.
        997    1    1    2    0    0 -0.30239402036E+02  0.96957712051E+01  0.40330866241E+03  0.45129403563E+03  0.20000000000E+03 0.  0.
</event>
<event>
 5    1  0.8566659E-012  0.2371543E+03  0.7957747E-01  0.4480601E+00
         13   -1    0    0    0    0  0.00000000000E+00  0.00000000000E+00  0.49999998884E+03  0.50000000000E+03  0.10566000000E+00 0. -1.
        994   -1    0    0    0    0 -0.00000000000E+00 -0.00000000000E+00  0.00000000000E+00  0.13100000000E+03  0.13100000000E+03 0.  0.
         13    1    1    2    0    0  0.13735058986E+02 -0.13083838211E+02  0.17135829556E+02  0.25563381746E+02  0.10566000000E+00 0.  1.
        994    1    1    2    0    0  0.21361314413E+02 -0.45444635453E+02  0.11590663387E+03  0.18198040669E+03  0.13100000000E+03 0.  0.
        997    1    1    2    0    0 -0.35096373399E+02  0.58528473664E+02  0.36695752541E+03  0.42345621156E+03  0.20000000000E+03 0.  0.
</event>
<event>
 5    1  0.8566659E-012  0.2397447E+03  0.7957747E-01  0.4449438E+00
         13   -1    0    0    0    0  0.00000000000E+00  0.00000000000E+00  0.49999998884E+03  0.50000000000E+03  0.10566000000E+00 0.  1.
        994   -1    0    0    0    0 -0.00000000000E+00 -0.00000000000E+00  0.00000000000E+00  0.13100000000E+03  0.13100000000E+03 0.  0.
         13    1    1    2    0    0  0.26105370447E+02 -0.25625073611E+02  0.56331797194E+02  0.67167084966E+02  0.10566000000E+00 0. -1.
        994    1    1    2    0    0 -0.51956748517E+02  0.22706556678E+02  0.14523895442E+03  0.20364293583E+03  0.13100000000E+03 0.  0.
        997    1    1    2    0    0  0.25851378070E+02  0.29185169328E+01  0.29842923723E+03  0.36018997921E+03  0.20000000000E+03 0.  0.
</event>
<event>
 5    1  0.8566659E-012  0.2385591E+03  0.7957747E-01  0.4463601E+00
         13   -1    0    0    0    0  0.00000000000E+00  0.00000000000E+00  0.49999998884E+03  0.50000000000E+03  0.10566000000E+00 0.  1.
        994   -1    0    0    0    0 -0.00000000000E+00 -0.00000000000E+00  0.00000000000E+00  0.13100000000E+03  0.13100000000E+03 0.  0.
         13    1    1    2    0    0 -0.20990554774E+01  0.14006666012E+02  0.81696988786E+00  0.14187012740E+02  0.10566000000E+00 0. -1.
        994    1    1    2    0    0  0.31989687664E+02  0.10041791011E+02  0.98322834561E+02  0.16719018356E+03  0.13100000000E+03 0.  0.
        997    1    1    2    0    0 -0.29890632187E+02 -0.24048457023E+02  0.40086018439E+03  0.44962280370E+03  0.20000000000E+03 0.  0.
</event>
<event>
 5    1  0.8566659E-012  0.2421523E+03  0.7957747E-01  0.4421184E+00
         13   -1    0    0    0    0  0.00000000000E+00  0.00000000000E+00  0.49999998884E+03  0.50000000000E+03  0.10566000000E+00 0. -1.
        994   -1    0    0    0    0 -0.00000000000E+00 -0.00000000000E+00  0.00000000000E+00  0.13100000000E+03  0.13100000000E+03 0.  0.
         13    1    1    2    0    0  0.22444335955E+02  0.10500054965E+02  0.12689502550E+02  0.27839432640E+02  0.10566000000E+00 0.  1.
        994    1    1    2    0    0  0.39695932342E+01 -0.22619839072E+02  0.10037288487E+03  0.16662271996E+03  0.13100000000E+03 0.  0.
        997    1    1    2    0    0 -0.26413929189E+02  0.12119784107E+02  0.38693760142E+03  0.43653784740E+03  0.20000000000E+03 0.  0.
</event>
<event>
 5    1  0.1267081E-011  0.2443447E+03  0.7957747E-01  0.4396027E+00
         13   -1    0    0    0    0  0.00000000000E+00  0.00000000000E+00  0.49999998884E+03  0.50000000000E+03  0.10566000000E+00 0. -1.
        994   -1    0    0    0    0 -0.00000000000E+00 -0.00000000000E+00  0.00000000000E+00  0.13100000000E+03  0.13100000000E+03 0.  0.
         13    1    1    2    0    0 -0.79947076433E+01  0.63673375809E+01 -0.74811154344E+01  0.12666356633E+02  0.10566000000E+00 0.  1.
        994    1    1    2    0    0  0.51204787744E+01 -0.23319575872E+02  0.10874932632E+03  0.17192276725E+03  0.13100000000E+03 0.  0.
        997    1    1    2    0    0  0.28742288689E+01  0.16952238291E+02  0.39873177795E+03  0.44641087612E+03  0.20000000000E+03 0.  0.
</event>
<event>
 5    1  0.8566659E-012  0.2337972E+03  0.7957747E-01  0.4522218E+00
         13   -1    0    0    0    0  0.00000000000E+00  0.00000000000E+00  0.49999998884E+03  0.50000000000E+03  0.10566000000E+00 0. -1.
        994   -1    0    0    0    0 -0.00000000000E+00 -0.00000000000E+00  0.00000000000E+00  0.13100000000E+03  0.13100000000E+03 0.  0.
         13    1    1    2    0    0  0.80077604393E+01  0.17389545606E+02  0.52149060973E+02  0.55552283914E+02  0.10566000000E+00 0.  1.
        994    1    1    2    0    0  0.28868925280E+02 -0.16823459788E+02  0.85605758345E+02  0.16001809119E+03  0.13100000000E+03 0.  0.
        997    1    1    2    0    0 -0.36876685719E+02 -0.56608581820E+00  0.36224516952E+03  0.41542962490E+03  0.20000000000E+03 0.  0.
</event>
<event>
 5    1  0.8566659E-012  0.2314678E+03  0.7957747E-01  0.4551948E+00
         13   -1    0    0    0    0  0.00000000000E+00  0.00000000000E+00  0.49999998884E+03  0.50000000000E+03  0.10566000000E+00 0. -1.
        994   -1    0    0    0    0 -0.00000000000E+00 -0.00000000000E+00  0.00000000000E+00  0.13100000000E+03  0.13100000000E+03 0.  0.
         13    1    1    2    0    0 -0.77186592435E+01  0.68742742159E+01  0.37028617040E+01  0.10979785761E+02  0.10566000000E+00 0.  1.
        994    1    1    2    0    0  0.17427885413E+02  0.58734605292E+01  0.71846179344E+02  0.15053604955E+03  0.13100000000E+03 0.  0.
        997    1    1    2    0    0 -0.97092261693E+01 -0.12747734745E+02  0.42445094779E+03  0.46948416469E+03  0.20000000000E+03 0.  0.
</event>
<event>
 5    1  0.8566659E-012  0.2342102E+03  0.7957747E-01  0.4517020E+00
         13   -1    0    0    0    0  0.00000000000E+00  0.00000000000E+00  0.49999998884E+03  0.50000000000E+03  0.10566000000E+00 0. -1.
        994   -1    0    0    0    0 -0.00000000000E+00 -0.00000000000E+00  0.00000000000E+00  0.13100000000E+03  0.13100000000E+03 0.  0.
         13    1    1    2    0    0  0.10497324295E+02  0.10925655264E+02  0.10036782683E+02  0.18174485714E+02  0.10566000000E+00 0.  1.
        994    1    1    2    0    0  0.34563221289E+02 -0.94463693320E+01  0.88673294382E+02  0.16219680421E+03  0.13100000000E+03 0.  0.
        997    1    1    2    0    0 -0.45060545585E+02 -0.14792859321E+01  0.40128991177E+03  0.45062871008E+03  0.20000000000E+03 0.  0.
</event>
<event>
 5    1  0.8566659E-012  0.2491972E+03  0.7957747E-01  0.4342194E+00
         13   -1    0    0    0    0  0.00000000000E+00  0.00000000000E+00  0.49999998884E+03  0.50000000000E+03  0.10566000000E+00 0.  1.
        994   -1    0    0    0    0 -0.00000000000E+00 -0.00000000000E+00  0.00000000000E+00  0.13100000000E+03  0.13100000000E+03 0.  0.
         13    1    1    2    0    0 -0.12027775828E+02  0.24784634163E+02  0.54885771928E+01  0.28090587847E+02  0.10566000000E+00 0. -1.
        994    1    1    2    0    0 -0.15223656297E+02 -0.11469411887E+02  0.12724061102E+03  0.18361503264E+03  0.13100000000E+03 0.  0.
        997    1    1    2    0    0  0.27251432125E+02 -0.13315222276E+02  0.36727080063E+03  0.41929437951E+03  0.20000000000E+03 0.  0.
</event>
<event>
 5    1  0.8566659E-012  0.2351853E+03  0.7957747E-01  0.4504836E+00
         13   -1    0    0    0    0  0.00000000000E+00  0.00000000000E+00  0.49999998884E+03  0.50000000000E+03  0.10566000000E+00 0.  1.
        994   -1    0    0    0    0 -0.00000000000E+00 -0.00000000000E+00  0.00000000000E+00  0.13100000000E+03  0.13100000000E+03 0.  0.
         13    1    1    2    0    0 -0.39012584637E+01 -0.10675832469E+02  0.14909614904E+01  0.11464176670E+02  0.10566000000E+00 0. -1.
        994    1    1    2    0    0 -0.13484049154E+02 -0.12874904574E+02  0.79618255058E+02  0.15442684122E+03  0.13100000000E+03 0.  0.
        997    1    1    2    0    0  0.17385307618E+02  0.23550737043E+02  0.41889077229E+03  0.46510898211E+03  0.20000000000E+03 0.  0.
</event>
<event>
 5    1  0.8566659E-012  0.2315126E+03  0.7957747E-01  0.4551369E+00
         13   -1    0    0    0    0  0.00000000000E+00  0.00000000000E+00  0.49999998884E+03  0.50000000000E+03  0.10566000000E+00 0.  1.
        994   -1    0    0    0    0 -0.00000000000E+00 -0.00000000000E+00  0.00000000000E+00  0.13100000000E+03  0.13100000000E+03 0.  0.
         13    1    1    2    0    0  0.14520109814E+02  0.55661851256E+01  0.12885323102E+02  0.20195512406E+02  0.10566000000E+00 0. -1.
        994    1    1    2    0    0 -0.34405247239E+02 -0.77124118478E+01  0.81870290760E+02  0.15845171770E+03  0.13100000000E+03 0.  0.
        997    1    1    2    0    0  0.19885137425E+02  0.21462267222E+01  0.40524437497E+03  0.45235276989E+03  0.20000000000E+03 0.  0.
</event>
<event>
 5    1  0.8566659E-012  0.2496702E+03  0.7957747E-01  0.4337078E+00
         13   -1    0    0    0    0  0.00000000000E+00  0.00000000000E+00  0.49999998884E+03  0.50000000000E+03  0.10566000000E+00 0.  1.
        994   -1    0    0    0    0 -0.00000000000E+00 -0.00000000000E+00  0.00000000000E+00  0.13100000000E+03  0.13100000000E+03 0.  0.
         13    1    1    2    0    0  0.31219410051E+02 -0.21831954963E+02  0.36533233566E+02  0.52782327916E+02  0.10566000000E+00 0. -1.
        994    1    1    2    0    0  0.26757241331E+02  0.70373145856E+01  0.14435601630E+03  0.19688863147E+03  0.13100000000E+03 0.  0.
        997    1    1    2    0    0 -0.57976651382E+02  0.14794640377E+02  0.31911073897E+03  0.38132904061E+03  0.20000000000E+03 0.  0.
</event>
<event>
 5    1  0.8566659E-012  0.2429055E+03  0.7957747E-01  0.4412481E+00
         13   -1    0    0    0    0  0.00000000000E+00  0.00000000000E+00  0.49999998884E+03  0.50000000000E+03  0.10566000000E+00 0. -1.
        994   -1    0    0    0    0 -0.00000000000E+00 -0.00000000000E+00  0.00000000000E+00  0.13100000000E+03  0.13100000000E+03 0.  0.
         13    1    1    2    0    0  0.18348634243E+00 -0.16130091293E+02 -0.64565047319E+00  0.16144396580E+02  0.10566000000E+00 0.  1.
        994    1    1    2    0    0  0.15269135555E+01 -0.11477035939E+02  0.96614879019E+02  0.16318544257E+03  0.13100000000E+03 0.  0.
        997    1    1    2    0    0 -0.17103998979E+01  0.27607127232E+02  0.40403076029E+03  0.45167016085E+03  0.20000000000E+03 0.  0.
</event>
<event>
 5    1  0.8566659E-012  0.2384264E+03  0.7957747E-01  0.4465196E+00
         13   -1    0    0    0    0  0.00000000000E+00  0.00000000000E+00  0.49999998884E+03  0.50000000000E+03  0.10566000000E+00 0.  1.
        994   -1    0    0    0    0 -0.00000000000E+00 -0.00000000000E+00  0.00000000000E+00  0.13100000000E+03  0.13100000000E+03 0.  0.
         13    1    1    2    0    0  0.14392786826E+02  0.22339897705E+02  0.41259762003E+02  0.49077514879E+02  0.10566000000E+00 0. -1.
        994    1    1    2    0    0 -0.23381133245E+01  0.70539433020E+01  0.83503271432E+02  0.15552820075E+03  0.13100000000E+03 0.  0.
        997    1    1    2    0    0 -0.12054673502E+02 -0.29393841007E+02  0.37523695540E+03  0.42639428437E+03  0.20000000000E+03 0.  0.
</event>
<event>
 5    1  0.8566659E-012  0.2343394E+03  0.7957747E-01  0.4515399E+00
         13   -1    0    0    0    0  0.00000000000E+00  0.00000000000E+00  0.49999998884E+03  0.50000000000E+03  0.10566000000E+00 0.  1.
        994   -1    0    0    0    0 -0.00000000000E+00 -0.00000000000E+00  0.00000000000E+00  0.13100000000E+03  0.13100000000E+03 0.  0.
         13    1    1    2    0    0  0.17638084055E+02 -0.70867255447E+01  0.16501226981E+02  0.25171915779E+02  0.10566000000E+00 0. -1.
        994    1    1    2    0    0  0.33275381047E+01  0.46606196899E+02  0.10100768264E+03  0.17189171606E+03  0.13100000000E+03 0.  0.
        997    1    1    2    0    0 -0.20965622160E+02 -0.39519471354E+02  0.38249107922E+03  0.43393636816E+03  0.20000000000E+03 0.  0.
</event>
<event>
 5    1  0.8566659E-012  0.2431735E+03  0.7957747E-01  0.4409399E+00
         13   -1    0    0    0    0  0.00000000000E+00  0.00000000000E+00  0.49999998884E+03  0.50000000000E+03  0.10566000000E+00 0. -1.
        994   -1    0    0    0    0 -0.00000000000E+00 -0.00000000000E+00  0.00000000000E+00  0.13100000000E+03  0.13100000000E+03 0.  0.
         13    1    1    2    0    0  0.29853302285E+01  0.16553507084E+02 -0.49505430023E+01  0.17534247443E+02  0.10566000000E+00 0.  1.
        994    1    1    2    0    0 -0.13734194211E+02 -0.50517761854E+02  0.16155507450E+03  0.21448010269E+03  0.13100000000E+03 0.  0.
        997    1    1    2    0    0  0.10748863982E+02  0.33964254770E+02  0.34339545734E+03  0.39898564987E+03  0.20000000000E+03 0.  0.
</event>
<event>
 5    1  0.8566659E-012  0.2508546E+03  0.7957747E-01  0.4324365E+00
         13   -1    0    0    0    0  0.00000000000E+00  0.00000000000E+00  0.49999998884E+03  0.50000000000E+03  0.10566000000E+00 0.  1.
        994   -1    0    0    0    0 -0.00000000000E+00 -0.00000000000E+00  0.00000000000E+00  0.13100000000E+03  0.13100000000E+03 0.  0.
         13    1    1    2    0    0 -0.17431121052E+02 -0.37696100171E+02  0.52825080823E+02  0.67196281721E+02  0.10566000000E+00 0. -1.
        994    1    1    2    0    0 -0.88731288582E+01 -0.12392546049E+02  0.13468557953E+03  0.18850334996E+03  0.13100000000E+03 0.  0.
        997    1    1    2    0    0  0.26304249910E+02  0.50088646220E+02  0.31248932848E+03  0.37530036831E+03  0.20000000000E+03 0.  0.
</event>
<event>
 5    1  0.8566659E-012  0.2284896E+03  0.7957747E-01  0.4591028E+00
         13   -1    0    0    0    0  0.00000000000E+00  0.00000000000E+00  0.49999998884E+03  0.50000000000E+03  0.10566000000E+00 0. -1.
        994   -1    0    0    0    0 -0.00000000000E+00 -0.00000000000E+00  0.00000000000E+00  0.13100000000E+03  0.13100000000E+03 0.  0.
         13    1    1    2    0    0 -0.30652306278E+01 -0.11009026949E+02  0.32483003001E+02  0.34434734806E+02  0.10566000000E+00 0.  1.
        994    1    1    2    0    0 -0.18215831309E+02  0.14803711821E+02  0.68437663304E+02  0.14965186318E+03  0.13100000000E+03 0.  0.
        997    1    1    2    0    0  0.21281061937E+02 -0.37946848719E+01  0.39907932253E+03  0.44691340202E+03  0.20000000000E+03 0.  0.
</event>
<event>
 5    1  0.8566659E-012  0.2486393E+03  0.7957747E-01  0.4348258E+00
         13   -1    0    0    0    0  0.00000000000E+00  0.00000000000E+00  0.49999998884E+03  0.50000000000E+03  0.10566000000E+00 0.  1.
        994   -1    0    0    0    0 -0.00000000000E+00 -0.00000000000E+00  0.00000000000E+00  0.13100000000E+03  0.13100000000E+03 0.  0.
         13    1    1    2    0    0 -0.36580637829E+02 -0.10316528833E+02  0.34847814909E+02  0.51565057928E+02  0.10566000000E+00 0. -1.
        994    1    1    2    0    0 -0.23255088005E+02  0.25665883686E+02  0.20083643294E+03  0.24227218062E+03  0.13100000000E+03 0.  0.
        997    1    1    2    0    0  0.59835725834E+02 -0.15349354853E+02  0.26431574099E+03  0.33716276146E+03  0.20000000000E+03 0.  0.
</event>
<event>
 5    1  0.8566659E-012  0.2310200E+03  0.7957747E-01  0.4557746E+00
         13   -1    0    0    0    0  0.00000000000E+00  0.00000000000E+00  0.49999998884E+03  0.50000000000E+03  0.10566000000E+00 0.  1.
        994   -1    0    0    0    0 -0.00000000000E+00 -0.00000000000E+00  0.00000000000E+00  0.13100000000E+03  0.13100000000E+03 0.  0.
         13    1    1    2    0    0 -0.16328298340E+02 -0.66505767294E+01  0.28751435392E+02  0.33726839440E+02  0.10566000000E+00 0. -1.
        994    1    1    2    0    0  0.16968930619E+02  0.30392199604E+02  0.80434456662E+02  0.15761450511E+03  0.13100000000E+03 0.  0.
        997    1    1    2    0    0 -0.64063227916E+00 -0.23741622874E+02  0.39081409678E+03  0.43965865545E+03  0.20000000000E+03 0.  0.
</event>
<event>
 5    1  0.8566659E-012  0.2283884E+03  0.7957747E-01  0.4592378E+00
         13   -1    0    0    0    0  0.00000000000E+00  0.00000000000E+00  0.49999998884E+03  0.50000000000E+03  0.10566000000E+00 0. -1.
        994   -1    0    0    0    0 -0.00000000000E+00 -0.00000000000E+00  0.00000000000E+00  0.13100000000E+03  0.13100000000E+03 0.  0.
         13    1    1    2    0    0 -0.21370566782E+01  0.13017610608E+02  0.14014798797E+02  0.19247102290E+02  0.10566000000E+00 0.  1.
        994    1    1    2    0    0 -0.79190431358E+01 -0.59769718842E+02  0.10354425444E+03  0.17753180887E+03  0.13100000000E+03 0.  0.
        997    1    1    2    0    0  0.10056099814E+02  0.46752108233E+02  0.38244093560E+03  0.43422108884E+03  0.20000000000E+03 0.  0.
</event>
<event>
 5    1  0.8566659E-012  0.2377077E+03  0.7957747E-01  0.4473875E+00
         13   -1    0    0    0    0  0.00000000000E+00  0.00000000000E+00  0.49999998884E+03  0.50000000000E+03  0.10566000000E+00 0. -1.
        994   -1    0    0    0    0 -0.00000000000E+00 -0.00000000000E+00  0.00000000000E+00  0.13100000000E+03  0.13100000000E+03 0.  0.
         13    1    1    2    0    0 -0.77307470267E+01  0.26108117149E+02  0.30133483866E+02  0.40613252081E+02  0.10566000000E+00 0.  1.
        994    1    1    2    0    0 -0.50948699163E+02 -0.37948760489E+02  0.15554400648E+03  0.21305120587E+03  0.13100000000E+03 0.  0.
        997    1    1    2    0    0  0.58679446189E+02  0.11840643340E+02  0.31432249849E+03  0.37733554205E+03  0.20000000000E+03 0.  0.
</event>
<event>
 5    1  0.8566659E-012  0.2521592E+03  0.7957747E-01  0.4310522E+00
         13   -1    0    0    0    0  0.00000000000E+00  0.00000000000E+00  0.49999998884E+03  0.50000000000E+03  0.10566000000E+00 0. -1.
        994   -1    0    0    0    0 -0.00000000000E+00 -0.00000000000E+00  0.00000000000E+00  0.13100000000E+03  0.13100000000E+03 0.  0.
         13    1    1    2    0    0 -0.85290274723E+01 -0.24916667702E+02  0.15719427313E+00  0.26336676197E+02  0.10566000000E+00 0.  1.
        994    1    1    2    0    0  0.97198573647E+01 -0.12177014648E+02  0.14808822144E+03  0.19832770014E+03  0.13100000000E+03 0.  0.
        997    1    1    2    0    0 -0.11908298924E+01  0.37093682351E+02  0.35175457312E+03  0.40633562367E+03  0.20000000000E+03 0.  0.
</event>
<event>
 5    1  0.8566659E-012  0.2299169E+03  0.7957747E-01  0.4572146E+00
         13   -1    0    0    0    0  0.00000000000E+00  0.00000000000E+00  0.49999998884E+03  0.50000000000E+03  0.10566000000E+00 0. -1.
        994   -1    0    0    0    0 -0.00000000000E+00 -0.00000000000E+00  0.00000000000E+00  0.13100000000E+03  0.13100000000E+03 0.  0.
         13    1    1    2    0    0 -0.85633805885E+01  0.10117451157E+02  0.30453395231E+02  0.33213171336E+02  0.10566000000E+00 0.  1.
        994    1    1    2    0    0 -0.28257624615E+02 -0.14581939841E+02  0.75927933688E+02  0.15471644202E+03  0.13100000000E+03 0.  0.
        997    1    1    2    0    0  0.36821005203E+02  0.44644886834E+01  0.39361865992E+03  0.44307038664E+03  0.20000000000E+03 0.  0.
</event>
<event>
 5    1  0.8566659E-012  0.2309662E+03  0.7957747E-01  0.4558445E+00
         13   -1    0    0    0    0  0.00000000000E+00  0.00000000000E+00  0.49999998884E+03  0.50000000000E+03  0.10566000000E+00 0. -1.
        994   -1    0    0    0    0 -0.00000000000E+00 -0.00000000000E+00  0.00000000000E+00  0.13100000000E+03  0.13100000000E+03 0.  0.
         13    1    1    2    0    0  0.12453295760E+01  0.13463125694E+02  0.50345616993E+02  0.52129635656E+02  0.10566000000E+00 0.  1.
        994    1    1    2    0    0 -0.28495408754E+02 -0.56776069143E+01  0.76261346061E+02  0.15434058586E+03  0.13100000000E+03 0.  0.
        997    1    1    2    0    0  0.27250079178E+02 -0.77855187794E+01  0.37339302578E+03  0.42452977848E+03  0.20000000000E+03 0.  0.
</event>
<event>
 5    1  0.8566659E-012  0.2360027E+03  0.7957747E-01  0.4494717E+00
         13   -1    0    0    0    0  0.00000000000E+00  0.00000000000E+00  0.49999998884E+03  0.50000000000E+03  0.10566000000E+00 0. -1.
        994   -1    0    0    0    0 -0.00000000000E+00 -0.00000000000E+00  0.00000000000E+00  0.13100000000E+03  0.13100000000E+03 0.  0.
         13    1    1    2    0    0 -0.20819132029E+02 -0.17075098914E+02  0.59657983796E+02  0.65452894940E+02  0.10566000000E+00 0.  1.
        994    1    1    2    0    0  0.13932652203E+02  0.66004194610E+02  0.15813389163E+03  0.21614347130E+03  0.13100000000E+03 0.  0.
        997    1    1    2    0    0  0.68864798269E+01 -0.48929095697E+02  0.28220811341E+03  0.34940363376E+03  0.20000000000E+03 0.  0.
</event>
<event>
 5    1  0.8566659E-012  0.2383143E+03  0.7957747E-01  0.4466546E+00
         13   -1    0    0    0    0  0.00000000000E+00  0.00000000000E+00  0.49999998884E+03  0.50000000000E+03  0.10566000000E+00 0. -1.
        994   -1    0    0    0    0 -0.00000000000E+00 -0.00000000000E+00  0.00000000000E+00  0.13100000000E+03  0.13100000000E+03 0.  0.
         13    1    1    2    0    0 -0.16791634182E+02  0.22427099551E+02  0.56816253929E+02  0.63348493647E+02  0.10566000000E+00 0.  1.
        994    1    1    2    0    0  0.11760557686E+02 -0.12895112248E+01  0.84303903782E+02  0.15623098844E+03  0.13100000000E+03 0.  0.
        997    1    1    2    0    0  0.50310764962E+01 -0.21137588326E+02  0.35887983113E+03  0.41142051791E+03  0.20000000000E+03 0.  0.
</event>
<event>
 5    1  0.8566659E-012  0.2342944E+03  0.7957747E-01  0.4515963E+00
         13   -1    0    0    0    0  0.00000000000E+00  0.00000000000E+00  0.49999998884E+03  0.50000000000E+03  0.10566000000E+00 0.  1.
        994   -1    0    0    0    0 -0.00000000000E+00 -0.00000000000E+00  0.00000000000E+00  0.13100000000E+03  0.13100000000E+03 0.  0.
         13    1    1    2    0    0  0.12793562043E+01 -0.12305237984E+02  0.20627636315E+01  0.12542798411E+02  0.10566000000E+00 0. -1.
        994    1    1    2    0    0  0.39100694007E+02  0.24885615388E+02  0.10037841586E+03  0.17142049030E+03  0.13100000000E+03 0.  0.
        997    1    1    2    0    0 -0.40380050212E+02 -0.12580377404E+02  0.39755880934E+03  0.44703671128E+03  0.20000000000E+03 0.  0.
</event>
<event>
 5    1  0.8566659E-012  0.2496864E+03  0.7957747E-01  0.4336903E+00
         13   -1    0    0    0    0  0.00000000000E+00  0.00000000000E+00  0.49999998884E+03  0.50000000000E+03  0.10566000000E+00 0.  1.
        994   -1    0    0    0    0 -0.00000000000E+00 -0.00000000000E+00  0.00000000000E+00  0.13100000000E+03  0.13100000000E+03 0.  0.
         13    1    1    2    0    0  0.83972092222E+01 -0.37724906767E+02  0.15652125619E+02  0.41697504887E+02  0.10566000000E+00 0. -1.
        994    1    1    2    0    0 -0.75966871474E+01  0.32532047963E+02  0.18091002875E+03  0.22584393351E+03  0.13100000000E+03 0.  0.
        997    1    1    2    0    0 -0.80052207479E+00  0.51928588046E+01  0.30343783446E+03  0.36345856160E+03  0.20000000000E+03 0.  0.
</event>
<event>
 5    1  0.8566659E-012  0.2477528E+03  0.7957747E-01  0.4357960E+00
         13   -1    0    0    0    0  0.00000000000E+00  0.00000000000E+00  0.49999998884E+03  0.50000000000E+03  0.10566000000E+00 0.  1.
        994   -1    0    0    0    0 -0.00000000000E+00 -0.00000000000E+00  0.00000000000E+00  0.13100000000E+03  0.13100000000E+03 0.  0.
         13    1    1    2    0    0 -0.78456360306E+01 -0.10431661336E+02 -0.76724847095E+01  0.15141061673E+02  0.10566000000E+00 0. -1.
        994    1    1    2    0    0  0.67600285639E+01 -0.23014303260E+02  0.12435949596E+03  0.18221317289E+03  0.13100000000E+03 0.  0.
        997    1    1    2    0    0  0.10856074667E+01  0.33445964596E+02  0.38331297759E+03  0.43364576543E+03  0.20000000000E+03 0.  0.
</event>
<event>
 5    1  0.8566659E-012  0.2456670E+03  0.7957747E-01  0.4381110E+00
         13   -1    0    0    0    0  0.00000000000E+00  0.00000000000E+00  0.49999998884E+03  0.50000000000E+03  0.10566000000E+00 0. -1.
        994   -1    0    0    0    0 -0.00000000000E+00 -0.00000000000E+00  0.00000000000E+00  0.13100000000E+03  0.13100000000E+03 0.  0.
         13    1    1    2    0    0  0.26498696040E+02 -0.15372887680E+02  0.13225343602E+02  0.33368060251E+02  0.10566000000E+00 0.  1.
        994    1    1    2    0    0  0.20034605445E+01  0.42494737038E+02  0.14729878539E+03  0.20166246232E+03  0.13100000000E+03 0.  0.
        997    1    1    2    0    0 -0.28502156585E+02 -0.27121849358E+02  0.33947585984E+03  0.39596947743E+03  0.20000000000E+03 0.  0.
</event>
<event>
 5    1  0.8566659E-012  0.2354111E+03  0.7957747E-01  0.4502033E+00
         13   -1    0    0    0    0  0.00000000000E+00  0.00000000000E+00  0.49999998884E+03  0.50000000000E+03  0.10566000000E+00 0. -1.
        994   -1    0    0    0    0 -0.00000000000E+00 -0.00000000000E+00  0.00000000000E+00  0.13100000000E+03  0.13100000000E+03 0.  0.
         13    1    1    2    0    0  0.20494681902E+02 -0.21830408611E+02  0.52060224877E+02  0.60057280197E+02  0.10566000000E+00 0.  1.
        994    1    1    2    0    0 -0.37402983469E+02  0.51991766858E+02  0.14011153291E+03  0.20222356106E+03  0.13100000000E+03 0.  0.
        997    1    1    2    0    0  0.16908301567E+02 -0.30161358247E+02  0.30782823105E+03  0.36871915874E+03  0.20000000000E+03 0.  0.
</event>
<event>
 5    1  0.8566659E-012  0.2351538E+03  0.7957747E-01  0.4505229E+00
         13   -1    0    0    0    0  0.00000000000E+00  0.00000000000E+00  0.49999998884E+03  0.50000000000E+03  0.10566000000E+00 0. -1.
        994   -1    0    0    0    0 -0.00000000000E+00 -0.00000000000E+00  0.00000000000E+00  0.13100000000E+03  0.13100000000E+03 0.  0.
         13    1    1    2    0    0  0.18450956908E+02  0.62930311811E+00  0.14541364901E+02  0.23500984883E+02  0.10566000000E+00 0.  1.
        994    1    1    2    0    0  0.80654048714E+01  0.65139682447E+02  0.14375347841E+03  0.20526639164E+03  0.13100000000E+03 0.  0.
        997    1    1    2    0    0 -0.26516361780E+02 -0.65768985565E+02  0.34170514553E+03  0.40223262347E+03  0.20000000000E+03 0.  0.
</event>
<event>
 5    1  0.8566659E-012  0.2389849E+03  0.7957747E-01  0.4458495E+00
         13   -1    0    0    0    0  0.00000000000E+00  0.00000000000E+00  0.49999998884E+03  0.50000000000E+03  0.10566000000E+00 0. -1.
        994   -1    0    0    0    0 -0.00000000000E+00 -0.00000000000E+00  0.00000000000E+00  0.13100000000E+03  0.13100000000E+03 0.  0.
         13    1    1    2    0    0 -0.16746886608E+02  0.13569584210E+02  0.79770060000E+02  0.82630898961E+02  0.10566000000E+00 0.  1.
        994    1    1    2    0    0 -0.26305678506E+02 -0.19245870346E+02  0.98691832813E+02  0.16722281576E+03  0.13100000000E+03 0.  0.
        997    1    1    2    0    0  0.43052565114E+02  0.56762861362E+01  0.32153809602E+03  0.38114628528E+03  0.20000000000E+03 0.  0.
</event>
<event>
 5    1  0.8566659E-012  0.2409656E+03  0.7957747E-01  0.4435027E+00
         13   -1    0    0    0    0  0.00000000000E+00  0.00000000000E+00  0.49999998884E+03  0.50000000000E+03  0.10566000000E+00 0. -1.
        994   -1    0    0    0    0 -0.00000000000E+00 -0.00000000000E+00  0.00000000000E+00  0.13100000000E+03  0.13100000000E+03 0.  0.
         13    1    1    2    0    0 -0.15484779371E+02  0.30993604636E+02  0.64438968092E+02  0.73162652312E+02  0.10566000000E+00 0.  1.
        994    1    1    2    0    0  0.69139257591E+01 -0.26053818229E+02  0.99714996846E+02  0.16682531106E+03  0.13100000000E+03 0.  0.
        997    1    1    2    0    0  0.85708536120E+01 -0.49397864066E+01  0.33584602390E+03  0.39101203663E+03  0.20000000000E+03 0.  0.
</event>
<event>
 5    1  0.8566659E-012  0.2456745E+03  0.7957747E-01  0.4381026E+00
         13   -1    0    0    0    0  0.00000000000E+00  0.00000000000E+00  0.49999998884E+03  0.50000000000E+03  0.10566000000E+00 0. -1.
        994   -1    0    0    0    0 -0.00000000000E+00 -0.00000000000E+00  0.00000000000E+00  0.13100000000E+03  0.13100000000E+03 0.  0.
         13    1    1    2    0    0 -0.82202381207E+01  0.36616955189E+02  0.83125235878E+02  0.91204110247E+02  0.10566000000E+00 0.  1.
        994    1    1    2    0    0  0.77051652036E+00 -0.83796848511E+01  0.10474425005E+03  0.16793799669E+03  0.13100000000E+03 0.  0.
        997    1    1    2    0    0  0.74497216003E+01 -0.28237270338E+02  0.31213050290E+03  0.37185789306E+03  0.20000000000E+03 0.  0.
</event>
<event>
 5    1  0.8566659E-012  0.2505508E+03  0.7957747E-01  0.4327612E+00
         13   -1    0    0    0    0  0.00000000000E+00  0.00000000000E+00  0.49999998884E+03  0.50000000000E+03  0.10566000000E+00 0.  1.
        994   -1    0    0    0    0 -0.00000000000E+00 -0.00000000000E+00  0.00000000000E+00  0.13100000000E+03  0.13100000000E+03 0.  0.
         13    1    1    2    0    0  0.23441746898E+02 -0.54521047539E+01 -0.40870537048E+01  0.24412212434E+02  0.10566000000E+00 0. -1.
        994    1    1    2    0    0 -0.12710417139E+02  0.27038608227E+02  0.17327676920E+03  0.21926805463E+03  0.13100000000E+03 0.  0.
        997    1    1    2    0    0 -0.10731329759E+02 -0.21586503473E+02  0.33081027334E+03  0.38731973294E+03  0.20000000000E+03 0.  0.
</event>
<event>
 5    1  0.8566659E-012  0.2435909E+03  0.7957747E-01  0.4404617E+00
         13   -1    0    0    0    0  0.00000000000E+00  0.00000000000E+00  0.49999998884E+03  0.50000000000E+03  0.10566000000E+00 0.  1.
        994   -1    0    0    0    0 -0.00000000000E+00 -0.00000000000E+00  0.00000000000E+00  0.13100000000E+03  0.13100000000E+03 0.  0.
         13    1    1    2    0    0 -0.12373054129E+02  0.18043883548E+02  0.41580832744E+01  0.22270496684E+02  0.10566000000E+00 0. -1.
        994    1    1    2    0    0  0.23033307466E+02 -0.45240729534E+01  0.10562977924E+03  0.16991071406E+03  0.13100000000E+03 0.  0.
        997    1    1    2    0    0 -0.10660253337E+02 -0.13519810595E+02  0.39021212632E+03  0.43881878926E+03  0.20000000000E+03 0.  0.
</event>
<event>
 5    1  0.8566659E-012  0.2487403E+03  0.7957747E-01  0.4347158E+00
         13   -1    0    0    0    0  0.00000000000E+00  0.00000000000E+00  0.49999998884E+03  0.50000000000E+03  0.10566000000E+00 0. -1.
        994   -1    0    0    0    0 -0.00000000000E+00 -0.00000000000E+00  0.00000000000E+00  0.13100000000E+03  0.13100000000E+03 0.  0.
         13    1    1    2    0    0 -0.28568497878E+02 -0.34131889500E+02  0.90448935101E+02  0.10080756905E+03  0.10566000000E+00 0.  1.
        994    1    1    2    0    0  0.19188314688E+02  0.18845052518E+02  0.13478453683E+03  0.18987153234E+03  0.13100000000E+03 0.  0.
        997    1    1    2    0    0  0.93801831891E+01  0.15286836982E+02  0.27476651690E+03  0.34032089861E+03  0.20000000000E+03 0.  0.
</event>
<event>
 5    1  0.8566659E-012  0.2446654E+03  0.7957747E-01  0.4392392E+00
         13   -1    0    0    0    0  0.00000000000E+00  0.00000000000E+00  0.49999998884E+03  0.50000000000E+03  0.10566000000E+00 0.  1.
        994   -1    0    0    0    0 -0.00000000000E+00 -0.00000000000E+00  0.00000000000E+00  0.13100000000E+03  0.13100000000E+03 0.  0.
         13    1    1    2    0    0  0.11436262252E+02 -0.27495778090E+02  0.19593705591E+02  0.35647305226E+02  0.10566000000E+00 0. -1.
        994    1    1    2    0    0  0.24223637999E+02  0.10070726516E+02  0.11222407803E+03  0.17448050854E+03  0.13100000000E+03 0.  0.
        997    1    1    2    0    0 -0.35659900252E+02  0.17425051573E+02  0.36818220522E+03  0.42087218624E+03  0.20000000000E+03 0.  0.
</event>
<event>
 5    1  0.8566659E-012  0.2497339E+03  0.7957747E-01  0.4336391E+00
         13   -1    0    0    0    0  0.00000000000E+00  0.00000000000E+00  0.49999998884E+03  0.50000000000E+03  0.10566000000E+00 0. -1.
        994   -1    0    0    0    0 -0.00000000000E+00 -0.00000000000E+00  0.00000000000E+00  0.13100000000E+03  0.13100000000E+03 0.  0.
         13    1    1    2    0    0 -0.22568676475E+02 -0.72607757739E+01  0.12464193615E+03  0.12687666229E+03  0.10566000000E+00 0.  1.
        994    1    1    2    0    0  0.31985799903E+02  0.92092144000E+01  0.17174218999E+03  0.21855040803E+03  0.13100000000E+03 0.  0.
        997    1    1    2    0    0 -0.94171234274E+01 -0.19484386261E+01  0.20361586269E+03  0.28557292968E+03  0.20000000000E+03 0.  0.
</event>
<event>
 5    1  0.8566659E-012  0.2519397E+03  0.7957747E-01  0.4312840E+00
         13   -1    0    0    0    0  0.00000000000E+00  0.00000000000E+00  0.49999998884E+03  0.50000000000E+03  0.10566000000E+00 0.  1.
        994   -1    0    0    0    0 -0.00000000000E+00 -0.00000000000E+00  0.00000000000E+00  0.13100000000E+03  0.13100000000E+03 0.  0.
         13    1    1    2    0    0 -0.17047445712E+02  0.28579256570E+02  0.71738900903E+01  0.34042108843E+02  0.10566000000E+00 0. -1.
        994    1    1    2    0    0 -0.74855891415E+01 -0.20477485858E+02  0.16154667565E+03  0.20912601437E+03  0.13100000000E+03 0.  0.
        997    1    1    2    0    0  0.24533034853E+02 -0.81017707115E+01  0.33127942309E+03  0.38783187679E+03  0.20000000000E+03 0.  0.
</event>
<event>
 5    1  0.8566659E-012  0.2285052E+03  0.7957747E-01  0.4590821E+00
         13   -1    0    0    0    0  0.00000000000E+00  0.00000000000E+00  0.49999998884E+03  0.50000000000E+03  0.10566000000E+00 0.  1.
        994   -1    0    0    0    0 -0.00000000000E+00 -0.00000000000E+00  0.00000000000E+00  0.13100000000E+03  0.13100000000E+03 0.  0.
         13    1    1    2    0    0  0.12295010319E+02 -0.35640345527E+01  0.36144956387E+02  0.38344995205E+02  0.10566000000E+00 0. -1.
        994    1    1    2    0    0 -0.31813168414E+02  0.14659505848E+02  0.75386662084E+02  0.15514872741E+03  0.13100000000E+03 0.  0.
        997    1    1    2    0    0  0.19518158095E+02 -0.11095471295E+02  0.38846837036E+03  0.43750627739E+03  0.20000000000E+03 0.  0.
</event>
<event>
 5    1  0.8566659E-012  0.2449749E+03  0.7957747E-01  0.4388895E+00
         13   -1    0    0    0    0  0.00000000000E+00  0.00000000000E+00  0.49999998884E+03  0.50000000000E+03  0.10566000000E+00 0. -1.
        994   -1    0    0    0    0 -0.00000000000E+00 -0.00000000000E+00  0.00000000000E+00  0.13100000000E+03  0.13100000000E+03 0.  0.
         13    1    1    2    0    0 -0.12614044277E+02  0.15721871371E+00 -0.68157037719E+01  0.14338891613E+02  0.10566000000E+00 0.  1.
        994    1    1    2    0    0 -0.25470236883E+02 -0.37820723798E+02  0.15139399452E+03  0.20532969023E+03  0.13100000000E+03 0.  0.
        997    1    1    2    0    0  0.38084281160E+02  0.37663505085E+02  0.35542169809E+03  0.41133141815E+03  0.20000000000E+03 0.  0.
</event>
<event>
 5    1  0.8566659E-012  0.2452464E+03  0.7957747E-01  0.4385834E+00
         13   -1    0    0    0    0  0.00000000000E+00  0.00000000000E+00  0.49999998884E+03  0.50000000000E+03  0.10566000000E+00 0. -1.
        994   -1    0    0    0    0 -0.00000000000E+00 -0.00000000000E+00  0.00000000000E+00  0.13100000000E+03  0.13100000000E+03 0.  0.
         13    1    1    2    0    0 -0.17856176348E+02 -0.12572046454E+02 -0.11608233598E+00  0.21838590270E+02  0.10566000000E+00 0.  1.
        994    1    1    2    0    0  0.19528326911E+02  0.32984046371E+02  0.13286758088E+03  0.19048384949E+03  0.13100000000E+03 0.  0.
        997    1    1    2    0    0 -0.16721505634E+01 -0.20411999917E+02  0.36724849029E+03  0.41867756024E+03  0.20000000000E+03 0.  0.
</event>
<event>
 5    1  0.8566659E-012  0.2376319E+03  0.7957747E-01  0.4474794E+00
         13   -1    0    0    0    0  0.00000000000E+00  0.00000000000E+00  0.49999998884E+03  0.50000000000E+03  0.10566000000E+00 0.  1.
        994   -1    0    0    0    0 -0.00000000000E+00 -0.00000000000E+00  0.00000000000E+00  0.13100000000E+03  0.13100000000E+03 0.  0.
         13    1    1    2    0    0 -0.35158378751E+01 -0.16412551013E+02  0.23926687474E+01  0.16954910040E+02  0.10566000000E+00 0. -1.
        994    1    1    2    0    0 -0.71658378504E+01  0.47414938920E+02  0.11386675143E+03  0.18007265963E+03  0.13100000000E+03 0.  0.
        997    1    1    2    0    0  0.10681675726E+02 -0.31002387908E+02  0.38374056866E+03  0.43397243033E+03  0.20000000000E+03 0.  0.
</event>
<event>
 5    1  0.8566659E-012  0.2345305E+03  0.7957747E-01  0.4513005E+00
         13   -1    0    0    0    0  0.00000000000E+00  0.00000000000E+00  0.49999998884E+03  0.50000000000E+03  0.10566000000E+00 0. -1.
        994   -1    0    0    0    0 -0.00000000000E+00 -0.00000000000E+00  0.00000000000E+00  0.13100000000E+03  0.13100000000E+03 0.  0.
         13    1    1    2    0    0  0.22258605544E+02  0.92249864772E+01  0.30942259656E+02  0.39217094397E+02  0.10566000000E+00 0.  1.
        994    1    1    2    0    0 -0.31942301361E+02 -0.19440898981E+02  0.90936162175E+02  0.16379451993E+03  0.13100000000E+03 0.  0.
        997    1    1    2    0    0  0.96836958161E+01  0.10215912503E+02  0.37812156701E+03  0.42798838567E+03  0.20000000000E+03 0.  0.
</event>
<event>
 5    1  0.8566659E-012  0.2367711E+03  0.7957747E-01  0.4485279E+00
         13   -1    0    0    0    0  0.00000000000E+00  0.00000000000E+00  0.49999998884E+03  0.50000000000E+03  0.10566000000E+00 0.  1.
        994   -1    0    0    0    0 -0.00000000000E+00 -0.00000000000E+00  0.00000000000E+00  0.13100000000E+03  0.13100000000E+03 0.  0.
         13    1    1    2    0    0  0.13539649303E+02  0.15891676145E+02  0.14401826322E+02  0.25363186696E+02  0.10566000000E+00 0. -1.
        994    1    1    2    0    0 -0.12468414179E+02 -0.14467698980E+02  0.83434820150E+02  0.15648368886E+03  0.13100000000E+03 0.  0.
        997    1    1    2    0    0 -0.10712351240E+01 -0.14239771651E+01  0.40216334236E+03  0.44915312444E+03  0.20000000000E+03 0.  0.
</event>
<event>
 5    1  0.8566659E-012  0.2397138E+03  0.7957747E-01  0.4449805E+00
         13   -1    0    0    0    0  0.00000000000E+00  0.00000000000E+00  0.49999998884E+03  0.50000000000E+03  0.10566000000E+00 0.  1.
        994   -1    0    0    0    0 -0.00000000000E+00 -0.00000000000E+00  0.00000000000E+00  0.13100000000E+03  0.13100000000E+03 0.  0.
         13    1    1    2    0    0 -0.89893071886E+01  0.15418499045E+02  0.46272078252E+01  0.18438003493E+02  0.10566000000E+00 0. -1.
        994    1    1    2    0    0  0.27370554030E+02  0.24942771720E+02  0.10580801352E+03  0.17241700848E+03  0.13100000000E+03 0.  0.
        997    1    1    2    0    0 -0.18381246841E+02 -0.40361270765E+02  0.38956476749E+03  0.44014498802E+03  0.20000000000E+03 0.  0.
</event>
<event>
 5    1  0.8566659E-012  0.2390625E+03  0.7957747E-01  0.4457567E+00
         13   -1    0    0    0    0  0.00000000000E+00  0.00000000000E+00  0.49999998884E+03  0.50000000000E+03  0.10566000000E+00 0.  1.
        994   -1    0    0    0    0 -0.00000000000E+00 -0.00000000000E+00  0.00000000000E+00  0.13100000000E+03  0.13100000000E+03 0.  0.
         13    1    1    2    0    0 -0.18241409109E+02 -0.11327463437E+02  0.90419969892E+02  0.92934614399E+02  0.10566000000E+00 0. -1.
        994    1    1    2    0    0 -0.38620019312E+01  0.30535445103E+02  0.97234450187E+02  0.16602068175E+03  0.13100000000E+03 0.  0.
        997    1    1    2    0    0  0.22103411040E+02 -0.19207981666E+02  0.31234556876E+03  0.37204470385E+03  0.20000000000E+03 0.  0.
</event>
<event>
 5    1  0.8566659E-012  0.2393070E+03  0.7957747E-01  0.4454647E+00
         13   -1    0    0    0    0  0.00000000000E+00  0.00000000000E+00  0.49999998884E+03  0.50000000000E+03  0.10566000000E+00 0. -1.
        994   -1    0    0    0    0 -0.00000000000E+00 -0.00000000000E+00  0.00000000000E+00  0.13100000000E+03  0.13100000000E+03 0.  0.
         13    1    1    2    0    0  0.19343927054E+02  0.14704826322E+02  0.12095352243E+02  0.27142736431E+02  0.10566000000E+00 0.  1.
        994    1    1    2    0    0 -0.52938956866E+02  0.25563229556E+02  0.14948706849E+03  0.20727613347E+03  0.13100000000E+03 0.  0.
        997    1    1    2    0    0  0.33595029812E+02 -0.40268055878E+02  0.33841756810E+03  0.39658113010E+03  0.20000000000E+03 0.  0.
</event>
<event>
 5    1  0.8566659E-012  0.2514257E+03  0.7957747E-01  0.4318285E+00
         13   -1    0    0    0    0  0.00000000000E+00  0.00000000000E+00  0.49999998884E+03  0.50000000000E+03  0.10566000000E+00 0. -1.
        994   -1    0    0    0    0 -0.00000000000E+00 -0.00000000000E+00  0.00000000000E+00  0.13100000000E+03  0.13100000000E+03 0.  0.
         13    1    1    2    0    0 -0.18090437001E+02 -0.13003294911E+02 -0.63705791193E+01  0.23172074395E+02  0.10566000000E+00 0.  1.
        994    1    1    2    0    0 -0.10509355636E+02 -0.14798403399E+02  0.20315844824E+03  0.24241244686E+03  0.13100000000E+03 0.  0.
        997    1    1    2    0    0  0.28599792637E+02  0.27801698310E+02  0.30321211971E+03  0.36541547875E+03  0.20000000000E+03 0.  0.
</event>
<event>
 5    1  0.8566659E-012  0.2291202E+03  0.7957747E-01  0.4582651E+00
         13   -1    0    0    0    0  0.00000000000E+00  0.00000000000E+00  0.49999998884E+03  0.50000000000E+03  0.10566000000E+00 0.  1.
        994   -1    0    0    0    0 -0.00000000000E+00 -0.00000000000E+00  0.00000000000E+00  0.13100000000E+03  0.13100000000E+03 0.  0.
         13    1    1    2    0    0 -0.42192037247E+01  0.13117052790E+02  0.34433877598E+02  0.37088567571E+02  0.10566000000E+00 0. -1.
        994    1    1    2    0    0 -0.35028911190E+02 -0.50116813091E+02  0.10717130778E+03  0.17995946428E+03  0.13100000000E+03 0.  0.
        997    1    1    2    0    0  0.39248114914E+02  0.36999760300E+02  0.35839480346E+03  0.41395196815E+03  0.20000000000E+03 0.  0.
</event>
<event>
 5    1  0.8566659E-012  0.2507965E+03  0.7957747E-01  0.4324986E+00
         13   -1    0    0    0    0  0.00000000000E+00  0.00000000000E+00  0.49999998884E+03  0.50000000000E+03  0.10566000000E+00 0.  1.
        994   -1    0    0    0    0 -0.00000000000E+00 -0.00000000000E+00  0.00000000000E+00  0.13100000000E+03  0.13100000000E+03 0.  0.
         13    1    1    2    0    0 -0.89144256540E+01  0.34989300343E+02  0.13777585979E+02  0.38646489655E+02  0.10566000000E+00 0. -1.
        994    1    1    2    0    0 -0.57218512200E+01 -0.23799801809E+02  0.14946050112E+03  0.20024637710E+03  0.13100000000E+03 0.  0.
        997    1    1    2    0    0  0.14636276874E+02 -0.11189498534E+02  0.33676190174E+03  0.39210713324E+03  0.20000000000E+03 0.  0.
</event>
<event>
 5    1  0.8566659E-012  0.2519484E+03  0.7957747E-01  0.4312748E+00
         13   -1    0    0    0    0  0.00000000000E+00  0.00000000000E+00  0.49999998884E+03  0.50000000000E+03  0.10566000000E+00 0. -1.
        994   -1    0    0    0    0 -0.00000000000E+00 -0.00000000000E+00  0.00000000000E+00  0.13100000000E+03  0.13100000000E+03 0.  0.
         13    1    1    2    0    0 -0.22072097991E+02 -0.34160326162E+02  0.35616748887E+02  0.54061718050E+02  0.10566000000E+00 0.  1.
        994    1    1    2    0    0 -0.63461932752E+01 -0.13567895749E+02  0.14455465913E+03  0.19565636060E+03  0.13100000000E+03 0.  0.
        997    1    1    2    0    0  0.28418291267E+02  0.47728221911E+02  0.31982858082E+03  0.38128192135E+03  0.20000000000E+03 0.  0.
</event>
<event>
 5    1  0.8566659E-012  0.2532404E+03  0.7957747E-01  0.4299176E+00
         13   -1    0    0    0    0  0.00000000000E+00  0.00000000000E+00  0.49999998884E+03  0.50000000000E+03  0.10566000000E+00 0.  1.
        994   -1    0    0    0    0 -0.00000000000E+00 -0.00000000000E+00  0.00000000000E+00  0.13100000000E+03  0.13100000000E+03 0.  0.
         13    1    1    2    0    0 -0.21643535695E+02  0.16896972511E+02 -0.88425187666E+00  0.27472593304E+02  0.10566000000E+00 0. -1.
        994    1    1    2    0    0  0.58771406300E+01  0.10125290145E+02  0.16059469699E+03  0.20757822377E+03  0.13100000000E+03 0.  0.
        997    1    1    2    0    0  0.15766395065E+02 -0.27022262656E+02  0.34028954372E+03  0.39594918293E+03  0.20000000000E+03 0.  0.
</event>
<event>
 5    1  0.8566659E-012  0.2433698E+03  0.7957747E-01  0.4407148E+00
         13   -1    0    0    0    0  0.00000000000E+00  0.00000000000E+00  0.49999998884E+03  0.50000000000E+03  0.10566000000E+00 0.  1.
        994   -1    0    0    0    0 -0.00000000000E+00 -0.00000000000E+00  0.00000000000E+00  0.13100000000E+03  0.13100000000E+03 0.  0.
         13    1    1    2    0    0 -0.24919960539E+02 -0.25822160411E+02  0.64231461790E+02  0.73576356592E+02  0.10566000000E+00 0. -1.
        994    1    1    2    0    0 -0.12667327183E+02  0.29901825238E+02  0.11393149829E+03  0.17662379974E+03  0.13100000000E+03 0.  0.
        997    1    1    2    0    0  0.37587287722E+02 -0.40796648275E+01  0.32183702875E+03  0.38079984367E+03  0.20000000000E+03 0.  0.
</event>
<event>
 5    1  0.8566659E-012  0.2499032E+03  0.7957747E-01  0.4334566E+00
         13   -1    0    0    0    0  0.00000000000E+00  0.00000000000E+00  0.49999998884E+03  0.50000000000E+03  0.10566000000E+00 0.  1.
        994   -1    0    0    0    0 -0.00000000000E+00 -0.00000000000E+00  0.00000000000E+00  0.13100000000E+03  0.13100000000E+03 0.  0.
         13    1    1    2    0    0  0.27895987357E+02  0.23572419658E+02  0.82039637896E+02  0.89801772974E+02  0.10566000000E+00 0. -1.
        994    1    1    2    0    0 -0.36041122468E+01  0.31827940927E+02  0.16479501569E+03  0.21294225660E+03  0.13100000000E+03 0.  0.
        997    1    1    2    0    0 -0.24291875110E+02 -0.55400360585E+02  0.25316533525E+03  0.32825597043E+03  0.20000000000E+03 0.  0.
</event>
<event>
 5    1  0.8566659E-012  0.2341295E+03  0.7957747E-01  0.4518034E+00
         13   -1    0    0    0    0  0.00000000000E+00  0.00000000000E+00  0.49999998884E+03  0.50000000000E+03  0.10566000000E+00 0.  1.
        994   -1    0    0    0    0 -0.00000000000E+00 -0.00000000000E+00  0.00000000000E+00  0.13100000000E+03  0.13100000000E+03 0.  0.
         13    1    1    2    0    0  0.49502980912E+00 -0.15126614031E+02  0.79409084073E+01  0.17091772784E+02  0.10566000000E+00 0. -1.
        994    1    1    2    0    0 -0.73395736129E+00  0.13169474844E+02  0.75384758807E+02  0.15171629979E+03  0.13100000000E+03 0.  0.
        997    1    1    2    0    0  0.23892755217E+00  0.19571391866E+01  0.41667432162E+03  0.46219192743E+03  0.20000000000E+03 0.  0.
</event>
<event>
 5    1  0.8566659E-012  0.2461420E+03  0.7957747E-01  0.4375798E+00
         13   -1    0    0    0    0  0.00000000000E+00  0.00000000000E+00  0.49999998884E+03  0.50000000000E+03  0.10566000000E+00 0.  1.
        994   -1    0    0    0    0 -0.00000000000E+00 -0.00000000000E+00  0.00000000000E+00  0.13100000000E+03  0.13100000000E+03 0.  0.
         13    1    1    2    0    0  0.90618694943E+00  0.28051733776E+02  0.94533534581E+01  0.29615840327E+02  0.10566000000E+00 0. -1.
        994    1    1    2    0    0 -0.23223454279E+02 -0.17098335773E+02  0.12194275263E+03  0.18128076797E+03  0.13100000000E+03 0.  0.
        997    1    1    2    0    0  0.22317267329E+02 -0.10953398003E+02  0.36860388275E+03  0.42010339171E+03  0.20000000000E+03 0.  0.
</event>
<event>
 5    1  0.8566659E-012  0.2404406E+03  0.7957747E-01  0.4441202E+00
         13   -1    0    0    0    0  0.00000000000E+00  0.00000000000E+00  0.49999998884E+03  0.50000000000E+03  0.10566000000E+00 0. -1.
        994   -1    0    0    0    0 -0.00000000000E+00 -0.00000000000E+00  0.00000000000E+00  0.13100000000E+03  0.13100000000E+03 0.  0.
         13    1    1    2    0    0 -0.27426718024E+02  0.85345136304E+01  0.73840746163E+02  0.79230863573E+02  0.10566000000E+00 0.  1.
        994    1    1    2    0    0  0.24579601514E+02  0.36882695158E+02  0.11913562228E+03  0.18253434337E+03  0.13100000000E+03 0.  0.
        997    1    1    2    0    0  0.28471165095E+01 -0.45417208789E+02  0.30702362039E+03  0.36923479306E+03  0.20000000000E+03 0.  0.
</event>
<event>
 5    1  0.8566659E-012  0.2467890E+03  0.7957747E-01  0.4368600E+00
         13   -1    0    0    0    0  0.00000000000E+00  0.00000000000E+00  0.49999998884E+03  0.50000000000E+03  0.10566000000E+00 0.  1.
        994   -1    0    0    0    0 -0.00000000000E+00 -0.00000000000E+00  0.00000000000E+00  0.13100000000E+03  0.13100000000E+03 0.  0.
         13    1    1    2    0    0  0.31364578539E+02 -0.23009530123E+02  0.43997564628E+02  0.58727950080E+02  0.10566000000E+00 0. -1.
        994    1    1    2    0    0  0.22742790451E+02  0.36612305286E+02  0.19218755376E+03  0.23654756654E+03  0.13100000000E+03 0.  0.
        997    1    1    2    0    0 -0.54107368990E+02 -0.13602775163E+02  0.26381487044E+03  0.33572448338E+03  0.20000000000E+03 0.  0.
</event>
<event>
 5    1  0.8566659E-012  0.2347240E+03  0.7957747E-01  0.4510586E+00
         13   -1    0    0    0    0  0.00000000000E+00  0.00000000000E+00  0.49999998884E+03  0.50000000000E+03  0.10566000000E+00 0.  1.
        994   -1    0    0    0    0 -0.00000000000E+00 -0.00000000000E+00  0.00000000000E+00  0.13100000000E+03  0.13100000000E+03 0.  0.
         13    1    1    2    0    0 -0.23504164481E+02  0.69658692711E+00  0.51539448785E+02  0.56650303851E+02  0.10566000000E+00 0. -1.
        994    1    1    2    0    0  0.20416237535E+02 -0.18765404122E+02  0.83576803198E+02  0.15784500366E+03  0.13100000000E+03 0.  0.
        997    1    1    2    0    0  0.30879269453E+01  0.18068817195E+02  0.36488373685E+03  0.41650469249E+03  0.20000000000E+03 0.  0.
</event>
<event>
 5    1  0.8566659E-012  0.2308596E+03  0.7957747E-01  0.4559829E+00
         13   -1    0    0    0    0  0.00000000000E+00  0.00000000000E+00  0.49999998884E+03  0.50000000000E+03  0.10566000000E+00 0. -1.
        994   -1    0    0    0    0 -0.00000000000E+00 -0.00000000000E+00  0.00000000000E+00  0.13100000000E+03  0.13100000000E+03 0.  0.
         13    1    1    2    0    0  0.39777060122E+01  0.11728315601E+02  0.81641640496E+01  0.14833754435E+02  0.10566000000E+00 0.  1.
        994    1    1    2    0    0 -0.28825755798E+02 -0.11106542842E+02  0.77241544583E+02  0.15518226606E+03  0.13100000000E+03 0.  0.
        997    1    1    2    0    0  0.24848049785E+02 -0.62177275938E+00  0.41459428020E+03  0.46098397950E+03  0.20000000000E+03 0.  0.
</event>
<event>
 5    1  0.8566659E-012  0.2287686E+03  0.7957747E-01  0.4587316E+00
         13   -1    0    0    0    0  0.00000000000E+00  0.00000000000E+00  0.49999998884E+03  0.50000000000E+03  0.10566000000E+00 0.  1.
        994   -1    0    0    0    0 -0.00000000000E+00 -0.00000000000E+00  0.00000000000E+00  0.13100000000E+03  0.13100000000E+03 0.  0.
         13    1    1    2    0    0  0.41820188392E+01 -0.10951451782E+02  0.13669979110E+02  0.18008416660E+02  0.10566000000E+00 0. -1.
        994    1    1    2    0    0  0.13994461292E+00  0.19750149830E+02  0.67342560443E+02  0.14861395779E+03  0.13100000000E+03 0.  0.
        997    1    1    2    0    0 -0.43219634521E+01 -0.87986980487E+01  0.41898744928E+03  0.46437762555E+03  0.20000000000E+03 0.  0.
</event>
<event>
 5    1  0.8566659E-012  0.2297913E+03  0.7957747E-01  0.4573796E+00
         13   -1    0    0    0    0  0.00000000000E+00  0.00000000000E+00  0.49999998884E+03  0.50000000000E+03  0.10566000000E+00 0. -1.
        994   -1    0    0    0    0 -0.00000000000E+00 -0.00000000000E+00  0.00000000000E+00  0.13100000000E+03  0.13100000000E+03 0.  0.
         13    1    1    2    0    0 -0.39110983378E+01 -0.14587939019E+02  0.43315131141E+02  0.45872828611E+02  0.10566000000E+00 0.  1.
        994    1    1    2    0    0  0.19045828676E+02  0.33150011332E+02  0.80581184993E+02  0.15848026444E+03  0.13100000000E+03 0.  0.
        997    1    1    2    0    0 -0.15134730338E+02 -0.18562072314E+02  0.37610367270E+03  0.42664690695E+03  0.20000000000E+03 0.  0.
</event>
<event>
 5    1  0.8566659E-012  0.2332569E+03  0.7957747E-01  0.4529049E+00
         13   -1    0    0    0    0  0.00000000000E+00  0.00000000000E+00  0.49999998884E+03  0.50000000000E+03  0.10566000000E+00 0. -1.
        994   -1    0    0    0    0 -0.00000000000E+00 -0.00000000000E+00  0.00000000000E+00  0.13100000000E+03  0.13100000000E+03 0.  0.
         13    1    1    2    0    0  0.11758404001E+02  0.13002635528E+02  0.16563977184E+02  0.24118563380E+02  0.10566000000E+00 0.  1.
        994    1    1    2    0    0  0.29734476729E+02 -0.39405672798E+02  0.10137644527E+03  0.17284423569E+03  0.13100000000E+03 0.  0.
        997    1    1    2    0    0 -0.41492880729E+02  0.26403037270E+02  0.38205956639E+03  0.43403720093E+03  0.20000000000E+03 0.  0.
</event>
<event>
 5    1  0.8566659E-012  0.2286161E+03  0.7957747E-01  0.4589344E+00
         13   -1    0    0    0    0  0.00000000000E+00  0.00000000000E+00  0.49999998884E+03  0.50000000000E+03  0.10566000000E+00 0. -1.
        994   -1    0    0    0    0 -0.00000000000E+00 -0.00000000000E+00  0.00000000000E+00  0.13100000000E+03  0.13100000000E+03 0.  0.
         13    1    1    2    0    0  0.15131132748E+02 -0.57961367303E+01  0.18692742912E+02  0.24738152333E+02  0.10566000000E+00 0.  1.
        994    1    1    2    0    0 -0.58497574162E+02  0.60994093519E+02  0.18457928413E+03  0.24160454829E+03  0.13100000000E+03 0.  0.
        997    1    1    2    0    0  0.43366441415E+02 -0.55197956789E+02  0.29672796180E+03  0.36465729937E+03  0.20000000000E+03 0.  0.
</event>
<event>
 5    1  0.8566659E-012  0.2416106E+03  0.7957747E-01  0.4427483E+00
         13   -1    0    0    0    0  0.00000000000E+00  0.00000000000E+00  0.49999998884E+03  0.50000000000E+03  0.10566000000E+00 0.  1.
        994   -1    0    0    0    0 -0.00000000000E+00 -0.00000000000E+00  0.00000000000E+00  0.13100000000E+03  0.13100000000E+03 0.  0.
         13    1    1    2    0    0 -0.21681292796E+02  0.28762501092E+01  0.89745264649E+01  0.23641162435E+02  0.10566000000E+00 0. -1.
        994    1    1    2    0    0 -0.29572492632E+02 -0.42063958997E+02  0.14180623194E+03  0.19978467505E+03  0.13100000000E+03 0.  0.
        997    1    1    2    0    0  0.51253785428E+02  0.39187708887E+02  0.34921923043E+03  0.40757416252E+03  0.20000000000E+03 0.  0.
</event>
<event>
 5    1  0.8566659E-012  0.2281711E+03  0.7957747E-01  0.4595281E+00
         13   -1    0    0    0    0  0.00000000000E+00  0.00000000000E+00  0.49999998884E+03  0.50000000000E+03  0.10566000000E+00 0.  1.
        994   -1    0    0    0    0 -0.00000000000E+00 -0.00000000000E+00  0.00000000000E+00  0.13100000000E+03  0.13100000000E+03 0.  0.
         13    1    1    2    0    0 -0.11006272868E+02  0.17894538847E+01  0.19696655706E+02  0.22634257171E+02  0.10566000000E+00 0. -1.
        994    1    1    2    0    0  0.42888673494E+01 -0.34517251231E+01  0.62801146739E+02  0.14537982261E+03  0.13100000000E+03 0.  0.
        997    1    1    2    0    0  0.67174055183E+01  0.16622712384E+01  0.41750218639E+03  0.46298592022E+03  0.20000000000E+03 0.  0.
</event>
<event>
 5    1  0.8566659E-012  0.2283203E+03  0.7957747E-01  0.4593287E+00
         13   -1    0    0    0    0  0.00000000000E+00  0.00000000000E+00  0.49999998884E+03  0.50000000000E+03  0.10566000000E+00 0.  1.
        994   -1    0    0    0    0 -0.00000000000E+00 -0.00000000000E+00  0.00000000000E+00  0.13100000000E+03  0.13100000000E+03 0.  0.
         13    1    1    2    0    0 -0.12462113845E+02  0.91845645595E+00  0.17197169535E+02  0.21257978451E+02  0.10566000000E+00 0. -1.
        994    1    1    2    0    0  0.33569504872E+02 -0.89097200535E+01  0.74803633045E+02  0.15479947767E+03  0.13100000000E+03 0.  0.
        997    1    1    2    0    0 -0.21107391027E+02  0.79912635976E+01  0.40799918626E+03  0.45494254388E+03  0.20000000000E+03 0.  0.
</event>
<event>
 5    1  0.8566659E-012  0.2327271E+03  0.7957747E-01  0.4535785E+00
         13   -1    0    0    0    0  0.00000000000E+00  0.00000000000E+00  0.49999998884E+03  0.50000000000E+03  0.10566000000E+00 0.  1.
        994   -1    0    0    0    0 -0.00000000000E+00 -0.00000000000E+00  0.00000000000E+00  0.13100000000E+03  0.13100000000E+03 0.  0.
         13    1    1    2    0    0 -0.13474926111E+02  0.11110833422E+02  0.19724499057E+02  0.26345612160E+02  0.10566000000E+00 0. -1.
        994    1    1    2    0    0 -0.96171332742E+01 -0.24722984371E+02  0.78381509665E+02  0.15494636577E+03  0.13100000000E+03 0.  0.
        997    1    1    2    0    0  0.23092059385E+02  0.13612150949E+02  0.40189398011E+03  0.44970802207E+03  0.20000000000E+03 0.  0.
</event>
<event>
 5    1  0.8566659E-012  0.2459248E+03  0.7957747E-01  0.4378224E+00
         13   -1    0    0    0    0  0.00000000000E+00  0.00000000000E+00  0.49999998884E+03  0.50000000000E+03  0.10566000000E+00 0. -1.
        994   -1    0    0    0    0 -0.00000000000E+00 -0.00000000000E+00  0.00000000000E+00  0.13100000000E+03  0.13100000000E+03 0.  0.
         13    1    1    2    0    0 -0.18007987942E+02  0.12686767334E+02  0.31056178043E+01  0.22246296796E+02  0.10566000000E+00 0.  1.
        994    1    1    2    0    0  0.21620890521E+01  0.12613032838E+02  0.10734517102E+03  0.16984625097E+03  0.13100000000E+03 0.  0.
        997    1    1    2    0    0  0.15845898890E+02 -0.25299800172E+02  0.38954920001E+03  0.43890745223E+03  0.20000000000E+03 0.  0.
</event>
<event>
 5    1  0.8566659E-012  0.2479627E+03  0.7957747E-01  0.4355656E+00
         13   -1    0    0    0    0  0.00000000000E+00  0.00000000000E+00  0.49999998884E+03  0.50000000000E+03  0.10566000000E+00 0.  1.
        994   -1    0    0    0    0 -0.00000000000E+00 -0.00000000000E+00  0.00000000000E+00  0.13100000000E+03  0.13100000000E+03 0.  0.
         13    1    1    2    0    0 -0.87733784700E+01 -0.10916597095E+02 -0.70281326870E+01  0.15670037493E+02  0.10566000000E+00 0. -1.
        994    1    1    2    0    0 -0.18772939254E+02 -0.19722690090E+02  0.12999343979E+03  0.18654946299E+03  0.13100000000E+03 0.  0.
        997    1    1    2    0    0  0.27546317724E+02  0.30639287185E+02  0.37703468173E+03  0.42878049952E+03  0.20000000000E+03 0.  0.
</event>
<event>
 5    1  0.8566659E-012  0.2299291E+03  0.7957747E-01  0.4571986E+00
         13   -1    0    0    0    0  0.00000000000E+00  0.00000000000E+00  0.49999998884E+03  0.50000000000E+03  0.10566000000E+00 0.  1.
        994   -1    0    0    0    0 -0.00000000000E+00 -0.00000000000E+00  0.00000000000E+00  0.13100000000E+03  0.13100000000E+03 0.  0.
         13    1    1    2    0    0 -0.81304616876E+01  0.11763147598E+02  0.35194058061E+02  0.37988273657E+02  0.10566000000E+00 0. -1.
        994    1    1    2    0    0 -0.26459241169E+02 -0.37785723599E+02  0.88554324829E+02  0.16471405768E+03  0.13100000000E+03 0.  0.
        997    1    1    2    0    0  0.34589702856E+02  0.26022576001E+02  0.37625160595E+03  0.42829766866E+03  0.20000000000E+03 0.  0.
</event>
<event>
 5    1  0.8566659E-012  0.2293272E+03  0.7957747E-01  0.4579913E+00
         13   -1    0    0    0    0  0.00000000000E+00  0.00000000000E+00  0.49999998884E+03  0.50000000000E+03  0.10566000000E+00 0.  1.
        994   -1    0    0    0    0 -0.00000000000E+00 -0.00000000000E+00  0.00000000000E+00  0.13100000000E+03  0.13100000000E+03 0.  0.
         13    1    1    2    0    0 -0.11157386504E+02 -0.74164465372E+01  0.20243871582E+02  0.24275840943E+02  0.10566000000E+00 0. -1.
        994    1    1    2    0    0  0.18081138865E+02 -0.17924636252E+01  0.67754194777E+02  0.14859936547E+03  0.13100000000E+03 0.  0.
        997    1    1    2    0    0 -0.69237523608E+01  0.92089101624E+01  0.41200192248E+03  0.45812479359E+03  0.20000000000E+03 0.  0.
</event>
<event>
 5    1  0.8566659E-012  0.2305934E+03  0.7957747E-01  0.4563295E+00
         13   -1    0    0    0    0  0.00000000000E+00  0.00000000000E+00  0.49999998884E+03  0.50000000000E+03  0.10566000000E+00 0.  1.
        994   -1    0    0    0    0 -0.00000000000E+00 -0.00000000000E+00  0.00000000000E+00  0.13100000000E+03  0.13100000000E+03 0.  0.
         13    1    1    2    0    0  0.79462752284E+01 -0.12701197773E+02  0.23319004488E+02  0.27717338422E+02  0.10566000000E+00 0. -1.
        994    1    1    2    0    0  0.36573129378E+02  0.29592606165E+02  0.91212898704E+02  0.16641547110E+03  0.13100000000E+03 0.  0.
        997    1    1    2    0    0 -0.44519404607E+02 -0.16891408393E+02  0.38546808564E+03  0.43686719048E+03  0.20000000000E+03 0.  0.
</event>
<event>
 5    1  0.8566659E-012  0.2460786E+03  0.7957747E-01  0.4376506E+00
         13   -1    0    0    0    0  0.00000000000E+00  0.00000000000E+00  0.49999998884E+03  0.50000000000E+03  0.10566000000E+00 0.  1.
        994   -1    0    0    0    0 -0.00000000000E+00 -0.00000000000E+00  0.00000000000E+00  0.13100000000E+03  0.13100000000E+03 0.  0.
         13    1    1    2    0    0 -0.22090813141E+02  0.21871788721E+02  0.11759362784E+02  0.33236620529E+02  0.10566000000E+00 0. -1.
        994    1    1    2    0    0  0.38242246578E+02 -0.76256517646E+01  0.14037958390E+03  0.19592867979E+03  0.13100000000E+03 0.  0.
        997    1    1    2    0    0 -0.16151433437E+02 -0.14246136956E+02  0.34786104216E+03  0.40183469968E+03  0.20000000000E+03 0.  0.
</event>
<event>
 5    1  0.8566659E-012  0.2450104E+03  0.7957747E-01  0.4388494E+00
         13   -1    0    0    0    0  0.00000000000E+00  0.00000000000E+00  0.49999998884E+03  0.50000000000E+03  0.10566000000E+00 0. -1.
        994   -1    0    0    0    0 -0.00000000000E+00 -0.00000000000E+00  0.00000000000E+00  0.13100000000E+03  0.13100000000E+03 0.  0.
         13    1    1    2    0    0 -0.18056006746E+02 -0.27637731174E+02  0.10447846892E+03  0.10957018389E+03  0.10566000000E+00 0.  1.
        994    1    1    2    0    0  0.29244240616E+02  0.12026779481E+02  0.12011538844E+03  0.18052306106E+03  0.13100000000E+03 0.  0.
        997    1    1    2    0    0 -0.11188233870E+02  0.15610951693E+02  0.27540613147E+03  0.34090675506E+03  0.20000000000E+03 0.  0.
</event>
<event>
 5    1  0.8566659E-012  0.2358815E+03  0.7957747E-01  0.4496212E+00
         13   -1    0    0    0    0  0.00000000000E+00  0.00000000000E+00  0.49999998884E+03  0.50000000000E+03  0.10566000000E+00 0. -1.
        994   -1    0    0    0    0 -0.00000000000E+00 -0.00000000000E+00  0.00000000000E+00  0.13100000000E+03  0.13100000000E+03 0.  0.
         13    1    1    2    0    0 -0.27899905342E+02  0.41122845435E+01  0.39527698224E+02  0.48556829522E+02  0.10566000000E+00 0.  1.
        994    1    1    2    0    0  0.50125826973E+02  0.25243255707E+02  0.12212460504E+03  0.18768388222E+03  0.13100000000E+03 0.  0.
        997    1    1    2    0    0 -0.22225921631E+02 -0.29355540250E+02  0.33834768557E+03  0.39475928826E+03  0.20000000000E+03 0.  0.
</event>
<event>
 5    1  0.8566659E-012  0.2463375E+03  0.7957747E-01  0.4373619E+00
         13   -1    0    0    0    0  0.00000000000E+00  0.00000000000E+00  0.49999998884E+03  0.50000000000E+03  0.10566000000E+00 0.  1.
        994   -1    0    0    0    0 -0.00000000000E+00 -0.00000000000E+00  0.00000000000E+00  0.13100000000E+03  0.13100000000E+03 0.  0.
         13    1    1    2    0    0  0.24219908966E+02  0.30015304520E+02  0.25640568139E+02  0.46313846680E+02  0.10566000000E+00 0. -1.
        994    1    1    2    0    0 -0.42632620497E+02 -0.11026940262E+02  0.16328432588E+03  0.21392032353E+03  0.13100000000E+03 0.  0.
        997    1    1    2    0    0  0.18412711531E+02 -0.18988364257E+02  0.31107509482E+03  0.37076582979E+03  0.20000000000E+03 0.  0.
</event>
<event>
 5    1  0.8566659E-012  0.2380761E+03  0.7957747E-01  0.4469419E+00
         13   -1    0    0    0    0  0.00000000000E+00  0.00000000000E+00  0.49999998884E+03  0.50000000000E+03  0.10566000000E+00 0.  1.
        994   -1    0    0    0    0 -0.00000000000E+00 -0.00000000000E+00  0.00000000000E+00  0.13100000000E+03  0.13100000000E+03 0.  0.
         13    1    1    2    0    0  0.24685793776E+02 -0.32063426942E+00  0.19408128551E+02  0.31403468576E+02  0.10566000000E+00 0. -1.
        994    1    1    2    0    0 -0.25041107596E+02 -0.27107399613E+02  0.10036763813E+03  0.16910508853E+03  0.13100000000E+03 0.  0.
        997    1    1    2    0    0  0.35531381940E+00  0.27428033883E+02  0.38022422215E+03  0.43049144289E+03  0.20000000000E+03 0.  0.
</event>
<event>
 5    1  0.8566659E-012  0.2328167E+03  0.7957747E-01  0.4534644E+00
         13   -1    0    0    0    0  0.00000000000E+00  0.00000000000E+00  0.49999998884E+03  0.50000000000E+03  0.10566000000E+00 0.  1.
        994   -1    0    0    0    0 -0.00000000000E+00 -0.00000000000E+00  0.00000000000E+00  0.13100000000E+03  0.13100000000E+03 0.  0.
         13    1    1    2    0    0  0.13010268725E+01  0.17862129732E+02  0.15911240652E+02  0.23956775506E+02  0.10566000000E+00 0. -1.
        994    1    1    2    0    0 -0.83156183044E+01 -0.31290857632E+02  0.82528531960E+02  0.15817782988E+03  0.13100000000E+03 0.  0.
        997    1    1    2    0    0  0.70145914319E+01  0.13428727900E+02  0.40156021622E+03  0.44886539461E+03  0.20000000000E+03 0.  0.
</event>
<event>
 5    1  0.8566659E-012  0.2401401E+03  0.7957747E-01  0.4444752E+00
         13   -1    0    0    0    0  0.00000000000E+00  0.00000000000E+00  0.49999998884E+03  0.50000000000E+03  0.10566000000E+00 0.  1.
        994   -1    0    0    0    0 -0.00000000000E+00 -0.00000000000E+00  0.00000000000E+00  0.13100000000E+03  0.13100000000E+03 0.  0.
         13    1    1    2    0    0 -0.12260762073E+02 -0.25241540304E+02  0.45002080536E+02  0.53034517629E+02  0.10566000000E+00 0. -1.
        994    1    1    2    0    0  0.27048888383E+02 -0.26289881151E+02  0.10814655373E+03  0.17400999195E+03  0.13100000000E+03 0.  0.
        997    1    1    2    0    0 -0.14788126310E+02  0.51531421455E+02  0.34685135457E+03  0.40395549042E+03  0.20000000000E+03 0.  0.
</event>
<event>
 5    1  0.8566659E-012  0.2469230E+03  0.7957747E-01  0.4367115E+00
         13   -1    0    0    0    0  0.00000000000E+00  0.00000000000E+00  0.49999998884E+03  0.50000000000E+03  0.10566000000E+00 0.  1.
        994   -1    0    0    0    0 -0.00000000000E+00 -0.00000000000E+00  0.00000000000E+00  0.13100000000E+03  0.13100000000E+03 0.  0.
         13    1    1    2    0    0  0.69959930001E+01  0.20410931180E+02  0.14394514425E+01  0.21624828651E+02  0.10566000000E+00 0. -1.
        994    1    1    2    0    0 -0.13583957602E+02  0.22820490385E+02  0.12303434058E+03  0.18166933602E+03  0.13100000000E+03 0.  0.
        997    1    1    2    0    0  0.65879646023E+01 -0.43231421565E+02  0.37552619681E+03  0.42770583533E+03  0.20000000000E+03 0.  0.
</event>
<event>
 5    1  0.8566659E-012  0.2510447E+03  0.7957747E-01  0.4322338E+00
         13   -1    0    0    0    0  0.00000000000E+00  0.00000000000E+00  0.49999998884E+03  0.50000000000E+03  0.10566000000E+00 0. -1.
        994   -1    0    0    0    0 -0.00000000000E+00 -0.00000000000E+00  0.00000000000E+00  0.13100000000E+03  0.13100000000E+03 0.  0.
         13    1    1    2    0    0  0.47188002326E+02 -0.59207876809E+00  0.67872962061E+02  0.82666851058E+02  0.10566000000E+00 0.  1.
        994    1    1    2    0    0 -0.15507447738E+02 -0.20784166498E+02  0.15849299236E+03  0.20725224038E+03  0.13100000000E+03 0.  0.
        997    1    1    2    0    0 -0.31680554588E+02  0.21376245266E+02  0.27363403441E+03  0.34108090857E+03  0.20000000000E+03 0.  0.
</event>
<event>
 5    1  0.8566659E-012  0.2331357E+03  0.7957747E-01  0.4530587E+00
         13   -1    0    0    0    0  0.00000000000E+00  0.00000000000E+00  0.49999998884E+03  0.50000000000E+03  0.10566000000E+00 0.  1.
        994   -1    0    0    0    0 -0.00000000000E+00 -0.00000000000E+00  0.00000000000E+00  0.13100000000E+03  0.13100000000E+03 0.  0.
         13    1    1    2    0    0 -0.74766181522E+01  0.14519671010E+02  0.14163587089E+02  0.21618025545E+02  0.10566000000E+00 0. -1.
        994    1    1    2    0    0 -0.11230716512E+02 -0.12569616223E+02  0.74569101384E+02  0.15167621807E+03  0.13100000000E+03 0.  0.
        997    1    1    2    0    0  0.18707334664E+02 -0.19500547863E+01  0.41126730036E+03  0.45770575639E+03  0.20000000000E+03 0.  0.
</event>
<event>
 5    1  0.8566659E-012  0.2452808E+03  0.7957747E-01  0.4385448E+00
         13   -1    0    0    0    0  0.00000000000E+00  0.00000000000E+00  0.49999998884E+03  0.50000000000E+03  0.10566000000E+00 0.  1.
        994   -1    0    0    0    0 -0.00000000000E+00 -0.00000000000E+00  0.00000000000E+00  0.13100000000E+03  0.13100000000E+03 0.  0.
         13    1    1    2    0    0 -0.60343996742E+01 -0.34080899486E+02  0.26522744929E+02  0.43604917748E+02  0.10566000000E+00 0. -1.
        994    1    1    2    0    0 -0.10156497945E+02  0.22779869966E+02  0.11349330749E+03  0.17511084425E+03  0.13100000000E+03 0.  0.
        997    1    1    2    0    0  0.16190897619E+02  0.11301029521E+02  0.35998393641E+03  0.41228423801E+03  0.20000000000E+03 0.  0.
</event>
<event>
 5    1  0.8566659E-012  0.2314196E+03  0.7957747E-01  0.4552570E+00
         13   -1    0    0    0    0  0.00000000000E+00  0.00000000000E+00  0.49999998884E+03  0.50000000000E+03  0.10566000000E+00 0. -1.
        994   -1    0    0    0    0 -0.00000000000E+00 -0.00000000000E+00  0.00000000000E+00  0.13100000000E+03  0.13100000000E+03 0.  0.
         13    1    1    2    0    0  0.19165232076E+02 -0.85770496431E+01  0.43211486315E+02  0.48042851859E+02  0.10566000000E+00 0.  1.
        994    1    1    2    0    0 -0.57865980551E+02  0.10869591108E+02  0.11059754510E+03  0.18127172062E+03  0.13100000000E+03 0.  0.
        997    1    1    2    0    0  0.38700748474E+02 -0.22925414648E+01  0.34619095742E+03  0.40168542752E+03  0.20000000000E+03 0.  0.
</event>
<event>
 5    1  0.8566659E-012  0.2382429E+03  0.7957747E-01  0.4467407E+00
         13   -1    0    0    0    0  0.00000000000E+00  0.00000000000E+00  0.49999998884E+03  0.50000000000E+03  0.10566000000E+00 0. -1.
        994   -1    0    0    0    0 -0.00000000000E+00 -0.00000000000E+00  0.00000000000E+00  0.13100000000E+03  0.13100000000E+03 0.  0.
         13    1    1    2    0    0  0.53102400981E+01 -0.31614503927E+02  0.60919322338E+02  0.68839309312E+02  0.10566000000E+00 0.  1.
        994    1    1    2    0    0  0.30003326741E+01  0.41419771969E+02  0.10649424900E+03  0.17385805870E+03  0.13100000000E+03 0.  0.
        997    1    1    2    0    0 -0.83105727722E+01 -0.98052680423E+01  0.33258641750E+03  0.38830263199E+03  0.20000000000E+03 0.  0.
</event>
<event>
 5    1  0.8566659E-012  0.2390481E+03  0.7957747E-01  0.4457740E+00
         13   -1    0    0    0    0  0.00000000000E+00  0.00000000000E+00  0.49999998884E+03  0.50000000000E+03  0.10566000000E+00 0. -1.
        994   -1    0    0    0    0 -0.00000000000E+00 -0.00000000000E+00  0.00000000000E+00  0.13100000000E+03  0.13100000000E+03 0.  0.
         13    1    1    2    0    0 -0.96022901752E+01 -0.80501653895E+01 -0.96065771631E+00  0.12567544179E+02  0.10566000000E+00 0.  1.
        994    1    1    2    0    0 -0.36996397662E+02 -0.39475884955E+02  0.13293911105E+03  0.19432160503E+03  0.13100000000E+03 0.  0.
        997    1    1    2    0    0  0.46598687837E+02  0.47526050344E+02  0.36802153550E+03  0.42411085079E+03  0.20000000000E+03 0.  0.
</event>
<event>
 5    1  0.8566659E-012  0.2490712E+03  0.7957747E-01  0.4343561E+00
         13   -1    0    0    0    0  0.00000000000E+00  0.00000000000E+00  0.49999998884E+03  0.50000000000E+03  0.10566000000E+00 0.  1.
        994   -1    0    0    0    0 -0.00000000000E+00 -0.00000000000E+00  0.00000000000E+00  0.13100000000E+03  0.13100000000E+03 0.  0.
         13    1    1    2    0    0  0.97382349400E+00 -0.30989958602E+02  0.15041515340E+02  0.34461343765E+02  0.10566000000E+00 0. -1.
        994    1    1    2    0    0  0.54126670476E+01 -0.17381625438E+02  0.12562550757E+03  0.18241213233E+03  0.13100000000E+03 0.  0.
        997    1    1    2    0    0 -0.63864905416E+01  0.48371584039E+02  0.35933296593E+03  0.41412652391E+03  0.20000000000E+03 0.  0.
</event>
<event>
 5    1  0.8566659E-012  0.2336988E+03  0.7957747E-01  0.4523459E+00
         13   -1    0    0    0    0  0.00000000000E+00  0.00000000000E+00  0.49999998884E+03  0.50000000000E+03  0.10566000000E+00 0.  1.
        994   -1    0    0    0    0 -0.00000000000E+00 -0.00000000000E+00  0.00000000000E+00  0.13100000000E+03  0.13100000000E+03 0.  0.
         13    1    1    2    0    0  0.54865334552E+01  0.21604286424E+02  0.24745896253E+02  0.33304921357E+02  0.10566000000E+00 0. -1.
        994    1    1    2    0    0  0.13568297943E+01 -0.44634232431E+02  0.96554220712E+02  0.16875358731E+03  0.13100000000E+03 0.  0.
        997    1    1    2    0    0 -0.68433632495E+01  0.23029946008E+02  0.37869987187E+03  0.42894149134E+03  0.20000000000E+03 0.  0.
</event>
<event>
 5    1  0.8566659E-012  0.2281398E+03  0.7957747E-01  0.4595700E+00
         13   -1    0    0    0    0  0.00000000000E+00  0.00000000000E+00  0.49999998884E+03  0.50000000000E+03  0.10566000000E+00 0.  1.
        994   -1    0    0    0    0 -0.00000000000E+00 -0.00000000000E+00  0.00000000000E+00  0.13100000000E+03  0.13100000000E+03 0.  0.
         13    1    1    2    0    0 -0.91552192456E+01 -0.61843739590E+01  0.15553275036E+02  0.19078261165E+02  0.10566000000E+00 0. -1.
        994    1    1    2    0    0  0.27543851728E+02 -0.15893344169E+02  0.72435826495E+02  0.15303336602E+03  0.13100000000E+03 0.  0.
        997    1    1    2    0    0 -0.18388632483E+02  0.22077718128E+02  0.41201088730E+03  0.45888837281E+03  0.20000000000E+03 0.  0.
</event>
<event>
 5    1  0.8566659E-012  0.2390046E+03  0.7957747E-01  0.4458260E+00
         13   -1    0    0    0    0  0.00000000000E+00  0.00000000000E+00  0.49999998884E+03  0.50000000000E+03  0.10566000000E+00 0.  1.
        994   -1    0    0    0    0 -0.00000000000E+00 -0.00000000000E+00  0.00000000000E+00  0.13100000000E+03  0.13100000000E+03 0.  0.
         13    1    1    2    0    0 -0.80536781790E+01  0.16273512706E+02  0.47419215965E+01  0.18766617502E+02  0.10566000000E+00 0. -1.
        994    1    1    2    0    0 -0.11773860057E+02 -0.26478161348E+02  0.95513294533E+02  0.16469215598E+03  0.13100000000E+03 0.  0.
        997    1    1    2    0    0  0.19827538236E+02  0.10204648641E+02  0.39974477271E+03  0.44754122652E+03  0.20000000000E+03 0.  0.
</event>
<event>
 5    1  0.8566659E-012  0.2451857E+03  0.7957747E-01  0.4386518E+00
         13   -1    0    0    0    0  0.00000000000E+00  0.00000000000E+00  0.49999998884E+03  0.50000000000E+03  0.10566000000E+00 0. -1.
        994   -1    0    0    0    0 -0.00000000000E+00 -0.00000000000E+00  0.00000000000E+00  0.13100000000E+03  0.13100000000E+03 0.  0.
         13    1    1    2    0    0  0.26392940177E+02  0.21696354753E+02  0.10024788545E+03  0.10591019216E+03  0.10566000000E+00 0.  1.
        994    1    1    2    0    0 -0.10132037634E+02 -0.12395196716E+02  0.10625121656E+03  0.16943028097E+03  0.13100000000E+03 0.  0.
        997    1    1    2    0    0 -0.16260902543E+02 -0.93011580370E+01  0.29350088682E+03  0.35565952687E+03  0.20000000000E+03 0.  0.
</event>
<event>
 5    1  0.8566659E-012  0.2348523E+03  0.7957747E-01  0.4508984E+00
         13   -1    0    0    0    0  0.00000000000E+00  0.00000000000E+00  0.49999998884E+03  0.50000000000E+03  0.10566000000E+00 0. -1.
        994   -1    0    0    0    0 -0.00000000000E+00 -0.00000000000E+00  0.00000000000E+00  0.13100000000E+03  0.13100000000E+03 0.  0.
         13    1    1    2    0    0  0.16627590333E+02  0.10336183008E+01  0.10762091903E+02  0.19833782121E+02  0.10566000000E+00 0.  1.
        994    1    1    2    0    0 -0.47835852213E+00 -0.19200259948E+02  0.79135869855E+02  0.15424773809E+03  0.13100000000E+03 0.  0.
        997    1    1    2    0    0 -0.16149231811E+02  0.18166641647E+02  0.41010202708E+03  0.45691847979E+03  0.20000000000E+03 0.  0.
</event>
<event>
 5    1  0.8566659E-012  0.2350762E+03  0.7957747E-01  0.4506193E+00
         13   -1    0    0    0    0  0.00000000000E+00  0.00000000000E+00  0.49999998884E+03  0.50000000000E+03  0.10566000000E+00 0.  1.
        994   -1    0    0    0    0 -0.00000000000E+00 -0.00000000000E+00  0.00000000000E+00  0.13100000000E+03  0.13100000000E+03 0.  0.
         13    1    1    2    0    0 -0.18644164021E+02 -0.83483560741E+01  0.29354054210E+02  0.35762711919E+02  0.10566000000E+00 0. -1.
        994    1    1    2    0    0 -0.25662586506E+02  0.24689887236E+02  0.90662463513E+02  0.16324472784E+03  0.13100000000E+03 0.  0.
        997    1    1    2    0    0  0.44306750528E+02 -0.16341531162E+02  0.37998347111E+03  0.43199256024E+03  0.20000000000E+03 0.  0.
</event>
<event>
 5    1  0.8566659E-012  0.2511016E+03  0.7957747E-01  0.4321731E+00
         13   -1    0    0    0    0  0.00000000000E+00  0.00000000000E+00  0.49999998884E+03  0.50000000000E+03  0.10566000000E+00 0. -1.
        994   -1    0    0    0    0 -0.00000000000E+00 -0.00000000000E+00  0.00000000000E+00  0.13100000000E+03  0.13100000000E+03 0.  0.
         13    1    1    2    0    0 -0.15030287402E+02  0.32072993633E+02  0.88905277373E+01  0.36519023912E+02  0.10566000000E+00 0.  1.
        994    1    1    2    0    0  0.20927434438E+02 -0.30284141129E+01  0.20214134528E+03  0.24180416100E+03  0.13100000000E+03 0.  0.
        997    1    1    2    0    0 -0.58971470365E+01 -0.29044579520E+02  0.28896811582E+03  0.35267681509E+03  0.20000000000E+03 0.  0.
</event>
<event>
 5    1  0.8566659E-012  0.2443839E+03  0.7957747E-01  0.4395582E+00
         13   -1    0    0    0    0  0.00000000000E+00  0.00000000000E+00  0.49999998884E+03  0.50000000000E+03  0.10566000000E+00 0. -1.
        994   -1    0    0    0    0 -0.00000000000E+00 -0.00000000000E+00  0.00000000000E+00  0.13100000000E+03  0.13100000000E+03 0.  0.
         13    1    1    2    0    0 -0.79450166042E+01 -0.22649608905E+02  0.48303670189E+01  0.24484110806E+02  0.10566000000E+00 0.  1.
        994    1    1    2    0    0  0.13578300000E+02  0.26110827758E+02  0.11451581339E+03  0.17646817581E+03  0.13100000000E+03 0.  0.
        997    1    1    2    0    0 -0.56332833960E+01 -0.34612188532E+01  0.38065380843E+03  0.43004771338E+03  0.20000000000E+03 0.  0.
</event>
<event>
 5    1  0.8566659E-012  0.2377577E+03  0.7957747E-01  0.4473269E+00
         13   -1    0    0    0    0  0.00000000000E+00  0.00000000000E+00  0.49999998884E+03  0.50000000000E+03  0.10566000000E+00 0. -1.
        994   -1    0    0    0    0 -0.00000000000E+00 -0.00000000000E+00  0.00000000000E+00  0.13100000000E+03  0.13100000000E+03 0.  0.
         13    1    1    2    0    0 -0.10427585240E+02  0.10124642828E+02  0.94656104719E+00  0.14565372229E+02  0.10566000000E+00 0.  1.
        994    1    1    2    0    0  0.41155568234E+02  0.29744627954E+02  0.11939527157E+03  0.18437666491E+03  0.13100000000E+03 0.  0.
        997    1    1    2    0    0 -0.30727982995E+02 -0.39869270782E+02  0.37965815622E+03  0.43205796286E+03  0.20000000000E+03 0.  0.
</event>
<event>
 5    1  0.8566659E-012  0.2357429E+03  0.7957747E-01  0.4497924E+00
         13   -1    0    0    0    0  0.00000000000E+00  0.00000000000E+00  0.49999998884E+03  0.50000000000E+03  0.10566000000E+00 0. -1.
        994   -1    0    0    0    0 -0.00000000000E+00 -0.00000000000E+00  0.00000000000E+00  0.13100000000E+03  0.13100000000E+03 0.  0.
         13    1    1    2    0    0  0.19949828698E+02  0.15393871872E+02  0.37485383952E+02  0.45167821846E+02  0.10566000000E+00 0.  1.
        994    1    1    2    0    0 -0.31174838590E+02  0.42144399087E+01  0.88778204194E+02  0.16134497700E+03  0.13100000000E+03 0.  0.
        997    1    1    2    0    0  0.11225009891E+02 -0.19608311781E+02  0.37373640069E+03  0.42448720115E+03  0.20000000000E+03 0.  0.
</event>
<event>
 5    1  0.8566659E-012  0.2502291E+03  0.7957747E-01  0.4331061E+00
         13   -1    0    0    0    0  0.00000000000E+00  0.00000000000E+00  0.49999998884E+03  0.50000000000E+03  0.10566000000E+00 0.  1.
        994   -1    0    0    0    0 -0.00000000000E+00 -0.00000000000E+00  0.00000000000E+00  0.13100000000E+03  0.13100000000E+03 0.  0.
         13    1    1    2    0    0 -0.27342124564E+02  0.52989749251E+00  0.54273368252E+01  0.27880812686E+02  0.10566000000E+00 0. -1.
        994    1    1    2    0    0 -0.21175902438E+02 -0.97330293813E+01  0.14070184420E+03  0.19365216153E+03  0.13100000000E+03 0.  0.
        997    1    1    2    0    0  0.48518027002E+02  0.92031318888E+01  0.35387080782E+03  0.40946702578E+03  0.20000000000E+03 0.  0.
</event>
<event>
 5    1  0.8566659E-012  0.2469929E+03  0.7957747E-01  0.4366341E+00
         13   -1    0    0    0    0  0.00000000000E+00  0.00000000000E+00  0.49999998884E+03  0.50000000000E+03  0.10566000000E+00 0.  1.
        994   -1    0    0    0    0 -0.00000000000E+00 -0.00000000000E+00  0.00000000000E+00  0.13100000000E+03  0.13100000000E+03 0.  0.
         13    1    1    2    0    0 -0.20387446454E+02 -0.16042997491E+00 -0.67458227330E+00  0.20399508228E+02  0.10566000000E+00 0. -1.
        994    1    1    2    0    0 -0.32568843948E+02  0.23506715439E+02  0.15330712339E+03  0.20561461366E+03  0.13100000000E+03 0.  0.
        997    1    1    2    0    0  0.52956290402E+02 -0.23346285464E+02  0.34736744772E+03  0.40498587811E+03  0.20000000000E+03 0.  0.
</event>
<event>
 5    1  0.8566659E-012  0.2482678E+03  0.7957747E-01  0.4352314E+00
         13   -1    0    0    0    0  0.00000000000E+00  0.00000000000E+00  0.49999998884E+03  0.50000000000E+03  0.10566000000E+00 0. -1.
        994   -1    0    0    0    0 -0.00000000000E+00 -0.00000000000E+00  0.00000000000E+00  0.13100000000E+03  0.13100000000E+03 0.  0.
         13    1    1    2    0    0 -0.26372968949E+02 -0.56814076433E+01  0.84936410031E+00  0.26991562893E+02  0.10566000000E+00 0.  1.
        994    1    1    2    0    0  0.27102929911E+02 -0.27748395210E+02  0.18197157488E+03  0.22755042587E+03  0.13100000000E+03 0.  0.
        997    1    1    2    0    0 -0.72996096118E+00  0.33429802853E+02  0.31717904985E+03  0.37645801124E+03  0.20000000000E+03 0.  0.
</event>
<event>
 5    1  0.8566659E-012  0.2479546E+03  0.7957747E-01  0.4355745E+00
         13   -1    0    0    0    0  0.00000000000E+00  0.00000000000E+00  0.49999998884E+03  0.50000000000E+03  0.10566000000E+00 0.  1.
        994   -1    0    0    0    0 -0.00000000000E+00 -0.00000000000E+00  0.00000000000E+00  0.13100000000E+03  0.13100000000E+03 0.  0.
         13    1    1    2    0    0  0.42333841625E+02 -0.42200785032E+01  0.35956241407E+02  0.55703013109E+02  0.10566000000E+00 0. -1.
        994    1    1    2    0    0 -0.21781022694E+02  0.33249039150E+02  0.18482170522E+03  0.22999994407E+03  0.13100000000E+03 0.  0.
        997    1    1    2    0    0 -0.20552818930E+02 -0.29028960647E+02  0.27922204221E+03  0.34529704282E+03  0.20000000000E+03 0.  0.
</event>
<event>
 5    1  0.8566659E-012  0.2487376E+03  0.7957747E-01  0.4347187E+00
         13   -1    0    0    0    0  0.00000000000E+00  0.00000000000E+00  0.49999998884E+03  0.50000000000E+03  0.10566000000E+00 0. -1.
        994   -1    0    0    0    0 -0.00000000000E+00 -0.00000000000E+00  0.00000000000E+00  0.13100000000E+03  0.13100000000E+03 0.  0.
         13    1    1    2    0    0  0.14615442645E+02 -0.23249349739E+02  0.50542923230E+01  0.27923116980E+02  0.10566000000E+00 0.  1.
        994    1    1    2    0    0  0.21247285939E+01  0.18796033561E+02  0.12438552571E+03  0.18163304863E+03  0.13100000000E+03 0.  0.
        997    1    1    2    0    0 -0.16740171238E+02  0.44533161771E+01  0.37056017080E+03  0.42144383439E+03  0.20000000000E+03 0.  0.
</event>
<event>
 5    1  0.8566659E-012  0.2364671E+03  0.7957747E-01  0.4489005E+00
         13   -1    0    0    0    0  0.00000000000E+00  0.00000000000E+00  0.49999998884E+03  0.50000000000E+03  0.10566000000E+00 0. -1.
        994   -1    0    0    0    0 -0.00000000000E+00 -0.00000000000E+00  0.00000000000E+00  0.13100000000E+03  0.13100000000E+03 0.  0.
         13    1    1    2    0    0 -0.23102793022E+02 -0.21618196401E+01  0.29060266289E+02  0.37187669332E+02  0.10566000000E+00 0.  1.
        994    1    1    2    0    0  0.30357079408E+01 -0.26878715315E+02  0.87295960476E+02  0.15972872495E+03  0.13100000000E+03 0.  0.
        997    1    1    2    0    0  0.20067085081E+02  0.29040534955E+02  0.38364376207E+03  0.43408360571E+03  0.20000000000E+03 0.  0.
</event>
<event>
 5    1  0.8566659E-012  0.2314305E+03  0.7957747E-01  0.4552429E+00
         13   -1    0    0    0    0  0.00000000000E+00  0.00000000000E+00  0.49999998884E+03  0.50000000000E+03  0.10566000000E+00 0.  1.
        994   -1    0    0    0    0 -0.00000000000E+00 -0.00000000000E+00  0.00000000000E+00  0.13100000000E+03  0.13100000000E+03 0.  0.
         13    1    1    2    0    0 -0.14712085082E+02  0.12155892871E+01  0.15996576123E+02  0.21767515165E+02  0.10566000000E+00 0. -1.
        994    1    1    2    0    0  0.22469259662E+01  0.94755044535E+00  0.68321852482E+02  0.14776610591E+03  0.13100000000E+03 0.  0.
        997    1    1    2    0    0  0.12465159116E+02 -0.21631397325E+01  0.41568156023E+03  0.46146637893E+03  0.20000000000E+03 0.  0.
</event>
<event>
 5    1  0.8566659E-012  0.2534604E+03  0.7957747E-01  0.4296881E+00
         13   -1    0    0    0    0  0.00000000000E+00  0.00000000000E+00  0.49999998884E+03  0.50000000000E+03  0.10566000000E+00 0. -1.
        994   -1    0    0    0    0 -0.00000000000E+00 -0.00000000000E+00  0.00000000000E+00  0.13100000000E+03  0.13100000000E+03 0.  0.
         13    1    1    2    0    0 -0.95507868480E+00  0.36871510901E+02  0.15210180203E+02  0.39897133196E+02  0.10566000000E+00 0.  1.
        994    1    1    2    0    0 -0.84815252472E+00  0.76049072025E+01  0.15792947331E+03  0.20533210298E+03  0.13100000000E+03 0.  0.
        997    1    1    2    0    0  0.18032312095E+01 -0.44476418103E+02  0.32686033533E+03  0.38577076382E+03  0.20000000000E+03 0.  0.
</event>
<event>
 5    1  0.8566659E-012  0.2405037E+03  0.7957747E-01  0.4440458E+00
         13   -1    0    0    0    0  0.00000000000E+00  0.00000000000E+00  0.49999998884E+03  0.50000000000E+03  0.10566000000E+00 0. -1.
        994   -1    0    0    0    0 -0.00000000000E+00 -0.00000000000E+00  0.00000000000E+00  0.13100000000E+03  0.13100000000E+03 0.  0.
         13    1    1    2    0    0 -0.36807001746E+01  0.15997064173E+02 -0.20207724394E+01  0.16539295669E+02  0.10566000000E+00 0.  1.
        994    1    1    2    0    0 -0.35752064247E+02 -0.44722408296E+02  0.15416032187E+03  0.21024915871E+03  0.13100000000E+03 0.  0.
        997    1    1    2    0    0  0.39432764421E+02  0.28725344122E+02  0.34786043941E+03  0.40421154562E+03  0.20000000000E+03 0.  0.
</event>
<event>
 5    1  0.8566659E-012  0.2306882E+03  0.7957747E-01  0.4562060E+00
         13   -1    0    0    0    0  0.00000000000E+00  0.00000000000E+00  0.49999998884E+03  0.50000000000E+03  0.10566000000E+00 0. -1.
        994   -1    0    0    0    0 -0.00000000000E+00 -0.00000000000E+00  0.00000000000E+00  0.13100000000E+03  0.13100000000E+03 0.  0.
         13    1    1    2    0    0  0.16439684080E+02 -0.53350460365E+01  0.49343395001E+02  0.52282958247E+02  0.10566000000E+00 0.  1.
        994    1    1    2    0    0 -0.45340060363E+02  0.31238985825E+02  0.10206482654E+03  0.17495663499E+03  0.13100000000E+03 0.  0.
        997    1    1    2    0    0  0.28900376283E+02 -0.25903939788E+02  0.34859176730E+03  0.40376040677E+03  0.20000000000E+03 0.  0.
</event>
<event>
 5    1  0.8566659E-012  0.2417565E+03  0.7957747E-01  0.4425784E+00
         13   -1    0    0    0    0  0.00000000000E+00  0.00000000000E+00  0.49999998884E+03  0.50000000000E+03  0.10566000000E+00 0. -1.
        994   -1    0    0    0    0 -0.00000000000E+00 -0.00000000000E+00  0.00000000000E+00  0.13100000000E+03  0.13100000000E+03 0.  0.
         13    1    1    2    0    0 -0.18427178901E+02  0.16795068634E+01  0.25794197110E+01  0.18682779120E+02  0.10566000000E+00 0.  1.
        994    1    1    2    0    0  0.65118905294E+01  0.24353533713E+02  0.10080657896E+03  0.16720785174E+03  0.13100000000E+03 0.  0.
        997    1    1    2    0    0  0.11915288372E+02 -0.26033040577E+02  0.39661399017E+03  0.44510936914E+03  0.20000000000E+03 0.  0.
</event>
<event>
 5    1  0.8566659E-012  0.2442198E+03  0.7957747E-01  0.4397446E+00
         13   -1    0    0    0    0  0.00000000000E+00  0.00000000000E+00  0.49999998884E+03  0.50000000000E+03  0.10566000000E+00 0. -1.
        994   -1    0    0    0    0 -0.00000000000E+00 -0.00000000000E+00  0.00000000000E+00  0.13100000000E+03  0.13100000000E+03 0.  0.
         13    1    1    2    0    0 -0.30173001443E+02 -0.24910165555E+02  0.37218404356E+02  0.54001362491E+02  0.10566000000E+00 0.  1.
        994    1    1    2    0    0  0.41405547108E+02  0.12499500938E+02  0.13745120527E+03  0.19474211328E+03  0.13100000000E+03 0.  0.
        997    1    1    2    0    0 -0.11232545665E+02  0.12410664617E+02  0.32533037921E+03  0.38225652422E+03  0.20000000000E+03 0.  0.
</event>
<event>
 5    1  0.8566659E-012  0.2464407E+03  0.7957747E-01  0.4372469E+00
         13   -1    0    0    0    0  0.00000000000E+00  0.00000000000E+00  0.49999998884E+03  0.50000000000E+03  0.10566000000E+00 0. -1.
        994   -1    0    0    0    0 -0.00000000000E+00 -0.00000000000E+00  0.00000000000E+00  0.13100000000E+03  0.13100000000E+03 0.  0.
         13    1    1    2    0    0  0.19760993088E+02 -0.18678585726E+02  0.12306469760E+02  0.29847056379E+02  0.10566000000E+00 0.  1.
        994    1    1    2    0    0  0.50160506158E+01 -0.23176583260E+02  0.11740450971E+03  0.17750248921E+03  0.13100000000E+03 0.  0.
        997    1    1    2    0    0 -0.24777043703E+02  0.41855168986E+02  0.37028900936E+03  0.42365045441E+03  0.20000000000E+03 0.  0.
</event>
<event>
 5    1  0.8566659E-012  0.2424106E+03  0.7957747E-01  0.4418192E+00
         13   -1    0    0    0    0  0.00000000000E+00  0.00000000000E+00  0.49999998884E+03  0.50000000000E+03  0.10566000000E+00 0. -1.
        994   -1    0    0    0    0 -0.00000000000E+00 -0.00000000000E+00  0.00000000000E+00  0.13100000000E+03  0.13100000000E+03 0.  0.
         13    1    1    2    0    0  0.17615750788E+02 -0.10230932362E+01 -0.17553316185E+01  0.17732843786E+02  0.10566000000E+00 0.  1.
        994    1    1    2    0    0 -0.22359146939E+02  0.44957567129E+02  0.14410010091E+03  0.20111427939E+03  0.13100000000E+03 0.  0.
        997    1    1    2    0    0  0.47433961501E+01 -0.43934473892E+02  0.35765521955E+03  0.41215287682E+03  0.20000000000E+03 0.  0.
</event>
<event>
 5    1  0.8566659E-012  0.2426112E+03  0.7957747E-01  0.4415874E+00
         13   -1    0    0    0    0  0.00000000000E+00  0.00000000000E+00  0.49999998884E+03  0.50000000000E+03  0.10566000000E+00 0. -1.
        994   -1    0    0    0    0 -0.00000000000E+00 -0.00000000000E+00  0.00000000000E+00  0.13100000000E+03  0.13100000000E+03 0.  0.
         13    1    1    2    0    0  0.21185794772E+02  0.13132341652E+02  0.13055227617E+01  0.24960205350E+02  0.10566000000E+00 0.  1.
        994    1    1    2    0    0 -0.53508052646E+02 -0.55968686794E+01  0.20777229923E+03  0.25144535184E+03  0.13100000000E+03 0.  0.
        997    1    1    2    0    0  0.32322257874E+02 -0.75354729730E+01  0.29092216685E+03  0.35459444281E+03  0.20000000000E+03 0.  0.
</event>
<event>
 5    1  0.8566659E-012  0.2394629E+03  0.7957747E-01  0.4452789E+00
         13   -1    0    0    0    0  0.00000000000E+00  0.00000000000E+00  0.49999998884E+03  0.50000000000E+03  0.10566000000E+00 0. -1.
        994   -1    0    0    0    0 -0.00000000000E+00 -0.00000000000E+00  0.00000000000E+00  0.13100000000E+03  0.13100000000E+03 0.  0.
         13    1    1    2    0    0  0.12673107776E+00  0.20959434910E+02  0.84224666688E+01  0.22589003549E+02  0.10566000000E+00 0.  1.
        994    1    1    2    0    0  0.42037350413E+02 -0.13476351538E+02  0.11477142108E+03  0.17967256323E+03  0.13100000000E+03 0.  0.
        997    1    1    2    0    0 -0.42164081491E+02 -0.74830833723E+01  0.37680610109E+03  0.42873843322E+03  0.20000000000E+03 0.  0.
</event>
<event>
 5    1  0.8566659E-012  0.2352778E+03  0.7957747E-01  0.4503688E+00
         13   -1    0    0    0    0  0.00000000000E+00  0.00000000000E+00  0.49999998884E+03  0.50000000000E+03  0.10566000000E+00 0.  1.
        994   -1    0    0    0    0 -0.00000000000E+00 -0.00000000000E+00  0.00000000000E+00  0.13100000000E+03  0.13100000000E+03 0.  0.
         13    1    1    2    0    0  0.25784371718E+02 -0.27231488573E+01  0.44042960501E+02  0.51108149040E+02  0.10566000000E+00 0. -1.
        994    1    1    2    0    0 -0.42011203905E+02 -0.44159083177E+02  0.13055251928E+03  0.19473039355E+03  0.13100000000E+03 0.  0.
        997    1    1    2    0    0  0.16226832186E+02  0.46882232034E+02  0.32540450905E+03  0.38516145741E+03  0.20000000000E+03 0.  0.
</event>
<event>
 5    1  0.8566659E-012  0.2319700E+03  0.7957747E-01  0.4545477E+00
         13   -1    0    0    0    0  0.00000000000E+00  0.00000000000E+00  0.49999998884E+03  0.50000000000E+03  0.10566000000E+00 0. -1.
        994   -1    0    0    0    0 -0.00000000000E+00 -0.00000000000E+00  0.00000000000E+00  0.13100000000E+03  0.13100000000E+03 0.  0.
         13    1    1    2    0    0  0.16917664435E+01 -0.98697695581E+01  0.39957492387E+01  0.10782003564E+02  0.10566000000E+00 0.  1.
        994    1    1    2    0    0  0.42667078161E+02 -0.51403857752E+02  0.12972802751E+03  0.19609486804E+03  0.13100000000E+03 0.  0.
        997    1    1    2    0    0 -0.44358844605E+02  0.61273627310E+02  0.36627621209E+03  0.42412312840E+03  0.20000000000E+03 0.  0.
</event>
<event>
 5    1  0.8566659E-012  0.2417151E+03  0.7957747E-01  0.4426265E+00
         13   -1    0    0    0    0  0.00000000000E+00  0.00000000000E+00  0.49999998884E+03  0.50000000000E+03  0.10566000000E+00 0.  1.
        994   -1    0    0    0    0 -0.00000000000E+00 -0.00000000000E+00  0.00000000000E+00  0.13100000000E+03  0.13100000000E+03 0.  0.
         13    1    1    2    0    0 -0.91244413899E+01 -0.21266124791E+02  0.80906265743E+01  0.24514748555E+02  0.10566000000E+00 0. -1.
        994    1    1    2    0    0 -0.13123794378E+02  0.30033146055E+02  0.10788582291E+03  0.17284262965E+03  0.13100000000E+03 0.  0.
        997    1    1    2    0    0  0.22248235768E+02 -0.87670212635E+01  0.38402353935E+03  0.43364262179E+03  0.20000000000E+03 0.  0.
</event>
<event>
 5    1  0.8566659E-012  0.2442826E+03  0.7957747E-01  0.4396733E+00
         13   -1    0    0    0    0  0.00000000000E+00  0.00000000000E+00  0.49999998884E+03  0.50000000000E+03  0.10566000000E+00 0. -1.
        994   -1    0    0    0    0 -0.00000000000E+00 -0.00000000000E+00  0.00000000000E+00  0.13100000000E+03  0.13100000000E+03 0.  0.
         13    1    1    2    0    0 -0.16222791764E+02 -0.10017018926E+02 -0.31572550622E+01  0.19326123883E+02  0.10566000000E+00 0.  1.
        994    1    1    2    0    0  0.47982529806E+02 -0.56063499381E+01  0.15509134584E+03  0.20868176701E+03  0.13100000000E+03 0.  0.
        997    1    1    2    0    0 -0.31759738042E+02  0.15623368864E+02  0.34806589806E+03  0.40299210911E+03  0.20000000000E+03 0.  0.
</event>
<event>
 5    1  0.8566659E-012  0.2500798E+03  0.7957747E-01  0.4332665E+00
         13   -1    0    0    0    0  0.00000000000E+00  0.00000000000E+00  0.49999998884E+03  0.50000000000E+03  0.10566000000E+00 0.  1.
        994   -1    0    0    0    0 -0.00000000000E+00 -0.00000000000E+00  0.00000000000E+00  0.13100000000E+03  0.13100000000E+03 0.  0.
         13    1    1    2    0    0  0.24484980197E+02  0.33315028825E+02  0.32739968277E+02  0.52738241226E+02  0.10566000000E+00 0. -1.
        994    1    1    2    0    0  0.41859037125E+01 -0.20555514775E+02  0.13567153719E+03  0.18975725805E+03  0.13100000000E+03 0.  0.
        997    1    1    2    0    0 -0.28670883909E+02 -0.12759514051E+02  0.33158848337E+03  0.38850450073E+03  0.20000000000E+03 0.  0.
</event>
<event>
 5    1  0.8566659E-012  0.2457519E+03  0.7957747E-01  0.4380159E+00
         13   -1    0    0    0    0  0.00000000000E+00  0.00000000000E+00  0.49999998884E+03  0.50000000000E+03  0.10566000000E+00 0.  1.
        994   -1    0    0    0    0 -0.00000000000E+00 -0.00000000000E+00  0.00000000000E+00  0.13100000000E+03  0.13100000000E+03 0.  0.
         13    1    1    2    0    0 -0.59724677145E+01 -0.24983715857E+02  0.69321077544E+01  0.26606798202E+02  0.10566000000E+00 0. -1.
        994    1    1    2    0    0 -0.38864209568E+01  0.17645328877E+02  0.10970464557E+03  0.17182133499E+03  0.13100000000E+03 0.  0.
        997    1    1    2    0    0  0.98588886712E+01  0.73383869802E+01  0.38336323551E+03  0.43257186681E+03  0.20000000000E+03 0.  0.
</event>
<event>
 5    1  0.8566659E-012  0.2299461E+03  0.7957747E-01  0.4571763E+00
         13   -1    0    0    0    0  0.00000000000E+00  0.00000000000E+00  0.49999998884E+03  0.50000000000E+03  0.10566000000E+00 0. -1.
        994   -1    0    0    0    0 -0.00000000000E+00 -0.00000000000E+00  0.00000000000E+00  0.13100000000E+03  0.13100000000E+03 0.  0.
         13    1    1    2    0    0 -0.37276373896E+01 -0.13338901950E+02  0.22584635199E+02  0.26493367035E+02  0.10566000000E+00 0.  1.
        994    1    1    2    0    0 -0.31808554968E+02  0.11401152464E+02  0.77395727441E+02  0.15586169854E+03  0.13100000000E+03 0.  0.
        997    1    1    2    0    0  0.35536192358E+02  0.19377494854E+01  0.40001962620E+03  0.44864493442E+03  0.20000000000E+03 0.  0.
</event>
<event>
 5    1  0.8566659E-012  0.2414703E+03  0.7957747E-01  0.4429120E+00
         13   -1    0    0    0    0  0.00000000000E+00  0.00000000000E+00  0.49999998884E+03  0.50000000000E+03  0.10566000000E+00 0. -1.
        994   -1    0    0    0    0 -0.00000000000E+00 -0.00000000000E+00  0.00000000000E+00  0.13100000000E+03  0.13100000000E+03 0.  0.
         13    1    1    2    0    0  0.31871108424E+02 -0.48362959713E+01  0.37286574967E+02  0.49289523711E+02  0.10566000000E+00 0.  1.
        994    1    1    2    0    0 -0.15615699530E+02  0.70343751271E+01  0.94729211158E+02  0.16256677383E+03  0.13100000000E+03 0.  0.
        997    1    1    2    0    0 -0.16255408893E+02 -0.21980791558E+01  0.36798420271E+03  0.41914370246E+03  0.20000000000E+03 0.  0.
</event>
<event>
 5    1  0.1383463E-011  0.2391971E+03  0.7957747E-01  0.4455959E+00
         13   -1    0    0    0    0  0.00000000000E+00  0.00000000000E+00  0.49999998884E+03  0.50000000000E+03  0.10566000000E+00 0. -1.
        994   -1    0    0    0    0 -0.00000000000E+00 -0.00000000000E+00  0.00000000000E+00  0.13100000000E+03  0.13100000000E+03 0.  0.
         13    1    1    2    0    0 -0.11804449905E+02 -0.24102089655E+01 -0.32831788159E+01  0.12487776903E+02  0.10566000000E+00 0.  1.
        994    1    1    2    0    0  0.37681762628E+02 -0.15411104220E+02  0.10871299961E+03  0.17503409283E+03  0.13100000000E+03 0.  0.
        997    1    1    2    0    0 -0.25877312723E+02  0.17821313185E+02  0.39457016804E+03  0.44347813027E+03  0.20000000000E+03 0.  0.
</event>
<event>
 5    1  0.8566659E-012  0.2458457E+03  0.7957747E-01  0.4379109E+00
         13   -1    0    0    0    0  0.00000000000E+00  0.00000000000E+00  0.49999998884E+03  0.50000000000E+03  0.10566000000E+00 0. -1.
        994   -1    0    0    0    0 -0.00000000000E+00 -0.00000000000E+00  0.00000000000E+00  0.13100000000E+03  0.13100000000E+03 0.  0.
         13    1    1    2    0    0  0.11735106556E+02  0.89122424874E+01 -0.67962285062E+01  0.16227774893E+02  0.10566000000E+00 0.  1.
        994    1    1    2    0    0  0.27251913958E+02 -0.35627267398E+02  0.15941393410E+03  0.21115343090E+03  0.13100000000E+03 0.  0.
        997    1    1    2    0    0 -0.38987020513E+02  0.26715024911E+02  0.34738228324E+03  0.40361879421E+03  0.20000000000E+03 0.  0.
</event>
<event>
 5    1  0.1383346E-011  0.2374301E+03  0.7957747E-01  0.4477244E+00
         13   -1    0    0    0    0  0.00000000000E+00  0.00000000000E+00  0.49999998884E+03  0.50000000000E+03  0.10566000000E+00 0.  1.
        994   -1    0    0    0    0 -0.00000000000E+00 -0.00000000000E+00  0.00000000000E+00  0.13100000000E+03  0.13100000000E+03 0.  0.
         13    1    1    2    0    0  0.73258129880E+01 -0.97840488983E+01 -0.16760805016E+01  0.12337566967E+02  0.10566000000E+00 0. -1.
        994    1    1    2    0    0 -0.46079504695E+01  0.41097044199E+02  0.10359016720E+03  0.17205267505E+03  0.13100000000E+03 0.  0.
        997    1    1    2    0    0 -0.27178625185E+01 -0.31312995300E+02  0.39808590213E+03  0.44660975799E+03  0.20000000000E+03 0.  0.
</event>
<event>
 5    1  0.8566659E-012  0.2321038E+03  0.7957747E-01  0.4543758E+00
         13   -1    0    0    0    0  0.00000000000E+00  0.00000000000E+00  0.49999998884E+03  0.50000000000E+03  0.10566000000E+00 0.  1.
        994   -1    0    0    0    0 -0.00000000000E+00 -0.00000000000E+00  0.00000000000E+00  0.13100000000E+03  0.13100000000E+03 0.  0.
         13    1    1    2    0    0 -0.93680272057E+01  0.79527227169E+01  0.76097405244E+01  0.14454239766E+02  0.10566000000E+00 0. -1.
        994    1    1    2    0    0 -0.21814790584E+02 -0.55469653696E+01  0.74907740022E+02  0.15257399329E+03  0.13100000000E+03 0.  0.
        997    1    1    2    0    0  0.31182817789E+02 -0.24057573473E+01  0.41748250829E+03  0.46397176694E+03  0.20000000000E+03 0.  0.
</event>
<event>
 5    1  0.1218761E-011  0.2387559E+03  0.7957747E-01  0.4461238E+00
         13   -1    0    0    0    0  0.00000000000E+00  0.00000000000E+00  0.49999998884E+03  0.50000000000E+03  0.10566000000E+00 0.  1.
        994   -1    0    0    0    0 -0.00000000000E+00 -0.00000000000E+00  0.00000000000E+00  0.13100000000E+03  0.13100000000E+03 0.  0.
         13    1    1    2    0    0 -0.16575146974E+02  0.60875329275E+01  0.35011657036E+01  0.18001746573E+02  0.10566000000E+00 0. -1.
        994    1    1    2    0    0  0.30948062978E+02 -0.70699163363E+01  0.97209905295E+02  0.16618824268E+03  0.13100000000E+03 0.  0.
        997    1    1    2    0    0 -0.14372916004E+02  0.98238340874E+00  0.39928891784E+03  0.44681001074E+03  0.20000000000E+03 0.  0.
</event>
<event>
 5    1  0.8566659E-012  0.2337885E+03  0.7957747E-01  0.4522326E+00
         13   -1    0    0    0    0  0.00000000000E+00  0.00000000000E+00  0.49999998884E+03  0.50000000000E+03  0.10566000000E+00 0. -1.
        994   -1    0    0    0    0 -0.00000000000E+00 -0.00000000000E+00  0.00000000000E+00  0.13100000000E+03  0.13100000000E+03 0.  0.
         13    1    1    2    0    0 -0.18449722552E+01 -0.20660562791E+02  0.57773103215E+02  0.61384080970E+02  0.10566000000E+00 0.  1.
        994    1    1    2    0    0  0.11168656835E+02  0.18969558168E+02  0.78166282498E+02  0.15412835804E+03  0.13100000000E+03 0.  0.
        997    1    1    2    0    0 -0.93236845802E+01  0.16910046228E+01  0.36406060312E+03  0.41548756099E+03  0.20000000000E+03 0.  0.
</event>
<event>
 5    1  0.8566659E-012  0.2360977E+03  0.7957747E-01  0.4493546E+00
         13   -1    0    0    0    0  0.00000000000E+00  0.00000000000E+00  0.49999998884E+03  0.50000000000E+03  0.10566000000E+00 0.  1.
        994   -1    0    0    0    0 -0.00000000000E+00 -0.00000000000E+00  0.00000000000E+00  0.13100000000E+03  0.13100000000E+03 0.  0.
         13    1    1    2    0    0  0.62857024294E+01 -0.15793174429E+02  0.70064084172E+01  0.18385737313E+02  0.10566000000E+00 0. -1.
        994    1    1    2    0    0 -0.35001135329E+02  0.78085835533E+01  0.93596362786E+02  0.16494645367E+03  0.13100000000E+03 0.  0.
        997    1    1    2    0    0  0.28715432899E+02  0.79845908758E+01  0.39939721763E+03  0.44766780902E+03  0.20000000000E+03 0.  0.
</event>
<event>
 5    1  0.8566659E-012  0.2327239E+03  0.7957747E-01  0.4535827E+00
         13   -1    0    0    0    0  0.00000000000E+00  0.00000000000E+00  0.49999998884E+03  0.50000000000E+03  0.10566000000E+00 0. -1.
        994   -1    0    0    0    0 -0.00000000000E+00 -0.00000000000E+00  0.00000000000E+00  0.13100000000E+03  0.13100000000E+03 0.  0.
         13    1    1    2    0    0  0.48682750622E+01  0.89933627785E+01  0.11120633382E+01  0.10287299211E+02  0.10566000000E+00 0.  1.
        994    1    1    2    0    0  0.24212541159E+02 -0.38780002190E+02  0.95168940737E+02  0.16825059584E+03  0.13100000000E+03 0.  0.
        997    1    1    2    0    0 -0.29080816222E+02  0.29786639412E+02  0.40371898476E+03  0.45246210495E+03  0.20000000000E+03 0.  0.
</event>
<event>
 5    1  0.8566659E-012  0.2334357E+03  0.7957747E-01  0.4526784E+00
         13   -1    0    0    0    0  0.00000000000E+00  0.00000000000E+00  0.49999998884E+03  0.50000000000E+03  0.10566000000E+00 0.  1.
        994   -1    0    0    0    0 -0.00000000000E+00 -0.00000000000E+00  0.00000000000E+00  0.13100000000E+03  0.13100000000E+03 0.  0.
         13    1    1    2    0    0 -0.19738492787E+01 -0.24105985572E+02  0.56304711630E+02  0.61279901576E+02  0.10566000000E+00 0. -1.
        994    1    1    2    0    0 -0.11630224183E+02  0.65153010685E+02  0.13531622086E+03  0.19962879688E+03  0.13100000000E+03 0.  0.
        997    1    1    2    0    0  0.13604073461E+02 -0.41047025113E+02  0.30837905635E+03  0.37009130155E+03  0.20000000000E+03 0.  0.
</event>
<event>
 5    1  0.8566659E-012  0.2315365E+03  0.7957747E-01  0.4551061E+00
         13   -1    0    0    0    0  0.00000000000E+00  0.00000000000E+00  0.49999998884E+03  0.50000000000E+03  0.10566000000E+00 0.  1.
        994   -1    0    0    0    0 -0.00000000000E+00 -0.00000000000E+00  0.00000000000E+00  0.13100000000E+03  0.13100000000E+03 0.  0.
         13    1    1    2    0    0 -0.13465837319E+02 -0.80227639616E+01  0.14086311210E+02  0.21074364612E+02  0.10566000000E+00 0. -1.
        994    1    1    2    0    0  0.34488751035E+02 -0.20353871083E+01  0.81356556931E+02  0.15803007975E+03  0.13100000000E+03 0.  0.
        997    1    1    2    0    0 -0.21022913717E+02  0.10058151070E+02  0.40455712069E+03  0.45189555564E+03  0.20000000000E+03 0.  0.
</event>
<event>
 5    1  0.8566659E-012  0.2363372E+03  0.7957747E-01  0.4490600E+00
         13   -1    0    0    0    0  0.00000000000E+00  0.00000000000E+00  0.49999998884E+03  0.50000000000E+03  0.10566000000E+00 0.  1.
        994   -1    0    0    0    0 -0.00000000000E+00 -0.00000000000E+00  0.00000000000E+00  0.13100000000E+03  0.13100000000E+03 0.  0.
         13    1    1    2    0    0  0.13080060272E+02 -0.24448468566E+02  0.68101235128E+02  0.73529619759E+02  0.10566000000E+00 0. -1.
        994    1    1    2    0    0 -0.29509229613E+02  0.35932163380E+02  0.10698873781E+03  0.17541238558E+03  0.13100000000E+03 0.  0.
        997    1    1    2    0    0  0.16429169340E+02 -0.11483694814E+02  0.32491001590E+03  0.38205799466E+03  0.20000000000E+03 0.  0.
</event>
<event>
 5    1  0.8566659E-012  0.2353009E+03  0.7957747E-01  0.4503400E+00
         13   -1    0    0    0    0  0.00000000000E+00  0.00000000000E+00  0.49999998884E+03  0.50000000000E+03  0.10566000000E+00 0.  1.
        994   -1    0    0    0    0 -0.00000000000E+00 -0.00000000000E+00  0.00000000000E+00  0.13100000000E+03  0.13100000000E+03 0.  0.
         13    1    1    2    0    0  0.21502163276E+02 -0.47028164213E+01  0.57890834854E+02  0.61933992540E+02  0.10566000000E+00 0. -1.
        994    1    1    2    0    0 -0.32063705706E+01  0.26810628038E+01  0.76062214847E+02  0.15153854110E+03  0.13100000000E+03 0.  0.
        997    1    1    2    0    0 -0.18295792706E+02  0.20217536174E+01  0.36604693914E+03  0.41752746636E+03  0.20000000000E+03 0.  0.
</event>
<event>
 5    1  0.8566659E-012  0.2422215E+03  0.7957747E-01  0.4420382E+00
         13   -1    0    0    0    0  0.00000000000E+00  0.00000000000E+00  0.49999998884E+03  0.50000000000E+03  0.10566000000E+00 0.  1.
        994   -1    0    0    0    0 -0.00000000000E+00 -0.00000000000E+00  0.00000000000E+00  0.13100000000E+03  0.13100000000E+03 0.  0.
         13    1    1    2    0    0  0.11336388171E+02  0.28737092912E+02  0.33404568269E+02  0.45499566493E+02  0.10566000000E+00 0. -1.
        994    1    1    2    0    0 -0.42090948183E+02  0.17783325506E+02  0.13066653483E+03  0.19058498868E+03  0.13100000000E+03 0.  0.
        997    1    1    2    0    0  0.30754560011E+02 -0.46520418418E+02  0.33592888574E+03  0.39491544483E+03  0.20000000000E+03 0.  0.
</event>
<event>
 5    1  0.8566659E-012  0.2413480E+03  0.7957747E-01  0.4430549E+00
         13   -1    0    0    0    0  0.00000000000E+00  0.00000000000E+00  0.49999998884E+03  0.50000000000E+03  0.10566000000E+00 0.  1.
        994   -1    0    0    0    0 -0.00000000000E+00 -0.00000000000E+00  0.00000000000E+00  0.13100000000E+03  0.13100000000E+03 0.  0.
         13    1    1    2    0    0  0.10384687947E+02  0.20126796020E+02  0.10456484725E+03  0.10698947662E+03  0.10566000000E+00 0. -1.
        994    1    1    2    0    0 -0.35263363307E+02 -0.28956591252E+02  0.12583782775E+03  0.18729161183E+03  0.13100000000E+03 0.  0.
        997    1    1    2    0    0  0.24878675359E+02  0.88297952328E+01  0.26959731384E+03  0.33671891156E+03  0.20000000000E+03 0.  0.
</event>
<event>
 5    1  0.8566659E-012  0.2355191E+03  0.7957747E-01  0.4500694E+00
         13   -1    0    0    0    0  0.00000000000E+00  0.00000000000E+00  0.49999998884E+03  0.50000000000E+03  0.10566000000E+00 0.  1.
        994   -1    0    0    0    0 -0.00000000000E+00 -0.00000000000E+00  0.00000000000E+00  0.13100000000E+03  0.13100000000E+03 0.  0.
         13    1    1    2    0    0 -0.11534950886E+02 -0.15937424094E+02  0.10747577846E+02  0.22418255336E+02  0.10566000000E+00 0. -1.
        994    1    1    2    0    0  0.49294173274E+02  0.13962211227E+02  0.11154625080E+03  0.17952276994E+03  0.13100000000E+03 0.  0.
        997    1    1    2    0    0 -0.37759222388E+02  0.19752128668E+01  0.37770616019E+03  0.42905897472E+03  0.20000000000E+03 0.  0.
</event>
<event>
 5    1  0.8566659E-012  0.2472277E+03  0.7957747E-01  0.4363745E+00
         13   -1    0    0    0    0  0.00000000000E+00  0.00000000000E+00  0.49999998884E+03  0.50000000000E+03  0.10566000000E+00 0.  1.
        994   -1    0    0    0    0 -0.00000000000E+00 -0.00000000000E+00  0.00000000000E+00  0.13100000000E+03  0.13100000000E+03 0.  0.
         13    1    1    2    0    0 -0.88832752023E+00 -0.31047054817E+02  0.10387235795E+02  0.32750794953E+02  0.10566000000E+00 0. -1.
        994    1    1    2    0    0  0.71550914003E+01  0.31361540883E+02  0.13358654372E+03  0.18984495317E+03  0.13100000000E+03 0.  0.
        997    1    1    2    0    0 -0.62667638801E+01 -0.31448606682E+00  0.35602620932E+03  0.40840425188E+03  0.20000000000E+03 0.  0.
</event>
<event>
 5    1  0.8566659E-012  0.2518593E+03  0.7957747E-01  0.4313690E+00
         13   -1    0    0    0    0  0.00000000000E+00  0.00000000000E+00  0.49999998884E+03  0.50000000000E+03  0.10566000000E+00 0. -1.
        994   -1    0    0    0    0 -0.00000000000E+00 -0.00000000000E+00  0.00000000000E+00  0.13100000000E+03  0.13100000000E+03 0.  0.
         13    1    1    2    0    0 -0.21361551582E+02 -0.23702433437E+02  0.97109910308E+01  0.33353196963E+02  0.10566000000E+00 0.  1.
        994    1    1    2    0    0 -0.24316547766E+01 -0.90368289094E+01  0.13784314646E+03  0.19039251626E+03  0.13100000000E+03 0.  0.
        997    1    1    2    0    0  0.23793206359E+02  0.32739262346E+02  0.35244585135E+03  0.40725428678E+03  0.20000000000E+03 0.  0.
</event>
<event>
 5    1  0.8566659E-012  0.2444583E+03  0.7957747E-01  0.4394739E+00
         13   -1    0    0    0    0  0.00000000000E+00  0.00000000000E+00  0.49999998884E+03  0.50000000000E+03  0.10566000000E+00 0.  1.
        994   -1    0    0    0    0 -0.00000000000E+00 -0.00000000000E+00  0.00000000000E+00  0.13100000000E+03  0.13100000000E+03 0.  0.
         13    1    1    2    0    0 -0.15334744149E+02 -0.14636371808E+02  0.83793867987E+02  0.86433796828E+02  0.10566000000E+00 0. -1.
        994    1    1    2    0    0 -0.50070357740E+02  0.65623467837E+01  0.17559188926E+03  0.22481907546E+03  0.13100000000E+03 0.  0.
        997    1    1    2    0    0  0.65405101889E+02  0.80740250239E+01  0.24061423159E+03  0.31974712771E+03  0.20000000000E+03 0.  0.
</event>
<event>
 5    1  0.8566659E-012  0.2369339E+03  0.7957747E-01  0.4483290E+00
         13   -1    0    0    0    0  0.00000000000E+00  0.00000000000E+00  0.49999998884E+03  0.50000000000E+03  0.10566000000E+00 0.  1.
        994   -1    0    0    0    0 -0.00000000000E+00 -0.00000000000E+00  0.00000000000E+00  0.13100000000E+03  0.13100000000E+03 0.  0.
         13    1    1    2    0    0  0.24175975487E+02  0.94629399891E+01  0.21689801393E+02  0.33830218333E+02  0.10566000000E+00 0. -1.
        994    1    1    2    0    0 -0.21891599257E+02 -0.55417545604E+02  0.13573333779E+03  0.19782539136E+03  0.13100000000E+03 0.  0.
        997    1    1    2    0    0 -0.22843762301E+01  0.45954605615E+02  0.34257684965E+03  0.39934439031E+03  0.20000000000E+03 0.  0.
</event>
<event>
 5    1  0.8566659E-012  0.2414012E+03  0.7957747E-01  0.4429927E+00
         13   -1    0    0    0    0  0.00000000000E+00  0.00000000000E+00  0.49999998884E+03  0.50000000000E+03  0.10566000000E+00 0.  1.
        994   -1    0    0    0    0 -0.00000000000E+00 -0.00000000000E+00  0.00000000000E+00  0.13100000000E+03  0.13100000000E+03 0.  0.
         13    1    1    2    0    0 -0.26014514009E+02  0.69201849673E+01  0.21408016893E+02  0.34394160121E+02  0.10566000000E+00 0. -1.
        994    1    1    2    0    0  0.25910117863E+01  0.42249805093E+01  0.90679311405E+02  0.15939981593E+03  0.13100000000E+03 0.  0.
        997    1    1    2    0    0  0.23423502222E+02 -0.11145165477E+02  0.38791266054E+03  0.43720602395E+03  0.20000000000E+03 0.  0.
</event>
<event>
 5    1  0.8566659E-012  0.2408352E+03  0.7957747E-01  0.4436557E+00
         13   -1    0    0    0    0  0.00000000000E+00  0.00000000000E+00  0.49999998884E+03  0.50000000000E+03  0.10566000000E+00 0.  1.
        994   -1    0    0    0    0 -0.00000000000E+00 -0.00000000000E+00  0.00000000000E+00  0.13100000000E+03  0.13100000000E+03 0.  0.
         13    1    1    2    0    0  0.23886053906E+02 -0.17925128093E+02  0.30961262103E+02  0.43017028063E+02  0.10566000000E+00 0. -1.
        994    1    1    2    0    0  0.13543754990E+02  0.36449343195E+02  0.11227784703E+03  0.17685955686E+03  0.13100000000E+03 0.  0.
        997    1    1    2    0    0 -0.37429808896E+02 -0.18524215102E+02  0.35676087970E+03  0.41112341508E+03  0.20000000000E+03 0.  0.
</event>
<event>
 5    1  0.8661500E-012  0.2422394E+03  0.7957747E-01  0.4420175E+00
         13   -1    0    0    0    0  0.00000000000E+00  0.00000000000E+00  0.49999998884E+03  0.50000000000E+03  0.10566000000E+00 0. -1.
        994   -1    0    0    0    0 -0.00000000000E+00 -0.00000000000E+00  0.00000000000E+00  0.13100000000E+03  0.13100000000E+03 0.  0.
         13    1    1    2    0    0  0.10135380060E+02  0.67153657181E+01 -0.41406638101E+01  0.12844388912E+02  0.10566000000E+00 0.  1.
        994    1    1    2    0    0 -0.10450674898E+01  0.37752276675E+01  0.92884409653E+02  0.16063579323E+03  0.13100000000E+03 0.  0.
        997    1    1    2    0    0 -0.90903125705E+01 -0.10490593386E+02  0.41125624299E+03  0.45751981786E+03  0.20000000000E+03 0.  0.
</event>
<event>
 5    1  0.8566659E-012  0.2487240E+03  0.7957747E-01  0.4347336E+00
         13   -1    0    0    0    0  0.00000000000E+00  0.00000000000E+00  0.49999998884E+03  0.50000000000E+03  0.10566000000E+00 0. -1.
        994   -1    0    0    0    0 -0.00000000000E+00 -0.00000000000E+00  0.00000000000E+00  0.13100000000E+03  0.13100000000E+03 0.  0.
         13    1    1    2    0    0 -0.11683243197E+02 -0.38640266570E+02  0.41613472671E+02  0.57976380052E+02  0.10566000000E+00 0.  1.
        994    1    1    2    0    0  0.41554431631E+01 -0.89806943632E+01  0.23578112997E+03  0.26991047002E+03  0.13100000000E+03 0.  0.
        997    1    1    2    0    0  0.75278000344E+01  0.47620960933E+02  0.22260538620E+03  0.30311314993E+03  0.20000000000E+03 0.  0.
</event>
<event>
 5    1  0.8566659E-012  0.2477042E+03  0.7957747E-01  0.4358494E+00
         13   -1    0    0    0    0  0.00000000000E+00  0.00000000000E+00  0.49999998884E+03  0.50000000000E+03  0.10566000000E+00 0.  1.
        994   -1    0    0    0    0 -0.00000000000E+00 -0.00000000000E+00  0.00000000000E+00  0.13100000000E+03  0.13100000000E+03 0.  0.
         13    1    1    2    0    0 -0.13946972337E+02  0.33994836600E+02  0.79123214515E+02  0.87239103572E+02  0.10566000000E+00 0. -1.
        994    1    1    2    0    0  0.19163239314E+02  0.19066635728E+02  0.12809526183E+03  0.18520303033E+03  0.13100000000E+03 0.  0.
        997    1    1    2    0    0 -0.52162669769E+01 -0.53061472328E+02  0.29278151249E+03  0.35855786610E+03  0.20000000000E+03 0.  0.
</event>
<event>
 5    1  0.9664530E-012  0.2375922E+03  0.7957747E-01  0.4475276E+00
         13   -1    0    0    0    0  0.00000000000E+00  0.00000000000E+00  0.49999998884E+03  0.50000000000E+03  0.10566000000E+00 0. -1.
        994   -1    0    0    0    0 -0.00000000000E+00 -0.00000000000E+00  0.00000000000E+00  0.13100000000E+03  0.13100000000E+03 0.  0.
         13    1    1    2    0    0 -0.12820035718E+02  0.55254971563E+01  0.20967687118E+01  0.14117083187E+02  0.10566000000E+00 0.  1.
        994    1    1    2    0    0 -0.13633505925E+02 -0.86782154324E+01  0.84095421305E+02  0.15650630592E+03  0.13100000000E+03 0.  0.
        997    1    1    2    0    0  0.26453541643E+02  0.31527182760E+01  0.41380779882E+03  0.46037661090E+03  0.20000000000E+03 0.  0.
</event>
<event>
 5    1  0.8566659E-012  0.2420810E+03  0.7957747E-01  0.4422011E+00
         13   -1    0    0    0    0  0.00000000000E+00  0.00000000000E+00  0.49999998884E+03  0.50000000000E+03  0.10566000000E+00 0. -1.
        994   -1    0    0    0    0 -0.00000000000E+00 -0.00000000000E+00  0.00000000000E+00  0.13100000000E+03  0.13100000000E+03 0.  0.
         13    1    1    2    0    0  0.19490321305E+02  0.40387068924E+01  0.15338623481E+01  0.19963658875E+02  0.10566000000E+00 0.  1.
        994    1    1    2    0    0 -0.17957750188E+02 -0.43038036943E+02  0.13200972120E+03  0.19173502525E+03  0.13100000000E+03 0.  0.
        997    1    1    2    0    0 -0.15325711171E+01  0.38999330050E+02  0.36645640529E+03  0.41930131588E+03  0.20000000000E+03 0.  0.
</event>
<event>
 5    1  0.8566659E-012  0.2499447E+03  0.7957747E-01  0.4334119E+00
         13   -1    0    0    0    0  0.00000000000E+00  0.00000000000E+00  0.49999998884E+03  0.50000000000E+03  0.10566000000E+00 0.  1.
        994   -1    0    0    0    0 -0.00000000000E+00 -0.00000000000E+00  0.00000000000E+00  0.13100000000E+03  0.13100000000E+03 0.  0.
         13    1    1    2    0    0  0.32501435842E+02  0.30844179032E+02  0.40648522995E+02  0.60498101604E+02  0.10566000000E+00 0. -1.
        994    1    1    2    0    0  0.41577375373E+01 -0.32163035422E+02  0.17889676230E+03  0.22409105112E+03  0.13100000000E+03 0.  0.
        997    1    1    2    0    0 -0.36659173379E+02  0.13188563895E+01  0.28045470354E+03  0.34641084728E+03  0.20000000000E+03 0.  0.
</event>
<event>
 5    1  0.8566659E-012  0.2302935E+03  0.7957747E-01  0.4567211E+00
         13   -1    0    0    0    0  0.00000000000E+00  0.00000000000E+00  0.49999998884E+03  0.50000000000E+03  0.10566000000E+00 0.  1.
        994   -1    0    0    0    0 -0.00000000000E+00 -0.00000000000E+00  0.00000000000E+00  0.13100000000E+03  0.13100000000E+03 0.  0.
         13    1    1    2    0    0  0.15299576734E+02  0.23907124750E+01  0.23927675533E+02  0.28501532851E+02  0.10566000000E+00 0. -1.
        994    1    1    2    0    0 -0.15644542838E+02 -0.19481122701E+02  0.72575948908E+02  0.15183061029E+03  0.13100000000E+03 0.  0.
        997    1    1    2    0    0  0.34496610413E+00  0.17090410226E+02  0.40349636439E+03  0.45066785686E+03  0.20000000000E+03 0.  0.
</event>
<event>
 5    1  0.8566659E-012  0.2370194E+03  0.7957747E-01  0.4482246E+00
         13   -1    0    0    0    0  0.00000000000E+00  0.00000000000E+00  0.49999998884E+03  0.50000000000E+03  0.10566000000E+00 0.  1.
        994   -1    0    0    0    0 -0.00000000000E+00 -0.00000000000E+00  0.00000000000E+00  0.13100000000E+03  0.13100000000E+03 0.  0.
         13    1    1    2    0    0  0.20421995236E+02  0.20288546544E+02  0.31620984176E+02  0.42761908454E+02  0.10566000000E+00 0. -1.
        994    1    1    2    0    0 -0.66046525935E+02  0.67654053684E+01  0.16349776281E+03  0.21977359428E+03  0.13100000000E+03 0.  0.
        997    1    1    2    0    0  0.45624530699E+02 -0.27053951912E+02  0.30488124185E+03  0.36846449727E+03  0.20000000000E+03 0.  0.
</event>
<event>
 5    1  0.8566659E-012  0.2474653E+03  0.7957747E-01  0.4361124E+00
         13   -1    0    0    0    0  0.00000000000E+00  0.00000000000E+00  0.49999998884E+03  0.50000000000E+03  0.10566000000E+00 0.  1.
        994   -1    0    0    0    0 -0.00000000000E+00 -0.00000000000E+00  0.00000000000E+00  0.13100000000E+03  0.13100000000E+03 0.  0.
         13    1    1    2    0    0  0.16814808857E+02  0.35061800948E+02  0.43474006885E+02  0.58327250247E+02  0.10566000000E+00 0. -1.
        994    1    1    2    0    0 -0.36743432681E+02  0.18867913146E+02  0.17020963235E+03  0.21871990522E+03  0.13100000000E+03 0.  0.
        997    1    1    2    0    0  0.19928623824E+02 -0.53929714094E+02  0.28631634960E+03  0.35395284454E+03  0.20000000000E+03 0.  0.
</event>
<event>
 5    1  0.8566659E-012  0.2312044E+03  0.7957747E-01  0.4555355E+00
         13   -1    0    0    0    0  0.00000000000E+00  0.00000000000E+00  0.49999998884E+03  0.50000000000E+03  0.10566000000E+00 0. -1.
        994   -1    0    0    0    0 -0.00000000000E+00 -0.00000000000E+00  0.00000000000E+00  0.13100000000E+03  0.13100000000E+03 0.  0.
         13    1    1    2    0    0 -0.17428559709E+02  0.78858574484E+01  0.35739385528E+02  0.40537097617E+02  0.10566000000E+00 0.  1.
        994    1    1    2    0    0  0.49387030913E+02  0.11955440399E+02  0.97498032735E+02  0.17102303285E+03  0.13100000000E+03 0.  0.
        997    1    1    2    0    0 -0.31958471204E+02 -0.19841297848E+02  0.36676257057E+03  0.41943986953E+03  0.20000000000E+03 0.  0.
</event>
<event>
 5    1  0.8566659E-012  0.2452964E+03  0.7957747E-01  0.4385272E+00
         13   -1    0    0    0    0  0.00000000000E+00  0.00000000000E+00  0.49999998884E+03  0.50000000000E+03  0.10566000000E+00 0. -1.
        994   -1    0    0    0    0 -0.00000000000E+00 -0.00000000000E+00  0.00000000000E+00  0.13100000000E+03  0.13100000000E+03 0.  0.
         13    1    1    2    0    0 -0.25330416282E+01 -0.24091196771E+02  0.91844148520E+01  0.25906885223E+02  0.10566000000E+00 0.  1.
        994    1    1    2    0    0  0.58159339462E+01 -0.41967035157E+02  0.14334692100E+03  0.19875713041E+03  0.13100000000E+03 0.  0.
        997    1    1    2    0    0 -0.32828923181E+01  0.66058231928E+02  0.34746865298E+03  0.40633598437E+03  0.20000000000E+03 0.  0.
</event>
<event>
 5    1  0.8566659E-012  0.2381925E+03  0.7957747E-01  0.4468014E+00
         13   -1    0    0    0    0  0.00000000000E+00  0.00000000000E+00  0.49999998884E+03  0.50000000000E+03  0.10566000000E+00 0. -1.
        994   -1    0    0    0    0 -0.00000000000E+00 -0.00000000000E+00  0.00000000000E+00  0.13100000000E+03  0.13100000000E+03 0.  0.
         13    1    1    2    0    0 -0.24420577061E+02 -0.18247530558E+02  0.30141762828E+02  0.42870432536E+02  0.10566000000E+00 0.  1.
        994    1    1    2    0    0  0.37418119457E+02  0.32361365056E+02  0.11876734153E+03  0.18361387482E+03  0.13100000000E+03 0.  0.
        997    1    1    2    0    0 -0.12997542396E+02 -0.14113834498E+02  0.35109088448E+03  0.40451569264E+03  0.20000000000E+03 0.  0.
</event>
<event>
 5    1  0.8566659E-012  0.2511917E+03  0.7957747E-01  0.4320773E+00
         13   -1    0    0    0    0  0.00000000000E+00  0.00000000000E+00  0.49999998884E+03  0.50000000000E+03  0.10566000000E+00 0.  1.
        994   -1    0    0    0    0 -0.00000000000E+00 -0.00000000000E+00  0.00000000000E+00  0.13100000000E+03  0.13100000000E+03 0.  0.
         13    1    1    2    0    0 -0.75332226580E+01 -0.14235426925E+02 -0.86905989573E+01  0.18301215742E+02  0.10566000000E+00 0. -1.
        994    1    1    2    0    0  0.14046430140E+02 -0.10682164739E+02  0.14051198275E+03  0.19291456176E+03  0.13100000000E+03 0.  0.
        997    1    1    2    0    0 -0.65132074816E+01  0.24917591664E+02  0.36817860504E+03  0.41978422249E+03  0.20000000000E+03 0.  0.
</event>
<event>
 5    1  0.8566659E-012  0.2487741E+03  0.7957747E-01  0.4346790E+00
         13   -1    0    0    0    0  0.00000000000E+00  0.00000000000E+00  0.49999998884E+03  0.50000000000E+03  0.10566000000E+00 0. -1.
        994   -1    0    0    0    0 -0.00000000000E+00 -0.00000000000E+00  0.00000000000E+00  0.13100000000E+03  0.13100000000E+03 0.  0.
         13    1    1    2    0    0  0.34196771046E+02  0.23699605166E+02  0.47324861247E+02  0.63013840472E+02  0.10566000000E+00 0.  1.
        994    1    1    2    0    0  0.12726102610E+02 -0.28261087792E+02  0.14352368940E+03  0.19677574086E+03  0.13100000000E+03 0.  0.
        997    1    1    2    0    0 -0.46922873656E+02  0.45614826260E+01  0.30915143818E+03  0.37121041867E+03  0.20000000000E+03 0.  0.
</event>
<event>
 5    1  0.1001919E-011  0.2415505E+03  0.7957747E-01  0.4428184E+00
         13   -1    0    0    0    0  0.00000000000E+00  0.00000000000E+00  0.49999998884E+03  0.50000000000E+03  0.10566000000E+00 0. -1.
        994   -1    0    0    0    0 -0.00000000000E+00 -0.00000000000E+00  0.00000000000E+00  0.13100000000E+03  0.13100000000E+03 0.  0.
         13    1    1    2    0    0 -0.12931479979E+02  0.39455038053E+00 -0.36052068729E+01  0.13430842307E+02  0.10566000000E+00 0.  1.
        994    1    1    2    0    0  0.88305665530E+01 -0.29614899714E+02  0.10528897058E+03  0.17088530808E+03  0.13100000000E+03 0.  0.
        997    1    1    2    0    0  0.41009134259E+01  0.29220349334E+02  0.39831622513E+03  0.44668384962E+03  0.20000000000E+03 0.  0.
</event>
<event>
 5    1  0.8566659E-012  0.2445929E+03  0.7957747E-01  0.4393213E+00
         13   -1    0    0    0    0  0.00000000000E+00  0.00000000000E+00  0.49999998884E+03  0.50000000000E+03  0.10566000000E+00 0. -1.
        994   -1    0    0    0    0 -0.00000000000E+00 -0.00000000000E+00  0.00000000000E+00  0.13100000000E+03  0.13100000000E+03 0.  0.
         13    1    1    2    0    0 -0.14589606892E+02 -0.17137247765E+01 -0.37713765029E+01  0.15166671574E+02  0.10566000000E+00 0.  1.
        994    1    1    2    0    0 -0.12278952928E+02 -0.19644572861E+02  0.10909164594E+03  0.17204263757E+03  0.13100000000E+03 0.  0.
        997    1    1    2    0    0  0.26868559821E+02  0.21358297638E+02  0.39467971940E+03  0.44379069086E+03  0.20000000000E+03 0.  0.
</event>
<event>
 5    1  0.8566659E-012  0.2414451E+03  0.7957747E-01  0.4429414E+00
         13   -1    0    0    0    0  0.00000000000E+00  0.00000000000E+00  0.49999998884E+03  0.50000000000E+03  0.10566000000E+00 0. -1.
        994   -1    0    0    0    0 -0.00000000000E+00 -0.00000000000E+00  0.00000000000E+00  0.13100000000E+03  0.13100000000E+03 0.  0.
         13    1    1    2    0    0 -0.15061467025E+02 -0.26661986796E+02  0.22358323995E+02  0.37915895674E+02  0.10566000000E+00 0.  1.
        994    1    1    2    0    0  0.27772981066E+02  0.26211760063E+02  0.11370375674E+03  0.17761739537E+03  0.13100000000E+03 0.  0.
        997    1    1    2    0    0 -0.12711514041E+02  0.45022673352E+00  0.36393790810E+03  0.41546670895E+03  0.20000000000E+03 0.  0.
</event>
<event>
 5    1  0.8566659E-012  0.2463312E+03  0.7957747E-01  0.4373688E+00
         13   -1    0    0    0    0  0.00000000000E+00  0.00000000000E+00  0.49999998884E+03  0.50000000000E+03  0.10566000000E+00 0.  1.
        994   -1    0    0    0    0 -0.00000000000E+00 -0.00000000000E+00  0.00000000000E+00  0.13100000000E+03  0.13100000000E+03 0.  0.
         13    1    1    2    0    0  0.21351911904E+02  0.15762374518E+02  0.70799391652E+01  0.27468041339E+02  0.10566000000E+00 0. -1.
        994    1    1    2    0    0 -0.26016474696E+02  0.25635588994E+02  0.13631006458E+03  0.19254992621E+03  0.13100000000E+03 0.  0.
        997    1    1    2    0    0  0.46645627929E+01 -0.41397963511E+02  0.35660998509E+03  0.41098203245E+03  0.20000000000E+03 0.  0.
</event>
<event>
 5    1  0.8566659E-012  0.2509925E+03  0.7957747E-01  0.4322894E+00
         13   -1    0    0    0    0  0.00000000000E+00  0.00000000000E+00  0.49999998884E+03  0.50000000000E+03  0.10566000000E+00 0. -1.
        994   -1    0    0    0    0 -0.00000000000E+00 -0.00000000000E+00  0.00000000000E+00  0.13100000000E+03  0.13100000000E+03 0.  0.
         13    1    1    2    0    0  0.26858808532E+02  0.27642856843E+02  0.21400231964E+02  0.44085192779E+02  0.10566000000E+00 0.  1.
        994    1    1    2    0    0 -0.65029139922E+01 -0.14068408913E+02  0.13606407259E+03  0.18951158241E+03  0.13100000000E+03 0.  0.
        997    1    1    2    0    0 -0.20355894540E+02 -0.13574447931E+02  0.34253568428E+03  0.39740322481E+03  0.20000000000E+03 0.  0.
</event>
<event>
 5    1  0.8566659E-012  0.2513430E+03  0.7957747E-01  0.4319163E+00
         13   -1    0    0    0    0  0.00000000000E+00  0.00000000000E+00  0.49999998884E+03  0.50000000000E+03  0.10566000000E+00 0.  1.
        994   -1    0    0    0    0 -0.00000000000E+00 -0.00000000000E+00  0.00000000000E+00  0.13100000000E+03  0.13100000000E+03 0.  0.
         13    1    1    2    0    0  0.19048510734E+01  0.41838955764E+02  0.42981372297E+02  0.60012800348E+02  0.10566000000E+00 0. -1.
        994    1    1    2    0    0 -0.27828335842E+01  0.89591977689E+01  0.13359120851E+03  0.18733825658E+03  0.13100000000E+03 0.  0.
        997    1    1    2    0    0  0.87798251078E+00 -0.50798153532E+02  0.32342740803E+03  0.38364894307E+03  0.20000000000E+03 0.  0.
</event>
<event>
 5    1  0.8566659E-012  0.2300264E+03  0.7957747E-01  0.4570709E+00
         13   -1    0    0    0    0  0.00000000000E+00  0.00000000000E+00  0.49999998884E+03  0.50000000000E+03  0.10566000000E+00 0.  1.
        994   -1    0    0    0    0 -0.00000000000E+00 -0.00000000000E+00  0.00000000000E+00  0.13100000000E+03  0.13100000000E+03 0.  0.
         13    1    1    2    0    0 -0.21087313909E+01  0.15734583659E+02  0.35637007277E+02  0.39013219845E+02  0.10566000000E+00 0. -1.
        994    1    1    2    0    0 -0.24064841669E+02 -0.32766667563E+02  0.83245587312E+02  0.16044811907E+03  0.13100000000E+03 0.  0.
        997    1    1    2    0    0  0.26173573060E+02  0.17032083903E+02  0.38111739425E+03  0.43153866108E+03  0.20000000000E+03 0.  0.
</event>
<event>
 5    1  0.8566659E-012  0.2440725E+03  0.7957747E-01  0.4399122E+00
         13   -1    0    0    0    0  0.00000000000E+00  0.00000000000E+00  0.49999998884E+03  0.50000000000E+03  0.10566000000E+00 0. -1.
        994   -1    0    0    0    0 -0.00000000000E+00 -0.00000000000E+00  0.00000000000E+00  0.13100000000E+03  0.13100000000E+03 0.  0.
         13    1    1    2    0    0 -0.28060364526E+02  0.28040754870E+02  0.36300714325E+02  0.53771935204E+02  0.10566000000E+00 0.  1.
        994    1    1    2    0    0  0.49685712108E+02 -0.97557992313E+01  0.16558186186E+03  0.21712254278E+03  0.13100000000E+03 0.  0.
        997    1    1    2    0    0 -0.21625347581E+02 -0.18284955638E+02  0.29811741265E+03  0.36010552202E+03  0.20000000000E+03 0.  0.
</event>
<event>
 5    1  0.8566659E-012  0.2378453E+03  0.7957747E-01  0.4472209E+00
         13   -1    0    0    0    0  0.00000000000E+00  0.00000000000E+00  0.49999998884E+03  0.50000000000E+03  0.10566000000E+00 0. -1.
        994   -1    0    0    0    0 -0.00000000000E+00 -0.00000000000E+00  0.00000000000E+00  0.13100000000E+03  0.13100000000E+03 0.  0.
         13    1    1    2    0    0  0.32898369171E+02 -0.79126727862E+01  0.60465512643E+02  0.69289266615E+02  0.10566000000E+00 0.  1.
        994    1    1    2    0    0 -0.63838860991E+02  0.40319772546E+00  0.15852469844E+03  0.21532914981E+03  0.13100000000E+03 0.  0.
        997    1    1    2    0    0  0.30940491820E+02  0.75094750608E+01  0.28100977775E+03  0.34638158358E+03  0.20000000000E+03 0.  0.
</event>
<event>
 5    1  0.8581295E-012  0.2390425E+03  0.7957747E-01  0.4457806E+00
         13   -1    0    0    0    0  0.00000000000E+00  0.00000000000E+00  0.49999998884E+03  0.50000000000E+03  0.10566000000E+00 0. -1.
        994   -1    0    0    0    0 -0.00000000000E+00 -0.00000000000E+00  0.00000000000E+00  0.13100000000E+03  0.13100000000E+03 0.  0.
         13    1    1    2    0    0 -0.11359321498E+02  0.23185970486E+02  0.18750159007E+02  0.31909293930E+02  0.10566000000E+00 0.  1.
        994    1    1    2    0    0  0.21088851801E+02 -0.22941654762E+02  0.97521625812E+02  0.16626041830E+03  0.13100000000E+03 0.  0.
        997    1    1    2    0    0 -0.97295303031E+01 -0.24431572402E+00  0.38372820402E+03  0.43283028777E+03  0.20000000000E+03 0.  0.
</event>
<event>
 5    1  0.8566659E-012  0.2334965E+03  0.7957747E-01  0.4526015E+00
         13   -1    0    0    0    0  0.00000000000E+00  0.00000000000E+00  0.49999998884E+03  0.50000000000E+03  0.10566000000E+00 0. -1.
        994   -1    0    0    0    0 -0.00000000000E+00 -0.00000000000E+00  0.00000000000E+00  0.13100000000E+03  0.13100000000E+03 0.  0.
         13    1    1    2    0    0 -0.89345280386E+01 -0.96727683181E+01  0.66690035084E+01  0.14760589759E+02  0.10566000000E+00 0.  1.
        994    1    1    2    0    0 -0.10041600277E+02 -0.41785875703E+01  0.73483415067E+02  0.15059583865E+03  0.13100000000E+03 0.  0.
        997    1    1    2    0    0  0.18976128316E+02  0.13851355888E+02  0.41984757026E+03  0.46564357159E+03  0.20000000000E+03 0.  0.
</event>
<event>
 5    1  0.8566659E-012  0.2410374E+03  0.7957747E-01  0.4434185E+00
         13   -1    0    0    0    0  0.00000000000E+00  0.00000000000E+00  0.49999998884E+03  0.50000000000E+03  0.10566000000E+00 0. -1.
        994   -1    0    0    0    0 -0.00000000000E+00 -0.00000000000E+00  0.00000000000E+00  0.13100000000E+03  0.13100000000E+03 0.  0.
         13    1    1    2    0    0 -0.19307781322E+02 -0.12335003314E+02  0.13837076231E+02  0.26765996507E+02  0.10566000000E+00 0.  1.
        994    1    1    2    0    0 -0.93777517143E+01 -0.13175189971E+02  0.93028637672E+02  0.16148329723E+03  0.13100000000E+03 0.  0.
        997    1    1    2    0    0  0.28685533036E+02  0.25510193286E+02  0.39313427493E+03  0.44275070626E+03  0.20000000000E+03 0.  0.
</event>
<event>
 5    1  0.8566659E-012  0.2319236E+03  0.7957747E-01  0.4546074E+00
         13   -1    0    0    0    0  0.00000000000E+00  0.00000000000E+00  0.49999998884E+03  0.50000000000E+03  0.10566000000E+00 0.  1.
        994   -1    0    0    0    0 -0.00000000000E+00 -0.00000000000E+00  0.00000000000E+00  0.13100000000E+03  0.13100000000E+03 0.  0.
         13    1    1    2    0    0 -0.15696935603E+02 -0.12545779738E+02  0.21934311784E+02  0.29747530554E+02  0.10566000000E+00 0. -1.
        994    1    1    2    0    0  0.66624064390E+02 -0.90384915227E-01  0.12904677110E+03  0.19558334095E+03  0.13100000000E+03 0.  0.
        997    1    1    2    0    0 -0.50927128787E+02  0.12636164653E+02  0.34901890595E+03  0.40566912850E+03  0.20000000000E+03 0.  0.
</event>
<event>
 5    1  0.8566659E-012  0.2424153E+03  0.7957747E-01  0.4418137E+00
         13   -1    0    0    0    0  0.00000000000E+00  0.00000000000E+00  0.49999998884E+03  0.50000000000E+03  0.10566000000E+00 0.  1.
        994   -1    0    0    0    0 -0.00000000000E+00 -0.00000000000E+00  0.00000000000E+00  0.13100000000E+03  0.13100000000E+03 0.  0.
         13    1    1    2    0    0 -0.53766052417E+01 -0.14869066018E+02 -0.40039249838E+01  0.16310720017E+02  0.10566000000E+00 0. -1.
        994    1    1    2    0    0  0.46444516001E+02  0.21502997417E+02  0.14750188697E+03  0.20380696412E+03  0.13100000000E+03 0.  0.
        997    1    1    2    0    0 -0.41067910759E+02 -0.66339313996E+01  0.35650202685E+03  0.41088231586E+03  0.20000000000E+03 0.  0.
</event>
<event>
 5    1  0.8566659E-012  0.2408180E+03  0.7957747E-01  0.4436759E+00
         13   -1    0    0    0    0  0.00000000000E+00  0.00000000000E+00  0.49999998884E+03  0.50000000000E+03  0.10566000000E+00 0. -1.
        994   -1    0    0    0    0 -0.00000000000E+00 -0.00000000000E+00  0.00000000000E+00  0.13100000000E+03  0.13100000000E+03 0.  0.
         13    1    1    2    0    0  0.57056957903E+01  0.21683432896E+02  0.61986713988E+02  0.65917297439E+02  0.10566000000E+00 0.  1.
        994    1    1    2    0    0 -0.40511898479E+02  0.40927127433E+01  0.25948861060E+03  0.29351882946E+03  0.13100000000E+03 0.  0.
        997    1    1    2    0    0  0.34806202689E+02 -0.25776145639E+02  0.17852466425E+03  0.27156387311E+03  0.20000000000E+03 0.  0.
</event>
<event>
 5    1  0.8566659E-012  0.2456018E+03  0.7957747E-01  0.4381842E+00
         13   -1    0    0    0    0  0.00000000000E+00  0.00000000000E+00  0.49999998884E+03  0.50000000000E+03  0.10566000000E+00 0. -1.
        994   -1    0    0    0    0 -0.00000000000E+00 -0.00000000000E+00  0.00000000000E+00  0.13100000000E+03  0.13100000000E+03 0.  0.
         13    1    1    2    0    0  0.19727098923E+02 -0.25733134987E+01 -0.49641908867E+00  0.19900702757E+02  0.10566000000E+00 0.  1.
        994    1    1    2    0    0 -0.15515776053E+02  0.54598997404E+01  0.10807540524E+03  0.17062193009E+03  0.13100000000E+03 0.  0.
        997    1    1    2    0    0 -0.42113228704E+01 -0.28865862417E+01  0.39242100269E+03  0.44047736715E+03  0.20000000000E+03 0.  0.
</event>
<event>
 5    1  0.8566659E-012  0.2456543E+03  0.7957747E-01  0.4381253E+00
         13   -1    0    0    0    0  0.00000000000E+00  0.00000000000E+00  0.49999998884E+03  0.50000000000E+03  0.10566000000E+00 0. -1.
        994   -1    0    0    0    0 -0.00000000000E+00 -0.00000000000E+00  0.00000000000E+00  0.13100000000E+03  0.13100000000E+03 0.  0.
         13    1    1    2    0    0 -0.23044691467E+02  0.23273907359E+02  0.37701195669E+02  0.49941204305E+02  0.10566000000E+00 0.  1.
        994    1    1    2    0    0 -0.29695605041E+02  0.77688562634E+01  0.12200069108E+03  0.18162420739E+03  0.13100000000E+03 0.  0.
        997    1    1    2    0    0  0.52740296509E+02 -0.31042763623E+02  0.34029810209E+03  0.39943458830E+03  0.20000000000E+03 0.  0.
</event>
<event>
 5    1  0.8566659E-012  0.2392889E+03  0.7957747E-01  0.4454863E+00
         13   -1    0    0    0    0  0.00000000000E+00  0.00000000000E+00  0.49999998884E+03  0.50000000000E+03  0.10566000000E+00 0.  1.
        994   -1    0    0    0    0 -0.00000000000E+00 -0.00000000000E+00  0.00000000000E+00  0.13100000000E+03  0.13100000000E+03 0.  0.
         13    1    1    2    0    0 -0.12207524978E+01 -0.10056948036E+02 -0.45873775228E+01  0.11121494370E+02  0.10566000000E+00 0. -1.
        994    1    1    2    0    0  0.49836205962E+02 -0.10495332790E+01  0.12438396114E+03  0.18739562091E+03  0.13100000000E+03 0.  0.
        997    1    1    2    0    0 -0.48615453464E+02  0.11106481315E+02  0.38020340521E+03  0.43248288472E+03  0.20000000000E+03 0.  0.
</event>
<event>
 5    1  0.8566659E-012  0.2502864E+03  0.7957747E-01  0.4330447E+00
         13   -1    0    0    0    0  0.00000000000E+00  0.00000000000E+00  0.49999998884E+03  0.50000000000E+03  0.10566000000E+00 0.  1.
        994   -1    0    0    0    0 -0.00000000000E+00 -0.00000000000E+00  0.00000000000E+00  0.13100000000E+03  0.13100000000E+03 0.  0.
         13    1    1    2    0    0 -0.40146998303E+02  0.75963422100E+01  0.92410703304E+02  0.10104075978E+03  0.10566000000E+00 0. -1.
        994    1    1    2    0    0  0.94886611223E+01  0.23281304597E+02  0.14499831595E+03  0.19702173855E+03  0.13100000000E+03 0.  0.
        997    1    1    2    0    0  0.30658337181E+02 -0.30877646807E+02  0.26259096959E+03  0.33293750167E+03  0.20000000000E+03 0.  0.
</event>
<event>
 5    1  0.8566659E-012  0.2385766E+03  0.7957747E-01  0.4463390E+00
         13   -1    0    0    0    0  0.00000000000E+00  0.00000000000E+00  0.49999998884E+03  0.50000000000E+03  0.10566000000E+00 0. -1.
        994   -1    0    0    0    0 -0.00000000000E+00 -0.00000000000E+00  0.00000000000E+00  0.13100000000E+03  0.13100000000E+03 0.  0.
         13    1    1    2    0    0 -0.17282912906E+02  0.14392129986E+01  0.63957289911E+01  0.18484775517E+02  0.10566000000E+00 0.  1.
        994    1    1    2    0    0 -0.12449347097E+02  0.10269411680E+02  0.86491369087E+02  0.15780432182E+03  0.13100000000E+03 0.  0.
        997    1    1    2    0    0  0.29732260003E+02 -0.11708624679E+02  0.40711289076E+03  0.45471090266E+03  0.20000000000E+03 0.  0.
</event>
<event>
 5    1  0.8566659E-012  0.2310568E+03  0.7957747E-01  0.4557268E+00
         13   -1    0    0    0    0  0.00000000000E+00  0.00000000000E+00  0.49999998884E+03  0.50000000000E+03  0.10566000000E+00 0. -1.
        994   -1    0    0    0    0 -0.00000000000E+00 -0.00000000000E+00  0.00000000000E+00  0.13100000000E+03  0.13100000000E+03 0.  0.
         13    1    1    2    0    0  0.61190208619E+01 -0.79980807067E+01  0.17564287675E+01  0.10222911393E+02  0.10566000000E+00 0.  1.
        994    1    1    2    0    0  0.43425240310E+02  0.60933579701E+02  0.15032075671E+03  0.21296944037E+03  0.13100000000E+03 0.  0.
        997    1    1    2    0    0 -0.49544261172E+02 -0.52935498995E+02  0.34792280335E+03  0.40780764824E+03  0.20000000000E+03 0.  0.
</event>
<event>
 5    1  0.8566659E-012  0.2425565E+03  0.7957747E-01  0.4416506E+00
         13   -1    0    0    0    0  0.00000000000E+00  0.00000000000E+00  0.49999998884E+03  0.50000000000E+03  0.10566000000E+00 0. -1.
        994   -1    0    0    0    0 -0.00000000000E+00 -0.00000000000E+00  0.00000000000E+00  0.13100000000E+03  0.13100000000E+03 0.  0.
         13    1    1    2    0    0 -0.12066020416E+02 -0.31808525737E+02  0.36056197621E+02  0.49572489439E+02  0.10566000000E+00 0.  1.
        994    1    1    2    0    0  0.23810488712E+02  0.14300733436E+02  0.10572518963E+03  0.17061730883E+03  0.13100000000E+03 0.  0.
        997    1    1    2    0    0 -0.11744468296E+02  0.17507792301E+02  0.35821860158E+03  0.41081020173E+03  0.20000000000E+03 0.  0.
</event>
<event>
 5    1  0.8566659E-012  0.2340262E+03  0.7957747E-01  0.4519333E+00
         13   -1    0    0    0    0  0.00000000000E+00  0.00000000000E+00  0.49999998884E+03  0.50000000000E+03  0.10566000000E+00 0. -1.
        994   -1    0    0    0    0 -0.00000000000E+00 -0.00000000000E+00  0.00000000000E+00  0.13100000000E+03  0.13100000000E+03 0.  0.
         13    1    1    2    0    0 -0.14135352293E+01 -0.15939938480E+02  0.14738193077E+02  0.21755579050E+02  0.10566000000E+00 0.  1.
        994    1    1    2    0    0  0.28022605381E+02 -0.31385276637E+02  0.94463173374E+02  0.16689695361E+03  0.13100000000E+03 0.  0.
        997    1    1    2    0    0 -0.26609070151E+02  0.47325215117E+02  0.39079862238E+03  0.44234746733E+03  0.20000000000E+03 0.  0.
</event>
<event>
 5    1  0.8566659E-012  0.2316340E+03  0.7957747E-01  0.4549803E+00
         13   -1    0    0    0    0  0.00000000000E+00  0.00000000000E+00  0.49999998884E+03  0.50000000000E+03  0.10566000000E+00 0. -1.
        994   -1    0    0    0    0 -0.00000000000E+00 -0.00000000000E+00  0.00000000000E+00  0.13100000000E+03  0.13100000000E+03 0.  0.
         13    1    1    2    0    0  0.16573693932E+02 -0.81058212649E+01  0.35930775025E+02  0.40390882967E+02  0.10566000000E+00 0.  1.
        994    1    1    2    0    0 -0.20545325442E+02  0.39006234799E+01  0.73222075599E+02  0.15152490758E+03  0.13100000000E+03 0.  0.
        997    1    1    2    0    0  0.39716315099E+01  0.42051977851E+01  0.39084713821E+03  0.43908420946E+03  0.20000000000E+03 0.  0.
</event>
<event>
 5    1  0.8566659E-012  0.2493320E+03  0.7957747E-01  0.4340734E+00
         13   -1    0    0    0    0  0.00000000000E+00  0.00000000000E+00  0.49999998884E+03  0.50000000000E+03  0.10566000000E+00 0.  1.
        994   -1    0    0    0    0 -0.00000000000E+00 -0.00000000000E+00  0.00000000000E+00  0.13100000000E+03  0.13100000000E+03 0.  0.
         13    1    1    2    0    0 -0.13439922297E+02 -0.24262849297E+02  0.41691497183E+01  0.28048357184E+02  0.10566000000E+00 0. -1.
        994    1    1    2    0    0  0.11335014939E+02  0.14951383239E+02  0.12776284803E+03  0.18394665466E+03  0.13100000000E+03 0.  0.
        997    1    1    2    0    0  0.21049073580E+01  0.93114660579E+01  0.36806799109E+03  0.41900498815E+03  0.20000000000E+03 0.  0.
</event>
<event>
 5    1  0.8566659E-012  0.2450067E+03  0.7957747E-01  0.4388536E+00
         13   -1    0    0    0    0  0.00000000000E+00  0.00000000000E+00  0.49999998884E+03  0.50000000000E+03  0.10566000000E+00 0.  1.
        994   -1    0    0    0    0 -0.00000000000E+00 -0.00000000000E+00  0.00000000000E+00  0.13100000000E+03  0.13100000000E+03 0.  0.
         13    1    1    2    0    0  0.26744060068E+02  0.17591273791E+02  0.22876295367E+02  0.39345059617E+02  0.10566000000E+00 0. -1.
        994    1    1    2    0    0  0.90300730045E+01 -0.27972170361E+02  0.11720332428E+03  0.17821785476E+03  0.13100000000E+03 0.  0.
        997    1    1    2    0    0 -0.35774133073E+02  0.10380896569E+02  0.35992036919E+03  0.41343708562E+03  0.20000000000E+03 0.  0.
</event>
<event>
 5    1  0.8566659E-012  0.2270553E+03  0.7957747E-01  0.4610295E+00
         13   -1    0    0    0    0  0.00000000000E+00  0.00000000000E+00  0.49999998884E+03  0.50000000000E+03  0.10566000000E+00 0.  1.
        994   -1    0    0    0    0 -0.00000000000E+00 -0.00000000000E+00  0.00000000000E+00  0.13100000000E+03  0.13100000000E+03 0.  0.
         13    1    1    2    0    0  0.10322781903E+02  0.52139788218E-01  0.23727917349E+02  0.25876394079E+02  0.10566000000E+00 0. -1.
        994    1    1    2    0    0 -0.49625719599E+02 -0.59634610519E+02  0.13667249818E+03  0.20459562697E+03  0.13100000000E+03 0.  0.
        997    1    1    2    0    0  0.39302937696E+02  0.59582470731E+02  0.33959957331E+03  0.40052797895E+03  0.20000000000E+03 0.  0.
</event>
<event>
 5    1  0.8566659E-012  0.2353463E+03  0.7957747E-01  0.4502837E+00
         13   -1    0    0    0    0  0.00000000000E+00  0.00000000000E+00  0.49999998884E+03  0.50000000000E+03  0.10566000000E+00 0.  1.
        994   -1    0    0    0    0 -0.00000000000E+00 -0.00000000000E+00  0.00000000000E+00  0.13100000000E+03  0.13100000000E+03 0.  0.
         13    1    1    2    0    0 -0.72978061642E+01  0.25363652476E+02  0.56091978674E+02  0.61991080627E+02  0.10566000000E+00 0. -1.
        994    1    1    2    0    0 -0.14213967806E+02 -0.46151731007E+02  0.10633977634E+03  0.17550261305E+03  0.13100000000E+03 0.  0.
        997    1    1    2    0    0  0.21511773970E+02  0.20788078531E+02  0.33756823383E+03  0.39350630632E+03  0.20000000000E+03 0.  0.
</event>
<event>
 5    1  0.8566659E-012  0.2466411E+03  0.7957747E-01  0.4370241E+00
         13   -1    0    0    0    0  0.00000000000E+00  0.00000000000E+00  0.49999998884E+03  0.50000000000E+03  0.10566000000E+00 0. -1.
        994   -1    0    0    0    0 -0.00000000000E+00 -0.00000000000E+00  0.00000000000E+00  0.13100000000E+03  0.13100000000E+03 0.  0.
         13    1    1    2    0    0 -0.21543762824E+02 -0.13183512182E+01  0.13975162170E+01  0.21629516457E+02  0.10566000000E+00 0.  1.
        994    1    1    2    0    0  0.19749406855E+00 -0.74897576644E+00  0.10706828015E+03  0.16918988321E+03  0.13100000000E+03 0.  0.
        997    1    1    2    0    0  0.21346268755E+02  0.20673269846E+01  0.39153419247E+03  0.44018060033E+03  0.20000000000E+03 0.  0.
</event>
<event>
 5    1  0.8566659E-012  0.2307333E+03  0.7957747E-01  0.4561472E+00
         13   -1    0    0    0    0  0.00000000000E+00  0.00000000000E+00  0.49999998884E+03  0.50000000000E+03  0.10566000000E+00 0. -1.
        994   -1    0    0    0    0 -0.00000000000E+00 -0.00000000000E+00  0.00000000000E+00  0.13100000000E+03  0.13100000000E+03 0.  0.
         13    1    1    2    0    0  0.10476923829E+02 -0.22364271976E+01  0.55322346609E+01  0.12057542200E+02  0.10566000000E+00 0.  1.
        994    1    1    2    0    0 -0.13355680806E+02 -0.12631191327E+02  0.70437429398E+02  0.14986778394E+03  0.13100000000E+03 0.  0.
        997    1    1    2    0    0  0.28787569763E+01  0.14867618524E+02  0.42403032478E+03  0.46907467386E+03  0.20000000000E+03 0.  0.
</event>
<event>
 5    1  0.8566659E-012  0.2366219E+03  0.7957747E-01  0.4487106E+00
         13   -1    0    0    0    0  0.00000000000E+00  0.00000000000E+00  0.49999998884E+03  0.50000000000E+03  0.10566000000E+00 0. -1.
        994   -1    0    0    0    0 -0.00000000000E+00 -0.00000000000E+00  0.00000000000E+00  0.13100000000E+03  0.13100000000E+03 0.  0.
         13    1    1    2    0    0 -0.33979775480E+01  0.16435721857E+02  0.75427075153E+02  0.77271819148E+02  0.10566000000E+00 0.  1.
        994    1    1    2    0    0  0.55643596244E+02 -0.33334908397E+01  0.12458449803E+03  0.18918144495E+03  0.13100000000E+03 0.  0.
        997    1    1    2    0    0 -0.52245618696E+02 -0.13102231017E+02  0.29998841565E+03  0.36454673590E+03  0.20000000000E+03 0.  0.
</event>
<event>
 5    1  0.8566659E-012  0.2379858E+03  0.7957747E-01  0.4470510E+00
         13   -1    0    0    0    0  0.00000000000E+00  0.00000000000E+00  0.49999998884E+03  0.50000000000E+03  0.10566000000E+00 0.  1.
        994   -1    0    0    0    0 -0.00000000000E+00 -0.00000000000E+00  0.00000000000E+00  0.13100000000E+03  0.13100000000E+03 0.  0.
         13    1    1    2    0    0  0.10740530336E+02  0.12826798133E+02  0.57697946047E+01  0.17697102477E+02  0.10566000000E+00 0. -1.
        994    1    1    2    0    0  0.25592897707E+02 -0.88188896770E+01  0.91212860386E+02  0.16190600708E+03  0.13100000000E+03 0.  0.
        997    1    1    2    0    0 -0.36333428044E+02 -0.40079084565E+01  0.40301733385E+03  0.45139689044E+03  0.20000000000E+03 0.  0.
</event>
<event>
 5    1  0.8566659E-012  0.2430612E+03  0.7957747E-01  0.4410689E+00
         13   -1    0    0    0    0  0.00000000000E+00  0.00000000000E+00  0.49999998884E+03  0.50000000000E+03  0.10566000000E+00 0.  1.
        994   -1    0    0    0    0 -0.00000000000E+00 -0.00000000000E+00  0.00000000000E+00  0.13100000000E+03  0.13100000000E+03 0.  0.
         13    1    1    2    0    0  0.19975661944E+02 -0.32419767069E+02  0.42037658482E+02  0.56720756885E+02  0.10566000000E+00 0. -1.
        994    1    1    2    0    0 -0.51384926372E+02  0.97160608789E+01  0.15955747506E+03  0.21296572575E+03  0.13100000000E+03 0.  0.
        997    1    1    2    0    0  0.31409264428E+02  0.22703706190E+02  0.29840485529E+03  0.36131351736E+03  0.20000000000E+03 0.  0.
</event>
<event>
 5    1  0.8566659E-012  0.2382741E+03  0.7957747E-01  0.4467030E+00
         13   -1    0    0    0    0  0.00000000000E+00  0.00000000000E+00  0.49999998884E+03  0.50000000000E+03  0.10566000000E+00 0. -1.
        994   -1    0    0    0    0 -0.00000000000E+00 -0.00000000000E+00  0.00000000000E+00  0.13100000000E+03  0.13100000000E+03 0.  0.
         13    1    1    2    0    0 -0.17786056357E+02  0.12539217885E+02  0.12688768948E+02  0.25191105719E+02  0.10566000000E+00 0.  1.
        994    1    1    2    0    0  0.27102276645E+02  0.57805650599E+01  0.92467437484E+02  0.16272423091E+03  0.13100000000E+03 0.  0.
        997    1    1    2    0    0 -0.93162202879E+01 -0.18319782945E+02  0.39484378240E+03  0.44308466337E+03  0.20000000000E+03 0.  0.
</event>
<event>
 5    1  0.8566659E-012  0.2276742E+03  0.7957747E-01  0.4601945E+00
         13   -1    0    0    0    0  0.00000000000E+00  0.00000000000E+00  0.49999998884E+03  0.50000000000E+03  0.10566000000E+00 0.  1.
        994   -1    0    0    0    0 -0.00000000000E+00 -0.00000000000E+00  0.00000000000E+00  0.13100000000E+03  0.13100000000E+03 0.  0.
         13    1    1    2    0    0  0.11994746636E+02  0.13902071826E+01  0.21522767344E+02  0.24678883707E+02  0.10566000000E+00 0. -1.
        994    1    1    2    0    0 -0.39574727412E+02  0.91552537169E+01  0.78184935628E+02  0.15787292953E+03  0.13100000000E+03 0.  0.
        997    1    1    2    0    0  0.27579980775E+02 -0.10545460900E+02  0.40029228586E+03  0.44844818676E+03  0.20000000000E+03 0.  0.
</event>
<event>
 5    1  0.8566659E-012  0.2427593E+03  0.7957747E-01  0.4414165E+00
         13   -1    0    0    0    0  0.00000000000E+00  0.00000000000E+00  0.49999998884E+03  0.50000000000E+03  0.10566000000E+00 0.  1.
        994   -1    0    0    0    0 -0.00000000000E+00 -0.00000000000E+00  0.00000000000E+00  0.13100000000E+03  0.13100000000E+03 0.  0.
         13    1    1    2    0    0 -0.26294321754E+02  0.74260525002E+01  0.14149294970E+02  0.30769324406E+02  0.10566000000E+00 0. -1.
        994    1    1    2    0    0  0.17038605504E+02 -0.23881800881E+02  0.10799489836E+03  0.17229205601E+03  0.13100000000E+03 0.  0.
        997    1    1    2    0    0  0.92557162496E+01  0.16455748381E+02  0.37785579550E+03  0.42793861959E+03  0.20000000000E+03 0.  0.
</event>
<event>
 5    1  0.8566659E-012  0.2373076E+03  0.7957747E-01  0.4478733E+00
         13   -1    0    0    0    0  0.00000000000E+00  0.00000000000E+00  0.49999998884E+03  0.50000000000E+03  0.10566000000E+00 0.  1.
        994   -1    0    0    0    0 -0.00000000000E+00 -0.00000000000E+00  0.00000000000E+00  0.13100000000E+03  0.13100000000E+03 0.  0.
         13    1    1    2    0    0  0.11442025660E+02  0.19035049317E+02  0.19611301151E+02  0.29628826345E+02  0.10566000000E+00 0. -1.
        994    1    1    2    0    0  0.29276409868E+02 -0.18078037899E+02  0.95543598095E+02  0.16575132810E+03  0.13100000000E+03 0.  0.
        997    1    1    2    0    0 -0.40718435527E+02 -0.95701141746E+00  0.38484508959E+03  0.43561984556E+03  0.20000000000E+03 0.  0.
</event>
<event>
 5    1  0.8566659E-012  0.2474979E+03  0.7957747E-01  0.4360765E+00
         13   -1    0    0    0    0  0.00000000000E+00  0.00000000000E+00  0.49999998884E+03  0.50000000000E+03  0.10566000000E+00 0. -1.
        994   -1    0    0    0    0 -0.00000000000E+00 -0.00000000000E+00  0.00000000000E+00  0.13100000000E+03  0.13100000000E+03 0.  0.
         13    1    1    2    0    0  0.49260100035E+01 -0.27430754696E+02  0.45101087907E+01  0.28232324082E+02  0.10566000000E+00 0.  1.
        994    1    1    2    0    0  0.38543574014E+02  0.15405592609E+02  0.17882921189E+03  0.22553010089E+03  0.13100000000E+03 0.  0.
        997    1    1    2    0    0 -0.43469584018E+02  0.12025162087E+02  0.31666066815E+03  0.37723757503E+03  0.20000000000E+03 0.  0.
</event>
<event>
 5    1  0.8566659E-012  0.2415230E+03  0.7957747E-01  0.4428505E+00
         13   -1    0    0    0    0  0.00000000000E+00  0.00000000000E+00  0.49999998884E+03  0.50000000000E+03  0.10566000000E+00 0.  1.
        994   -1    0    0    0    0 -0.00000000000E+00 -0.00000000000E+00  0.00000000000E+00  0.13100000000E+03  0.13100000000E+03 0.  0.
         13    1    1    2    0    0 -0.52065568906E+00 -0.27907163275E+02  0.22371337867E+02  0.35771060459E+02  0.10566000000E+00 0. -1.
        994    1    1    2    0    0  0.21057815229E+02  0.69922230662E+01  0.97857109068E+02  0.16501314057E+03  0.13100000000E+03 0.  0.
        997    1    1    2    0    0 -0.20537159540E+02  0.20914940209E+02  0.37977154190E+03  0.43021579897E+03  0.20000000000E+03 0.  0.
</event>
<event>
 5    1  0.9920142E-012  0.2389949E+03  0.7957747E-01  0.4458375E+00
         13   -1    0    0    0    0  0.00000000000E+00  0.00000000000E+00  0.49999998884E+03  0.50000000000E+03  0.10566000000E+00 0. -1.
        994   -1    0    0    0    0 -0.00000000000E+00 -0.00000000000E+00  0.00000000000E+00  0.13100000000E+03  0.13100000000E+03 0.  0.
         13    1    1    2    0    0 -0.17271817532E+02  0.16641993720E+02  0.12281014957E+02  0.26946356493E+02  0.10566000000E+00 0.  1.
        994    1    1    2    0    0  0.35570175600E+02 -0.21865247426E+02  0.10942629786E+03  0.17572262547E+03  0.13100000000E+03 0.  0.
        997    1    1    2    0    0 -0.18298358067E+02  0.52232537055E+01  0.37829267602E+03  0.42833101804E+03  0.20000000000E+03 0.  0.
</event>
<event>
 5    1  0.8566659E-012  0.2421589E+03  0.7957747E-01  0.4421107E+00
         13   -1    0    0    0    0  0.00000000000E+00  0.00000000000E+00  0.49999998884E+03  0.50000000000E+03  0.10566000000E+00 0.  1.
        994   -1    0    0    0    0 -0.00000000000E+00 -0.00000000000E+00  0.00000000000E+00  0.13100000000E+03  0.13100000000E+03 0.  0.
         13    1    1    2    0    0  0.33116865975E+01 -0.22741130483E+02  0.14121187460E+02  0.26973049198E+02  0.10566000000E+00 0. -1.
        994    1    1    2    0    0  0.15474484219E+02 -0.45708413021E+02  0.13653121069E+03  0.19527030029E+03  0.13100000000E+03 0.  0.
        997    1    1    2    0    0 -0.18786170816E+02  0.68449543503E+02  0.34934759068E+03  0.40875665051E+03  0.20000000000E+03 0.  0.
</event>
<event>
 5    1  0.8566659E-012  0.2277017E+03  0.7957747E-01  0.4601575E+00
         13   -1    0    0    0    0  0.00000000000E+00  0.00000000000E+00  0.49999998884E+03  0.50000000000E+03  0.10566000000E+00 0. -1.
        994   -1    0    0    0    0 -0.00000000000E+00 -0.00000000000E+00  0.00000000000E+00  0.13100000000E+03  0.13100000000E+03 0.  0.
         13    1    1    2    0    0 -0.14893746798E+01  0.10045113190E+02  0.13141147408E+02  0.16607933501E+02  0.10566000000E+00 0.  1.
        994    1    1    2    0    0  0.12185500830E+02 -0.14999372618E+02  0.65291727343E+02  0.14763968731E+03  0.13100000000E+03 0.  0.
        997    1    1    2    0    0 -0.10696126151E+02  0.49542594272E+01  0.42156711408E+03  0.46675237919E+03  0.20000000000E+03 0.  0.
</event>
<event>
 5    1  0.8566659E-012  0.2507459E+03  0.7957747E-01  0.4325526E+00
         13   -1    0    0    0    0  0.00000000000E+00  0.00000000000E+00  0.49999998884E+03  0.50000000000E+03  0.10566000000E+00 0. -1.
        994   -1    0    0    0    0 -0.00000000000E+00 -0.00000000000E+00  0.00000000000E+00  0.13100000000E+03  0.13100000000E+03 0.  0.
         13    1    1    2    0    0  0.12555678100E+01  0.19941794191E+02 -0.47651119368E+01  0.20541885549E+02  0.10566000000E+00 0.  1.
        994    1    1    2    0    0 -0.47457295119E+01  0.21265071270E+01  0.12752041866E+03  0.18289204783E+03  0.13100000000E+03 0.  0.
        997    1    1    2    0    0  0.34901617019E+01 -0.22068301318E+02  0.37724468211E+03  0.42756606663E+03  0.20000000000E+03 0.  0.
</event>
<event>
 5    1  0.8566659E-012  0.2513721E+03  0.7957747E-01  0.4318854E+00
         13   -1    0    0    0    0  0.00000000000E+00  0.00000000000E+00  0.49999998884E+03  0.50000000000E+03  0.10566000000E+00 0.  1.
        994   -1    0    0    0    0 -0.00000000000E+00 -0.00000000000E+00  0.00000000000E+00  0.13100000000E+03  0.13100000000E+03 0.  0.
         13    1    1    2    0    0  0.93376612122E+01 -0.44872859108E+02  0.70540347242E+02  0.84123226011E+02  0.10566000000E+00 0. -1.
        994    1    1    2    0    0  0.21419484594E+02  0.13581322022E+02  0.18244628874E+03  0.22603295092E+03  0.13100000000E+03 0.  0.
        997    1    1    2    0    0 -0.30757145806E+02  0.31291537085E+02  0.24701335285E+03  0.32084382307E+03  0.20000000000E+03 0.  0.
</event>
<event>
 5    1  0.8566659E-012  0.2340506E+03  0.7957747E-01  0.4519026E+00
         13   -1    0    0    0    0  0.00000000000E+00  0.00000000000E+00  0.49999998884E+03  0.50000000000E+03  0.10566000000E+00 0.  1.
        994   -1    0    0    0    0 -0.00000000000E+00 -0.00000000000E+00  0.00000000000E+00  0.13100000000E+03  0.13100000000E+03 0.  0.
         13    1    1    2    0    0  0.13064685815E+01 -0.22008151461E+02  0.32315718622E+02  0.39120102569E+02  0.10566000000E+00 0. -1.
        994    1    1    2    0    0 -0.42579665919E+02  0.18749368551E+02  0.99893034921E+02  0.17118465234E+03  0.13100000000E+03 0.  0.
        997    1    1    2    0    0  0.41273197338E+02  0.32587829100E+01  0.36779123529E+03  0.42069524509E+03  0.20000000000E+03 0.  0.
</event>
<event>
 5    1  0.8566659E-012  0.2316757E+03  0.7957747E-01  0.4549265E+00
         13   -1    0    0    0    0  0.00000000000E+00  0.00000000000E+00  0.49999998884E+03  0.50000000000E+03  0.10566000000E+00 0. -1.
        994   -1    0    0    0    0 -0.00000000000E+00 -0.00000000000E+00  0.00000000000E+00  0.13100000000E+03  0.13100000000E+03 0.  0.
         13    1    1    2    0    0  0.13774019938E+02  0.47544547507E+01  0.10796529841E+02  0.18135729538E+02  0.10566000000E+00 0.  1.
        994    1    1    2    0    0 -0.36052400262E+02  0.41434156971E+02  0.10481041529E+03  0.17652985040E+03  0.13100000000E+03 0.  0.
        997    1    1    2    0    0  0.22278380324E+02 -0.46188611722E+02  0.38439304371E+03  0.43633442007E+03  0.20000000000E+03 0.  0.
</event>
<event>
 5    1  0.8566659E-012  0.2335845E+03  0.7957747E-01  0.4524902E+00
         13   -1    0    0    0    0  0.00000000000E+00  0.00000000000E+00  0.49999998884E+03  0.50000000000E+03  0.10566000000E+00 0.  1.
        994   -1    0    0    0    0 -0.00000000000E+00 -0.00000000000E+00  0.00000000000E+00  0.13100000000E+03  0.13100000000E+03 0.  0.
         13    1    1    2    0    0 -0.17311373764E+02 -0.98618543508E+01  0.62024880010E+02  0.65146271859E+02  0.10566000000E+00 0. -1.
        994    1    1    2    0    0  0.20144077589E+02  0.54510420695E+02  0.11688435377E+03  0.18493274989E+03  0.13100000000E+03 0.  0.
        997    1    1    2    0    0 -0.28327038247E+01 -0.44648566345E+02  0.32109075506E+03  0.38092097825E+03  0.20000000000E+03 0.  0.
</event>
<event>
 5    1  0.8566659E-012  0.2280286E+03  0.7957747E-01  0.4597188E+00
         13   -1    0    0    0    0  0.00000000000E+00  0.00000000000E+00  0.49999998884E+03  0.50000000000E+03  0.10566000000E+00 0. -1.
        994   -1    0    0    0    0 -0.00000000000E+00 -0.00000000000E+00  0.00000000000E+00  0.13100000000E+03  0.13100000000E+03 0.  0.
         13    1    1    2    0    0  0.30491204824E+01 -0.11072791142E+02  0.32009816901E+02  0.34007989965E+02  0.10566000000E+00 0.  1.
        994    1    1    2    0    0 -0.98187856570E+01  0.21721886015E+02  0.67774535322E+02  0.14940761869E+03  0.13100000000E+03 0.  0.
        997    1    1    2    0    0  0.67696651746E+01 -0.10649094873E+02  0.40021563661E+03  0.44758439135E+03  0.20000000000E+03 0.  0.
</event>
<event>
 5    1  0.8566659E-012  0.2324902E+03  0.7957747E-01  0.4538810E+00
         13   -1    0    0    0    0  0.00000000000E+00  0.00000000000E+00  0.49999998884E+03  0.50000000000E+03  0.10566000000E+00 0. -1.
        994   -1    0    0    0    0 -0.00000000000E+00 -0.00000000000E+00  0.00000000000E+00  0.13100000000E+03  0.13100000000E+03 0.  0.
         13    1    1    2    0    0 -0.18185057325E+02 -0.19021999578E+01  0.61002007793E+02  0.63683363553E+02  0.10566000000E+00 0.  1.
        994    1    1    2    0    0  0.37316259046E+02 -0.69881973231E+00  0.85854273148E+02  0.16101225964E+03  0.13100000000E+03 0.  0.
        997    1    1    2    0    0 -0.19131201720E+02  0.26010196901E+01  0.35314370790E+03  0.40630437680E+03  0.20000000000E+03 0.  0.
</event>
<event>
 5    1  0.8566659E-012  0.2479374E+03  0.7957747E-01  0.4355934E+00
         13   -1    0    0    0    0  0.00000000000E+00  0.00000000000E+00  0.49999998884E+03  0.50000000000E+03  0.10566000000E+00 0. -1.
        994   -1    0    0    0    0 -0.00000000000E+00 -0.00000000000E+00  0.00000000000E+00  0.13100000000E+03  0.13100000000E+03 0.  0.
         13    1    1    2    0    0  0.85596583830E+01  0.23382254389E+02  0.18112664775E+01  0.24965765004E+02  0.10566000000E+00 0.  1.
        994    1    1    2    0    0 -0.25460091181E+02 -0.11112230793E+02  0.13068597339E+03  0.18711365946E+03  0.13100000000E+03 0.  0.
        997    1    1    2    0    0  0.16900432798E+02 -0.12270023596E+02  0.36750274896E+03  0.41892057553E+03  0.20000000000E+03 0.  0.
</event>
<event>
 5    1  0.8566659E-012  0.2503414E+03  0.7957747E-01  0.4329857E+00
         13   -1    0    0    0    0  0.00000000000E+00  0.00000000000E+00  0.49999998884E+03  0.50000000000E+03  0.10566000000E+00 0.  1.
        994   -1    0    0    0    0 -0.00000000000E+00 -0.00000000000E+00  0.00000000000E+00  0.13100000000E+03  0.13100000000E+03 0.  0.
         13    1    1    2    0    0  0.14149128993E+02  0.23699391184E+02  0.30136133566E+01  0.27766022820E+02  0.10566000000E+00 0. -1.
        994    1    1    2    0    0 -0.14381582696E+02 -0.71471455367E+01  0.13169808461E+03  0.18644918101E+03  0.13100000000E+03 0.  0.
        997    1    1    2    0    0  0.23245370376E+00 -0.16552245647E+02  0.36528829087E+03  0.41678479617E+03  0.20000000000E+03 0.  0.
</event>
<event>
 5    1  0.8566659E-012  0.2346454E+03  0.7957747E-01  0.4511567E+00
         13   -1    0    0    0    0  0.00000000000E+00  0.00000000000E+00  0.49999998884E+03  0.50000000000E+03  0.10566000000E+00 0.  1.
        994   -1    0    0    0    0 -0.00000000000E+00 -0.00000000000E+00  0.00000000000E+00  0.13100000000E+03  0.13100000000E+03 0.  0.
         13    1    1    2    0    0  0.42750143078E+00  0.17743820528E+02  0.14930682409E+02  0.23194015729E+02  0.10566000000E+00 0. -1.
        994    1    1    2    0    0 -0.84356374487E+00  0.18293633219E+01  0.74551939770E+02  0.15074166608E+03  0.13100000000E+03 0.  0.
        997    1    1    2    0    0  0.41606231409E+00 -0.19573183850E+02  0.41051736666E+03  0.45706431819E+03  0.20000000000E+03 0.  0.
</event>
<event>
 5    1  0.8566659E-012  0.2364044E+03  0.7957747E-01  0.4489774E+00
         13   -1    0    0    0    0  0.00000000000E+00  0.00000000000E+00  0.49999998884E+03  0.50000000000E+03  0.10566000000E+00 0.  1.
        994   -1    0    0    0    0 -0.00000000000E+00 -0.00000000000E+00  0.00000000000E+00  0.13100000000E+03  0.13100000000E+03 0.  0.
         13    1    1    2    0    0  0.80166430857E+01 -0.18953659085E+02  0.12631307857E+02  0.24146818865E+02  0.10566000000E+00 0. -1.
        994    1    1    2    0    0 -0.32639833080E+02  0.18506941711E+02  0.96110708740E+02  0.16675171342E+03  0.13100000000E+03 0.  0.
        997    1    1    2    0    0  0.24623189994E+02  0.44671737358E+00  0.39125797224E+03  0.44010146771E+03  0.20000000000E+03 0.  0.
</event>
<event>
 5    1  0.8566659E-012  0.2292382E+03  0.7957747E-01  0.4581089E+00
         13   -1    0    0    0    0  0.00000000000E+00  0.00000000000E+00  0.49999998884E+03  0.50000000000E+03  0.10566000000E+00 0. -1.
        994   -1    0    0    0    0 -0.00000000000E+00 -0.00000000000E+00  0.00000000000E+00  0.13100000000E+03  0.13100000000E+03 0.  0.
         13    1    1    2    0    0  0.92006912430E+01 -0.50558595341E+01  0.12672394119E+02  0.16456462917E+02  0.10566000000E+00 0.  1.
        994    1    1    2    0    0  0.13578111270E+02 -0.30773588333E+02  0.75842591106E+02  0.15506281782E+03  0.13100000000E+03 0.  0.
        997    1    1    2    0    0 -0.22778802513E+02  0.35829447867E+02  0.41148500361E+03  0.45948071926E+03  0.20000000000E+03 0.  0.
</event>
<event>
 5    1  0.8566659E-012  0.2445972E+03  0.7957747E-01  0.4393164E+00
         13   -1    0    0    0    0  0.00000000000E+00  0.00000000000E+00  0.49999998884E+03  0.50000000000E+03  0.10566000000E+00 0.  1.
        994   -1    0    0    0    0 -0.00000000000E+00 -0.00000000000E+00  0.00000000000E+00  0.13100000000E+03  0.13100000000E+03 0.  0.
         13    1    1    2    0    0 -0.15167105967E+02  0.10181076563E+02 -0.24135486420E+01  0.18426388807E+02  0.10566000000E+00 0. -1.
        994    1    1    2    0    0  0.33336479915E+02 -0.42634977775E+01  0.12095443594E+03  0.18144000077E+03  0.13100000000E+03 0.  0.
        997    1    1    2    0    0 -0.18169373949E+02 -0.59175787854E+01  0.38145910154E+03  0.43113361042E+03  0.20000000000E+03 0.  0.
</event>
<event>
 5    1  0.8566659E-012  0.2326153E+03  0.7957747E-01  0.4537212E+00
         13   -1    0    0    0    0  0.00000000000E+00  0.00000000000E+00  0.49999998884E+03  0.50000000000E+03  0.10566000000E+00 0. -1.
        994   -1    0    0    0    0 -0.00000000000E+00 -0.00000000000E+00  0.00000000000E+00  0.13100000000E+03  0.13100000000E+03 0.  0.
         13    1    1    2    0    0 -0.15156787081E+02 -0.49574441975E+01  0.11317578492E+02  0.19555132179E+02  0.10566000000E+00 0.  1.
        994    1    1    2    0    0  0.28790042808E+02  0.10517418353E+02  0.80820564459E+02  0.15694727233E+03  0.13100000000E+03 0.  0.
        997    1    1    2    0    0 -0.13633255728E+02 -0.55599741560E+01  0.40786184589E+03  0.45449759549E+03  0.20000000000E+03 0.  0.
</event>
<event>
 5    1  0.8566659E-012  0.2391930E+03  0.7957747E-01  0.4456008E+00
         13   -1    0    0    0    0  0.00000000000E+00  0.00000000000E+00  0.49999998884E+03  0.50000000000E+03  0.10566000000E+00 0. -1.
        994   -1    0    0    0    0 -0.00000000000E+00 -0.00000000000E+00  0.00000000000E+00  0.13100000000E+03  0.13100000000E+03 0.  0.
         13    1    1    2    0    0 -0.74362250246E+01 -0.25073042784E+02  0.21943466800E+02  0.34139153714E+02  0.10566000000E+00 0.  1.
        994    1    1    2    0    0  0.20558245937E+01  0.19624141082E+02  0.89777667059E+02  0.16003238057E+03  0.13100000000E+03 0.  0.
        997    1    1    2    0    0  0.53804004309E+01  0.54489017017E+01  0.38827885498E+03  0.43682846572E+03  0.20000000000E+03 0.  0.
</event>
<event>
 5    1  0.9466603E-012  0.2406955E+03  0.7957747E-01  0.4438200E+00
         13   -1    0    0    0    0  0.00000000000E+00  0.00000000000E+00  0.49999998884E+03  0.50000000000E+03  0.10566000000E+00 0. -1.
        994   -1    0    0    0    0 -0.00000000000E+00 -0.00000000000E+00  0.00000000000E+00  0.13100000000E+03  0.13100000000E+03 0.  0.
         13    1    1    2    0    0  0.60288615011E+01 -0.96089352407E+01 -0.58128671231E+01  0.12746740591E+02  0.10566000000E+00 0.  1.
        994    1    1    2    0    0 -0.32432489818E+02  0.38519776468E+02  0.13289302118E+03  0.19328009378E+03  0.13100000000E+03 0.  0.
        997    1    1    2    0    0  0.26403628317E+02 -0.28910841228E+02  0.37291983478E+03  0.42497316563E+03  0.20000000000E+03 0.  0.
</event>
<event>
 5    1  0.8566659E-012  0.2382274E+03  0.7957747E-01  0.4467594E+00
         13   -1    0    0    0    0  0.00000000000E+00  0.00000000000E+00  0.49999998884E+03  0.50000000000E+03  0.10566000000E+00 0. -1.
        994   -1    0    0    0    0 -0.00000000000E+00 -0.00000000000E+00  0.00000000000E+00  0.13100000000E+03  0.13100000000E+03 0.  0.
         13    1    1    2    0    0  0.24485785014E+02 -0.56607287314E+01  0.11768320750E+02  0.27750712691E+02  0.10566000000E+00 0.  1.
        994    1    1    2    0    0 -0.58453229506E+02  0.96251866996E+01  0.14282651377E+03  0.20265694485E+03  0.13100000000E+03 0.  0.
        997    1    1    2    0    0  0.33967444491E+02 -0.39644579682E+01  0.34540515432E+03  0.40059234246E+03  0.20000000000E+03 0.  0.
</event>
<event>
 5    1  0.8566659E-012  0.2416209E+03  0.7957747E-01  0.4427363E+00
         13   -1    0    0    0    0  0.00000000000E+00  0.00000000000E+00  0.49999998884E+03  0.50000000000E+03  0.10566000000E+00 0. -1.
        994   -1    0    0    0    0 -0.00000000000E+00 -0.00000000000E+00  0.00000000000E+00  0.13100000000E+03  0.13100000000E+03 0.  0.
         13    1    1    2    0    0 -0.85068732489E+01 -0.92770720821E+01 -0.35626454004E+01  0.13081841047E+02  0.10566000000E+00 0.  1.
        994    1    1    2    0    0  0.15519315476E+02 -0.33266529177E+02  0.11236540991E+03  0.17644969952E+03  0.13100000000E+03 0.  0.
        997    1    1    2    0    0 -0.70124422272E+01  0.42543601259E+02  0.39119722433E+03  0.44146845943E+03  0.20000000000E+03 0.  0.
</event>
<event>
 5    1  0.8566659E-012  0.2528865E+03  0.7957747E-01  0.4302878E+00
         13   -1    0    0    0    0  0.00000000000E+00  0.00000000000E+00  0.49999998884E+03  0.50000000000E+03  0.10566000000E+00 0.  1.
        994   -1    0    0    0    0 -0.00000000000E+00 -0.00000000000E+00  0.00000000000E+00  0.13100000000E+03  0.13100000000E+03 0.  0.
         13    1    1    2    0    0 -0.16979426697E+02 -0.23772078206E+02  0.32047880278E+01  0.29388679173E+02  0.10566000000E+00 0. -1.
        994    1    1    2    0    0 -0.48480677160E+01 -0.66312332421E+01  0.14811691107E+03  0.19790678705E+03  0.13100000000E+03 0.  0.
        997    1    1    2    0    0  0.21827494413E+02  0.30403311448E+02  0.34867828974E+03  0.40370453378E+03  0.20000000000E+03 0.  0.
</event>
<event>
 5    1  0.8566659E-012  0.2447470E+03  0.7957747E-01  0.4391469E+00
         13   -1    0    0    0    0  0.00000000000E+00  0.00000000000E+00  0.49999998884E+03  0.50000000000E+03  0.10566000000E+00 0.  1.
        994   -1    0    0    0    0 -0.00000000000E+00 -0.00000000000E+00  0.00000000000E+00  0.13100000000E+03  0.13100000000E+03 0.  0.
         13    1    1    2    0    0 -0.12778490415E+02  0.18986491424E+02  0.42911044608E+01  0.23285218818E+02  0.10566000000E+00 0. -1.
        994    1    1    2    0    0 -0.12583750151E+02 -0.22351767350E+02  0.11197662469E+03  0.17423466001E+03  0.13100000000E+03 0.  0.
        997    1    1    2    0    0  0.25362240566E+02  0.33652759264E+01  0.38373225969E+03  0.43348012117E+03  0.20000000000E+03 0.  0.
</event>
<event>
 5    1  0.8566659E-012  0.2367040E+03  0.7957747E-01  0.4486101E+00
         13   -1    0    0    0    0  0.00000000000E+00  0.00000000000E+00  0.49999998884E+03  0.50000000000E+03  0.10566000000E+00 0. -1.
        994   -1    0    0    0    0 -0.00000000000E+00 -0.00000000000E+00  0.00000000000E+00  0.13100000000E+03  0.13100000000E+03 0.  0.
         13    1    1    2    0    0  0.19845933408E+02  0.19211417159E+02  0.41461149296E+02  0.49819450891E+02  0.10566000000E+00 0.  1.
        994    1    1    2    0    0 -0.22390832599E+02 -0.16719032414E+02  0.88520517824E+02  0.16055453125E+03  0.13100000000E+03 0.  0.
        997    1    1    2    0    0  0.25448991913E+01 -0.24923847452E+01  0.37001832172E+03  0.42062601786E+03  0.20000000000E+03 0.  0.
</event>
<event>
 5    1  0.8566659E-012  0.2361683E+03  0.7957747E-01  0.4492677E+00
         13   -1    0    0    0    0  0.00000000000E+00  0.00000000000E+00  0.49999998884E+03  0.50000000000E+03  0.10566000000E+00 0.  1.
        994   -1    0    0    0    0 -0.00000000000E+00 -0.00000000000E+00  0.00000000000E+00  0.13100000000E+03  0.13100000000E+03 0.  0.
         13    1    1    2    0    0 -0.10453574034E+01  0.22405611074E+02  0.35084257914E+02  0.41641571742E+02  0.10566000000E+00 0. -1.
        994    1    1    2    0    0  0.38628032759E+02  0.12670556592E+02  0.98872278037E+02  0.16908398884E+03  0.13100000000E+03 0.  0.
        997    1    1    2    0    0 -0.37582675355E+02 -0.35076167666E+02  0.36604345288E+03  0.42027443941E+03  0.20000000000E+03 0.  0.
</event>
<event>
 5    1  0.8566659E-012  0.2324489E+03  0.7957747E-01  0.4539338E+00
         13   -1    0    0    0    0  0.00000000000E+00  0.00000000000E+00  0.49999998884E+03  0.50000000000E+03  0.10566000000E+00 0.  1.
        994   -1    0    0    0    0 -0.00000000000E+00 -0.00000000000E+00  0.00000000000E+00  0.13100000000E+03  0.13100000000E+03 0.  0.
         13    1    1    2    0    0 -0.11725410746E+02 -0.63677635966E+01  0.85475926437E+01  0.15846329998E+02  0.10566000000E+00 0. -1.
        994    1    1    2    0    0 -0.55390551465E+01  0.89312858350E+01  0.71336749028E+02  0.14953387830E+03  0.13100000000E+03 0.  0.
        997    1    1    2    0    0  0.17264465892E+02 -0.25635222385E+01  0.42011564716E+03  0.46561979170E+03  0.20000000000E+03 0.  0.
</event>
<event>
 5    1  0.8566659E-012  0.2351699E+03  0.7957747E-01  0.4505028E+00
         13   -1    0    0    0    0  0.00000000000E+00  0.00000000000E+00  0.49999998884E+03  0.50000000000E+03  0.10566000000E+00 0.  1.
        994   -1    0    0    0    0 -0.00000000000E+00 -0.00000000000E+00  0.00000000000E+00  0.13100000000E+03  0.13100000000E+03 0.  0.
         13    1    1    2    0    0 -0.22235490738E+02  0.54756931470E+01  0.38399960956E+02  0.44709824751E+02  0.10566000000E+00 0. -1.
        994    1    1    2    0    0  0.12749167479E+01 -0.71234396965E+02  0.17209018002E+03  0.22771033086E+03  0.13100000000E+03 0.  0.
        997    1    1    2    0    0  0.20960573990E+02  0.65758703818E+02  0.28950984786E+03  0.35857984439E+03  0.20000000000E+03 0.  0.
</event>
<event>
 5    1  0.8566659E-012  0.2481505E+03  0.7957747E-01  0.4353598E+00
         13   -1    0    0    0    0  0.00000000000E+00  0.00000000000E+00  0.49999998884E+03  0.50000000000E+03  0.10566000000E+00 0.  1.
        994   -1    0    0    0    0 -0.00000000000E+00 -0.00000000000E+00  0.00000000000E+00  0.13100000000E+03  0.13100000000E+03 0.  0.
         13    1    1    2    0    0 -0.12347171714E+02 -0.18232569440E+02 -0.21051986293E+01  0.22120629806E+02  0.10566000000E+00 0. -1.
        994    1    1    2    0    0  0.15297591141E+02  0.21880857946E+02  0.13039317119E+03  0.18675161936E+03  0.13100000000E+03 0.  0.
        997    1    1    2    0    0 -0.29504194262E+01 -0.36482885061E+01  0.37171201627E+03  0.42212775084E+03  0.20000000000E+03 0.  0.
</event>
<event>
 5    1  0.8736583E-012  0.2405016E+03  0.7957747E-01  0.4440484E+00
         13   -1    0    0    0    0  0.00000000000E+00  0.00000000000E+00  0.49999998884E+03  0.50000000000E+03  0.10566000000E+00 0. -1.
        994   -1    0    0    0    0 -0.00000000000E+00 -0.00000000000E+00  0.00000000000E+00  0.13100000000E+03  0.13100000000E+03 0.  0.
         13    1    1    2    0    0 -0.10541958872E+02 -0.18724251240E+02  0.76575590842E+01  0.22811835887E+02  0.10566000000E+00 0.  1.
        994    1    1    2    0    0 -0.30143102309E+00  0.25365345842E+02  0.97039558578E+02  0.16498838613E+03  0.13100000000E+03 0.  0.
        997    1    1    2    0    0  0.10843389895E+02 -0.66410946014E+01  0.39530287117E+03  0.44319977798E+03  0.20000000000E+03 0.  0.
</event>
<event>
 5    1  0.8566659E-012  0.2489158E+03  0.7957747E-01  0.4345250E+00
         13   -1    0    0    0    0  0.00000000000E+00  0.00000000000E+00  0.49999998884E+03  0.50000000000E+03  0.10566000000E+00 0. -1.
        994   -1    0    0    0    0 -0.00000000000E+00 -0.00000000000E+00  0.00000000000E+00  0.13100000000E+03  0.13100000000E+03 0.  0.
         13    1    1    2    0    0  0.14396313337E+02 -0.12542655280E+02 -0.44603802822E+01  0.19608115552E+02  0.10566000000E+00 0.  1.
        994    1    1    2    0    0 -0.15052955016E+02  0.49371415114E+00  0.12208405120E+03  0.17970072556E+03  0.13100000000E+03 0.  0.
        997    1    1    2    0    0  0.65664167908E+00  0.12048941129E+02  0.38237631791E+03  0.43169115889E+03  0.20000000000E+03 0.  0.
</event>
<event>
 5    1  0.8566659E-012  0.2427356E+03  0.7957747E-01  0.4414439E+00
         13   -1    0    0    0    0  0.00000000000E+00  0.00000000000E+00  0.49999998884E+03  0.50000000000E+03  0.10566000000E+00 0. -1.
        994   -1    0    0    0    0 -0.00000000000E+00 -0.00000000000E+00  0.00000000000E+00  0.13100000000E+03  0.13100000000E+03 0.  0.
         13    1    1    2    0    0 -0.27808739742E+02 -0.11162102146E+02  0.90255489116E+02  0.95099858096E+02  0.10566000000E+00 0.  1.
        994    1    1    2    0    0  0.24317911553E+02  0.48723683106E+02  0.16921076744E+03  0.22081359092E+03  0.13100000000E+03 0.  0.
        997    1    1    2    0    0  0.34908281894E+01 -0.37561580961E+02  0.24053373228E+03  0.31508655099E+03  0.20000000000E+03 0.  0.
</event>
<event>
 5    1  0.8566659E-012  0.2335297E+03  0.7957747E-01  0.4525594E+00
         13   -1    0    0    0    0  0.00000000000E+00  0.00000000000E+00  0.49999998884E+03  0.50000000000E+03  0.10566000000E+00 0. -1.
        994   -1    0    0    0    0 -0.00000000000E+00 -0.00000000000E+00  0.00000000000E+00  0.13100000000E+03  0.13100000000E+03 0.  0.
         13    1    1    2    0    0  0.16392337957E+02 -0.49840540934E+01  0.18962297278E+02  0.25556396870E+02  0.10566000000E+00 0.  1.
        994    1    1    2    0    0 -0.29671585346E+01 -0.65196671837E+02  0.13320827390E+03  0.19790112249E+03  0.13100000000E+03 0.  0.
        997    1    1    2    0    0 -0.13425179423E+02  0.70180725930E+02  0.34782941766E+03  0.40754248064E+03  0.20000000000E+03 0.  0.
</event>
<event>
 5    1  0.8566659E-012  0.2397794E+03  0.7957747E-01  0.4449026E+00
         13   -1    0    0    0    0  0.00000000000E+00  0.00000000000E+00  0.49999998884E+03  0.50000000000E+03  0.10566000000E+00 0.  1.
        994   -1    0    0    0    0 -0.00000000000E+00 -0.00000000000E+00  0.00000000000E+00  0.13100000000E+03  0.13100000000E+03 0.  0.
         13    1    1    2    0    0  0.24923537522E+02 -0.44951425975E+01  0.17232009361E+02  0.30632374055E+02  0.10566000000E+00 0. -1.
        994    1    1    2    0    0 -0.15534705366E+02  0.26509035343E+02  0.99345172499E+02  0.16725584990E+03  0.13100000000E+03 0.  0.
        997    1    1    2    0    0 -0.93888321555E+01 -0.22013892746E+02  0.38342280698E+03  0.43311177605E+03  0.20000000000E+03 0.  0.
</event>
<event>
 5    1  0.8566659E-012  0.2418712E+03  0.7957747E-01  0.4424449E+00
         13   -1    0    0    0    0  0.00000000000E+00  0.00000000000E+00  0.49999998884E+03  0.50000000000E+03  0.10566000000E+00 0. -1.
        994   -1    0    0    0    0 -0.00000000000E+00 -0.00000000000E+00  0.00000000000E+00  0.13100000000E+03  0.13100000000E+03 0.  0.
         13    1    1    2    0    0  0.60039317474E+01  0.20021849960E+02  0.28064613256E+01  0.21090496946E+02  0.10566000000E+00 0.  1.
        994    1    1    2    0    0 -0.54467132910E+02  0.15634938870E+01  0.15594594184E+03  0.21082990740E+03  0.13100000000E+03 0.  0.
        997    1    1    2    0    0  0.48463201162E+02 -0.21585343847E+02  0.34124758567E+03  0.39907959565E+03  0.20000000000E+03 0.  0.
</event>
<event>
 5    1  0.8566659E-012  0.2382837E+03  0.7957747E-01  0.4466915E+00
         13   -1    0    0    0    0  0.00000000000E+00  0.00000000000E+00  0.49999998884E+03  0.50000000000E+03  0.10566000000E+00 0.  1.
        994   -1    0    0    0    0 -0.00000000000E+00 -0.00000000000E+00  0.00000000000E+00  0.13100000000E+03  0.13100000000E+03 0.  0.
         13    1    1    2    0    0 -0.27865239648E+01  0.19910529960E+02  0.39570264437E+02  0.44384804953E+02  0.10566000000E+00 0. -1.
        994    1    1    2    0    0 -0.37244012580E+02  0.53935791633E+02  0.17958637532E+03  0.23175084097E+03  0.13100000000E+03 0.  0.
        997    1    1    2    0    0  0.40030536545E+02 -0.73846321592E+02  0.28084334908E+03  0.35486435408E+03  0.20000000000E+03 0.  0.
</event>
<event>
 5    1  0.9032890E-012  0.2330622E+03  0.7957747E-01  0.4531521E+00
         13   -1    0    0    0    0  0.00000000000E+00  0.00000000000E+00  0.49999998884E+03  0.50000000000E+03  0.10566000000E+00 0.  1.
        994   -1    0    0    0    0 -0.00000000000E+00 -0.00000000000E+00  0.00000000000E+00  0.13100000000E+03  0.13100000000E+03 0.  0.
         13    1    1    2    0    0 -0.13476821501E+02  0.11026829778E+02  0.11490653636E+02  0.20862933105E+02  0.10566000000E+00 0. -1.
        994    1    1    2    0    0  0.41495531396E+02 -0.20780444177E+02  0.96934363748E+02  0.16944313755E+03  0.13100000000E+03 0.  0.
        997    1    1    2    0    0 -0.28018709894E+02  0.97536143993E+01  0.39157497145E+03  0.44069392935E+03  0.20000000000E+03 0.  0.
</event>
<event>
 5    1  0.8566659E-012  0.2515811E+03  0.7957747E-01  0.4316636E+00
         13   -1    0    0    0    0  0.00000000000E+00  0.00000000000E+00  0.49999998884E+03  0.50000000000E+03  0.10566000000E+00 0. -1.
        994   -1    0    0    0    0 -0.00000000000E+00 -0.00000000000E+00  0.00000000000E+00  0.13100000000E+03  0.13100000000E+03 0.  0.
         13    1    1    2    0    0 -0.12899602271E+02 -0.19208907090E+02 -0.47513664006E+01  0.23621356799E+02  0.10566000000E+00 0.  1.
        994    1    1    2    0    0  0.31507545099E+01  0.21112377765E+02  0.15235050074E+03  0.20205775121E+03  0.13100000000E+03 0.  0.
        997    1    1    2    0    0  0.97488477613E+01 -0.19034706749E+01  0.35240085449E+03  0.40532089199E+03  0.20000000000E+03 0.  0.
</event>
<event>
 5    1  0.1169545E-011  0.2427067E+03  0.7957747E-01  0.4414772E+00
         13   -1    0    0    0    0  0.00000000000E+00  0.00000000000E+00  0.49999998884E+03  0.50000000000E+03  0.10566000000E+00 0. -1.
        994   -1    0    0    0    0 -0.00000000000E+00 -0.00000000000E+00  0.00000000000E+00  0.13100000000E+03  0.13100000000E+03 0.  0.
         13    1    1    2    0    0  0.30098206654E+01 -0.18343204385E+02  0.58810233204E+00  0.18598096568E+02  0.10566000000E+00 0.  1.
        994    1    1    2    0    0  0.81379767454E+01  0.24595482578E+02  0.10455973120E+03  0.16960218694E+03  0.13100000000E+03 0.  0.
        997    1    1    2    0    0 -0.11147797411E+02 -0.62522781924E+01  0.39485215531E+03  0.44279971649E+03  0.20000000000E+03 0.  0.
</event>
<event>
 5    1  0.8566659E-012  0.2360628E+03  0.7957747E-01  0.4493975E+00
         13   -1    0    0    0    0  0.00000000000E+00  0.00000000000E+00  0.49999998884E+03  0.50000000000E+03  0.10566000000E+00 0.  1.
        994   -1    0    0    0    0 -0.00000000000E+00 -0.00000000000E+00  0.00000000000E+00  0.13100000000E+03  0.13100000000E+03 0.  0.
         13    1    1    2    0    0 -0.38372975883E+01  0.22592146252E+02  0.28520886713E+02  0.36586637834E+02  0.10566000000E+00 0. -1.
        994    1    1    2    0    0 -0.95458377102E+01 -0.61299266225E+01  0.78983969057E+02  0.15338893828E+03  0.13100000000E+03 0.  0.
        997    1    1    2    0    0  0.13383135299E+02 -0.16462219630E+02  0.39249513307E+03  0.44102442389E+03  0.20000000000E+03 0.  0.
</event>
<event>
 5    1  0.8566659E-012  0.2384832E+03  0.7957747E-01  0.4464513E+00
         13   -1    0    0    0    0  0.00000000000E+00  0.00000000000E+00  0.49999998884E+03  0.50000000000E+03  0.10566000000E+00 0. -1.
        994   -1    0    0    0    0 -0.00000000000E+00 -0.00000000000E+00  0.00000000000E+00  0.13100000000E+03  0.13100000000E+03 0.  0.
         13    1    1    2    0    0  0.17410292258E+02  0.23415622805E+02  0.48178990262E+02  0.56326156753E+02  0.10566000000E+00 0.  1.
        994    1    1    2    0    0 -0.17069883811E+02 -0.58258338135E+01  0.87100536244E+02  0.15834400742E+03  0.13100000000E+03 0.  0.
        997    1    1    2    0    0 -0.34040844713E+00 -0.17589788991E+02  0.36472046233E+03  0.41632983582E+03  0.20000000000E+03 0.  0.
</event>
<event>
 5    1  0.8566659E-012  0.2473088E+03  0.7957747E-01  0.4362850E+00
         13   -1    0    0    0    0  0.00000000000E+00  0.00000000000E+00  0.49999998884E+03  0.50000000000E+03  0.10566000000E+00 0.  1.
        994   -1    0    0    0    0 -0.00000000000E+00 -0.00000000000E+00  0.00000000000E+00  0.13100000000E+03  0.13100000000E+03 0.  0.
         13    1    1    2    0    0  0.18057140314E+02 -0.75117758680E+01 -0.56215844351E+01  0.20349458681E+02  0.10566000000E+00 0. -1.
        994    1    1    2    0    0 -0.39908431404E+02  0.70339190942E+01  0.15985726124E+03  0.21061220973E+03  0.13100000000E+03 0.  0.
        997    1    1    2    0    0  0.21851291090E+02  0.47785677383E+00  0.34576431203E+03  0.40003833159E+03  0.20000000000E+03 0.  0.
</event>
<event>
 5    1  0.8566659E-012  0.2353300E+03  0.7957747E-01  0.4503039E+00
         13   -1    0    0    0    0  0.00000000000E+00  0.00000000000E+00  0.49999998884E+03  0.50000000000E+03  0.10566000000E+00 0.  1.
        994   -1    0    0    0    0 -0.00000000000E+00 -0.00000000000E+00  0.00000000000E+00  0.13100000000E+03  0.13100000000E+03 0.  0.
         13    1    1    2    0    0 -0.14050997248E+02  0.12787752373E+02  0.13334173125E+02  0.23211386674E+02  0.10566000000E+00 0. -1.
        994    1    1    2    0    0  0.31348629030E+01 -0.24578924779E+02  0.83111407842E+02  0.15710651489E+03  0.13100000000E+03 0.  0.
        997    1    1    2    0    0  0.10916134345E+02  0.11791172407E+02  0.40355440787E+03  0.45068209843E+03  0.20000000000E+03 0.  0.
</event>
<event>
 5    1  0.8566659E-012  0.2310259E+03  0.7957747E-01  0.4557669E+00
         13   -1    0    0    0    0  0.00000000000E+00  0.00000000000E+00  0.49999998884E+03  0.50000000000E+03  0.10566000000E+00 0.  1.
        994   -1    0    0    0    0 -0.00000000000E+00 -0.00000000000E+00  0.00000000000E+00  0.13100000000E+03  0.13100000000E+03 0.  0.
         13    1    1    2    0    0 -0.16201279356E+02 -0.42763945718E+01  0.39105214928E+02  0.42544071290E+02  0.10566000000E+00 0. -1.
        994    1    1    2    0    0  0.10941846777E+02  0.21859779019E+02  0.73729084543E+02  0.15229757666E+03  0.13100000000E+03 0.  0.
        997    1    1    2    0    0  0.52594325791E+01 -0.17583384447E+02  0.38716568937E+03  0.43615835205E+03  0.20000000000E+03 0.  0.
</event>
<event>
 5    1  0.8566659E-012  0.2437827E+03  0.7957747E-01  0.4402426E+00
         13   -1    0    0    0    0  0.00000000000E+00  0.00000000000E+00  0.49999998884E+03  0.50000000000E+03  0.10566000000E+00 0. -1.
        994   -1    0    0    0    0 -0.00000000000E+00 -0.00000000000E+00  0.00000000000E+00  0.13100000000E+03  0.13100000000E+03 0.  0.
         13    1    1    2    0    0 -0.16541544595E+02  0.17633287494E+02  0.81476924538E+01  0.25513752797E+02  0.10566000000E+00 0.  1.
        994    1    1    2    0    0  0.32508078054E+00 -0.15249568060E+02  0.10095274133E+03  0.16608766055E+03  0.13100000000E+03 0.  0.
        997    1    1    2    0    0  0.16216463814E+02 -0.23837194342E+01  0.39089955505E+03  0.43939858666E+03  0.20000000000E+03 0.  0.
</event>
<event>
 5    1  0.8566659E-012  0.2326611E+03  0.7957747E-01  0.4536628E+00
         13   -1    0    0    0    0  0.00000000000E+00  0.00000000000E+00  0.49999998884E+03  0.50000000000E+03  0.10566000000E+00 0. -1.
        994   -1    0    0    0    0 -0.00000000000E+00 -0.00000000000E+00  0.00000000000E+00  0.13100000000E+03  0.13100000000E+03 0.  0.
         13    1    1    2    0    0  0.19722414499E+02 -0.87058984275E+01  0.24832623867E+02  0.32885204473E+02  0.10566000000E+00 0.  1.
        994    1    1    2    0    0 -0.45334510487E+02  0.23613509420E+02  0.10207727014E+03  0.17376301318E+03  0.13100000000E+03 0.  0.
        997    1    1    2    0    0  0.25612095988E+02 -0.14907610993E+02  0.37309009483E+03  0.42435178235E+03  0.20000000000E+03 0.  0.
</event>
<event>
 5    1  0.8731897E-012  0.2413524E+03  0.7957747E-01  0.4430497E+00
         13   -1    0    0    0    0  0.00000000000E+00  0.00000000000E+00  0.49999998884E+03  0.50000000000E+03  0.10566000000E+00 0. -1.
        994   -1    0    0    0    0 -0.00000000000E+00 -0.00000000000E+00  0.00000000000E+00  0.13100000000E+03  0.13100000000E+03 0.  0.
         13    1    1    2    0    0  0.81400638213E+00  0.22849290726E+02  0.66004354555E+01  0.23797680671E+02  0.10566000000E+00 0.  1.
        994    1    1    2    0    0 -0.51850654740E+01 -0.37168736791E+02  0.11242095750E+03  0.17665749796E+03  0.13100000000E+03 0.  0.
        997    1    1    2    0    0  0.43710590918E+01  0.14319446065E+02  0.38097859588E+03  0.43054482137E+03  0.20000000000E+03 0.  0.
</event>
<event>
 5    1  0.8566659E-012  0.2315110E+03  0.7957747E-01  0.4551389E+00
         13   -1    0    0    0    0  0.00000000000E+00  0.00000000000E+00  0.49999998884E+03  0.50000000000E+03  0.10566000000E+00 0.  1.
        994   -1    0    0    0    0 -0.00000000000E+00 -0.00000000000E+00  0.00000000000E+00  0.13100000000E+03  0.13100000000E+03 0.  0.
         13    1    1    2    0    0 -0.16865125785E+02 -0.19992857391E+00  0.42624346282E+02  0.45840140697E+02  0.10566000000E+00 0. -1.
        994    1    1    2    0    0  0.16250314480E+02  0.41511801765E+02  0.90716381052E+02  0.16546227424E+03  0.13100000000E+03 0.  0.
        997    1    1    2    0    0  0.61481130549E+00 -0.41311873191E+02  0.36665926150E+03  0.41969758506E+03  0.20000000000E+03 0.  0.
</event>
<event>
 5    1  0.8566659E-012  0.2423548E+03  0.7957747E-01  0.4418838E+00
         13   -1    0    0    0    0  0.00000000000E+00  0.00000000000E+00  0.49999998884E+03  0.50000000000E+03  0.10566000000E+00 0. -1.
        994   -1    0    0    0    0 -0.00000000000E+00 -0.00000000000E+00  0.00000000000E+00  0.13100000000E+03  0.13100000000E+03 0.  0.
         13    1    1    2    0    0  0.25667221502E+02  0.45150733439E+01  0.16596967288E+02  0.30897615347E+02  0.10566000000E+00 0.  1.
        994    1    1    2    0    0  0.10713118439E+02 -0.30214083636E+02  0.10943428039E+03  0.17367936976E+03  0.13100000000E+03 0.  0.
        997    1    1    2    0    0 -0.36380339941E+02  0.25699010292E+02  0.37396874116E+03  0.42642301489E+03  0.20000000000E+03 0.  0.
</event>
<event>
 5    1  0.8566659E-012  0.2333062E+03  0.7957747E-01  0.4528424E+00
         13   -1    0    0    0    0  0.00000000000E+00  0.00000000000E+00  0.49999998884E+03  0.50000000000E+03  0.10566000000E+00 0. -1.
        994   -1    0    0    0    0 -0.00000000000E+00 -0.00000000000E+00  0.00000000000E+00  0.13100000000E+03  0.13100000000E+03 0.  0.
         13    1    1    2    0    0 -0.52638079752E+00 -0.18216883048E+02  0.20759826794E+02  0.27624508634E+02  0.10566000000E+00 0.  1.
        994    1    1    2    0    0  0.51927457681E+01  0.59384263111E+01  0.72496577380E+02  0.14992992779E+03  0.13100000000E+03 0.  0.
        997    1    1    2    0    0 -0.46663649706E+01  0.12278456737E+02  0.40674358466E+03  0.45344556357E+03  0.20000000000E+03 0.  0.
</event>
<event>
 5    1  0.8566659E-012  0.2510237E+03  0.7957747E-01  0.4322562E+00
         13   -1    0    0    0    0  0.00000000000E+00  0.00000000000E+00  0.49999998884E+03  0.50000000000E+03  0.10566000000E+00 0. -1.
        994   -1    0    0    0    0 -0.00000000000E+00 -0.00000000000E+00  0.00000000000E+00  0.13100000000E+03  0.13100000000E+03 0.  0.
         13    1    1    2    0    0 -0.33345100335E+02  0.52450587677E+01  0.10323137701E+02  0.35298508380E+02  0.10566000000E+00 0.  1.
        994    1    1    2    0    0 -0.17486310321E+02  0.29207431361E+00  0.20910488753E+03  0.24736958250E+03  0.13100000000E+03 0.  0.
        997    1    1    2    0    0  0.50831410656E+02 -0.55371330813E+01  0.28057196360E+03  0.34833190912E+03  0.20000000000E+03 0.  0.
</event>
<event>
 5    1  0.8566659E-012  0.2426558E+03  0.7957747E-01  0.4415359E+00
         13   -1    0    0    0    0  0.00000000000E+00  0.00000000000E+00  0.49999998884E+03  0.50000000000E+03  0.10566000000E+00 0. -1.
        994   -1    0    0    0    0 -0.00000000000E+00 -0.00000000000E+00  0.00000000000E+00  0.13100000000E+03  0.13100000000E+03 0.  0.
         13    1    1    2    0    0 -0.30076769803E+02 -0.72001616345E+01  0.25672941350E+02  0.40194097713E+02  0.10566000000E+00 0.  1.
        994    1    1    2    0    0  0.15536184491E+02  0.82739847976E+01  0.98556973935E+02  0.16487664772E+03  0.13100000000E+03 0.  0.
        997    1    1    2    0    0  0.14540585313E+02 -0.10738231631E+01  0.37577007355E+03  0.42592925456E+03  0.20000000000E+03 0.  0.
</event>
<event>
 5    1  0.8566659E-012  0.2512628E+03  0.7957747E-01  0.4320015E+00
         13   -1    0    0    0    0  0.00000000000E+00  0.00000000000E+00  0.49999998884E+03  0.50000000000E+03  0.10566000000E+00 0.  1.
        994   -1    0    0    0    0 -0.00000000000E+00 -0.00000000000E+00  0.00000000000E+00  0.13100000000E+03  0.13100000000E+03 0.  0.
         13    1    1    2    0    0  0.25371012288E+02  0.14609147515E+02  0.62348298373E+01  0.29933254463E+02  0.10566000000E+00 0. -1.
        994    1    1    2    0    0  0.11313518341E+02 -0.32148015953E+01  0.13468005753E+03  0.18824996293E+03  0.13100000000E+03 0.  0.
        997    1    1    2    0    0 -0.36684530629E+02 -0.11394345919E+02  0.35908510146E+03  0.41281678260E+03  0.20000000000E+03 0.  0.
</event>
<event>
 5    1  0.8566659E-012  0.2421593E+03  0.7957747E-01  0.4421102E+00
         13   -1    0    0    0    0  0.00000000000E+00  0.00000000000E+00  0.49999998884E+03  0.50000000000E+03  0.10566000000E+00 0.  1.
        994   -1    0    0    0    0 -0.00000000000E+00 -0.00000000000E+00  0.00000000000E+00  0.13100000000E+03  0.13100000000E+03 0.  0.
         13    1    1    2    0    0 -0.30284863926E+01 -0.32134643925E+02  0.70763503030E+02  0.77777191998E+02  0.10566000000E+00 0. -1.
        994    1    1    2    0    0  0.41825258196E+02  0.33171622600E+02  0.21693008763E+03  0.25897755055E+03  0.13100000000E+03 0.  0.
        997    1    1    2    0    0 -0.38796771803E+02 -0.10369786753E+01  0.21230639818E+03  0.29424525745E+03  0.20000000000E+03 0.  0.
</event>
<event>
 5    1  0.8566659E-012  0.2435669E+03  0.7957747E-01  0.4404891E+00
         13   -1    0    0    0    0  0.00000000000E+00  0.00000000000E+00  0.49999998884E+03  0.50000000000E+03  0.10566000000E+00 0. -1.
        994   -1    0    0    0    0 -0.00000000000E+00 -0.00000000000E+00  0.00000000000E+00  0.13100000000E+03  0.13100000000E+03 0.  0.
         13    1    1    2    0    0 -0.14808075568E+02  0.27981805502E+02  0.23976312010E+02  0.39713162085E+02  0.10566000000E+00 0.  1.
        994    1    1    2    0    0  0.16479878151E+02 -0.13290202000E+02  0.10379475232E+03  0.16847126301E+03  0.13100000000E+03 0.  0.
        997    1    1    2    0    0 -0.16718025834E+01 -0.14691603502E+02  0.37222892451E+03  0.42281557490E+03  0.20000000000E+03 0.  0.
</event>
<event>
 5    1  0.8566659E-012  0.2442193E+03  0.7957747E-01  0.4397452E+00
         13   -1    0    0    0    0  0.00000000000E+00  0.00000000000E+00  0.49999998884E+03  0.50000000000E+03  0.10566000000E+00 0. -1.
        994   -1    0    0    0    0 -0.00000000000E+00 -0.00000000000E+00  0.00000000000E+00  0.13100000000E+03  0.13100000000E+03 0.  0.
         13    1    1    2    0    0 -0.29091124935E+02 -0.90100917736E+01  0.32712154878E+02  0.44694200346E+02  0.10566000000E+00 0.  1.
        994    1    1    2    0    0 -0.18539730430E+02 -0.47665434125E+02  0.17559836381E+03  0.22496999931E+03  0.13100000000E+03 0.  0.
        997    1    1    2    0    0  0.47630855365E+02  0.56675525899E+02  0.29168947014E+03  0.36133580035E+03  0.20000000000E+03 0.  0.
</event>
<event>
 5    1  0.8566659E-012  0.2451449E+03  0.7957747E-01  0.4386977E+00
         13   -1    0    0    0    0  0.00000000000E+00  0.00000000000E+00  0.49999998884E+03  0.50000000000E+03  0.10566000000E+00 0. -1.
        994   -1    0    0    0    0 -0.00000000000E+00 -0.00000000000E+00  0.00000000000E+00  0.13100000000E+03  0.13100000000E+03 0.  0.
         13    1    1    2    0    0  0.24458548430E+01 -0.29424621187E+02  0.13432545834E+02  0.32438171797E+02  0.10566000000E+00 0.  1.
        994    1    1    2    0    0 -0.67563958414E+01  0.24431032650E+02  0.11332411171E+03  0.17505964280E+03  0.13100000000E+03 0.  0.
        997    1    1    2    0    0  0.43105409983E+01  0.49935885369E+01  0.37324333129E+03  0.42350218541E+03  0.20000000000E+03 0.  0.
</event>
<event>
 5    1  0.8566659E-012  0.2362303E+03  0.7957747E-01  0.4491914E+00
         13   -1    0    0    0    0  0.00000000000E+00  0.00000000000E+00  0.49999998884E+03  0.50000000000E+03  0.10566000000E+00 0. -1.
        994   -1    0    0    0    0 -0.00000000000E+00 -0.00000000000E+00  0.00000000000E+00  0.13100000000E+03  0.13100000000E+03 0.  0.
         13    1    1    2    0    0 -0.15564438154E+02 -0.17284429357E+02  0.12335153921E+02  0.26328129815E+02  0.10566000000E+00 0.  1.
        994    1    1    2    0    0  0.42845351268E+02  0.44932197085E+02  0.13896731165E+03  0.20081718095E+03  0.13100000000E+03 0.  0.
        997    1    1    2    0    0 -0.27280913114E+02 -0.27647767728E+02  0.34869752327E+03  0.40385468923E+03  0.20000000000E+03 0.  0.
</event>
<event>
 5    1  0.8566659E-012  0.2367863E+03  0.7957747E-01  0.4485093E+00
         13   -1    0    0    0    0  0.00000000000E+00  0.00000000000E+00  0.49999998884E+03  0.50000000000E+03  0.10566000000E+00 0.  1.
        994   -1    0    0    0    0 -0.00000000000E+00 -0.00000000000E+00  0.00000000000E+00  0.13100000000E+03  0.13100000000E+03 0.  0.
         13    1    1    2    0    0 -0.11294066621E+02  0.18714846424E+02  0.21724873135E+02  0.30818544649E+02  0.10566000000E+00 0. -1.
        994    1    1    2    0    0  0.49552988671E+02  0.47856283435E+02  0.18259074036E+03  0.23504489149E+03  0.13100000000E+03 0.  0.
        997    1    1    2    0    0 -0.38258922050E+02 -0.66571129859E+02  0.29568437534E+03  0.36513656386E+03  0.20000000000E+03 0.  0.
</event>
<event>
 5    1  0.8566659E-012  0.2289105E+03  0.7957747E-01  0.4585431E+00
         13   -1    0    0    0    0  0.00000000000E+00  0.00000000000E+00  0.49999998884E+03  0.50000000000E+03  0.10566000000E+00 0.  1.
        994   -1    0    0    0    0 -0.00000000000E+00 -0.00000000000E+00  0.00000000000E+00  0.13100000000E+03  0.13100000000E+03 0.  0.
         13    1    1    2    0    0 -0.26684711283E+01  0.96863570650E+01  0.91744180982E+01  0.13606151654E+02  0.10566000000E+00 0. -1.
        994    1    1    2    0    0 -0.89994252934E+01 -0.12574249368E+01  0.64572505047E+02  0.14633242696E+03  0.13100000000E+03 0.  0.
        997    1    1    2    0    0  0.11667896422E+02 -0.84289321282E+01  0.42625306569E+03  0.47106142138E+03  0.20000000000E+03 0.  0.
</event>
<event>
 5    1  0.8566659E-012  0.2379730E+03  0.7957747E-01  0.4470664E+00
         13   -1    0    0    0    0  0.00000000000E+00  0.00000000000E+00  0.49999998884E+03  0.50000000000E+03  0.10566000000E+00 0. -1.
        994   -1    0    0    0    0 -0.00000000000E+00 -0.00000000000E+00  0.00000000000E+00  0.13100000000E+03  0.13100000000E+03 0.  0.
         13    1    1    2    0    0 -0.24453864284E+02  0.13003668080E+02  0.24510724305E+02  0.36984775678E+02  0.10566000000E+00 0.  1.
        994    1    1    2    0    0  0.32619484686E+02 -0.27386082558E+02  0.10700804363E+03  0.17442978444E+03  0.13100000000E+03 0.  0.
        997    1    1    2    0    0 -0.81656204019E+01  0.14382414479E+02  0.36848122090E+03  0.41958543988E+03  0.20000000000E+03 0.  0.
</event>
<event>
 5    1  0.8566659E-012  0.2325126E+03  0.7957747E-01  0.4538524E+00
         13   -1    0    0    0    0  0.00000000000E+00  0.00000000000E+00  0.49999998884E+03  0.50000000000E+03  0.10566000000E+00 0. -1.
        994   -1    0    0    0    0 -0.00000000000E+00 -0.00000000000E+00  0.00000000000E+00  0.13100000000E+03  0.13100000000E+03 0.  0.
         13    1    1    2    0    0  0.79936780503E+01  0.67320792809E+01  0.15947705187E+01  0.10572333577E+02  0.10566000000E+00 0.  1.
        994    1    1    2    0    0  0.22756553093E+02 -0.50548588021E+02  0.10828539789E+03  0.17877289463E+03  0.13100000000E+03 0.  0.
        997    1    1    2    0    0 -0.30750231143E+02  0.43816508740E+02  0.39011982043E+03  0.44165477179E+03  0.20000000000E+03 0.  0.
</event>
<event>
 5    1  0.8566659E-012  0.2345562E+03  0.7957747E-01  0.4512683E+00
         13   -1    0    0    0    0  0.00000000000E+00  0.00000000000E+00  0.49999998884E+03  0.50000000000E+03  0.10566000000E+00 0.  1.
        994   -1    0    0    0    0 -0.00000000000E+00 -0.00000000000E+00  0.00000000000E+00  0.13100000000E+03  0.13100000000E+03 0.  0.
         13    1    1    2    0    0  0.22507236890E+02  0.12016010301E+01  0.29817801245E+02  0.37378228859E+02  0.10566000000E+00 0. -1.
        994    1    1    2    0    0 -0.24771903551E+02  0.56634650510E+02  0.12920857393E+03  0.19410560636E+03  0.13100000000E+03 0.  0.
        997    1    1    2    0    0  0.22646666611E+01 -0.57836251540E+02  0.34097361366E+03  0.39951616478E+03  0.20000000000E+03 0.  0.
</event>
<event>
 5    1  0.8566659E-012  0.2479524E+03  0.7957747E-01  0.4355768E+00
         13   -1    0    0    0    0  0.00000000000E+00  0.00000000000E+00  0.49999998884E+03  0.50000000000E+03  0.10566000000E+00 0. -1.
        994   -1    0    0    0    0 -0.00000000000E+00 -0.00000000000E+00  0.00000000000E+00  0.13100000000E+03  0.13100000000E+03 0.  0.
         13    1    1    2    0    0  0.70931855015E+01  0.26142553379E+02  0.24366926127E+01  0.27197334661E+02  0.10566000000E+00 0.  1.
        994    1    1    2    0    0 -0.28268806069E+02 -0.23589020497E+02  0.15237618271E+03  0.20429162572E+03  0.13100000000E+03 0.  0.
        997    1    1    2    0    0  0.21175620568E+02 -0.25535328821E+01  0.34518711352E+03  0.39951103962E+03  0.20000000000E+03 0.  0.
</event>
<event>
 5    1  0.8566659E-012  0.2307185E+03  0.7957747E-01  0.4561666E+00
         13   -1    0    0    0    0  0.00000000000E+00  0.00000000000E+00  0.49999998884E+03  0.50000000000E+03  0.10566000000E+00 0. -1.
        994   -1    0    0    0    0 -0.00000000000E+00 -0.00000000000E+00  0.00000000000E+00  0.13100000000E+03  0.13100000000E+03 0.  0.
         13    1    1    2    0    0  0.16335819062E+02 -0.29511193127E+01  0.51036556025E+02  0.53668513158E+02  0.10566000000E+00 0.  1.
        994    1    1    2    0    0 -0.64922772225E+02 -0.10801598067E+02  0.12194723163E+03  0.19069286347E+03  0.13100000000E+03 0.  0.
        997    1    1    2    0    0  0.48586953164E+02  0.13752717380E+02  0.32701620118E+03  0.38663862337E+03  0.20000000000E+03 0.  0.
</event>
<event>
 5    1  0.8566659E-012  0.2347155E+03  0.7957747E-01  0.4510692E+00
         13   -1    0    0    0    0  0.00000000000E+00  0.00000000000E+00  0.49999998884E+03  0.50000000000E+03  0.10566000000E+00 0.  1.
        994   -1    0    0    0    0 -0.00000000000E+00 -0.00000000000E+00  0.00000000000E+00  0.13100000000E+03  0.13100000000E+03 0.  0.
         13    1    1    2    0    0  0.66378363435E+01 -0.25851359130E+02  0.32561116610E+02  0.42102151003E+02  0.10566000000E+00 0. -1.
        994    1    1    2    0    0  0.19701770504E+02  0.61965736570E+02  0.13899840029E+03  0.20176587311E+03  0.13100000000E+03 0.  0.
        997    1    1    2    0    0 -0.26339606847E+02 -0.36114377440E+02  0.32844047193E+03  0.38713197588E+03  0.20000000000E+03 0.  0.
</event>
<event>
 5    1  0.8566659E-012  0.2276095E+03  0.7957747E-01  0.4602815E+00
         13   -1    0    0    0    0  0.00000000000E+00  0.00000000000E+00  0.49999998884E+03  0.50000000000E+03  0.10566000000E+00 0. -1.
        994   -1    0    0    0    0 -0.00000000000E+00 -0.00000000000E+00  0.00000000000E+00  0.13100000000E+03  0.13100000000E+03 0.  0.
         13    1    1    2    0    0  0.10298595996E+02  0.46743248189E+01  0.16205092887E+02  0.19761745659E+02  0.10566000000E+00 0.  1.
        994    1    1    2    0    0 -0.46302376602E+02  0.14951719841E+02  0.85932036487E+02  0.16405114721E+03  0.13100000000E+03 0.  0.
        997    1    1    2    0    0  0.36003780606E+02 -0.19626044660E+02  0.39786285946E+03  0.44718710713E+03  0.20000000000E+03 0.  0.
</event>
<event>
 5    1  0.8566659E-012  0.2347795E+03  0.7957747E-01  0.4509892E+00
         13   -1    0    0    0    0  0.00000000000E+00  0.00000000000E+00  0.49999998884E+03  0.50000000000E+03  0.10566000000E+00 0.  1.
        994   -1    0    0    0    0 -0.00000000000E+00 -0.00000000000E+00  0.00000000000E+00  0.13100000000E+03  0.13100000000E+03 0.  0.
         13    1    1    2    0    0  0.77919510956E+00 -0.21309487921E+02  0.29337068842E+02  0.36268115373E+02  0.10566000000E+00 0. -1.
        994    1    1    2    0    0  0.16633022457E+02  0.39471834515E+01  0.78093080275E+02  0.15346584923E+03  0.13100000000E+03 0.  0.
        997    1    1    2    0    0 -0.17412217567E+02  0.17362304469E+02  0.39256983972E+03  0.44126603540E+03  0.20000000000E+03 0.  0.
</event>
<event>
 5    1  0.8566659E-012  0.2358122E+03  0.7957747E-01  0.4497068E+00
         13   -1    0    0    0    0  0.00000000000E+00  0.00000000000E+00  0.49999998884E+03  0.50000000000E+03  0.10566000000E+00 0.  1.
        994   -1    0    0    0    0 -0.00000000000E+00 -0.00000000000E+00  0.00000000000E+00  0.13100000000E+03  0.13100000000E+03 0.  0.
         13    1    1    2    0    0  0.33523385296E+01  0.11274229581E+02 -0.13947700879E+01  0.11844955631E+02  0.10566000000E+00 0. -1.
        994    1    1    2    0    0 -0.65871158204E+02  0.24362544548E+02  0.17438054230E+03  0.22913340349E+03  0.13100000000E+03 0.  0.
        997    1    1    2    0    0  0.62518819674E+02 -0.35636774129E+02  0.32701421662E+03  0.39002164088E+03  0.20000000000E+03 0.  0.
</event>
<event>
 5    1  0.8566659E-012  0.2293448E+03  0.7957747E-01  0.4579680E+00
         13   -1    0    0    0    0  0.00000000000E+00  0.00000000000E+00  0.49999998884E+03  0.50000000000E+03  0.10566000000E+00 0. -1.
        994   -1    0    0    0    0 -0.00000000000E+00 -0.00000000000E+00  0.00000000000E+00  0.13100000000E+03  0.13100000000E+03 0.  0.
         13    1    1    2    0    0 -0.45246987761E+00  0.10362441950E+02  0.73747010833E+01  0.12727227202E+02  0.10566000000E+00 0.  1.
        994    1    1    2    0    0  0.49810618850E+02 -0.81651164057E+01  0.92191232884E+02  0.16795234532E+03  0.13100000000E+03 0.  0.
        997    1    1    2    0    0 -0.49358148972E+02 -0.21973255445E+01  0.40043405487E+03  0.45032042748E+03  0.20000000000E+03 0.  0.
</event>
<event>
 5    1  0.8566659E-012  0.2389423E+03  0.7957747E-01  0.4459005E+00
         13   -1    0    0    0    0  0.00000000000E+00  0.00000000000E+00  0.49999998884E+03  0.50000000000E+03  0.10566000000E+00 0. -1.
        994   -1    0    0    0    0 -0.00000000000E+00 -0.00000000000E+00  0.00000000000E+00  0.13100000000E+03  0.13100000000E+03 0.  0.
         13    1    1    2    0    0 -0.10591359218E+02 -0.29127393202E+02  0.54543062466E+02  0.62733872446E+02  0.10566000000E+00 0.  1.
        994    1    1    2    0    0  0.28592652410E+02  0.14616187023E+02  0.98103872340E+02  0.16678292018E+03  0.13100000000E+03 0.  0.
        997    1    1    2    0    0 -0.18001293191E+02  0.14511206179E+02  0.34735305403E+03  0.40148320738E+03  0.20000000000E+03 0.  0.
</event>
<event>
 5    1  0.8566659E-012  0.2414325E+03  0.7957747E-01  0.4429561E+00
         13   -1    0    0    0    0  0.00000000000E+00  0.00000000000E+00  0.49999998884E+03  0.50000000000E+03  0.10566000000E+00 0. -1.
        994   -1    0    0    0    0 -0.00000000000E+00 -0.00000000000E+00  0.00000000000E+00  0.13100000000E+03  0.13100000000E+03 0.  0.
         13    1    1    2    0    0  0.18615711463E+02  0.22360932824E+01  0.10552953621E+03  0.10718227001E+03  0.10566000000E+00 0.  1.
        994    1    1    2    0    0 -0.33389305797E+02 -0.32397567299E+02  0.12814027218E+03  0.18906447964E+03  0.13100000000E+03 0.  0.
        997    1    1    2    0    0  0.14773594335E+02  0.30161474017E+02  0.26633018045E+03  0.33475325035E+03  0.20000000000E+03 0.  0.
</event>
<event>
 5    1  0.8566659E-012  0.2505679E+03  0.7957747E-01  0.4327429E+00
         13   -1    0    0    0    0  0.00000000000E+00  0.00000000000E+00  0.49999998884E+03  0.50000000000E+03  0.10566000000E+00 0.  1.
        994   -1    0    0    0    0 -0.00000000000E+00 -0.00000000000E+00  0.00000000000E+00  0.13100000000E+03  0.13100000000E+03 0.  0.
         13    1    1    2    0    0 -0.34153696203E+02  0.96378139903E+01  0.10031954564E+03  0.10641139425E+03  0.10566000000E+00 0. -1.
        994    1    1    2    0    0 -0.16227321883E+02 -0.15543918585E+02  0.14240541582E+03  0.19479538453E+03  0.13100000000E+03 0.  0.
        997    1    1    2    0    0  0.50381018086E+02  0.59061045943E+01  0.25727502737E+03  0.32979322122E+03  0.20000000000E+03 0.  0.
</event>
<event>
 5    1  0.8566659E-012  0.2412581E+03  0.7957747E-01  0.4431600E+00
         13   -1    0    0    0    0  0.00000000000E+00  0.00000000000E+00  0.49999998884E+03  0.50000000000E+03  0.10566000000E+00 0. -1.
        994   -1    0    0    0    0 -0.00000000000E+00 -0.00000000000E+00  0.00000000000E+00  0.13100000000E+03  0.13100000000E+03 0.  0.
         13    1    1    2    0    0  0.27664698127E+02  0.11413689444E+02  0.18356556785E+02  0.35108149627E+02  0.10566000000E+00 0.  1.
        994    1    1    2    0    0 -0.42019655560E+02 -0.16817689853E+02  0.12465434775E+03  0.18640867082E+03  0.13100000000E+03 0.  0.
        997    1    1    2    0    0  0.14354957434E+02  0.54040004094E+01  0.35698908430E+03  0.40948317955E+03  0.20000000000E+03 0.  0.
</event>
<event>
 5    1  0.8566659E-012  0.2328534E+03  0.7957747E-01  0.4534176E+00
         13   -1    0    0    0    0  0.00000000000E+00  0.00000000000E+00  0.49999998884E+03  0.50000000000E+03  0.10566000000E+00 0. -1.
        994   -1    0    0    0    0 -0.00000000000E+00 -0.00000000000E+00  0.00000000000E+00  0.13100000000E+03  0.13100000000E+03 0.  0.
         13    1    1    2    0    0 -0.14935299622E+02 -0.10709886471E+02  0.31996691238E+02  0.36899380174E+02  0.10566000000E+00 0.  1.
        994    1    1    2    0    0  0.33159577317E+01 -0.10913372749E+02  0.72335048771E+02  0.15007816817E+03  0.13100000000E+03 0.  0.
        997    1    1    2    0    0  0.11619341890E+02  0.21623259220E+02  0.39566824883E+03  0.44402245166E+03  0.20000000000E+03 0.  0.
</event>
<event>
 5    1  0.8566659E-012  0.2328899E+03  0.7957747E-01  0.4533712E+00
         13   -1    0    0    0    0  0.00000000000E+00  0.00000000000E+00  0.49999998884E+03  0.50000000000E+03  0.10566000000E+00 0. -1.
        994   -1    0    0    0    0 -0.00000000000E+00 -0.00000000000E+00  0.00000000000E+00  0.13100000000E+03  0.13100000000E+03 0.  0.
         13    1    1    2    0    0  0.12915532691E+02  0.15610109206E+02  0.20780314880E+02  0.29022734962E+02  0.10566000000E+00 0.  1.
        994    1    1    2    0    0 -0.41596951531E+02 -0.21531966774E+02  0.96995889337E+02  0.16959697674E+03  0.13100000000E+03 0.  0.
        997    1    1    2    0    0  0.28681418840E+02  0.59218575681E+01  0.38222378462E+03  0.43238028830E+03  0.20000000000E+03 0.  0.
</event>
<event>
 5    1  0.8566659E-012  0.2487402E+03  0.7957747E-01  0.4347159E+00
         13   -1    0    0    0    0  0.00000000000E+00  0.00000000000E+00  0.49999998884E+03  0.50000000000E+03  0.10566000000E+00 0. -1.
        994   -1    0    0    0    0 -0.00000000000E+00 -0.00000000000E+00  0.00000000000E+00  0.13100000000E+03  0.13100000000E+03 0.  0.
         13    1    1    2    0    0  0.19593406800E+02 -0.51506503501E+01 -0.63942209600E+01  0.21244481984E+02  0.10566000000E+00 0.  1.
        994    1    1    2    0    0 -0.20971435400E+02 -0.30119990134E+02  0.18673553357E+03  0.23103717104E+03  0.13100000000E+03 0.  0.
        997    1    1    2    0    0  0.13780286001E+01  0.35270640484E+02  0.31965867623E+03  0.37871834697E+03  0.20000000000E+03 0.  0.
</event>
<event>
 5    1  0.8566659E-012  0.2533418E+03  0.7957747E-01  0.4298118E+00
         13   -1    0    0    0    0  0.00000000000E+00  0.00000000000E+00  0.49999998884E+03  0.50000000000E+03  0.10566000000E+00 0. -1.
        994   -1    0    0    0    0 -0.00000000000E+00 -0.00000000000E+00  0.00000000000E+00  0.13100000000E+03  0.13100000000E+03 0.  0.
         13    1    1    2    0    0  0.20827650591E+02 -0.15362697046E+02 -0.30421530429E+01  0.26058959090E+02  0.10566000000E+00 0.  1.
        994    1    1    2    0    0  0.33497028659E+01  0.95757942196E+01  0.15954673872E+03  0.20668594093E+03  0.13100000000E+03 0.  0.
        997    1    1    2    0    0 -0.24177353457E+02  0.57869028259E+01  0.34349540316E+03  0.39825509998E+03  0.20000000000E+03 0.  0.
</event>
<event>
 5    1  0.8566659E-012  0.2343468E+03  0.7957747E-01  0.4515306E+00
         13   -1    0    0    0    0  0.00000000000E+00  0.00000000000E+00  0.49999998884E+03  0.50000000000E+03  0.10566000000E+00 0.  1.
        994   -1    0    0    0    0 -0.00000000000E+00 -0.00000000000E+00  0.00000000000E+00  0.13100000000E+03  0.13100000000E+03 0.  0.
         13    1    1    2    0    0 -0.91360606483E+01 -0.14810206590E+02  0.11143671689E+02  0.20664036541E+02  0.10566000000E+00 0. -1.
        994    1    1    2    0    0  0.21547919911E+02  0.16104043114E+02  0.82170213250E+02  0.15696049504E+03  0.13100000000E+03 0.  0.
        997    1    1    2    0    0 -0.12411859263E+02 -0.12938365240E+01  0.40668610390E+03  0.45337546842E+03  0.20000000000E+03 0.  0.
</event>
<event>
 5    1  0.8566659E-012  0.2494218E+03  0.7957747E-01  0.4339762E+00
         13   -1    0    0    0    0  0.00000000000E+00  0.00000000000E+00  0.49999998884E+03  0.50000000000E+03  0.10566000000E+00 0.  1.
        994   -1    0    0    0    0 -0.00000000000E+00 -0.00000000000E+00  0.00000000000E+00  0.13100000000E+03  0.13100000000E+03 0.  0.
         13    1    1    2    0    0  0.39775229629E+02 -0.12239740160E+02  0.97252363160E+02  0.10578238717E+03  0.10566000000E+00 0. -1.
        994    1    1    2    0    0 -0.27837480174E+02  0.19900634655E+02  0.18451647018E+03  0.22886303400E+03  0.13100000000E+03 0.  0.
        997    1    1    2    0    0 -0.11937749455E+02 -0.76608944959E+01  0.21823115550E+03  0.29635457883E+03  0.20000000000E+03 0.  0.
</event>
<event>
 5    1  0.8566659E-012  0.2486247E+03  0.7957747E-01  0.4348418E+00
         13   -1    0    0    0    0  0.00000000000E+00  0.00000000000E+00  0.49999998884E+03  0.50000000000E+03  0.10566000000E+00 0.  1.
        994   -1    0    0    0    0 -0.00000000000E+00 -0.00000000000E+00  0.00000000000E+00  0.13100000000E+03  0.13100000000E+03 0.  0.
         13    1    1    2    0    0  0.32551723971E+02  0.14683537864E+02  0.24264831759E+02  0.43174231227E+02  0.10566000000E+00 0. -1.
        994    1    1    2    0    0  0.55167994539E+01 -0.18271845256E+02  0.12391449393E+03  0.18132869936E+03  0.13100000000E+03 0.  0.
        997    1    1    2    0    0 -0.38068523425E+02  0.35883073926E+01  0.35182066314E+03  0.40649706941E+03  0.20000000000E+03 0.  0.
</event>
<event>
 5    1  0.8566659E-012  0.2304361E+03  0.7957747E-01  0.4565347E+00
         13   -1    0    0    0    0  0.00000000000E+00  0.00000000000E+00  0.49999998884E+03  0.50000000000E+03  0.10566000000E+00 0. -1.
        994   -1    0    0    0    0 -0.00000000000E+00 -0.00000000000E+00  0.00000000000E+00  0.13100000000E+03  0.13100000000E+03 0.  0.
         13    1    1    2    0    0  0.96159321478E+01  0.10593618038E+02  0.46367532858E+02  0.48524737625E+02  0.10566000000E+00 0.  1.
        994    1    1    2    0    0 -0.13028998892E+02 -0.78488792332E+01  0.68787446869E+02  0.14874163023E+03  0.13100000000E+03 0.  0.
        997    1    1    2    0    0  0.34130667440E+01 -0.27447388049E+01  0.38484500911E+03  0.43373363214E+03  0.20000000000E+03 0.  0.
</event>
<event>
 5    1  0.8566659E-012  0.2278305E+03  0.7957747E-01  0.4599845E+00
         13   -1    0    0    0    0  0.00000000000E+00  0.00000000000E+00  0.49999998884E+03  0.50000000000E+03  0.10566000000E+00 0. -1.
        994   -1    0    0    0    0 -0.00000000000E+00 -0.00000000000E+00  0.00000000000E+00  0.13100000000E+03  0.13100000000E+03 0.  0.
         13    1    1    2    0    0 -0.70556996995E+01  0.76042940450E+01  0.94686015988E+01  0.14045417988E+02  0.10566000000E+00 0.  1.
        994    1    1    2    0    0  0.46692873963E+02 -0.14859482858E+02  0.86820134446E+02  0.16462006091E+03  0.13100000000E+03 0.  0.
        997    1    1    2    0    0 -0.39637174263E+02  0.72551888125E+01  0.40371125279E+03  0.45233452110E+03  0.20000000000E+03 0.  0.
</event>
<event>
 5    1  0.8566659E-012  0.2346979E+03  0.7957747E-01  0.4510911E+00
         13   -1    0    0    0    0  0.00000000000E+00  0.00000000000E+00  0.49999998884E+03  0.50000000000E+03  0.10566000000E+00 0.  1.
        994   -1    0    0    0    0 -0.00000000000E+00 -0.00000000000E+00  0.00000000000E+00  0.13100000000E+03  0.13100000000E+03 0.  0.
         13    1    1    2    0    0 -0.47396644163E+01 -0.14805430593E+02  0.86157229869E+01  0.17773773950E+02  0.10566000000E+00 0. -1.
        994    1    1    2    0    0  0.63196195667E+01 -0.60163123873E-01  0.75060400576E+02  0.15111255721E+03  0.13100000000E+03 0.  0.
        997    1    1    2    0    0 -0.15799551503E+01  0.14865593717E+02  0.41632386527E+03  0.46211366884E+03  0.20000000000E+03 0.  0.
</event>
<event>
 5    1  0.8566659E-012  0.2304225E+03  0.7957747E-01  0.4565525E+00
         13   -1    0    0    0    0  0.00000000000E+00  0.00000000000E+00  0.49999998884E+03  0.50000000000E+03  0.10566000000E+00 0. -1.
        994   -1    0    0    0    0 -0.00000000000E+00 -0.00000000000E+00  0.00000000000E+00  0.13100000000E+03  0.13100000000E+03 0.  0.
         13    1    1    2    0    0  0.63604772253E+01  0.13176730820E+02  0.29498272043E+02  0.32927816860E+02  0.10566000000E+00 0.  1.
        994    1    1    2    0    0  0.11442272048E+02 -0.26833507029E+01  0.67816078016E+02  0.14798022300E+03  0.13100000000E+03 0.  0.
        997    1    1    2    0    0 -0.17802749273E+02 -0.10493380118E+02  0.40268563878E+03  0.45009196014E+03  0.20000000000E+03 0.  0.
</event>
<event>
 5    1  0.8566659E-012  0.2410326E+03  0.7957747E-01  0.4434241E+00
         13   -1    0    0    0    0  0.00000000000E+00  0.00000000000E+00  0.49999998884E+03  0.50000000000E+03  0.10566000000E+00 0. -1.
        994   -1    0    0    0    0 -0.00000000000E+00 -0.00000000000E+00  0.00000000000E+00  0.13100000000E+03  0.13100000000E+03 0.  0.
         13    1    1    2    0    0 -0.30715939228E+02  0.21576451413E+02  0.59358473309E+02  0.70231415306E+02  0.10566000000E+00 0.  1.
        994    1    1    2    0    0  0.39397668444E+02 -0.20215013817E+02  0.12172352024E+03  0.18422388130E+03  0.13100000000E+03 0.  0.
        997    1    1    2    0    0 -0.86817292165E+01 -0.13614375958E+01  0.31891799529E+03  0.37654470339E+03  0.20000000000E+03 0.  0.
</event>
<event>
 5    1  0.8566659E-012  0.2357040E+03  0.7957747E-01  0.4498406E+00
         13   -1    0    0    0    0  0.00000000000E+00  0.00000000000E+00  0.49999998884E+03  0.50000000000E+03  0.10566000000E+00 0.  1.
        994   -1    0    0    0    0 -0.00000000000E+00 -0.00000000000E+00  0.00000000000E+00  0.13100000000E+03  0.13100000000E+03 0.  0.
         13    1    1    2    0    0 -0.10913064162E+02 -0.79147828809E+01 -0.22224829553E+00  0.13483297660E+02  0.10566000000E+00 0. -1.
        994    1    1    2    0    0  0.60192861899E+02 -0.33416813993E+02  0.16256441555E+03  0.21983642393E+03  0.13100000000E+03 0.  0.
        997    1    1    2    0    0 -0.49279797737E+02  0.41331596874E+02  0.33765782158E+03  0.39768027841E+03  0.20000000000E+03 0.  0.
</event>
<event>
 5    1  0.8566659E-012  0.2338853E+03  0.7957747E-01  0.4521106E+00
         13   -1    0    0    0    0  0.00000000000E+00  0.00000000000E+00  0.49999998884E+03  0.50000000000E+03  0.10566000000E+00 0.  1.
        994   -1    0    0    0    0 -0.00000000000E+00 -0.00000000000E+00  0.00000000000E+00  0.13100000000E+03  0.13100000000E+03 0.  0.
         13    1    1    2    0    0 -0.11746988438E+01  0.20128952046E+02  0.26134672464E+02  0.33008891176E+02  0.10566000000E+00 0. -1.
        994    1    1    2    0    0  0.42129502231E+01 -0.92998448881E+01  0.74112760863E+02  0.15085734118E+03  0.13100000000E+03 0.  0.
        997    1    1    2    0    0 -0.30382513793E+01 -0.10829107158E+02  0.39975255551E+03  0.44713376765E+03  0.20000000000E+03 0.  0.
</event>
<event>
 5    1  0.8566659E-012  0.2369557E+03  0.7957747E-01  0.4483023E+00
         13   -1    0    0    0    0  0.00000000000E+00  0.00000000000E+00  0.49999998884E+03  0.50000000000E+03  0.10566000000E+00 0. -1.
        994   -1    0    0    0    0 -0.00000000000E+00 -0.00000000000E+00  0.00000000000E+00  0.13100000000E+03  0.13100000000E+03 0.  0.
         13    1    1    2    0    0 -0.46003125270E+01 -0.25572189020E+02  0.35664374548E+02  0.44125485863E+02  0.10566000000E+00 0.  1.
        994    1    1    2    0    0  0.50246837077E+01  0.13857010464E+02  0.82056380373E+02  0.15527882581E+03  0.13100000000E+03 0.  0.
        997    1    1    2    0    0 -0.42437118076E+00  0.11715178556E+02  0.38227923391E+03  0.43159568833E+03  0.20000000000E+03 0.  0.
</event>
<event>
 5    1  0.8566659E-012  0.2387801E+03  0.7957747E-01  0.4460949E+00
         13   -1    0    0    0    0  0.00000000000E+00  0.00000000000E+00  0.49999998884E+03  0.50000000000E+03  0.10566000000E+00 0.  1.
        994   -1    0    0    0    0 -0.00000000000E+00 -0.00000000000E+00  0.00000000000E+00  0.13100000000E+03  0.13100000000E+03 0.  0.
         13    1    1    2    0    0 -0.62210770241E+00  0.28480803888E+02  0.22068193809E+02  0.36035531772E+02  0.10566000000E+00 0. -1.
        994    1    1    2    0    0 -0.20177345011E+02 -0.45687591891E+02  0.12222862670E+03  0.18599816798E+03  0.13100000000E+03 0.  0.
        997    1    1    2    0    0  0.20799452714E+02  0.17206788003E+02  0.35570316832E+03  0.40896630025E+03  0.20000000000E+03 0.  0.
</event>
<event>
 5    1  0.8566659E-012  0.2377912E+03  0.7957747E-01  0.4472864E+00
         13   -1    0    0    0    0  0.00000000000E+00  0.00000000000E+00  0.49999998884E+03  0.50000000000E+03  0.10566000000E+00 0. -1.
        994   -1    0    0    0    0 -0.00000000000E+00 -0.00000000000E+00  0.00000000000E+00  0.13100000000E+03  0.13100000000E+03 0.  0.
         13    1    1    2    0    0  0.25718022564E+02 -0.11452301526E+02  0.41119806833E+02  0.49833939969E+02  0.10566000000E+00 0.  1.
        994    1    1    2    0    0 -0.13674759018E+02  0.15056662477E+02  0.86514687113E+02  0.15830190525E+03  0.13100000000E+03 0.  0.
        997    1    1    2    0    0 -0.12043263546E+02 -0.36043609512E+01  0.37236549489E+03  0.42286415478E+03  0.20000000000E+03 0.  0.
</event>
<event>
 5    1  0.8566659E-012  0.2531220E+03  0.7957747E-01  0.4300413E+00
         13   -1    0    0    0    0  0.00000000000E+00  0.00000000000E+00  0.49999998884E+03  0.50000000000E+03  0.10566000000E+00 0.  1.
        994   -1    0    0    0    0 -0.00000000000E+00 -0.00000000000E+00  0.00000000000E+00  0.13100000000E+03  0.13100000000E+03 0.  0.
         13    1    1    2    0    0  0.47890202132E+02  0.10958172077E+02  0.68419167904E+02  0.84230319341E+02  0.10566000000E+00 0. -1.
        994    1    1    2    0    0 -0.81588107946E+01 -0.10981647403E+02  0.16355868858E+03  0.20999906519E+03  0.13100000000E+03 0.  0.
        997    1    1    2    0    0 -0.39731391338E+02  0.23475325774E-01  0.26802213236E+03  0.33677061547E+03  0.20000000000E+03 0.  0.
</event>
<event>
 5    1  0.8566659E-012  0.2356562E+03  0.7957747E-01  0.4498996E+00
         13   -1    0    0    0    0  0.00000000000E+00  0.00000000000E+00  0.49999998884E+03  0.50000000000E+03  0.10566000000E+00 0.  1.
        994   -1    0    0    0    0 -0.00000000000E+00 -0.00000000000E+00  0.00000000000E+00  0.13100000000E+03  0.13100000000E+03 0.  0.
         13    1    1    2    0    0 -0.36789868390E+01 -0.22754205917E+02  0.27678160512E+02  0.36019169402E+02  0.10566000000E+00 0. -1.
        994    1    1    2    0    0  0.23709524629E+02  0.10597416716E+02  0.84613211907E+02  0.15809757249E+03  0.13100000000E+03 0.  0.
        997    1    1    2    0    0 -0.20030537790E+02  0.12156789201E+02  0.38770861642E+03  0.43688325810E+03  0.20000000000E+03 0.  0.
</event>
<event>
 5    1  0.8566659E-012  0.2315974E+03  0.7957747E-01  0.4550274E+00
         13   -1    0    0    0    0  0.00000000000E+00  0.00000000000E+00  0.49999998884E+03  0.50000000000E+03  0.10566000000E+00 0. -1.
        994   -1    0    0    0    0 -0.00000000000E+00 -0.00000000000E+00  0.00000000000E+00  0.13100000000E+03  0.13100000000E+03 0.  0.
         13    1    1    2    0    0  0.87237490695E+01 -0.16372110611E+02  0.20854310381E+02  0.27911704162E+02  0.10566000000E+00 0.  1.
        994    1    1    2    0    0 -0.11135238489E+02  0.43740675129E+02  0.91554497928E+02  0.16607367729E+03  0.13100000000E+03 0.  0.
        997    1    1    2    0    0  0.24114894192E+01 -0.27368564518E+02  0.38759118053E+03  0.43701461855E+03  0.20000000000E+03 0.  0.
</event>
<event>
 5    1  0.8566659E-012  0.2345172E+03  0.7957747E-01  0.4513171E+00
         13   -1    0    0    0    0  0.00000000000E+00  0.00000000000E+00  0.49999998884E+03  0.50000000000E+03  0.10566000000E+00 0. -1.
        994   -1    0    0    0    0 -0.00000000000E+00 -0.00000000000E+00  0.00000000000E+00  0.13100000000E+03  0.13100000000E+03 0.  0.
         13    1    1    2    0    0 -0.12363346638E+02 -0.25098444247E+02  0.29538288799E+02  0.40685450875E+02  0.10566000000E+00 0.  1.
        994    1    1    2    0    0  0.56257468685E+02  0.47699359104E+02  0.18823212985E+03  0.24089928674E+03  0.13100000000E+03 0.  0.
        997    1    1    2    0    0 -0.43894122047E+02 -0.22600914857E+02  0.28222957018E+03  0.34941526239E+03  0.20000000000E+03 0.  0.
</event>
<event>
 5    1  0.8566659E-012  0.2365034E+03  0.7957747E-01  0.4488559E+00
         13   -1    0    0    0    0  0.00000000000E+00  0.00000000000E+00  0.49999998884E+03  0.50000000000E+03  0.10566000000E+00 0. -1.
        994   -1    0    0    0    0 -0.00000000000E+00 -0.00000000000E+00  0.00000000000E+00  0.13100000000E+03  0.13100000000E+03 0.  0.
         13    1    1    2    0    0 -0.26276524751E+02 -0.97209591393E+01  0.26607418510E+02  0.38638305907E+02  0.10566000000E+00 0.  1.
        994    1    1    2    0    0  0.54491366377E+02  0.11872600450E+02  0.12410527635E+03  0.18887399839E+03  0.13100000000E+03 0.  0.
        997    1    1    2    0    0 -0.28214841626E+02 -0.21516413105E+01  0.34928729398E+03  0.40348769570E+03  0.20000000000E+03 0.  0.
</event>
<event>
 5    1  0.8566659E-012  0.2341734E+03  0.7957747E-01  0.4517483E+00
         13   -1    0    0    0    0  0.00000000000E+00  0.00000000000E+00  0.49999998884E+03  0.50000000000E+03  0.10566000000E+00 0. -1.
        994   -1    0    0    0    0 -0.00000000000E+00 -0.00000000000E+00  0.00000000000E+00  0.13100000000E+03  0.13100000000E+03 0.  0.
         13    1    1    2    0    0 -0.14348321245E+02  0.80652658890E+01  0.91346689560E+01  0.18824881869E+02  0.10566000000E+00 0.  1.
        994    1    1    2    0    0  0.24704676041E+02 -0.13694329058E+02  0.82655756865E+02  0.15745103940E+03  0.13100000000E+03 0.  0.
        997    1    1    2    0    0 -0.10356354796E+02  0.56290631688E+01  0.40820956301E+03  0.45472407873E+03  0.20000000000E+03 0.  0.
</event>
<event>
 5    1  0.8566659E-012  0.2369588E+03  0.7957747E-01  0.4482986E+00
         13   -1    0    0    0    0  0.00000000000E+00  0.00000000000E+00  0.49999998884E+03  0.50000000000E+03  0.10566000000E+00 0.  1.
        994   -1    0    0    0    0 -0.00000000000E+00 -0.00000000000E+00  0.00000000000E+00  0.13100000000E+03  0.13100000000E+03 0.  0.
         13    1    1    2    0    0 -0.91017357054E+01  0.75658407791E+01 -0.44112700588E-01  0.11836243049E+02  0.10566000000E+00 0. -1.
        994    1    1    2    0    0  0.51916803578E+01  0.44045860663E+02  0.10601592944E+03  0.17426235590E+03  0.13100000000E+03 0.  0.
        997    1    1    2    0    0  0.39100553477E+01 -0.51611701442E+02  0.39402817209E+03  0.44490140105E+03  0.20000000000E+03 0.  0.
</event>
<event>
 5    1  0.8566659E-012  0.2355567E+03  0.7957747E-01  0.4500229E+00
         13   -1    0    0    0    0  0.00000000000E+00  0.00000000000E+00  0.49999998884E+03  0.50000000000E+03  0.10566000000E+00 0.  1.
        994   -1    0    0    0    0 -0.00000000000E+00 -0.00000000000E+00  0.00000000000E+00  0.13100000000E+03  0.13100000000E+03 0.  0.
         13    1    1    2    0    0 -0.24809760789E+02 -0.14449456829E+02  0.53055700343E+02  0.60326027020E+02  0.10566000000E+00 0. -1.
        994    1    1    2    0    0  0.65974045484E+02  0.79865176964E+00  0.14781588629E+03  0.20823964263E+03  0.13100000000E+03 0.  0.
        997    1    1    2    0    0 -0.41164284695E+02  0.13650805059E+02  0.29912840220E+03  0.36243433035E+03  0.20000000000E+03 0.  0.
</event>
<event>
 5    1  0.8566659E-012  0.2423966E+03  0.7957747E-01  0.4418354E+00
         13   -1    0    0    0    0  0.00000000000E+00  0.00000000000E+00  0.49999998884E+03  0.50000000000E+03  0.10566000000E+00 0.  1.
        994   -1    0    0    0    0 -0.00000000000E+00 -0.00000000000E+00  0.00000000000E+00  0.13100000000E+03  0.13100000000E+03 0.  0.
         13    1    1    2    0    0  0.22692530118E+02 -0.37822686614E+01  0.11143728555E+02  0.25562674538E+02  0.10566000000E+00 0. -1.
        994    1    1    2    0    0  0.40101762068E+02 -0.38737735935E+02  0.17447231342E+03  0.22518959047E+03  0.13100000000E+03 0.  0.
        997    1    1    2    0    0 -0.62794292186E+02  0.42520004597E+02  0.31438394686E+03  0.38024773499E+03  0.20000000000E+03 0.  0.
</event>
<event>
 5    1  0.8566659E-012  0.2475964E+03  0.7957747E-01  0.4359681E+00
         13   -1    0    0    0    0  0.00000000000E+00  0.00000000000E+00  0.49999998884E+03  0.50000000000E+03  0.10566000000E+00 0. -1.
        994   -1    0    0    0    0 -0.00000000000E+00 -0.00000000000E+00  0.00000000000E+00  0.13100000000E+03  0.13100000000E+03 0.  0.
         13    1    1    2    0    0 -0.31570713777E+02  0.19199309930E+01  0.22859717226E+02  0.39025298706E+02  0.10566000000E+00 0.  1.
        994    1    1    2    0    0 -0.30014081660E+02 -0.17150861811E+01  0.13223833746E+03  0.18855175553E+03  0.13100000000E+03 0.  0.
        997    1    1    2    0    0  0.61584795437E+02 -0.20484481189E+00  0.34490193415E+03  0.40342294576E+03  0.20000000000E+03 0.  0.
</event>
<event>
 5    1  0.8566659E-012  0.2378371E+03  0.7957747E-01  0.4472308E+00
         13   -1    0    0    0    0  0.00000000000E+00  0.00000000000E+00  0.49999998884E+03  0.50000000000E+03  0.10566000000E+00 0.  1.
        994   -1    0    0    0    0 -0.00000000000E+00 -0.00000000000E+00  0.00000000000E+00  0.13100000000E+03  0.13100000000E+03 0.  0.
         13    1    1    2    0    0 -0.79708017818E+01  0.32096219696E+02  0.37778555409E+02  0.50208877827E+02  0.10566000000E+00 0. -1.
        994    1    1    2    0    0  0.48758478705E+02 -0.44778374194E+02  0.20651728159E+03  0.25336313788E+03  0.13100000000E+03 0.  0.
        997    1    1    2    0    0 -0.40787676923E+02  0.12682154498E+02  0.25570415184E+03  0.32742798429E+03  0.20000000000E+03 0.  0.
</event>
<event>
 5    1  0.8566659E-012  0.2464224E+03  0.7957747E-01  0.4372673E+00
         13   -1    0    0    0    0  0.00000000000E+00  0.00000000000E+00  0.49999998884E+03  0.50000000000E+03  0.10566000000E+00 0.  1.
        994   -1    0    0    0    0 -0.00000000000E+00 -0.00000000000E+00  0.00000000000E+00  0.13100000000E+03  0.13100000000E+03 0.  0.
         13    1    1    2    0    0  0.35161544570E+02 -0.20284953610E+02  0.33722603067E+02  0.52773465692E+02  0.10566000000E+00 0. -1.
        994    1    1    2    0    0 -0.35246639575E+02  0.12858965313E+02  0.13934604766E+03  0.19489997329E+03  0.13100000000E+03 0.  0.
        997    1    1    2    0    0  0.85095005090E-01  0.74259882969E+01  0.32693133811E+03  0.38332656102E+03  0.20000000000E+03 0.  0.
</event>
<event>
 5    1  0.8566659E-012  0.2479043E+03  0.7957747E-01  0.4356296E+00
         13   -1    0    0    0    0  0.00000000000E+00  0.00000000000E+00  0.49999998884E+03  0.50000000000E+03  0.10566000000E+00 0. -1.
        994   -1    0    0    0    0 -0.00000000000E+00 -0.00000000000E+00  0.00000000000E+00  0.13100000000E+03  0.13100000000E+03 0.  0.
         13    1    1    2    0    0 -0.19289421787E+02  0.32307902535E+02  0.35183662943E+02  0.51514887762E+02  0.10566000000E+00 0.  1.
        994    1    1    2    0    0  0.15176283910E+02  0.85350424005E+01  0.11868260878E+03  0.17762243149E+03  0.13100000000E+03 0.  0.
        997    1    1    2    0    0  0.41131378767E+01 -0.40842944935E+02  0.34613371711E+03  0.40186268075E+03  0.20000000000E+03 0.  0.
</event>
<event>
 5    1  0.8566659E-012  0.2360431E+03  0.7957747E-01  0.4494219E+00
         13   -1    0    0    0    0  0.00000000000E+00  0.00000000000E+00  0.49999998884E+03  0.50000000000E+03  0.10566000000E+00 0. -1.
        994   -1    0    0    0    0 -0.00000000000E+00 -0.00000000000E+00  0.00000000000E+00  0.13100000000E+03  0.13100000000E+03 0.  0.
         13    1    1    2    0    0  0.17651505826E+02 -0.18958965216E+02  0.41181497384E+02  0.48651258060E+02  0.10566000000E+00 0.  1.
        994    1    1    2    0    0  0.11648623480E+02  0.42691223163E+02  0.10293662990E+03  0.17238091756E+03  0.13100000000E+03 0.  0.
        997    1    1    2    0    0 -0.29300129306E+02 -0.23732257947E+02  0.35588186155E+03  0.40996782438E+03  0.20000000000E+03 0.  0.
</event>
<event>
 5    1  0.8566659E-012  0.2396026E+03  0.7957747E-01  0.4451127E+00
         13   -1    0    0    0    0  0.00000000000E+00  0.00000000000E+00  0.49999998884E+03  0.50000000000E+03  0.10566000000E+00 0.  1.
        994   -1    0    0    0    0 -0.00000000000E+00 -0.00000000000E+00  0.00000000000E+00  0.13100000000E+03  0.13100000000E+03 0.  0.
         13    1    1    2    0    0  0.53709456705E+01  0.17362382757E+02  0.57866879188E+01  0.19073445245E+02  0.10566000000E+00 0. -1.
        994    1    1    2    0    0 -0.33407506077E+02  0.33623446223E+02  0.12099811033E+03  0.18452138169E+03  0.13100000000E+03 0.  0.
        997    1    1    2    0    0  0.28036560407E+02 -0.50985828980E+02  0.37321519058E+03  0.42740517306E+03  0.20000000000E+03 0.  0.
</event>
<event>
 5    1  0.8566659E-012  0.2445248E+03  0.7957747E-01  0.4393984E+00
         13   -1    0    0    0    0  0.00000000000E+00  0.00000000000E+00  0.49999998884E+03  0.50000000000E+03  0.10566000000E+00 0. -1.
        994   -1    0    0    0    0 -0.00000000000E+00 -0.00000000000E+00  0.00000000000E+00  0.13100000000E+03  0.13100000000E+03 0.  0.
         13    1    1    2    0    0  0.55311235091E+01  0.99503882511E+01 -0.87970476198E+01  0.14387590642E+02  0.10566000000E+00 0.  1.
        994    1    1    2    0    0  0.96377923674E+00 -0.47861369661E+02  0.15607166209E+03  0.20931078158E+03  0.13100000000E+03 0.  0.
        997    1    1    2    0    0 -0.64949027458E+01  0.37910981410E+02  0.35272537436E+03  0.40730162778E+03  0.20000000000E+03 0.  0.
</event>
<event>
 5    1  0.8566659E-012  0.2419470E+03  0.7957747E-01  0.4423568E+00
         13   -1    0    0    0    0  0.00000000000E+00  0.00000000000E+00  0.49999998884E+03  0.50000000000E+03  0.10566000000E+00 0.  1.
        994   -1    0    0    0    0 -0.00000000000E+00 -0.00000000000E+00  0.00000000000E+00  0.13100000000E+03  0.13100000000E+03 0.  0.
         13    1    1    2    0    0 -0.26312245858E+01 -0.24274736573E+02  0.14903724099E+02  0.28606263905E+02  0.10566000000E+00 0. -1.
        994    1    1    2    0    0 -0.35312838327E+02 -0.13470215287E+02  0.11518746335E+03  0.17848696021E+03  0.13100000000E+03 0.  0.
        997    1    1    2    0    0  0.37944062913E+02  0.37744951860E+02  0.36990880139E+03  0.42390677589E+03  0.20000000000E+03 0.  0.
</event>
<event>
 5    1  0.8566659E-012  0.2426928E+03  0.7957747E-01  0.4414932E+00
         13   -1    0    0    0    0  0.00000000000E+00  0.00000000000E+00  0.49999998884E+03  0.50000000000E+03  0.10566000000E+00 0.  1.
        994   -1    0    0    0    0 -0.00000000000E+00 -0.00000000000E+00  0.00000000000E+00  0.13100000000E+03  0.13100000000E+03 0.  0.
         13    1    1    2    0    0 -0.79267632725E+01 -0.40317262323E+02  0.62102000161E+02  0.74464654738E+02  0.10566000000E+00 0. -1.
        994    1    1    2    0    0 -0.97483049931E+01  0.54449557642E+02  0.18043824983E+03  0.22973625264E+03  0.13100000000E+03 0.  0.
        997    1    1    2    0    0  0.17675068266E+02 -0.14132295319E+02  0.25745973885E+03  0.32679909262E+03  0.20000000000E+03 0.  0.
</event>
<event>
 5    1  0.1153950E-011  0.2403954E+03  0.7957747E-01  0.4441736E+00
         13   -1    0    0    0    0  0.00000000000E+00  0.00000000000E+00  0.49999998884E+03  0.50000000000E+03  0.10566000000E+00 0. -1.
        994   -1    0    0    0    0 -0.00000000000E+00 -0.00000000000E+00  0.00000000000E+00  0.13100000000E+03  0.13100000000E+03 0.  0.
         13    1    1    2    0    0  0.96782602121E+01 -0.87938061629E+01 -0.30074529867E+01  0.13418482964E+02  0.10566000000E+00 0.  1.
        994    1    1    2    0    0 -0.31324637061E+02  0.62303676240E+01  0.10246405388E+03  0.16935150635E+03  0.13100000000E+03 0.  0.
        997    1    1    2    0    0  0.21646376849E+02  0.25634385390E+01  0.40054338795E+03  0.44823001068E+03  0.20000000000E+03 0.  0.
</event>
<event>
 5    1  0.8566659E-012  0.2519907E+03  0.7957747E-01  0.4312301E+00
         13   -1    0    0    0    0  0.00000000000E+00  0.00000000000E+00  0.49999998884E+03  0.50000000000E+03  0.10566000000E+00 0. -1.
        994   -1    0    0    0    0 -0.00000000000E+00 -0.00000000000E+00  0.00000000000E+00  0.13100000000E+03  0.13100000000E+03 0.  0.
         13    1    1    2    0    0  0.26263761574E+02  0.19541304712E+02  0.98126220232E+01  0.34175231921E+02  0.10566000000E+00 0.  1.
        994    1    1    2    0    0 -0.32709301078E+00 -0.19117063348E+01  0.13584375668E+03  0.18872807909E+03  0.13100000000E+03 0.  0.
        997    1    1    2    0    0 -0.25936668563E+02 -0.17629598377E+02  0.35434361014E+03  0.40809668898E+03  0.20000000000E+03 0.  0.
</event>
<event>
 5    1  0.1045805E-011  0.2464735E+03  0.7957747E-01  0.4372105E+00
         13   -1    0    0    0    0  0.00000000000E+00  0.00000000000E+00  0.49999998884E+03  0.50000000000E+03  0.10566000000E+00 0. -1.
        994   -1    0    0    0    0 -0.00000000000E+00 -0.00000000000E+00  0.00000000000E+00  0.13100000000E+03  0.13100000000E+03 0.  0.
         13    1    1    2    0    0 -0.35555735888E+01 -0.13795293680E+02 -0.63279397047E+01  0.15588656652E+02  0.10566000000E+00 0.  1.
        994    1    1    2    0    0  0.14068940230E+01  0.16280243639E+02  0.11148260741E+03  0.17279003860E+03  0.13100000000E+03 0.  0.
        997    1    1    2    0    0  0.21486795658E+01 -0.24849499586E+01  0.39484532113E+03  0.44262130475E+03  0.20000000000E+03 0.  0.
</event>
<event>
 5    1  0.8566659E-012  0.2507842E+03  0.7957747E-01  0.4325117E+00
         13   -1    0    0    0    0  0.00000000000E+00  0.00000000000E+00  0.49999998884E+03  0.50000000000E+03  0.10566000000E+00 0.  1.
        994   -1    0    0    0    0 -0.00000000000E+00 -0.00000000000E+00  0.00000000000E+00  0.13100000000E+03  0.13100000000E+03 0.  0.
         13    1    1    2    0    0 -0.34832196987E+02  0.20334004608E+02  0.37608320630E+02  0.55146628501E+02  0.10566000000E+00 0. -1.
        994    1    1    2    0    0 -0.15350887402E+02 -0.76255605375E+01  0.13625505147E+03  0.18978998385E+03  0.13100000000E+03 0.  0.
        997    1    1    2    0    0  0.50183084389E+02 -0.12708444070E+02  0.32613661674E+03  0.38606338765E+03  0.20000000000E+03 0.  0.
</event>
<event>
 5    1  0.8566659E-012  0.2314548E+03  0.7957747E-01  0.4552115E+00
         13   -1    0    0    0    0  0.00000000000E+00  0.00000000000E+00  0.49999998884E+03  0.50000000000E+03  0.10566000000E+00 0.  1.
        994   -1    0    0    0    0 -0.00000000000E+00 -0.00000000000E+00  0.00000000000E+00  0.13100000000E+03  0.13100000000E+03 0.  0.
         13    1    1    2    0    0 -0.16270400028E+02 -0.32663560666E+01  0.17819564371E+02  0.24350421709E+02  0.10566000000E+00 0. -1.
        994    1    1    2    0    0  0.18795058356E+02  0.43216433434E+02  0.93501428230E+02  0.16770340312E+03  0.13100000000E+03 0.  0.
        997    1    1    2    0    0 -0.25246583281E+01 -0.39950077367E+02  0.38867899624E+03  0.43894617517E+03  0.20000000000E+03 0.  0.
</event>
<event>
 5    1  0.8566659E-012  0.2371186E+03  0.7957747E-01  0.4481036E+00
         13   -1    0    0    0    0  0.00000000000E+00  0.00000000000E+00  0.49999998884E+03  0.50000000000E+03  0.10566000000E+00 0. -1.
        994   -1    0    0    0    0 -0.00000000000E+00 -0.00000000000E+00  0.00000000000E+00  0.13100000000E+03  0.13100000000E+03 0.  0.
         13    1    1    2    0    0  0.16469779094E+02  0.19662855287E+02  0.30935190715E+02  0.40185553251E+02  0.10566000000E+00 0.  1.
        994    1    1    2    0    0  0.17655485849E+02 -0.35352293704E+02  0.10039326812E+03  0.16970948452E+03  0.13100000000E+03 0.  0.
        997    1    1    2    0    0 -0.34125264943E+02  0.15689438417E+02  0.36867153000E+03  0.42110496223E+03  0.20000000000E+03 0.  0.
</event>
<event>
 5    1  0.8566659E-012  0.2317340E+03  0.7957747E-01  0.4548513E+00
         13   -1    0    0    0    0  0.00000000000E+00  0.00000000000E+00  0.49999998884E+03  0.50000000000E+03  0.10566000000E+00 0.  1.
        994   -1    0    0    0    0 -0.00000000000E+00 -0.00000000000E+00  0.00000000000E+00  0.13100000000E+03  0.13100000000E+03 0.  0.
         13    1    1    2    0    0 -0.14116410494E+02  0.52205757727E+01  0.21554091580E+02  0.26289113422E+02  0.10566000000E+00 0. -1.
        994    1    1    2    0    0 -0.20045056799E+02  0.14804372620E+01  0.73063674680E+02  0.15133835123E+03  0.13100000000E+03 0.  0.
        997    1    1    2    0    0  0.34161467293E+02 -0.67010130347E+01  0.40538222258E+03  0.45337253534E+03  0.20000000000E+03 0.  0.
</event>
<event>
 5    1  0.8566659E-012  0.2300343E+03  0.7957747E-01  0.4570605E+00
         13   -1    0    0    0    0  0.00000000000E+00  0.00000000000E+00  0.49999998884E+03  0.50000000000E+03  0.10566000000E+00 0. -1.
        994   -1    0    0    0    0 -0.00000000000E+00 -0.00000000000E+00  0.00000000000E+00  0.13100000000E+03  0.13100000000E+03 0.  0.
         13    1    1    2    0    0  0.27270393128E+01 -0.14576324822E+02  0.33643195345E+02  0.36766584636E+02  0.10566000000E+00 0.  1.
        994    1    1    2    0    0 -0.50461950009E+01  0.10209739858E+02  0.67026854947E+02  0.14759167374E+03  0.13100000000E+03 0.  0.
        997    1    1    2    0    0  0.23191556881E+01  0.43665849640E+01  0.39932993854E+03  0.44664174163E+03  0.20000000000E+03 0.  0.
</event>
<event>
 5    1  0.8566659E-012  0.2476733E+03  0.7957747E-01  0.4358834E+00
         13   -1    0    0    0    0  0.00000000000E+00  0.00000000000E+00  0.49999998884E+03  0.50000000000E+03  0.10566000000E+00 0. -1.
        994   -1    0    0    0    0 -0.00000000000E+00 -0.00000000000E+00  0.00000000000E+00  0.13100000000E+03  0.13100000000E+03 0.  0.
         13    1    1    2    0    0 -0.23716811183E+02 -0.92562851238E+01  0.68492448669E+01  0.26364545629E+02  0.10566000000E+00 0.  1.
        994    1    1    2    0    0 -0.21199223437E+02 -0.29222248722E+01  0.12109194323E+03  0.17967249424E+03  0.13100000000E+03 0.  0.
        997    1    1    2    0    0  0.44916034619E+02  0.12178509996E+02  0.37205880074E+03  0.42496296013E+03  0.20000000000E+03 0.  0.
</event>
<event>
 5    1  0.8566659E-012  0.2395220E+03  0.7957747E-01  0.4452086E+00
         13   -1    0    0    0    0  0.00000000000E+00  0.00000000000E+00  0.49999998884E+03  0.50000000000E+03  0.10566000000E+00 0.  1.
        994   -1    0    0    0    0 -0.00000000000E+00 -0.00000000000E+00  0.00000000000E+00  0.13100000000E+03  0.13100000000E+03 0.  0.
         13    1    1    2    0    0 -0.63263108985E+01  0.28105870538E+02  0.24050131488E+02  0.37528417991E+02  0.10566000000E+00 0. -1.
        994    1    1    2    0    0 -0.26092470888E+02 -0.39506545382E+02  0.12054109715E+03  0.18420841530E+03  0.13100000000E+03 0.  0.
        997    1    1    2    0    0  0.32418781786E+02  0.11400674844E+02  0.35540876020E+03  0.40926316671E+03  0.20000000000E+03 0.  0.
</event>
<event>
 5    1  0.8924426E-012  0.2339625E+03  0.7957747E-01  0.4520134E+00
         13   -1    0    0    0    0  0.00000000000E+00  0.00000000000E+00  0.49999998884E+03  0.50000000000E+03  0.10566000000E+00 0. -1.
        994   -1    0    0    0    0 -0.00000000000E+00 -0.00000000000E+00  0.00000000000E+00  0.13100000000E+03  0.13100000000E+03 0.  0.
         13    1    1    2    0    0  0.14028789738E+02  0.21576340599E+01  0.38554375539E+01  0.14708429183E+02  0.10566000000E+00 0.  1.
        994    1    1    2    0    0 -0.47456500125E+02  0.69713258649E+01  0.10155232036E+03  0.17255315865E+03  0.13100000000E+03 0.  0.
        997    1    1    2    0    0  0.33427710387E+02 -0.91289599247E+01  0.39459223092E+03  0.44373841217E+03  0.20000000000E+03 0.  0.
</event>
<event>
 5    1  0.8566659E-012  0.2440372E+03  0.7957747E-01  0.4399524E+00
         13   -1    0    0    0    0  0.00000000000E+00  0.00000000000E+00  0.49999998884E+03  0.50000000000E+03  0.10566000000E+00 0. -1.
        994   -1    0    0    0    0 -0.00000000000E+00 -0.00000000000E+00  0.00000000000E+00  0.13100000000E+03  0.13100000000E+03 0.  0.
         13    1    1    2    0    0  0.21474508153E+01  0.31490591583E+02  0.18886598015E+02  0.36782926092E+02  0.10566000000E+00 0.  1.
        994    1    1    2    0    0 -0.21400603229E+02 -0.28125803764E+02  0.12085643752E+03  0.18170394917E+03  0.13100000000E+03 0.  0.
        997    1    1    2    0    0  0.19253152414E+02 -0.33647878193E+01  0.36025695330E+03  0.41251312473E+03  0.20000000000E+03 0.  0.
</event>
<event>
 5    1  0.8566659E-012  0.2330551E+03  0.7957747E-01  0.4531611E+00
         13   -1    0    0    0    0  0.00000000000E+00  0.00000000000E+00  0.49999998884E+03  0.50000000000E+03  0.10566000000E+00 0. -1.
        994   -1    0    0    0    0 -0.00000000000E+00 -0.00000000000E+00  0.00000000000E+00  0.13100000000E+03  0.13100000000E+03 0.  0.
         13    1    1    2    0    0 -0.15042995089E+01 -0.13578205700E+02  0.50758741353E+01  0.14574163760E+02  0.10566000000E+00 0.  1.
        994    1    1    2    0    0 -0.47380082578E+02  0.32283805326E+02  0.11345360951E+03  0.18253722311E+03  0.13100000000E+03 0.  0.
        997    1    1    2    0    0  0.48884382087E+02 -0.18705599627E+02  0.38147050519E+03  0.43388861313E+03  0.20000000000E+03 0.  0.
</event>
<event>
 5    1  0.8566659E-012  0.2341186E+03  0.7957747E-01  0.4518171E+00
         13   -1    0    0    0    0  0.00000000000E+00  0.00000000000E+00  0.49999998884E+03  0.50000000000E+03  0.10566000000E+00 0. -1.
        994   -1    0    0    0    0 -0.00000000000E+00 -0.00000000000E+00  0.00000000000E+00  0.13100000000E+03  0.13100000000E+03 0.  0.
         13    1    1    2    0    0  0.98709299661E+01  0.59597158504E+01  0.33534211711E+00  0.11535904377E+02  0.10566000000E+00 0.  1.
        994    1    1    2    0    0 -0.28168610556E+02 -0.40462487266E+02  0.10390070266E+03  0.17431878702E+03  0.13100000000E+03 0.  0.
        997    1    1    2    0    0  0.18297680589E+02  0.34502771416E+02  0.39576394406E+03  0.44514530860E+03  0.20000000000E+03 0.  0.
</event>
<event>
 5    1  0.8566659E-012  0.2331429E+03  0.7957747E-01  0.4530495E+00
         13   -1    0    0    0    0  0.00000000000E+00  0.00000000000E+00  0.49999998884E+03  0.50000000000E+03  0.10566000000E+00 0.  1.
        994   -1    0    0    0    0 -0.00000000000E+00 -0.00000000000E+00  0.00000000000E+00  0.13100000000E+03  0.13100000000E+03 0.  0.
         13    1    1    2    0    0  0.27536283199E+01  0.21047453660E+02  0.48641966237E+02  0.53071930603E+02  0.10566000000E+00 0. -1.
        994    1    1    2    0    0  0.17968807283E+02 -0.29601697444E+02  0.85062766513E+02  0.15998691438E+03  0.13100000000E+03 0.  0.
        997    1    1    2    0    0 -0.20722435603E+02  0.85542437833E+01  0.36629525609E+03  0.41794115501E+03  0.20000000000E+03 0.  0.
</event>
<event>
 5    1  0.8566659E-012  0.2528003E+03  0.7957747E-01  0.4303781E+00
         13   -1    0    0    0    0  0.00000000000E+00  0.00000000000E+00  0.49999998884E+03  0.50000000000E+03  0.10566000000E+00 0.  1.
        994   -1    0    0    0    0 -0.00000000000E+00 -0.00000000000E+00  0.00000000000E+00  0.13100000000E+03  0.13100000000E+03 0.  0.
         13    1    1    2    0    0  0.38672712849E+02 -0.13009641958E+02  0.28174085962E+02  0.49584471227E+02  0.10566000000E+00 0. -1.
        994    1    1    2    0    0  0.99456026034E+01  0.71449366209E+01  0.15195653059E+03  0.20100187143E+03  0.13100000000E+03 0.  0.
        997    1    1    2    0    0 -0.48618315453E+02  0.58647053374E+01  0.31986937228E+03  0.38041365734E+03  0.20000000000E+03 0.  0.
</event>
<event>
 5    1  0.8566659E-012  0.2534558E+03  0.7957747E-01  0.4296929E+00
         13   -1    0    0    0    0  0.00000000000E+00  0.00000000000E+00  0.49999998884E+03  0.50000000000E+03  0.10566000000E+00 0. -1.
        994   -1    0    0    0    0 -0.00000000000E+00 -0.00000000000E+00  0.00000000000E+00  0.13100000000E+03  0.13100000000E+03 0.  0.
         13    1    1    2    0    0  0.20727556489E+02  0.38054392112E+02  0.84723464051E+02  0.95162203011E+02  0.10566000000E+00 0.  1.
        994    1    1    2    0    0 -0.25160636063E+00  0.10997686603E+02  0.17084034045E+03  0.21556538298E+03  0.13100000000E+03 0.  0.
        997    1    1    2    0    0 -0.20475950129E+02 -0.49052078715E+02  0.24443618434E+03  0.32027241400E+03  0.20000000000E+03 0.  0.
</event>
<event>
 5    1  0.8566659E-012  0.2383047E+03  0.7957747E-01  0.4466661E+00
         13   -1    0    0    0    0  0.00000000000E+00  0.00000000000E+00  0.49999998884E+03  0.50000000000E+03  0.10566000000E+00 0.  1.
        994   -1    0    0    0    0 -0.00000000000E+00 -0.00000000000E+00  0.00000000000E+00  0.13100000000E+03  0.13100000000E+03 0.  0.
         13    1    1    2    0    0 -0.29010819640E+02 -0.62591144623E+01  0.32323125852E+02  0.43881656747E+02  0.10566000000E+00 0. -1.
        994    1    1    2    0    0  0.42195341482E+02 -0.20728252356E+02  0.11489530468E+03  0.18047725155E+03  0.13100000000E+03 0.  0.
        997    1    1    2    0    0 -0.13184521842E+02  0.26987366819E+02  0.35278155830E+03  0.40664109171E+03  0.20000000000E+03 0.  0.
</event>
<event>
 5    1  0.8566659E-012  0.2325836E+03  0.7957747E-01  0.4537617E+00
         13   -1    0    0    0    0  0.00000000000E+00  0.00000000000E+00  0.49999998884E+03  0.50000000000E+03  0.10566000000E+00 0.  1.
        994   -1    0    0    0    0 -0.00000000000E+00 -0.00000000000E+00  0.00000000000E+00  0.13100000000E+03  0.13100000000E+03 0.  0.
         13    1    1    2    0    0  0.46803815188E+00  0.12192772540E+02  0.32964048446E+01  0.12639628589E+02  0.10566000000E+00 0. -1.
        994    1    1    2    0    0  0.15902794331E+01 -0.42363221640E+02  0.91042374929E+02  0.16506630658E+03  0.13100000000E+03 0.  0.
        997    1    1    2    0    0 -0.20583175850E+01  0.30170449099E+02  0.40566120906E+03  0.45329406483E+03  0.20000000000E+03 0.  0.
</event>
<event>
 5    1  0.8566659E-012  0.2346969E+03  0.7957747E-01  0.4510923E+00
         13   -1    0    0    0    0  0.00000000000E+00  0.00000000000E+00  0.49999998884E+03  0.50000000000E+03  0.10566000000E+00 0.  1.
        994   -1    0    0    0    0 -0.00000000000E+00 -0.00000000000E+00  0.00000000000E+00  0.13100000000E+03  0.13100000000E+03 0.  0.
         13    1    1    2    0    0 -0.15280120382E+02  0.17252290164E+02  0.37764132489E+02  0.44240981697E+02  0.10566000000E+00 0. -1.
        994    1    1    2    0    0  0.51236935483E+02  0.19206247431E+02  0.11464059095E+03  0.18247621377E+03  0.13100000000E+03 0.  0.
        997    1    1    2    0    0 -0.35956815101E+02 -0.36458537595E+02  0.34759526540E+03  0.40428280454E+03  0.20000000000E+03 0.  0.
</event>
<event>
 5    1  0.1283290E-011  0.2443518E+03  0.7957747E-01  0.4395947E+00
         13   -1    0    0    0    0  0.00000000000E+00  0.00000000000E+00  0.49999998884E+03  0.50000000000E+03  0.10566000000E+00 0.  1.
        994   -1    0    0    0    0 -0.00000000000E+00 -0.00000000000E+00  0.00000000000E+00  0.13100000000E+03  0.13100000000E+03 0.  0.
         13    1    1    2    0    0  0.15472821821E+02 -0.10775921259E+02  0.40432771514E+00  0.18860099126E+02  0.10566000000E+00 0. -1.
        994    1    1    2    0    0 -0.90799070180E+01 -0.84196826289E+01  0.10154532667E+03  0.16621007531E+03  0.13100000000E+03 0.  0.
        997    1    1    2    0    0 -0.63929148032E+01  0.19195603888E+02  0.39805033445E+03  0.44592982556E+03  0.20000000000E+03 0.  0.
</event>
<event>
 5    1  0.8566659E-012  0.2443335E+03  0.7957747E-01  0.4396155E+00
         13   -1    0    0    0    0  0.00000000000E+00  0.00000000000E+00  0.49999998884E+03  0.50000000000E+03  0.10566000000E+00 0.  1.
        994   -1    0    0    0    0 -0.00000000000E+00 -0.00000000000E+00  0.00000000000E+00  0.13100000000E+03  0.13100000000E+03 0.  0.
         13    1    1    2    0    0 -0.40311145556E+02 -0.48949560067E+01  0.57847811916E+02  0.70677645390E+02  0.10566000000E+00 0. -1.
        994    1    1    2    0    0  0.34729394326E+02 -0.19465092175E+02  0.13031940912E+03  0.18902160998E+03  0.13100000000E+03 0.  0.
        997    1    1    2    0    0  0.55817512304E+01  0.24360048182E+02  0.31183276780E+03  0.37130074463E+03  0.20000000000E+03 0.  0.
</event>
<event>
 5    1  0.8566659E-012  0.2351090E+03  0.7957747E-01  0.4505785E+00
         13   -1    0    0    0    0  0.00000000000E+00  0.00000000000E+00  0.49999998884E+03  0.50000000000E+03  0.10566000000E+00 0. -1.
        994   -1    0    0    0    0 -0.00000000000E+00 -0.00000000000E+00  0.00000000000E+00  0.13100000000E+03  0.13100000000E+03 0.  0.
         13    1    1    2    0    0 -0.70738107969E+01 -0.16461981181E+02  0.86286733830E+01  0.19887201713E+02  0.10566000000E+00 0.  1.
        994    1    1    2    0    0  0.34091803011E+02  0.28231069300E+02  0.10011069347E+03  0.17071143855E+03  0.13100000000E+03 0.  0.
        997    1    1    2    0    0 -0.27017992214E+02 -0.11769088119E+02  0.39126062199E+03  0.44040135973E+03  0.20000000000E+03 0.  0.
</event>
<event>
 5    1  0.8566659E-012  0.2323939E+03  0.7957747E-01  0.4540042E+00
         13   -1    0    0    0    0  0.00000000000E+00  0.00000000000E+00  0.49999998884E+03  0.50000000000E+03  0.10566000000E+00 0.  1.
        994   -1    0    0    0    0 -0.00000000000E+00 -0.00000000000E+00  0.00000000000E+00  0.13100000000E+03  0.13100000000E+03 0.  0.
         13    1    1    2    0    0  0.13761822025E+02  0.23850374800E+01  0.68188054006E+01  0.15542954042E+02  0.10566000000E+00 0. -1.
        994    1    1    2    0    0 -0.39076595171E+02  0.23982591396E+02  0.94443564680E+02  0.16787713331E+03  0.13100000000E+03 0.  0.
        997    1    1    2    0    0  0.25314773146E+02 -0.26367628876E+02  0.39873761876E+03  0.44757991264E+03  0.20000000000E+03 0.  0.
</event>
<event>
 5    1  0.8566659E-012  0.2430559E+03  0.7957747E-01  0.4410750E+00
         13   -1    0    0    0    0  0.00000000000E+00  0.00000000000E+00  0.49999998884E+03  0.50000000000E+03  0.10566000000E+00 0.  1.
        994   -1    0    0    0    0 -0.00000000000E+00 -0.00000000000E+00  0.00000000000E+00  0.13100000000E+03  0.13100000000E+03 0.  0.
         13    1    1    2    0    0  0.36857308110E+02  0.97100281169E+01  0.44024804722E+02  0.58231781718E+02  0.10566000000E+00 0. -1.
        994    1    1    2    0    0 -0.36374385265E+02 -0.46465271811E+01  0.11831711863E+03  0.18029039542E+03  0.13100000000E+03 0.  0.
        997    1    1    2    0    0 -0.48292284503E+00 -0.50635009359E+01  0.33765806548E+03  0.39247782287E+03  0.20000000000E+03 0.  0.
</event>
<event>
 5    1  0.8566659E-012  0.2458445E+03  0.7957747E-01  0.4379122E+00
         13   -1    0    0    0    0  0.00000000000E+00  0.00000000000E+00  0.49999998884E+03  0.50000000000E+03  0.10566000000E+00 0. -1.
        994   -1    0    0    0    0 -0.00000000000E+00 -0.00000000000E+00  0.00000000000E+00  0.13100000000E+03  0.13100000000E+03 0.  0.
         13    1    1    2    0    0  0.20400705899E+02 -0.14596788272E+02  0.91440872801E+01  0.26699822570E+02  0.10566000000E+00 0.  1.
        994    1    1    2    0    0  0.19054411637E+02 -0.45176699972E+01  0.11116702520E+03  0.17292364627E+03  0.13100000000E+03 0.  0.
        997    1    1    2    0    0 -0.39455117536E+02  0.19114458269E+02  0.37968887635E+03  0.43137653116E+03  0.20000000000E+03 0.  0.
</event>
<event>
 5    1  0.8566659E-012  0.2461614E+03  0.7957747E-01  0.4375582E+00
         13   -1    0    0    0    0  0.00000000000E+00  0.00000000000E+00  0.49999998884E+03  0.50000000000E+03  0.10566000000E+00 0. -1.
        994   -1    0    0    0    0 -0.00000000000E+00 -0.00000000000E+00  0.00000000000E+00  0.13100000000E+03  0.13100000000E+03 0.  0.
         13    1    1    2    0    0 -0.24539354128E+01 -0.29638554270E+02  0.20626234906E+02  0.36192795259E+02  0.10566000000E+00 0.  1.
        994    1    1    2    0    0  0.11799108152E+02 -0.27460387542E+02  0.12348164884E+03  0.18248838165E+03  0.13100000000E+03 0.  0.
        997    1    1    2    0    0 -0.93451727396E+01  0.57098941812E+02  0.35589210509E+03  0.41231882309E+03  0.20000000000E+03 0.  0.
</event>
<event>
 5    1  0.8566659E-012  0.2425923E+03  0.7957747E-01  0.4416092E+00
         13   -1    0    0    0    0  0.00000000000E+00  0.00000000000E+00  0.49999998884E+03  0.50000000000E+03  0.10566000000E+00 0.  1.
        994   -1    0    0    0    0 -0.00000000000E+00 -0.00000000000E+00  0.00000000000E+00  0.13100000000E+03  0.13100000000E+03 0.  0.
         13    1    1    2    0    0 -0.26128780398E+02  0.10534728490E+02  0.18851223478E+02  0.33897986078E+02  0.10566000000E+00 0. -1.
        994    1    1    2    0    0  0.18332309712E+02  0.14643224827E+02  0.10218032543E+03  0.16778652067E+03  0.13100000000E+03 0.  0.
        997    1    1    2    0    0  0.77964706866E+01 -0.25177953317E+02  0.37896843992E+03  0.42931549325E+03  0.20000000000E+03 0.  0.
</event>
<event>
 5    1  0.8566659E-012  0.2399336E+03  0.7957747E-01  0.4447197E+00
         13   -1    0    0    0    0  0.00000000000E+00  0.00000000000E+00  0.49999998884E+03  0.50000000000E+03  0.10566000000E+00 0. -1.
        994   -1    0    0    0    0 -0.00000000000E+00 -0.00000000000E+00  0.00000000000E+00  0.13100000000E+03  0.13100000000E+03 0.  0.
         13    1    1    2    0    0  0.40404352603E+01 -0.18817575539E+02  0.63088917651E+01  0.20254371024E+02  0.10566000000E+00 0.  1.
        994    1    1    2    0    0  0.42371655365E+02  0.22071409294E+01  0.11394623216E+03  0.17873156541E+03  0.13100000000E+03 0.  0.
        997    1    1    2    0    0 -0.46412090625E+02  0.16610434610E+02  0.37974486491E+03  0.43201406357E+03  0.20000000000E+03 0.  0.
</event>
<event>
 5    1  0.8566659E-012  0.2404473E+03  0.7957747E-01  0.4441123E+00
         13   -1    0    0    0    0  0.00000000000E+00  0.00000000000E+00  0.49999998884E+03  0.50000000000E+03  0.10566000000E+00 0.  1.
        994   -1    0    0    0    0 -0.00000000000E+00 -0.00000000000E+00  0.00000000000E+00  0.13100000000E+03  0.13100000000E+03 0.  0.
         13    1    1    2    0    0 -0.21444516473E+02  0.34433682680E+00  0.63449760167E+01  0.22366397548E+02  0.10566000000E+00 0. -1.
        994    1    1    2    0    0  0.31749043939E+02  0.20422806620E+02  0.10929507869E+03  0.17473267310E+03  0.13100000000E+03 0.  0.
        997    1    1    2    0    0 -0.10304527466E+02 -0.20767143447E+02  0.38435993412E+03  0.43390092935E+03  0.20000000000E+03 0.  0.
</event>
<event>
 5    1  0.8566659E-012  0.2392679E+03  0.7957747E-01  0.4455113E+00
         13   -1    0    0    0    0  0.00000000000E+00  0.00000000000E+00  0.49999998884E+03  0.50000000000E+03  0.10566000000E+00 0.  1.
        994   -1    0    0    0    0 -0.00000000000E+00 -0.00000000000E+00  0.00000000000E+00  0.13100000000E+03  0.13100000000E+03 0.  0.
         13    1    1    2    0    0  0.24367230139E+02 -0.67084942719E+01  0.27419309691E+02  0.37290689294E+02  0.10566000000E+00 0. -1.
        994    1    1    2    0    0  0.10015935804E+02 -0.45670226678E+01  0.86408333013E+02  0.15731680355E+03  0.13100000000E+03 0.  0.
        997    1    1    2    0    0 -0.34383165943E+02  0.11275516940E+02  0.38617234613E+03  0.43639250715E+03  0.20000000000E+03 0.  0.
</event>
<event>
 5    1  0.8566659E-012  0.2362288E+03  0.7957747E-01  0.4491932E+00
         13   -1    0    0    0    0  0.00000000000E+00  0.00000000000E+00  0.49999998884E+03  0.50000000000E+03  0.10566000000E+00 0.  1.
        994   -1    0    0    0    0 -0.00000000000E+00 -0.00000000000E+00  0.00000000000E+00  0.13100000000E+03  0.13100000000E+03 0.  0.
         13    1    1    2    0    0 -0.22324307094E+02 -0.11072795216E+02  0.27516631548E+02  0.37123545856E+02  0.10566000000E+00 0. -1.
        994    1    1    2    0    0  0.25584758737E+02  0.12056899758E+02  0.87573227379E+02  0.16009378147E+03  0.13100000000E+03 0.  0.
        997    1    1    2    0    0 -0.32604516426E+01 -0.98410454129E+00  0.38491012991E+03  0.43378267268E+03  0.20000000000E+03 0.  0.
</event>
<event>
 5    1  0.8566659E-012  0.2365220E+03  0.7957747E-01  0.4488331E+00
         13   -1    0    0    0    0  0.00000000000E+00  0.00000000000E+00  0.49999998884E+03  0.50000000000E+03  0.10566000000E+00 0. -1.
        994   -1    0    0    0    0 -0.00000000000E+00 -0.00000000000E+00  0.00000000000E+00  0.13100000000E+03  0.13100000000E+03 0.  0.
         13    1    1    2    0    0  0.25800222253E+02  0.94170752520E+00  0.52031883539E+02  0.58084992468E+02  0.10566000000E+00 0.  1.
        994    1    1    2    0    0 -0.13383921422E+02  0.13108394139E+02  0.82682616378E+02  0.15603965650E+03  0.13100000000E+03 0.  0.
        997    1    1    2    0    0 -0.12416300831E+02 -0.14050101665E+02  0.36528548892E+03  0.41687535103E+03  0.20000000000E+03 0.  0.
</event>
<event>
 5    1  0.8566659E-012  0.2303915E+03  0.7957747E-01  0.4565930E+00
         13   -1    0    0    0    0  0.00000000000E+00  0.00000000000E+00  0.49999998884E+03  0.50000000000E+03  0.10566000000E+00 0.  1.
        994   -1    0    0    0    0 -0.00000000000E+00 -0.00000000000E+00  0.00000000000E+00  0.13100000000E+03  0.13100000000E+03 0.  0.
         13    1    1    2    0    0  0.12868198872E+02  0.86763796644E+00  0.17358913306E+02  0.21626057733E+02  0.10566000000E+00 0. -1.
        994    1    1    2    0    0  0.20552976626E+02 -0.33976437512E+02  0.83193857798E+02  0.16018439727E+03  0.13100000000E+03 0.  0.
        997    1    1    2    0    0 -0.33421175498E+02  0.33108799546E+02  0.39944721773E+03  0.44918954499E+03  0.20000000000E+03 0.  0.
</event>
<event>
 5    1  0.8566659E-012  0.2505541E+03  0.7957747E-01  0.4327577E+00
         13   -1    0    0    0    0  0.00000000000E+00  0.00000000000E+00  0.49999998884E+03  0.50000000000E+03  0.10566000000E+00 0. -1.
        994   -1    0    0    0    0 -0.00000000000E+00 -0.00000000000E+00  0.00000000000E+00  0.13100000000E+03  0.13100000000E+03 0.  0.
         13    1    1    2    0    0  0.18330516832E+02  0.11269416922E+02 -0.67767798394E+01  0.22559776464E+02  0.10566000000E+00 0.  1.
        994    1    1    2    0    0 -0.25330261760E+02  0.14764124145E+02  0.18391715527E+03  0.22769743416E+03  0.13100000000E+03 0.  0.
        997    1    1    2    0    0  0.69997449278E+01 -0.26033541067E+02  0.32285961341E+03  0.38074278937E+03  0.20000000000E+03 0.  0.
</event>
<event>
 5    1  0.8566659E-012  0.2318670E+03  0.7957747E-01  0.4546801E+00
         13   -1    0    0    0    0  0.00000000000E+00  0.00000000000E+00  0.49999998884E+03  0.50000000000E+03  0.10566000000E+00 0.  1.
        994   -1    0    0    0    0 -0.00000000000E+00 -0.00000000000E+00  0.00000000000E+00  0.13100000000E+03  0.13100000000E+03 0.  0.
         13    1    1    2    0    0  0.78982479655E+01 -0.81208738259E+01  0.41718948823E+01  0.12072563256E+02  0.10566000000E+00 0. -1.
        994    1    1    2    0    0 -0.23842693513E+02  0.72279613177E+01  0.75668731340E+02  0.15332147391E+03  0.13100000000E+03 0.  0.
        997    1    1    2    0    0  0.15944445548E+02  0.89291250817E+00  0.42015936261E+03  0.46560596284E+03  0.20000000000E+03 0.  0.
</event>
<event>
 5    1  0.8566659E-012  0.2356416E+03  0.7957747E-01  0.4499177E+00
         13   -1    0    0    0    0  0.00000000000E+00  0.00000000000E+00  0.49999998884E+03  0.50000000000E+03  0.10566000000E+00 0.  1.
        994   -1    0    0    0    0 -0.00000000000E+00 -0.00000000000E+00  0.00000000000E+00  0.13100000000E+03  0.13100000000E+03 0.  0.
         13    1    1    2    0    0  0.26565228652E+02 -0.10491628323E+02  0.38634292906E+02  0.48045867570E+02  0.10566000000E+00 0. -1.
        994    1    1    2    0    0 -0.37021839603E+02  0.49001201557E+02  0.13366514221E+03  0.19697488318E+03  0.13100000000E+03 0.  0.
        997    1    1    2    0    0  0.10456610951E+02 -0.38509573234E+02  0.32770055372E+03  0.38597924925E+03  0.20000000000E+03 0.  0.
</event>
<event>
 5    1  0.8566659E-012  0.2386281E+03  0.7957747E-01  0.4462771E+00
         13   -1    0    0    0    0  0.00000000000E+00  0.00000000000E+00  0.49999998884E+03  0.50000000000E+03  0.10566000000E+00 0. -1.
        994   -1    0    0    0    0 -0.00000000000E+00 -0.00000000000E+00  0.00000000000E+00  0.13100000000E+03  0.13100000000E+03 0.  0.
         13    1    1    2    0    0 -0.44632608779E+01 -0.21287413076E+02  0.10179458689E+02  0.24014728738E+02  0.10566000000E+00 0.  1.
        994    1    1    2    0    0  0.15235732923E+02  0.29618753495E+02  0.98312663360E+02  0.16713999489E+03  0.13100000000E+03 0.  0.
        997    1    1    2    0    0 -0.10772472045E+02 -0.83313404191E+01  0.39150786679E+03  0.43984527637E+03  0.20000000000E+03 0.  0.
</event>
<event>
 5    1  0.8566659E-012  0.2466570E+03  0.7957747E-01  0.4370065E+00
         13   -1    0    0    0    0  0.00000000000E+00  0.00000000000E+00  0.49999998884E+03  0.50000000000E+03  0.10566000000E+00 0. -1.
        994   -1    0    0    0    0 -0.00000000000E+00 -0.00000000000E+00  0.00000000000E+00  0.13100000000E+03  0.13100000000E+03 0.  0.
         13    1    1    2    0    0 -0.21846459402E+02  0.18280310231E+02  0.99035314155E+01  0.30158392349E+02  0.10566000000E+00 0.  1.
        994    1    1    2    0    0 -0.10424552973E+02 -0.29097412821E+02  0.12777126758E+03  0.18558509519E+03  0.13100000000E+03 0.  0.
        997    1    1    2    0    0  0.32271012375E+02  0.10817102590E+02  0.36232518984E+03  0.41525651246E+03  0.20000000000E+03 0.  0.
</event>
<event>
 5    1  0.8566659E-012  0.2366905E+03  0.7957747E-01  0.4486267E+00
         13   -1    0    0    0    0  0.00000000000E+00  0.00000000000E+00  0.49999998884E+03  0.50000000000E+03  0.10566000000E+00 0.  1.
        994   -1    0    0    0    0 -0.00000000000E+00 -0.00000000000E+00  0.00000000000E+00  0.13100000000E+03  0.13100000000E+03 0.  0.
         13    1    1    2    0    0 -0.10043713002E+02 -0.40948128731E+01 -0.19030944424E+01  0.11012565360E+02  0.10566000000E+00 0. -1.
        994    1    1    2    0    0  0.29373258772E+02 -0.36192979753E+02  0.10835608147E+03  0.17628034634E+03  0.13100000000E+03 0.  0.
        997    1    1    2    0    0 -0.19329545770E+02  0.40287792626E+02  0.39354700181E+03  0.44370708830E+03  0.20000000000E+03 0.  0.
</event>
<event>
 5    1  0.8566659E-012  0.2474148E+03  0.7957747E-01  0.4361680E+00
         13   -1    0    0    0    0  0.00000000000E+00  0.00000000000E+00  0.49999998884E+03  0.50000000000E+03  0.10566000000E+00 0.  1.
        994   -1    0    0    0    0 -0.00000000000E+00 -0.00000000000E+00  0.00000000000E+00  0.13100000000E+03  0.13100000000E+03 0.  0.
         13    1    1    2    0    0  0.38406486546E+02  0.17028835074E+00  0.22727938769E+02  0.44627990898E+02  0.10566000000E+00 0. -1.
        994    1    1    2    0    0 -0.21214580385E+02 -0.34055891378E+02  0.19772695483E+03  0.24055521367E+03  0.13100000000E+03 0.  0.
        997    1    1    2    0    0 -0.17191906161E+02  0.33885603027E+02  0.27954509524E+03  0.34581679543E+03  0.20000000000E+03 0.  0.
</event>
<event>
 5    1  0.8566659E-012  0.2367785E+03  0.7957747E-01  0.4485189E+00
         13   -1    0    0    0    0  0.00000000000E+00  0.00000000000E+00  0.49999998884E+03  0.50000000000E+03  0.10566000000E+00 0.  1.
        994   -1    0    0    0    0 -0.00000000000E+00 -0.00000000000E+00  0.00000000000E+00  0.13100000000E+03  0.13100000000E+03 0.  0.
         13    1    1    2    0    0  0.17515363772E+02 -0.15242489830E+02  0.12301863694E+02  0.26276766899E+02  0.10566000000E+00 0. -1.
        994    1    1    2    0    0 -0.64416427753E+02 -0.25097639405E+02  0.19594644484E+03  0.24563260556E+03  0.13100000000E+03 0.  0.
        997    1    1    2    0    0  0.46901063981E+02  0.40340129235E+02  0.29175168031E+03  0.35909062755E+03  0.20000000000E+03 0.  0.
</event>
<event>
 5    1  0.8566659E-012  0.2472057E+03  0.7957747E-01  0.4363988E+00
         13   -1    0    0    0    0  0.00000000000E+00  0.00000000000E+00  0.49999998884E+03  0.50000000000E+03  0.10566000000E+00 0. -1.
        994   -1    0    0    0    0 -0.00000000000E+00 -0.00000000000E+00  0.00000000000E+00  0.13100000000E+03  0.13100000000E+03 0.  0.
         13    1    1    2    0    0 -0.76223491006E+01  0.93180812067E+01 -0.95990351520E+01  0.15397385592E+02  0.10566000000E+00 0.  1.
        994    1    1    2    0    0  0.99797540871E+00 -0.37791804052E+02  0.14717518709E+03  0.20062590088E+03  0.13100000000E+03 0.  0.
        997    1    1    2    0    0  0.66243736919E+01  0.28473722845E+02  0.36242383690E+03  0.41497671353E+03  0.20000000000E+03 0.  0.
</event>
<event>
 5    1  0.8566659E-012  0.2384748E+03  0.7957747E-01  0.4464615E+00
         13   -1    0    0    0    0  0.00000000000E+00  0.00000000000E+00  0.49999998884E+03  0.50000000000E+03  0.10566000000E+00 0. -1.
        994   -1    0    0    0    0 -0.00000000000E+00 -0.00000000000E+00  0.00000000000E+00  0.13100000000E+03  0.13100000000E+03 0.  0.
         13    1    1    2    0    0  0.17846998533E+02 -0.85126010734E+00  0.79393497317E+01  0.19552095505E+02  0.10566000000E+00 0.  1.
        994    1    1    2    0    0  0.18713408390E+02 -0.10385083262E+02  0.88823021140E+02  0.15971402785E+03  0.13100000000E+03 0.  0.
        997    1    1    2    0    0 -0.36560406923E+02  0.11236343370E+02  0.40323761796E+03  0.45173387664E+03  0.20000000000E+03 0.  0.
</event>
<event>
 5    1  0.8566659E-012  0.2412515E+03  0.7957747E-01  0.4431677E+00
         13   -1    0    0    0    0  0.00000000000E+00  0.00000000000E+00  0.49999998884E+03  0.50000000000E+03  0.10566000000E+00 0.  1.
        994   -1    0    0    0    0 -0.00000000000E+00 -0.00000000000E+00  0.00000000000E+00  0.13100000000E+03  0.13100000000E+03 0.  0.
         13    1    1    2    0    0 -0.89860013782E+01  0.18378530201E+02  0.76201631682E+01  0.21831093511E+02  0.10566000000E+00 0. -1.
        994    1    1    2    0    0  0.57193922444E+01  0.14377656899E+02  0.93317146143E+02  0.16158130532E+03  0.13100000000E+03 0.  0.
        997    1    1    2    0    0  0.32666091338E+01 -0.32756187100E+02  0.39906267952E+03  0.44758760117E+03  0.20000000000E+03 0.  0.
</event>
<event>
 5    1  0.8566659E-012  0.2450514E+03  0.7957747E-01  0.4388031E+00
         13   -1    0    0    0    0  0.00000000000E+00  0.00000000000E+00  0.49999998884E+03  0.50000000000E+03  0.10566000000E+00 0. -1.
        994   -1    0    0    0    0 -0.00000000000E+00 -0.00000000000E+00  0.00000000000E+00  0.13100000000E+03  0.13100000000E+03 0.  0.
         13    1    1    2    0    0 -0.22040018935E+02 -0.33504619991E+02  0.57262864547E+02  0.69909719036E+02  0.10566000000E+00 0.  1.
        994    1    1    2    0    0  0.26726229391E+02  0.95627551513E+01  0.11620008497E+03  0.17739559569E+03  0.13100000000E+03 0.  0.
        997    1    1    2    0    0 -0.46862104560E+01  0.23941864840E+02  0.32653703932E+03  0.38369468527E+03  0.20000000000E+03 0.  0.
</event>
<event>
 5    1  0.8566659E-012  0.2373956E+03  0.7957747E-01  0.4477664E+00
         13   -1    0    0    0    0  0.00000000000E+00  0.00000000000E+00  0.49999998884E+03  0.50000000000E+03  0.10566000000E+00 0.  1.
        994   -1    0    0    0    0 -0.00000000000E+00 -0.00000000000E+00  0.00000000000E+00  0.13100000000E+03  0.13100000000E+03 0.  0.
         13    1    1    2    0    0 -0.18082502404E+02  0.65000283818E+01  0.45569420395E+01  0.19748522652E+02  0.10566000000E+00 0. -1.
        994    1    1    2    0    0  0.58645704665E+02  0.10234050165E+02  0.13831861299E+03  0.19959231738E+03  0.13100000000E+03 0.  0.
        997    1    1    2    0    0 -0.40563202260E+02 -0.16734078547E+02  0.35712443380E+03  0.41165915996E+03  0.20000000000E+03 0.  0.
</event>
<event>
 5    1  0.8566659E-012  0.2387570E+03  0.7957747E-01  0.4461225E+00
         13   -1    0    0    0    0  0.00000000000E+00  0.00000000000E+00  0.49999998884E+03  0.50000000000E+03  0.10566000000E+00 0. -1.
        994   -1    0    0    0    0 -0.00000000000E+00 -0.00000000000E+00  0.00000000000E+00  0.13100000000E+03  0.13100000000E+03 0.  0.
         13    1    1    2    0    0  0.55392129126E+01  0.14583831208E+02  0.19875136992E+01  0.15726804734E+02  0.10566000000E+00 0.  1.
        994    1    1    2    0    0 -0.15047850499E+02 -0.86663885223E+01  0.87481720412E+02  0.15847900650E+03  0.13100000000E+03 0.  0.
        997    1    1    2    0    0  0.95086375865E+01 -0.59174426857E+01  0.41053075472E+03  0.45679418877E+03  0.20000000000E+03 0.  0.
</event>
<event>
 5    1  0.8566659E-012  0.2347693E+03  0.7957747E-01  0.4510019E+00
         13   -1    0    0    0    0  0.00000000000E+00  0.00000000000E+00  0.49999998884E+03  0.50000000000E+03  0.10566000000E+00 0.  1.
        994   -1    0    0    0    0 -0.00000000000E+00 -0.00000000000E+00  0.00000000000E+00  0.13100000000E+03  0.13100000000E+03 0.  0.
         13    1    1    2    0    0 -0.21148378910E+02  0.84642104539E+01  0.30640658978E+02  0.38180596326E+02  0.10566000000E+00 0. -1.
        994    1    1    2    0    0  0.24213671517E+02  0.85439040415E+01  0.82366746620E+02  0.15685847485E+03  0.13100000000E+03 0.  0.
        997    1    1    2    0    0 -0.30652926067E+01 -0.17008114495E+02  0.38699258324E+03  0.43596092882E+03  0.20000000000E+03 0.  0.
</event>
<event>
 5    1  0.8566659E-012  0.2315377E+03  0.7957747E-01  0.4551045E+00
         13   -1    0    0    0    0  0.00000000000E+00  0.00000000000E+00  0.49999998884E+03  0.50000000000E+03  0.10566000000E+00 0. -1.
        994   -1    0    0    0    0 -0.00000000000E+00 -0.00000000000E+00  0.00000000000E+00  0.13100000000E+03  0.13100000000E+03 0.  0.
         13    1    1    2    0    0 -0.76845811416E+01 -0.19192605527E+02  0.28484531225E+02  0.35196428475E+02  0.10566000000E+00 0.  1.
        994    1    1    2    0    0  0.24772125473E+02  0.48028330446E+02  0.10303536308E+03  0.17520749062E+03  0.13100000000E+03 0.  0.
        997    1    1    2    0    0 -0.17087544332E+02 -0.28835724919E+02  0.36848009453E+03  0.42059608090E+03  0.20000000000E+03 0.  0.
</event>
<event>
 5    1  0.8566659E-012  0.2450337E+03  0.7957747E-01  0.4388232E+00
         13   -1    0    0    0    0  0.00000000000E+00  0.00000000000E+00  0.49999998884E+03  0.50000000000E+03  0.10566000000E+00 0. -1.
        994   -1    0    0    0    0 -0.00000000000E+00 -0.00000000000E+00  0.00000000000E+00  0.13100000000E+03  0.13100000000E+03 0.  0.
         13    1    1    2    0    0  0.21673710478E+02  0.19511989205E+01 -0.17937657031E+01  0.21835422197E+02  0.10566000000E+00 0.  1.
        994    1    1    2    0    0 -0.46305070510E+02  0.62972607329E+01  0.15725288726E+03  0.20993638465E+03  0.13100000000E+03 0.  0.
        997    1    1    2    0    0  0.24631360032E+02 -0.82484596534E+01  0.34454086728E+03  0.39922819315E+03  0.20000000000E+03 0.  0.
</event>
<event>
 5    1  0.8566659E-012  0.2280071E+03  0.7957747E-01  0.4597477E+00
         13   -1    0    0    0    0  0.00000000000E+00  0.00000000000E+00  0.49999998884E+03  0.50000000000E+03  0.10566000000E+00 0. -1.
        994   -1    0    0    0    0 -0.00000000000E+00 -0.00000000000E+00  0.00000000000E+00  0.13100000000E+03  0.13100000000E+03 0.  0.
         13    1    1    2    0    0  0.65240932253E+01  0.84383480586E+01  0.14570747224E+02  0.18057888832E+02  0.10566000000E+00 0.  1.
        994    1    1    2    0    0 -0.58757510773E+02  0.28132584218E+02  0.11086076700E+03  0.18356197054E+03  0.13100000000E+03 0.  0.
        997    1    1    2    0    0  0.52233417548E+02 -0.36570932277E+02  0.37456847461E+03  0.42938014063E+03  0.20000000000E+03 0.  0.
</event>
<event>
 5    1  0.8566659E-012  0.2359265E+03  0.7957747E-01  0.4495657E+00
         13   -1    0    0    0    0  0.00000000000E+00  0.00000000000E+00  0.49999998884E+03  0.50000000000E+03  0.10566000000E+00 0. -1.
        994   -1    0    0    0    0 -0.00000000000E+00 -0.00000000000E+00  0.00000000000E+00  0.13100000000E+03  0.13100000000E+03 0.  0.
         13    1    1    2    0    0  0.13032782022E+02  0.15678383484E+02  0.29584405399E+02  0.35929282247E+02  0.10566000000E+00 0.  1.
        994    1    1    2    0    0  0.40600421826E+02  0.38064573688E+01  0.98310601931E+02  0.16878642665E+03  0.13100000000E+03 0.  0.
        997    1    1    2    0    0 -0.53633203848E+02 -0.19484840853E+02  0.37210498151E+03  0.42628429110E+03  0.20000000000E+03 0.  0.
</event>
<event>
 5    1  0.8566659E-012  0.2408339E+03  0.7957747E-01  0.4436573E+00
         13   -1    0    0    0    0  0.00000000000E+00  0.00000000000E+00  0.49999998884E+03  0.50000000000E+03  0.10566000000E+00 0.  1.
        994   -1    0    0    0    0 -0.00000000000E+00 -0.00000000000E+00  0.00000000000E+00  0.13100000000E+03  0.13100000000E+03 0.  0.
         13    1    1    2    0    0 -0.16213762801E+02  0.20370299664E+02  0.77274637511E+02  0.81542724869E+02  0.10566000000E+00 0. -1.
        994    1    1    2    0    0 -0.28037906251E+02 -0.92514392838E+01  0.10155203600E+03  0.16836130592E+03  0.13100000000E+03 0.  0.
        997    1    1    2    0    0  0.44251669053E+02 -0.11118860380E+02  0.32117331533E+03  0.38109596921E+03  0.20000000000E+03 0.  0.
</event>
<event>
 5    1  0.8566659E-012  0.2435254E+03  0.7957747E-01  0.4405366E+00
         13   -1    0    0    0    0  0.00000000000E+00  0.00000000000E+00  0.49999998884E+03  0.50000000000E+03  0.10566000000E+00 0.  1.
        994   -1    0    0    0    0 -0.00000000000E+00 -0.00000000000E+00  0.00000000000E+00  0.13100000000E+03  0.13100000000E+03 0.  0.
         13    1    1    2    0    0 -0.36137959913E+00  0.13997826158E+02 -0.68606971263E+01  0.15593269749E+02  0.10566000000E+00 0. -1.
        994    1    1    2    0    0  0.50260947525E+02 -0.17155520992E+02  0.17846108548E+03  0.22766166515E+03  0.13100000000E+03 0.  0.
        997    1    1    2    0    0 -0.49899567926E+02  0.31576948336E+01  0.32839960048E+03  0.38774506510E+03  0.20000000000E+03 0.  0.
</event>
<event>
 5    1  0.8566659E-012  0.2522469E+03  0.7957747E-01  0.4309598E+00
         13   -1    0    0    0    0  0.00000000000E+00  0.00000000000E+00  0.49999998884E+03  0.50000000000E+03  0.10566000000E+00 0. -1.
        994   -1    0    0    0    0 -0.00000000000E+00 -0.00000000000E+00  0.00000000000E+00  0.13100000000E+03  0.13100000000E+03 0.  0.
         13    1    1    2    0    0 -0.44693754660E+01  0.19070184725E+02 -0.77155062028E+01  0.21052018015E+02  0.10566000000E+00 0.  1.
        994    1    1    2    0    0 -0.16263939201E+02 -0.76328660414E+01  0.15456275001E+03  0.20340457235E+03  0.13100000000E+03 0.  0.
        997    1    1    2    0    0  0.20733314667E+02 -0.11437318684E+02  0.35315274503E+03  0.40654340964E+03  0.20000000000E+03 0.  0.
</event>
<event>
 5    1  0.8566659E-012  0.2430923E+03  0.7957747E-01  0.4410332E+00
         13   -1    0    0    0    0  0.00000000000E+00  0.00000000000E+00  0.49999998884E+03  0.50000000000E+03  0.10566000000E+00 0. -1.
        994   -1    0    0    0    0 -0.00000000000E+00 -0.00000000000E+00  0.00000000000E+00  0.13100000000E+03  0.13100000000E+03 0.  0.
         13    1    1    2    0    0 -0.30461922239E+02  0.17671375628E+02  0.64908348929E+02  0.73846537818E+02  0.10566000000E+00 0.  1.
        994    1    1    2    0    0  0.11215767147E+01 -0.16038218581E+02  0.99129372290E+02  0.16506397196E+03  0.13100000000E+03 0.  0.
        997    1    1    2    0    0  0.29340345524E+02 -0.16331570465E+01  0.33596226762E+03  0.39208949022E+03  0.20000000000E+03 0.  0.
</event>
<event>
 5    1  0.8566659E-012  0.2339672E+03  0.7957747E-01  0.4520076E+00
         13   -1    0    0    0    0  0.00000000000E+00  0.00000000000E+00  0.49999998884E+03  0.50000000000E+03  0.10566000000E+00 0.  1.
        994   -1    0    0    0    0 -0.00000000000E+00 -0.00000000000E+00  0.00000000000E+00  0.13100000000E+03  0.13100000000E+03 0.  0.
         13    1    1    2    0    0 -0.11832006350E+02  0.14383659473E+02  0.21967098204E+02  0.28800184056E+02  0.10566000000E+00 0. -1.
        994    1    1    2    0    0  0.21482573778E+02  0.24151258521E+02  0.85138729911E+02  0.15954431232E+03  0.13100000000E+03 0.  0.
        997    1    1    2    0    0 -0.96505674281E+01 -0.38534917993E+02  0.39289416072E+03  0.44265550362E+03  0.20000000000E+03 0.  0.
</event>
<event>
 5    1  0.8566659E-012  0.2309159E+03  0.7957747E-01  0.4559098E+00
         13   -1    0    0    0    0  0.00000000000E+00  0.00000000000E+00  0.49999998884E+03  0.50000000000E+03  0.10566000000E+00 0. -1.
        994   -1    0    0    0    0 -0.00000000000E+00 -0.00000000000E+00  0.00000000000E+00  0.13100000000E+03  0.13100000000E+03 0.  0.
         13    1    1    2    0    0 -0.12667780665E+02 -0.64317413857E+01  0.17884570905E+02  0.22840950171E+02  0.10566000000E+00 0.  1.
        994    1    1    2    0    0 -0.45313331032E+01 -0.24707793771E+01  0.67587514380E+02  0.14749816891E+03  0.13100000000E+03 0.  0.
        997    1    1    2    0    0  0.17199113768E+02  0.89025207627E+01  0.41452790355E+03  0.46066088092E+03  0.20000000000E+03 0.  0.
</event>
<event>
 5    1  0.8566659E-012  0.2307510E+03  0.7957747E-01  0.4561242E+00
         13   -1    0    0    0    0  0.00000000000E+00  0.00000000000E+00  0.49999998884E+03  0.50000000000E+03  0.10566000000E+00 0.  1.
        994   -1    0    0    0    0 -0.00000000000E+00 -0.00000000000E+00  0.00000000000E+00  0.13100000000E+03  0.13100000000E+03 0.  0.
         13    1    1    2    0    0  0.14301207478E+02  0.90545359866E+01  0.36910600457E+02  0.40606806663E+02  0.10566000000E+00 0. -1.
        994    1    1    2    0    0 -0.23788208158E+02 -0.37846114097E+01  0.73003868658E+02  0.15189064148E+03  0.13100000000E+03 0.  0.
        997    1    1    2    0    0  0.94870006804E+01 -0.52699245769E+01  0.39008551972E+03  0.43850255185E+03  0.20000000000E+03 0.  0.
</event>
<event>
 5    1  0.8566659E-012  0.2324000E+03  0.7957747E-01  0.4539964E+00
         13   -1    0    0    0    0  0.00000000000E+00  0.00000000000E+00  0.49999998884E+03  0.50000000000E+03  0.10566000000E+00 0. -1.
        994   -1    0    0    0    0 -0.00000000000E+00 -0.00000000000E+00  0.00000000000E+00  0.13100000000E+03  0.13100000000E+03 0.  0.
         13    1    1    2    0    0  0.14825054789E+02  0.53395397059E+01  0.28277676442E+02  0.32371763665E+02  0.10566000000E+00 0.  1.
        994    1    1    2    0    0  0.22662399340E+02  0.23853386860E+02  0.81992939095E+02  0.15800762789E+03  0.13100000000E+03 0.  0.
        997    1    1    2    0    0 -0.37487454129E+02 -0.29192926566E+02  0.38972937330E+03  0.44062060845E+03  0.20000000000E+03 0.  0.
</event>
<event>
 5    1  0.8566659E-012  0.2408089E+03  0.7957747E-01  0.4436867E+00
         13   -1    0    0    0    0  0.00000000000E+00  0.00000000000E+00  0.49999998884E+03  0.50000000000E+03  0.10566000000E+00 0. -1.
        994   -1    0    0    0    0 -0.00000000000E+00 -0.00000000000E+00  0.00000000000E+00  0.13100000000E+03  0.13100000000E+03 0.  0.
         13    1    1    2    0    0 -0.12834486892E+02 -0.12642910411E+02  0.28359449233E+01  0.18237899689E+02  0.10566000000E+00 0.  1.
        994    1    1    2    0    0  0.17592835330E+02 -0.91065569582E+00  0.93082385592E+02  0.16166529515E+03  0.13100000000E+03 0.  0.
        997    1    1    2    0    0 -0.47583484384E+01  0.13553566107E+02  0.40408165832E+03  0.45109680516E+03  0.20000000000E+03 0.  0.
</event>
<event>
 5    1  0.8566659E-012  0.2384382E+03  0.7957747E-01  0.4465054E+00
         13   -1    0    0    0    0  0.00000000000E+00  0.00000000000E+00  0.49999998884E+03  0.50000000000E+03  0.10566000000E+00 0. -1.
        994   -1    0    0    0    0 -0.00000000000E+00 -0.00000000000E+00  0.00000000000E+00  0.13100000000E+03  0.13100000000E+03 0.  0.
         13    1    1    2    0    0  0.16593958948E+02 -0.16404920274E+02  0.80616288734E+01  0.24687687354E+02  0.10566000000E+00 0.  1.
        994    1    1    2    0    0  0.68987501490E+01 -0.13111920475E+02  0.29492621985E+03  0.32305106464E+03  0.13100000000E+03 0.  0.
        997    1    1    2    0    0 -0.23492709097E+02  0.29516840749E+02  0.19701214011E+03  0.28326124800E+03  0.20000000000E+03 0.  0.
</event>
<event>
 5    1  0.8566659E-012  0.2350710E+03  0.7957747E-01  0.4506259E+00
         13   -1    0    0    0    0  0.00000000000E+00  0.00000000000E+00  0.49999998884E+03  0.50000000000E+03  0.10566000000E+00 0.  1.
        994   -1    0    0    0    0 -0.00000000000E+00 -0.00000000000E+00  0.00000000000E+00  0.13100000000E+03  0.13100000000E+03 0.  0.
         13    1    1    2    0    0 -0.12604291496E+02  0.20372088790E+02  0.21952902784E+02  0.32493557368E+02  0.10566000000E+00 0. -1.
        994    1    1    2    0    0  0.41692522750E+02 -0.30799312984E+02  0.11096284614E+03  0.17933381543E+03  0.13100000000E+03 0.  0.
        997    1    1    2    0    0 -0.29088231254E+02  0.10427224194E+02  0.36708423992E+03  0.41917262720E+03  0.20000000000E+03 0.  0.
</event>
<event>
 5    1  0.8566659E-012  0.2292502E+03  0.7957747E-01  0.4580930E+00
         13   -1    0    0    0    0  0.00000000000E+00  0.00000000000E+00  0.49999998884E+03  0.50000000000E+03  0.10566000000E+00 0.  1.
        994   -1    0    0    0    0 -0.00000000000E+00 -0.00000000000E+00  0.00000000000E+00  0.13100000000E+03  0.13100000000E+03 0.  0.
         13    1    1    2    0    0  0.81155435559E+01  0.11737865125E+02  0.31268181600E+02  0.34370770569E+02  0.10566000000E+00 0. -1.
        994    1    1    2    0    0 -0.56653852958E+02  0.62188006513E+00  0.10034533632E+03  0.17447129366E+03  0.13100000000E+03 0.  0.
        997    1    1    2    0    0  0.48538309402E+02 -0.12359745190E+02  0.36838647092E+03  0.42215793577E+03  0.20000000000E+03 0.  0.
</event>
<event>
 5    1  0.8566659E-012  0.2282898E+03  0.7957747E-01  0.4593695E+00
         13   -1    0    0    0    0  0.00000000000E+00  0.00000000000E+00  0.49999998884E+03  0.50000000000E+03  0.10566000000E+00 0. -1.
        994   -1    0    0    0    0 -0.00000000000E+00 -0.00000000000E+00  0.00000000000E+00  0.13100000000E+03  0.13100000000E+03 0.  0.
         13    1    1    2    0    0  0.11409802008E+02  0.62520013330E+01  0.15143912999E+02  0.19965479396E+02  0.10566000000E+00 0.  1.
        994    1    1    2    0    0 -0.33761603541E+02 -0.46960722217E+02  0.99441223469E+02  0.17434079336E+03  0.13100000000E+03 0.  0.
        997    1    1    2    0    0  0.22351801533E+02  0.40708720884E+02  0.38541485237E+03  0.43669372724E+03  0.20000000000E+03 0.  0.
</event>
<event>
 5    1  0.8566659E-012  0.2291060E+03  0.7957747E-01  0.4582839E+00
         13   -1    0    0    0    0  0.00000000000E+00  0.00000000000E+00  0.49999998884E+03  0.50000000000E+03  0.10566000000E+00 0.  1.
        994   -1    0    0    0    0 -0.00000000000E+00 -0.00000000000E+00  0.00000000000E+00  0.13100000000E+03  0.13100000000E+03 0.  0.
         13    1    1    2    0    0  0.12131962883E+02  0.71349498475E+01  0.31632497721E+02  0.34622508702E+02  0.10566000000E+00 0. -1.
        994    1    1    2    0    0 -0.68844382748E+01 -0.48718340118E+02  0.90067660244E+02  0.16641531052E+03  0.13100000000E+03 0.  0.
        997    1    1    2    0    0 -0.52475246083E+01  0.41583390270E+02  0.37829983087E+03  0.42996218078E+03  0.20000000000E+03 0.  0.
</event>
<event>
 5    1  0.8566659E-012  0.2328929E+03  0.7957747E-01  0.4533674E+00
         13   -1    0    0    0    0  0.00000000000E+00  0.00000000000E+00  0.49999998884E+03  0.50000000000E+03  0.10566000000E+00 0.  1.
        994   -1    0    0    0    0 -0.00000000000E+00 -0.00000000000E+00  0.00000000000E+00  0.13100000000E+03  0.13100000000E+03 0.  0.
         13    1    1    2    0    0 -0.10829767188E+02 -0.16796219202E+02  0.32381677106E+02  0.38052345697E+02  0.10566000000E+00 0. -1.
        994    1    1    2    0    0  0.75467293180E+02 -0.14931906397E+02  0.18820067057E+03  0.24186518264E+03  0.13100000000E+03 0.  0.
        997    1    1    2    0    0 -0.64637525992E+02  0.31728125599E+02  0.27941764116E+03  0.35108247167E+03  0.20000000000E+03 0.  0.
</event>
<event>
 5    1  0.8566659E-012  0.2408366E+03  0.7957747E-01  0.4436542E+00
         13   -1    0    0    0    0  0.00000000000E+00  0.00000000000E+00  0.49999998884E+03  0.50000000000E+03  0.10566000000E+00 0. -1.
        994   -1    0    0    0    0 -0.00000000000E+00 -0.00000000000E+00  0.00000000000E+00  0.13100000000E+03  0.13100000000E+03 0.  0.
         13    1    1    2    0    0 -0.25204236761E+02 -0.19394723192E+01  0.23736539099E+02  0.34676354422E+02  0.10566000000E+00 0.  1.
        994    1    1    2    0    0 -0.23080273422E+02 -0.19286731354E+02  0.10207954878E+03  0.16877769790E+03  0.13100000000E+03 0.  0.
        997    1    1    2    0    0  0.48284510183E+02  0.21226203673E+02  0.37418390095E+03  0.42754594768E+03  0.20000000000E+03 0.  0.
</event>
<event>
 5    1  0.8566659E-012  0.2517114E+03  0.7957747E-01  0.4315255E+00
         13   -1    0    0    0    0  0.00000000000E+00  0.00000000000E+00  0.49999998884E+03  0.50000000000E+03  0.10566000000E+00 0. -1.
        994   -1    0    0    0    0 -0.00000000000E+00 -0.00000000000E+00  0.00000000000E+00  0.13100000000E+03  0.13100000000E+03 0.  0.
         13    1    1    2    0    0  0.50378567438E+01  0.14415362790E+02 -0.11112929790E+02  0.18886266372E+02  0.10566000000E+00 0.  1.
        994    1    1    2    0    0 -0.13501308307E+02  0.19159020489E+02  0.18249940184E+03  0.22586807004E+03  0.13100000000E+03 0.  0.
        997    1    1    2    0    0  0.84634515631E+01 -0.33574383278E+02  0.32861351679E+03  0.38624566359E+03  0.20000000000E+03 0.  0.
</event>
<event>
 5    1  0.8566659E-012  0.2359139E+03  0.7957747E-01  0.4495812E+00
         13   -1    0    0    0    0  0.00000000000E+00  0.00000000000E+00  0.49999998884E+03  0.50000000000E+03  0.10566000000E+00 0.  1.
        994   -1    0    0    0    0 -0.00000000000E+00 -0.00000000000E+00  0.00000000000E+00  0.13100000000E+03  0.13100000000E+03 0.  0.
         13    1    1    2    0    0 -0.15777060048E+02 -0.89660119823E+01  0.73963366118E+01  0.19596478101E+02  0.10566000000E+00 0. -1.
        994    1    1    2    0    0  0.22478300722E+02  0.40730689533E+02  0.10562872908E+03  0.17459293078E+03  0.13100000000E+03 0.  0.
        997    1    1    2    0    0 -0.67012406737E+01 -0.31764677550E+02  0.38697492315E+03  0.43681059112E+03  0.20000000000E+03 0.  0.
</event>
<event>
 5    1  0.8566659E-012  0.2351426E+03  0.7957747E-01  0.4505367E+00
         13   -1    0    0    0    0  0.00000000000E+00  0.00000000000E+00  0.49999998884E+03  0.50000000000E+03  0.10566000000E+00 0. -1.
        994   -1    0    0    0    0 -0.00000000000E+00 -0.00000000000E+00  0.00000000000E+00  0.13100000000E+03  0.13100000000E+03 0.  0.
         13    1    1    2    0    0 -0.16901118260E+02  0.17978165787E+02  0.28264698786E+02  0.37520215951E+02  0.10566000000E+00 0.  1.
        994    1    1    2    0    0  0.45810638036E+02 -0.99188699656E+01  0.10365949736E+03  0.17350299689E+03  0.13100000000E+03 0.  0.
        997    1    1    2    0    0 -0.28909519776E+02 -0.80592958212E+01  0.36807579269E+03  0.41997678716E+03  0.20000000000E+03 0.  0.
</event>
<event>
 5    1  0.8566659E-012  0.2429908E+03  0.7957747E-01  0.4411499E+00
         13   -1    0    0    0    0  0.00000000000E+00  0.00000000000E+00  0.49999998884E+03  0.50000000000E+03  0.10566000000E+00 0. -1.
        994   -1    0    0    0    0 -0.00000000000E+00 -0.00000000000E+00  0.00000000000E+00  0.13100000000E+03  0.13100000000E+03 0.  0.
         13    1    1    2    0    0 -0.37944416722E+02 -0.27451573930E+01  0.61697153492E+02  0.72483546840E+02  0.10566000000E+00 0.  1.
        994    1    1    2    0    0  0.35132012466E+02 -0.36992359051E+02  0.15243231458E+03  0.20736273401E+03  0.13100000000E+03 0.  0.
        997    1    1    2    0    0  0.28124042552E+01  0.39737516444E+02  0.28587052076E+03  0.35115371915E+03  0.20000000000E+03 0.  0.
</event>
<event>
 5    1  0.1144812E-011  0.2384590E+03  0.7957747E-01  0.4464804E+00
         13   -1    0    0    0    0  0.00000000000E+00  0.00000000000E+00  0.49999998884E+03  0.50000000000E+03  0.10566000000E+00 0.  1.
        994   -1    0    0    0    0 -0.00000000000E+00 -0.00000000000E+00  0.00000000000E+00  0.13100000000E+03  0.13100000000E+03 0.  0.
         13    1    1    2    0    0  0.11312791642E+02  0.83648157370E+00 -0.29464687321E+01  0.11720571580E+02  0.10566000000E+00 0. -1.
        994    1    1    2    0    0 -0.31142962251E+02  0.10485820118E+02  0.97381124062E+02  0.16650501447E+03  0.13100000000E+03 0.  0.
        997    1    1    2    0    0  0.19830170609E+02 -0.11322301691E+02  0.40556533351E+03  0.45277441395E+03  0.20000000000E+03 0.  0.
</event>
<event>
 5    1  0.8566659E-012  0.2396944E+03  0.7957747E-01  0.4450036E+00
         13   -1    0    0    0    0  0.00000000000E+00  0.00000000000E+00  0.49999998884E+03  0.50000000000E+03  0.10566000000E+00 0. -1.
        994   -1    0    0    0    0 -0.00000000000E+00 -0.00000000000E+00  0.00000000000E+00  0.13100000000E+03  0.13100000000E+03 0.  0.
         13    1    1    2    0    0  0.14416739560E+02  0.26967698669E+02  0.56819799974E+02  0.64525963643E+02  0.10566000000E+00 0.  1.
        994    1    1    2    0    0 -0.20563699417E+02 -0.19394912679E+01  0.91631125703E+02  0.16119519397E+03  0.13100000000E+03 0.  0.
        997    1    1    2    0    0  0.61469598571E+01 -0.25028207401E+02  0.35154906316E+03  0.40527884239E+03  0.20000000000E+03 0.  0.
</event>
<event>
 5    1  0.8566659E-012  0.2278810E+03  0.7957747E-01  0.4599167E+00
         13   -1    0    0    0    0  0.00000000000E+00  0.00000000000E+00  0.49999998884E+03  0.50000000000E+03  0.10566000000E+00 0. -1.
        994   -1    0    0    0    0 -0.00000000000E+00 -0.00000000000E+00  0.00000000000E+00  0.13100000000E+03  0.13100000000E+03 0.  0.
         13    1    1    2    0    0  0.83131822876E+01 -0.58151144744E+01  0.16131929697E+02  0.19057147632E+02  0.10566000000E+00 0.  1.
        994    1    1    2    0    0 -0.42909605409E+01 -0.90204492045E+01  0.62972480371E+02  0.14569253286E+03  0.13100000000E+03 0.  0.
        997    1    1    2    0    0 -0.40222217468E+01  0.14835563679E+02  0.42089557877E+03  0.46625031951E+03  0.20000000000E+03 0.  0.
</event>
<event>
 5    1  0.8566659E-012  0.2395129E+03  0.7957747E-01  0.4452194E+00
         13   -1    0    0    0    0  0.00000000000E+00  0.00000000000E+00  0.49999998884E+03  0.50000000000E+03  0.10566000000E+00 0.  1.
        994   -1    0    0    0    0 -0.00000000000E+00 -0.00000000000E+00  0.00000000000E+00  0.13100000000E+03  0.13100000000E+03 0.  0.
         13    1    1    2    0    0  0.24405171067E+02 -0.22156512892E+02  0.40720351060E+02  0.52389708845E+02  0.10566000000E+00 0. -1.
        994    1    1    2    0    0 -0.11147620996E+02  0.44790172648E+02  0.11835072192E+03  0.18247827925E+03  0.13100000000E+03 0.  0.
        997    1    1    2    0    0 -0.13257550071E+02 -0.22633659756E+02  0.34092891586E+03  0.39613201191E+03  0.20000000000E+03 0.  0.
</event>
<event>
 5    1  0.8566659E-012  0.2525628E+03  0.7957747E-01  0.4306274E+00
         13   -1    0    0    0    0  0.00000000000E+00  0.00000000000E+00  0.49999998884E+03  0.50000000000E+03  0.10566000000E+00 0.  1.
        994   -1    0    0    0    0 -0.00000000000E+00 -0.00000000000E+00  0.00000000000E+00  0.13100000000E+03  0.13100000000E+03 0.  0.
         13    1    1    2    0    0  0.18822999210E+01  0.49811012705E+02  0.62134889999E+02  0.79658243509E+02  0.10566000000E+00 0. -1.
        994    1    1    2    0    0 -0.71279920452E+01 -0.17327737160E+02  0.17578302371E+03  0.22002665786E+03  0.13100000000E+03 0.  0.
        997    1    1    2    0    0  0.52456921243E+01 -0.32483275546E+02  0.26208207513E+03  0.33131509863E+03  0.20000000000E+03 0.  0.
</event>
<event>
 5    1  0.8566659E-012  0.2434340E+03  0.7957747E-01  0.4406412E+00
         13   -1    0    0    0    0  0.00000000000E+00  0.00000000000E+00  0.49999998884E+03  0.50000000000E+03  0.10566000000E+00 0. -1.
        994   -1    0    0    0    0 -0.00000000000E+00 -0.00000000000E+00  0.00000000000E+00  0.13100000000E+03  0.13100000000E+03 0.  0.
         13    1    1    2    0    0 -0.15277803847E+02  0.13188458822E+02  0.30039167648E+01  0.20405426152E+02  0.10566000000E+00 0.  1.
        994    1    1    2    0    0  0.12284406734E+02  0.62007200630E+01  0.99123784758E+02  0.16485108517E+03  0.13100000000E+03 0.  0.
        997    1    1    2    0    0  0.29933971129E+01 -0.19389178885E+02  0.39787228731E+03  0.44574348868E+03  0.20000000000E+03 0.  0.
</event>
<event>
 5    1  0.8566659E-012  0.2434968E+03  0.7957747E-01  0.4405693E+00
         13   -1    0    0    0    0  0.00000000000E+00  0.00000000000E+00  0.49999998884E+03  0.50000000000E+03  0.10566000000E+00 0.  1.
        994   -1    0    0    0    0 -0.00000000000E+00 -0.00000000000E+00  0.00000000000E+00  0.13100000000E+03  0.13100000000E+03 0.  0.
         13    1    1    2    0    0  0.17873887439E+02  0.22944525546E+02  0.10680107643E+03  0.11069059669E+03  0.10566000000E+00 0. -1.
        994    1    1    2    0    0 -0.34721083664E+02 -0.19753382300E+02  0.12590873324E+03  0.18603698253E+03  0.13100000000E+03 0.  0.
        997    1    1    2    0    0  0.16847196224E+02 -0.31911432459E+01  0.26729017917E+03  0.33427242078E+03  0.20000000000E+03 0.  0.
</event>
<event>
 5    1  0.8566659E-012  0.2378746E+03  0.7957747E-01  0.4471855E+00
         13   -1    0    0    0    0  0.00000000000E+00  0.00000000000E+00  0.49999998884E+03  0.50000000000E+03  0.10566000000E+00 0.  1.
        994   -1    0    0    0    0 -0.00000000000E+00 -0.00000000000E+00  0.00000000000E+00  0.13100000000E+03  0.13100000000E+03 0.  0.
         13    1    1    2    0    0  0.34369992082E+01 -0.24058577753E+02  0.36715008153E+02  0.44029888880E+02  0.10566000000E+00 0. -1.
        994    1    1    2    0    0  0.22549868983E+02 -0.14254281434E+02  0.90634666305E+02  0.16151570780E+03  0.13100000000E+03 0.  0.
        997    1    1    2    0    0 -0.25986868191E+02  0.38312859187E+02  0.37265031438E+03  0.42545440332E+03  0.20000000000E+03 0.  0.
</event>
<event>
 5    1  0.8566659E-012  0.2476691E+03  0.7957747E-01  0.4358880E+00
         13   -1    0    0    0    0  0.00000000000E+00  0.00000000000E+00  0.49999998884E+03  0.50000000000E+03  0.10566000000E+00 0. -1.
        994   -1    0    0    0    0 -0.00000000000E+00 -0.00000000000E+00  0.00000000000E+00  0.13100000000E+03  0.13100000000E+03 0.  0.
         13    1    1    2    0    0  0.12837859241E+02  0.21706223598E+02  0.57547612635E+01  0.25866952159E+02  0.10566000000E+00 0.  1.
        994    1    1    2    0    0  0.65830274277E+01  0.60470438561E+01  0.11279074168E+03  0.17309723972E+03  0.13100000000E+03 0.  0.
        997    1    1    2    0    0 -0.19420886668E+02 -0.27753267454E+02  0.38145448589E+03  0.43203580812E+03  0.20000000000E+03 0.  0.
</event>
<event>
 5    1  0.8566659E-012  0.2456632E+03  0.7957747E-01  0.4381153E+00
         13   -1    0    0    0    0  0.00000000000E+00  0.00000000000E+00  0.49999998884E+03  0.50000000000E+03  0.10566000000E+00 0. -1.
        994   -1    0    0    0    0 -0.00000000000E+00 -0.00000000000E+00  0.00000000000E+00  0.13100000000E+03  0.13100000000E+03 0.  0.
         13    1    1    2    0    0 -0.31489633808E+02  0.99297607767E+01  0.29765194566E+02  0.44454191682E+02  0.10566000000E+00 0.  1.
        994    1    1    2    0    0 -0.10708322970E+01  0.29198433829E+02  0.12005869172E+03  0.18007993969E+03  0.13100000000E+03 0.  0.
        997    1    1    2    0    0  0.32560466105E+02 -0.39128194606E+02  0.35017610255E+03  0.40646586863E+03  0.20000000000E+03 0.  0.
</event>
<event>
 5    1  0.8566659E-012  0.2491498E+03  0.7957747E-01  0.4342708E+00
         13   -1    0    0    0    0  0.00000000000E+00  0.00000000000E+00  0.49999998884E+03  0.50000000000E+03  0.10566000000E+00 0. -1.
        994   -1    0    0    0    0 -0.00000000000E+00 -0.00000000000E+00  0.00000000000E+00  0.13100000000E+03  0.13100000000E+03 0.  0.
         13    1    1    2    0    0 -0.37958791211E+02 -0.93217150749E+01  0.33046608453E+02  0.51184506410E+02  0.10566000000E+00 0.  1.
        994    1    1    2    0    0 -0.14577731870E+02  0.32153878620E+02  0.18460754049E+03  0.22910112654E+03  0.13100000000E+03 0.  0.
        997    1    1    2    0    0  0.52536523081E+02 -0.22832163545E+02  0.28234583989E+03  0.35071436705E+03  0.20000000000E+03 0.  0.
</event>
<event>
 5    1  0.8566659E-012  0.2351753E+03  0.7957747E-01  0.4504961E+00
         13   -1    0    0    0    0  0.00000000000E+00  0.00000000000E+00  0.49999998884E+03  0.50000000000E+03  0.10566000000E+00 0. -1.
        994   -1    0    0    0    0 -0.00000000000E+00 -0.00000000000E+00  0.00000000000E+00  0.13100000000E+03  0.13100000000E+03 0.  0.
         13    1    1    2    0    0  0.11449119931E+02  0.86028787249E+01 -0.29860632174E+01  0.14629408981E+02  0.10566000000E+00 0.  1.
        994    1    1    2    0    0 -0.91418026740E+01 -0.61411620455E+02  0.25599299950E+03  0.29419105268E+03  0.13100000000E+03 0.  0.
        997    1    1    2    0    0 -0.23073172569E+01  0.52808741730E+02  0.24699305256E+03  0.32217953834E+03  0.20000000000E+03 0.  0.
</event>
<event>
 5    1  0.8566659E-012  0.2422752E+03  0.7957747E-01  0.4419759E+00
         13   -1    0    0    0    0  0.00000000000E+00  0.00000000000E+00  0.49999998884E+03  0.50000000000E+03  0.10566000000E+00 0. -1.
        994   -1    0    0    0    0 -0.00000000000E+00 -0.00000000000E+00  0.00000000000E+00  0.13100000000E+03  0.13100000000E+03 0.  0.
         13    1    1    2    0    0 -0.10505270913E+02  0.57393994397E+01 -0.59431616382E+01  0.13365394015E+02  0.10566000000E+00 0.  1.
        994    1    1    2    0    0  0.61204971881E+01  0.54796501750E+02  0.16551298742E+03  0.21816430986E+03  0.13100000000E+03 0.  0.
        997    1    1    2    0    0  0.43847737247E+01 -0.60535901189E+02  0.34043016305E+03  0.39947029613E+03  0.20000000000E+03 0.  0.
</event>
<event>
 5    1  0.8566659E-012  0.2459050E+03  0.7957747E-01  0.4378446E+00
         13   -1    0    0    0    0  0.00000000000E+00  0.00000000000E+00  0.49999998884E+03  0.50000000000E+03  0.10566000000E+00 0.  1.
        994   -1    0    0    0    0 -0.00000000000E+00 -0.00000000000E+00  0.00000000000E+00  0.13100000000E+03  0.13100000000E+03 0.  0.
         13    1    1    2    0    0  0.37367667469E+02 -0.64004691033E+01  0.76397087136E+02  0.85286778950E+02  0.10566000000E+00 0. -1.
        994    1    1    2    0    0 -0.25517315471E+01  0.23718527537E+02  0.11511970420E+03  0.17601882336E+03  0.13100000000E+03 0.  0.
        997    1    1    2    0    0 -0.34815935922E+02 -0.17318058434E+02  0.30848319750E+03  0.36969439769E+03  0.20000000000E+03 0.  0.
</event>
<event>
 5    1  0.8566659E-012  0.2388436E+03  0.7957747E-01  0.4460187E+00
         13   -1    0    0    0    0  0.00000000000E+00  0.00000000000E+00  0.49999998884E+03  0.50000000000E+03  0.10566000000E+00 0. -1.
        994   -1    0    0    0    0 -0.00000000000E+00 -0.00000000000E+00  0.00000000000E+00  0.13100000000E+03  0.13100000000E+03 0.  0.
         13    1    1    2    0    0  0.74386442354E+00 -0.30346955713E+02  0.69061471739E+02  0.75438644594E+02  0.10566000000E+00 0.  1.
        994    1    1    2    0    0 -0.25994874077E+01  0.25375150801E+02  0.92407336034E+02  0.16232920676E+03  0.13100000000E+03 0.  0.
        997    1    1    2    0    0  0.18556229842E+01  0.49718049114E+01  0.33853118106E+03  0.39323214865E+03  0.20000000000E+03 0.  0.
</event>
<event>
 5    1  0.1203119E-011  0.2387160E+03  0.7957747E-01  0.4461717E+00
         13   -1    0    0    0    0  0.00000000000E+00  0.00000000000E+00  0.49999998884E+03  0.50000000000E+03  0.10566000000E+00 0. -1.
        994   -1    0    0    0    0 -0.00000000000E+00 -0.00000000000E+00  0.00000000000E+00  0.13100000000E+03  0.13100000000E+03 0.  0.
         13    1    1    2    0    0  0.65078473701E+01 -0.14461469607E+02  0.12623334993E+01  0.15908828697E+02  0.10566000000E+00 0.  1.
        994    1    1    2    0    0 -0.31252657751E+02  0.17431094019E+02  0.10112979136E+03  0.16931865330E+03  0.13100000000E+03 0.  0.
        997    1    1    2    0    0  0.24744810381E+02 -0.29696244114E+01  0.39760786398E+03  0.44577251800E+03  0.20000000000E+03 0.  0.
</event>
<event>
 5    1  0.8566659E-012  0.2317063E+03  0.7957747E-01  0.4548871E+00
         13   -1    0    0    0    0  0.00000000000E+00  0.00000000000E+00  0.49999998884E+03  0.50000000000E+03  0.10566000000E+00 0.  1.
        994   -1    0    0    0    0 -0.00000000000E+00 -0.00000000000E+00  0.00000000000E+00  0.13100000000E+03  0.13100000000E+03 0.  0.
         13    1    1    2    0    0 -0.19632200977E+02  0.82827703337E+01  0.33052500825E+02  0.39325647794E+02  0.10566000000E+00 0. -1.
        994    1    1    2    0    0  0.47517444691E+02 -0.22170196315E+02  0.10116478965E+03  0.17362240587E+03  0.13100000000E+03 0.  0.
        997    1    1    2    0    0 -0.27885243715E+02  0.13887425982E+02  0.36578269836E+03  0.41805194634E+03  0.20000000000E+03 0.  0.
</event>
<event>
 5    1  0.8566659E-012  0.2374855E+03  0.7957747E-01  0.4476571E+00
         13   -1    0    0    0    0  0.00000000000E+00  0.00000000000E+00  0.49999998884E+03  0.50000000000E+03  0.10566000000E+00 0.  1.
        994   -1    0    0    0    0 -0.00000000000E+00 -0.00000000000E+00  0.00000000000E+00  0.13100000000E+03  0.13100000000E+03 0.  0.
         13    1    1    2    0    0 -0.25819537105E+02 -0.18097365710E+02  0.42072436282E+02  0.52576270319E+02  0.10566000000E+00 0. -1.
        994    1    1    2    0    0  0.42624187985E+02  0.24630834385E+02  0.11547206407E+03  0.18143400173E+03  0.13100000000E+03 0.  0.
        997    1    1    2    0    0 -0.16804650881E+02 -0.65334686757E+01  0.34245548848E+03  0.39698972795E+03  0.20000000000E+03 0.  0.
</event>
<event>
 5    1  0.8566659E-012  0.2324377E+03  0.7957747E-01  0.4539481E+00
         13   -1    0    0    0    0  0.00000000000E+00  0.00000000000E+00  0.49999998884E+03  0.50000000000E+03  0.10566000000E+00 0. -1.
        994   -1    0    0    0    0 -0.00000000000E+00 -0.00000000000E+00  0.00000000000E+00  0.13100000000E+03  0.13100000000E+03 0.  0.
         13    1    1    2    0    0  0.20401103024E+02  0.27508163978E+00  0.40337109163E+02  0.45203696908E+02  0.10566000000E+00 0.  1.
        994    1    1    2    0    0 -0.26302676622E+02 -0.12642745027E+02  0.79432552403E+02  0.15595576354E+03  0.13100000000E+03 0.  0.
        997    1    1    2    0    0  0.59015735981E+01  0.12367663387E+02  0.38023032727E+03  0.42984053955E+03  0.20000000000E+03 0.  0.
</event>
<event>
 5    1  0.8566659E-012  0.2398864E+03  0.7957747E-01  0.4447757E+00
         13   -1    0    0    0    0  0.00000000000E+00  0.00000000000E+00  0.49999998884E+03  0.50000000000E+03  0.10566000000E+00 0. -1.
        994   -1    0    0    0    0 -0.00000000000E+00 -0.00000000000E+00  0.00000000000E+00  0.13100000000E+03  0.13100000000E+03 0.  0.
         13    1    1    2    0    0  0.17700483112E+02  0.21785877532E+01  0.52537084927E+01  0.18592094125E+02  0.10566000000E+00 0.  1.
        994    1    1    2    0    0  0.14788346061E+02 -0.10864959786E+02  0.90909775985E+02  0.16050647931E+03  0.13100000000E+03 0.  0.
        997    1    1    2    0    0 -0.32488829173E+02  0.86863720331E+01  0.40383650436E+03  0.45190142657E+03  0.20000000000E+03 0.  0.
</event>
<event>
 5    1  0.8566659E-012  0.2535826E+03  0.7957747E-01  0.4295608E+00
         13   -1    0    0    0    0  0.00000000000E+00  0.00000000000E+00  0.49999998884E+03  0.50000000000E+03  0.10566000000E+00 0.  1.
        994   -1    0    0    0    0 -0.00000000000E+00 -0.00000000000E+00  0.00000000000E+00  0.13100000000E+03  0.13100000000E+03 0.  0.
         13    1    1    2    0    0  0.17859012009E+01 -0.12297235609E+02 -0.13568487476E+02  0.18399088650E+02  0.10566000000E+00 0. -1.
        994    1    1    2    0    0  0.91742952449E+01 -0.15938210192E+01  0.17222557353E+03  0.21658567851E+03  0.13100000000E+03 0.  0.
        997    1    1    2    0    0 -0.10960196446E+02  0.13891056628E+02  0.34134290278E+03  0.39601523284E+03  0.20000000000E+03 0.  0.
</event>
<event>
 5    1  0.8566659E-012  0.2419259E+03  0.7957747E-01  0.4423812E+00
         13   -1    0    0    0    0  0.00000000000E+00  0.00000000000E+00  0.49999998884E+03  0.50000000000E+03  0.10566000000E+00 0.  1.
        994   -1    0    0    0    0 -0.00000000000E+00 -0.00000000000E+00  0.00000000000E+00  0.13100000000E+03  0.13100000000E+03 0.  0.
         13    1    1    2    0    0 -0.38335068614E+01 -0.33019928043E+02  0.14681224222E+02  0.36339522995E+02  0.10566000000E+00 0. -1.
        994    1    1    2    0    0 -0.12439095048E+02  0.39852583384E+02  0.25012536035E+03  0.28542364194E+03  0.13100000000E+03 0.  0.
        997    1    1    2    0    0  0.16272601909E+02 -0.68326553413E+01  0.23519340426E+03  0.30923683506E+03  0.20000000000E+03 0.  0.
</event>
<event>
 5    1  0.8566659E-012  0.2337305E+03  0.7957747E-01  0.4523059E+00
         13   -1    0    0    0    0  0.00000000000E+00  0.00000000000E+00  0.49999998884E+03  0.50000000000E+03  0.10566000000E+00 0. -1.
        994   -1    0    0    0    0 -0.00000000000E+00 -0.00000000000E+00  0.00000000000E+00  0.13100000000E+03  0.13100000000E+03 0.  0.
         13    1    1    2    0    0 -0.16175440636E+02  0.81614360691E+01  0.19636201678E+02  0.26717887245E+02  0.10566000000E+00 0.  1.
        994    1    1    2    0    0  0.10327045015E+02  0.21880816438E+02  0.79192664796E+02  0.15497708264E+03  0.13100000000E+03 0.  0.
        997    1    1    2    0    0  0.58483956212E+01 -0.30042252507E+02  0.40117112236E+03  0.44930503011E+03  0.20000000000E+03 0.  0.
</event>
<event>
 5    1  0.8566659E-012  0.2285800E+03  0.7957747E-01  0.4589824E+00
         13   -1    0    0    0    0  0.00000000000E+00  0.00000000000E+00  0.49999998884E+03  0.50000000000E+03  0.10566000000E+00 0.  1.
        994   -1    0    0    0    0 -0.00000000000E+00 -0.00000000000E+00  0.00000000000E+00  0.13100000000E+03  0.13100000000E+03 0.  0.
         13    1    1    2    0    0 -0.12060905477E+02 -0.38721196101E+01  0.25896523575E+02  0.28828802412E+02  0.10566000000E+00 0. -1.
        994    1    1    2    0    0  0.15107724205E+02  0.72672608170E+01  0.65932051732E+02  0.14761128634E+03  0.13100000000E+03 0.  0.
        997    1    1    2    0    0 -0.30468187280E+01 -0.33951412069E+01  0.40817141353E+03  0.45455991124E+03  0.20000000000E+03 0.  0.
</event>
<event>
 5    1  0.8566659E-012  0.2290220E+03  0.7957747E-01  0.4583952E+00
         13   -1    0    0    0    0  0.00000000000E+00  0.00000000000E+00  0.49999998884E+03  0.50000000000E+03  0.10566000000E+00 0. -1.
        994   -1    0    0    0    0 -0.00000000000E+00 -0.00000000000E+00  0.00000000000E+00  0.13100000000E+03  0.13100000000E+03 0.  0.
         13    1    1    2    0    0 -0.14004191593E+02  0.21227031666E+01  0.28133215576E+02  0.31497813155E+02  0.10566000000E+00 0.  1.
        994    1    1    2    0    0  0.25785580778E+02 -0.12649749968E+02  0.72209377177E+02  0.15231581173E+03  0.13100000000E+03 0.  0.
        997    1    1    2    0    0 -0.11781389185E+02  0.10527046801E+02  0.39965739608E+03  0.44718637512E+03  0.20000000000E+03 0.  0.
</event>
<event>
 5    1  0.8566659E-012  0.2484377E+03  0.7957747E-01  0.4350457E+00
         13   -1    0    0    0    0  0.00000000000E+00  0.00000000000E+00  0.49999998884E+03  0.50000000000E+03  0.10566000000E+00 0.  1.
        994   -1    0    0    0    0 -0.00000000000E+00 -0.00000000000E+00  0.00000000000E+00  0.13100000000E+03  0.13100000000E+03 0.  0.
         13    1    1    2    0    0 -0.11798390944E+02 -0.16081689086E+02 -0.37834178682E+01  0.20301432647E+02  0.10566000000E+00 0. -1.
        994    1    1    2    0    0  0.14838198941E+02  0.14531204942E+02  0.12456439590E+03  0.18195773353E+03  0.13100000000E+03 0.  0.
        997    1    1    2    0    0 -0.30398079964E+01  0.15504841436E+01  0.37921901080E+03  0.42874083382E+03  0.20000000000E+03 0.  0.
</event>
<event>
 5    1  0.9215826E-012  0.2413805E+03  0.7957747E-01  0.4430168E+00
         13   -1    0    0    0    0  0.00000000000E+00  0.00000000000E+00  0.49999998884E+03  0.50000000000E+03  0.10566000000E+00 0.  1.
        994   -1    0    0    0    0 -0.00000000000E+00 -0.00000000000E+00  0.00000000000E+00  0.13100000000E+03  0.13100000000E+03 0.  0.
         13    1    1    2    0    0 -0.98678856041E+01 -0.15381888837E+02  0.16505847738E+01  0.18349748353E+02  0.10566000000E+00 0. -1.
        994    1    1    2    0    0  0.20306010269E+02  0.15920582147E+02  0.10008104103E+03  0.16686225985E+03  0.13100000000E+03 0.  0.
        997    1    1    2    0    0 -0.10438124665E+02 -0.53869330970E+00  0.39826836303E+03  0.44578799180E+03  0.20000000000E+03 0.  0.
</event>
<event>
 5    1  0.8566659E-012  0.2291971E+03  0.7957747E-01  0.4581633E+00
         13   -1    0    0    0    0  0.00000000000E+00  0.00000000000E+00  0.49999998884E+03  0.50000000000E+03  0.10566000000E+00 0. -1.
        994   -1    0    0    0    0 -0.00000000000E+00 -0.00000000000E+00  0.00000000000E+00  0.13100000000E+03  0.13100000000E+03 0.  0.
         13    1    1    2    0    0 -0.11096455213E+02  0.66485164873E+01  0.38314739897E+02  0.40439640790E+02  0.10566000000E+00 0.  1.
        994    1    1    2    0    0  0.15587082354E+02 -0.67114683386E+01  0.67099192242E+02  0.14815971971E+03  0.13100000000E+03 0.  0.
        997    1    1    2    0    0 -0.44906271413E+01  0.62951851302E-01  0.39458605670E+03  0.44240063951E+03  0.20000000000E+03 0.  0.
</event>
<event>
 5    1  0.8566659E-012  0.2303053E+03  0.7957747E-01  0.4567057E+00
         13   -1    0    0    0    0  0.00000000000E+00  0.00000000000E+00  0.49999998884E+03  0.50000000000E+03  0.10566000000E+00 0. -1.
        994   -1    0    0    0    0 -0.00000000000E+00 -0.00000000000E+00  0.00000000000E+00  0.13100000000E+03  0.13100000000E+03 0.  0.
         13    1    1    2    0    0 -0.90630461454E+01 -0.83149195286E+01  0.26118279027E+02  0.28869574912E+02  0.10566000000E+00 0.  1.
        994    1    1    2    0    0 -0.55454319257E+02  0.15499745823E+02  0.10485268012E+03  0.17739929023E+03  0.13100000000E+03 0.  0.
        997    1    1    2    0    0  0.64517365402E+02 -0.71848262945E+01  0.36902902969E+03  0.42473113486E+03  0.20000000000E+03 0.  0.
</event>
<event>
 5    1  0.8566659E-012  0.2427152E+03  0.7957747E-01  0.4414674E+00
         13   -1    0    0    0    0  0.00000000000E+00  0.00000000000E+00  0.49999998884E+03  0.50000000000E+03  0.10566000000E+00 0. -1.
        994   -1    0    0    0    0 -0.00000000000E+00 -0.00000000000E+00  0.00000000000E+00  0.13100000000E+03  0.13100000000E+03 0.  0.
         13    1    1    2    0    0  0.97498110143E+01 -0.23235417234E+02  0.99871404945E+02  0.10300122387E+03  0.10566000000E+00 0.  1.
        994    1    1    2    0    0  0.58188902578E+01  0.53499070961E+02  0.16370378994E+03  0.21646233140E+03  0.13100000000E+03 0.  0.
        997    1    1    2    0    0 -0.15568701272E+02 -0.30263653727E+02  0.23642479395E+03  0.31153644473E+03  0.20000000000E+03 0.  0.
</event>
<event>
 5    1  0.8566659E-012  0.2378638E+03  0.7957747E-01  0.4471985E+00
         13   -1    0    0    0    0  0.00000000000E+00  0.00000000000E+00  0.49999998884E+03  0.50000000000E+03  0.10566000000E+00 0.  1.
        994   -1    0    0    0    0 -0.00000000000E+00 -0.00000000000E+00  0.00000000000E+00  0.13100000000E+03  0.13100000000E+03 0.  0.
         13    1    1    2    0    0  0.45928643192E+01  0.12208260107E+02 -0.15238195647E+01  0.13132753237E+02  0.10566000000E+00 0. -1.
        994    1    1    2    0    0 -0.47119526170E+02 -0.15689665747E+02  0.11775824759E+03  0.18301480878E+03  0.13100000000E+03 0.  0.
        997    1    1    2    0    0  0.42526661851E+02  0.34814056406E+01  0.38376556082E+03  0.43485243798E+03  0.20000000000E+03 0.  0.
</event>
<event>
 5    1  0.8566659E-012  0.2308943E+03  0.7957747E-01  0.4559378E+00
         13   -1    0    0    0    0  0.00000000000E+00  0.00000000000E+00  0.49999998884E+03  0.50000000000E+03  0.10566000000E+00 0.  1.
        994   -1    0    0    0    0 -0.00000000000E+00 -0.00000000000E+00  0.00000000000E+00  0.13100000000E+03  0.13100000000E+03 0.  0.
         13    1    1    2    0    0 -0.64826975132E+01  0.95026701472E+01  0.83527762761E+01  0.14216403994E+02  0.10566000000E+00 0. -1.
        994    1    1    2    0    0 -0.74877229368E+01  0.70718137171E+01  0.68356094535E+02  0.14812033015E+03  0.13100000000E+03 0.  0.
        997    1    1    2    0    0  0.13970420450E+02 -0.16574483864E+02  0.42329111802E+03  0.46866326585E+03  0.20000000000E+03 0.  0.
</event>
<event>
 5    1  0.8566659E-012  0.2382477E+03  0.7957747E-01  0.4467348E+00
         13   -1    0    0    0    0  0.00000000000E+00  0.00000000000E+00  0.49999998884E+03  0.50000000000E+03  0.10566000000E+00 0. -1.
        994   -1    0    0    0    0 -0.00000000000E+00 -0.00000000000E+00  0.00000000000E+00  0.13100000000E+03  0.13100000000E+03 0.  0.
         13    1    1    2    0    0  0.26229162194E+02 -0.15687184678E+02  0.66776094399E+02  0.73437828534E+02  0.10566000000E+00 0.  1.
        994    1    1    2    0    0 -0.18079535246E+02  0.48185813378E+02  0.12288813925E+03  0.18684548958E+03  0.13100000000E+03 0.  0.
        997    1    1    2    0    0 -0.81496269486E+01 -0.32498628700E+02  0.31033575518E+03  0.37071668189E+03  0.20000000000E+03 0.  0.
</event>
<event>
 5    1  0.8566659E-012  0.2400244E+03  0.7957747E-01  0.4446121E+00
         13   -1    0    0    0    0  0.00000000000E+00  0.00000000000E+00  0.49999998884E+03  0.50000000000E+03  0.10566000000E+00 0.  1.
        994   -1    0    0    0    0 -0.00000000000E+00 -0.00000000000E+00  0.00000000000E+00  0.13100000000E+03  0.13100000000E+03 0.  0.
         13    1    1    2    0    0 -0.12855020819E+01  0.31485010702E+02  0.40241286868E+02  0.51110965040E+02  0.10566000000E+00 0. -1.
        994    1    1    2    0    0 -0.51364877966E+01 -0.22414895742E+02  0.93983799600E+02  0.16285811507E+03  0.13100000000E+03 0.  0.
        997    1    1    2    0    0  0.64219898785E+01 -0.90701149590E+01  0.36577490237E+03  0.41703091989E+03  0.20000000000E+03 0.  0.
</event>
<event>
 5    1  0.8566659E-012  0.2353303E+03  0.7957747E-01  0.4503036E+00
         13   -1    0    0    0    0  0.00000000000E+00  0.00000000000E+00  0.49999998884E+03  0.50000000000E+03  0.10566000000E+00 0.  1.
        994   -1    0    0    0    0 -0.00000000000E+00 -0.00000000000E+00  0.00000000000E+00  0.13100000000E+03  0.13100000000E+03 0.  0.
         13    1    1    2    0    0  0.17563041792E+02  0.16199927140E+02  0.43473994238E+02  0.49607433066E+02  0.10566000000E+00 0. -1.
        994    1    1    2    0    0  0.15983806275E+02 -0.40205771963E+02  0.99524850924E+02  0.17011226327E+03  0.13100000000E+03 0.  0.
        997    1    1    2    0    0 -0.33546848067E+02  0.24005844823E+02  0.35700114367E+03  0.41128030367E+03  0.20000000000E+03 0.  0.
</event>
<event>
 5    1  0.8566659E-012  0.2300372E+03  0.7957747E-01  0.4570567E+00
         13   -1    0    0    0    0  0.00000000000E+00  0.00000000000E+00  0.49999998884E+03  0.50000000000E+03  0.10566000000E+00 0. -1.
        994   -1    0    0    0    0 -0.00000000000E+00 -0.00000000000E+00  0.00000000000E+00  0.13100000000E+03  0.13100000000E+03 0.  0.
         13    1    1    2    0    0  0.72276969308E+01  0.13750924483E+02  0.36522872305E+02  0.39689531270E+02  0.10566000000E+00 0.  1.
        994    1    1    2    0    0  0.10554913572E+02 -0.33695496033E+02  0.78730944630E+02  0.15686412686E+03  0.13100000000E+03 0.  0.
        997    1    1    2    0    0 -0.17782610503E+02  0.19944571550E+02  0.38474617190E+03  0.43444634187E+03  0.20000000000E+03 0.  0.
</event>
<event>
 5    1  0.8566659E-012  0.2328977E+03  0.7957747E-01  0.4533613E+00
         13   -1    0    0    0    0  0.00000000000E+00  0.00000000000E+00  0.49999998884E+03  0.50000000000E+03  0.10566000000E+00 0. -1.
        994   -1    0    0    0    0 -0.00000000000E+00 -0.00000000000E+00  0.00000000000E+00  0.13100000000E+03  0.13100000000E+03 0.  0.
         13    1    1    2    0    0 -0.11255871977E+02 -0.12107510252E+02  0.15151869732E+02  0.22424914245E+02  0.10566000000E+00 0.  1.
        994    1    1    2    0    0 -0.35252999344E+02  0.38887536795E+02  0.10482594414E+03  0.17579673787E+03  0.13100000000E+03 0.  0.
        997    1    1    2    0    0  0.46508871322E+02 -0.26780026543E+02  0.38002217497E+03  0.43277834789E+03  0.20000000000E+03 0.  0.
</event>
<event>
 5    1  0.8566659E-012  0.2330033E+03  0.7957747E-01  0.4532270E+00
         13   -1    0    0    0    0  0.00000000000E+00  0.00000000000E+00  0.49999998884E+03  0.50000000000E+03  0.10566000000E+00 0. -1.
        994   -1    0    0    0    0 -0.00000000000E+00 -0.00000000000E+00  0.00000000000E+00  0.13100000000E+03  0.13100000000E+03 0.  0.
         13    1    1    2    0    0  0.14391517528E+02  0.88600445968E+01  0.11479261978E+02  0.20430388803E+02  0.10566000000E+00 0.  1.
        994    1    1    2    0    0  0.16505521256E+02 -0.68928367946E+02  0.14833969547E+03  0.21021231504E+03  0.13100000000E+03 0.  0.
        997    1    1    2    0    0 -0.30897038785E+02  0.60068323350E+02  0.34018103139E+03  0.40035729616E+03  0.20000000000E+03 0.  0.
</event>
<event>
 5    1  0.8566659E-012  0.2513391E+03  0.7957747E-01  0.4319205E+00
         13   -1    0    0    0    0  0.00000000000E+00  0.00000000000E+00  0.49999998884E+03  0.50000000000E+03  0.10566000000E+00 0. -1.
        994   -1    0    0    0    0 -0.00000000000E+00 -0.00000000000E+00  0.00000000000E+00  0.13100000000E+03  0.13100000000E+03 0.  0.
         13    1    1    2    0    0  0.29048173244E+02 -0.44116820610E+01  0.21777574368E+01  0.29462062028E+02  0.10566000000E+00 0.  1.
        994    1    1    2    0    0 -0.29353425520E+01  0.25946124138E+02  0.17274463192E+03  0.21836557753E+03  0.13100000000E+03 0.  0.
        997    1    1    2    0    0 -0.26112830692E+02 -0.21534442077E+02  0.32507759948E+03  0.38317236044E+03  0.20000000000E+03 0.  0.
</event>
<event>
 5    1  0.8566659E-012  0.2434221E+03  0.7957747E-01  0.4406548E+00
         13   -1    0    0    0    0  0.00000000000E+00  0.00000000000E+00  0.49999998884E+03  0.50000000000E+03  0.10566000000E+00 0.  1.
        994   -1    0    0    0    0 -0.00000000000E+00 -0.00000000000E+00  0.00000000000E+00  0.13100000000E+03  0.13100000000E+03 0.  0.
         13    1    1    2    0    0  0.23318018294E+02  0.19815152039E+02  0.10737431853E+02  0.32429521032E+02  0.10566000000E+00 0. -1.
        994    1    1    2    0    0 -0.41475668675E+02 -0.32114375811E+02  0.16674662933E+03  0.21844221804E+03  0.13100000000E+03 0.  0.
        997    1    1    2    0    0  0.18157650381E+02  0.12299223772E+02  0.32251592765E+03  0.38012826093E+03  0.20000000000E+03 0.  0.
</event>
<event>
 5    1  0.8566659E-012  0.2347091E+03  0.7957747E-01  0.4510771E+00
         13   -1    0    0    0    0  0.00000000000E+00  0.00000000000E+00  0.49999998884E+03  0.50000000000E+03  0.10566000000E+00 0.  1.
        994   -1    0    0    0    0 -0.00000000000E+00 -0.00000000000E+00  0.00000000000E+00  0.13100000000E+03  0.13100000000E+03 0.  0.
         13    1    1    2    0    0 -0.16761763287E+02 -0.15117747947E+02  0.53132618809E+02  0.57728583535E+02  0.10566000000E+00 0. -1.
        994    1    1    2    0    0  0.52059073540E+02 -0.19051316717E+02  0.11601650944E+03  0.18355906480E+03  0.13100000000E+03 0.  0.
        997    1    1    2    0    0 -0.35297310253E+02  0.34169064664E+02  0.33085086059E+03  0.38971235167E+03  0.20000000000E+03 0.  0.
</event>
<event>
 5    1  0.8566659E-012  0.2301482E+03  0.7957747E-01  0.4569113E+00
         13   -1    0    0    0    0  0.00000000000E+00  0.00000000000E+00  0.49999998884E+03  0.50000000000E+03  0.10566000000E+00 0. -1.
        994   -1    0    0    0    0 -0.00000000000E+00 -0.00000000000E+00  0.00000000000E+00  0.13100000000E+03  0.13100000000E+03 0.  0.
         13    1    1    2    0    0  0.99367664828E+01  0.37297928191E+01  0.69335140126E+01  0.12678149045E+02  0.10566000000E+00 0.  1.
        994    1    1    2    0    0 -0.70491602306E+01  0.82144512125E+01  0.67106728548E+02  0.14758550364E+03  0.13100000000E+03 0.  0.
        997    1    1    2    0    0 -0.28876062522E+01 -0.11944244032E+02  0.42595974628E+03  0.47073634731E+03  0.20000000000E+03 0.  0.
</event>
<event>
 5    1  0.8566659E-012  0.2459482E+03  0.7957747E-01  0.4377962E+00
         13   -1    0    0    0    0  0.00000000000E+00  0.00000000000E+00  0.49999998884E+03  0.50000000000E+03  0.10566000000E+00 0.  1.
        994   -1    0    0    0    0 -0.00000000000E+00 -0.00000000000E+00  0.00000000000E+00  0.13100000000E+03  0.13100000000E+03 0.  0.
         13    1    1    2    0    0 -0.45248898948E+01  0.11731644094E+02 -0.73181410421E+01  0.14548967457E+02  0.10566000000E+00 0. -1.
        994    1    1    2    0    0  0.10304832686E+02 -0.20228909342E+02  0.11421376931E+03  0.17527459442E+03  0.13100000000E+03 0.  0.
        997    1    1    2    0    0 -0.57799427915E+01  0.84972652481E+01  0.39310436057E+03  0.44117643812E+03  0.20000000000E+03 0.  0.
</event>
<event>
 5    1  0.8566659E-012  0.2429756E+03  0.7957747E-01  0.4411675E+00
         13   -1    0    0    0    0  0.00000000000E+00  0.00000000000E+00  0.49999998884E+03  0.50000000000E+03  0.10566000000E+00 0.  1.
        994   -1    0    0    0    0 -0.00000000000E+00 -0.00000000000E+00  0.00000000000E+00  0.13100000000E+03  0.13100000000E+03 0.  0.
         13    1    1    2    0    0  0.12345958191E+02 -0.13843682568E+02 -0.30369499822E+01  0.18796394865E+02  0.10566000000E+00 0. -1.
        994    1    1    2    0    0 -0.52595772912E+02 -0.14810192301E+02  0.18302229379E+03  0.23161134935E+03  0.13100000000E+03 0.  0.
        997    1    1    2    0    0  0.40249814721E+02  0.28653874868E+02  0.32001464503E+03  0.38059225579E+03  0.20000000000E+03 0.  0.
</event>
<event>
 5    1  0.9662938E-012  0.2374340E+03  0.7957747E-01  0.4477197E+00
         13   -1    0    0    0    0  0.00000000000E+00  0.00000000000E+00  0.49999998884E+03  0.50000000000E+03  0.10566000000E+00 0.  1.
        994   -1    0    0    0    0 -0.00000000000E+00 -0.00000000000E+00  0.00000000000E+00  0.13100000000E+03  0.13100000000E+03 0.  0.
         13    1    1    2    0    0 -0.13043681442E+02  0.79943418630E+00 -0.74520349778E+00  0.13089813325E+02  0.10566000000E+00 0. -1.
        994    1    1    2    0    0  0.30248117624E+02  0.32176709460E+02  0.10734941556E+03  0.17502910122E+03  0.13100000000E+03 0.  0.
        997    1    1    2    0    0 -0.17204436182E+02 -0.32976143646E+02  0.39339577677E+03  0.44288108546E+03  0.20000000000E+03 0.  0.
</event>
<event>
 5    1  0.8566659E-012  0.2436725E+03  0.7957747E-01  0.4403684E+00
         13   -1    0    0    0    0  0.00000000000E+00  0.00000000000E+00  0.49999998884E+03  0.50000000000E+03  0.10566000000E+00 0.  1.
        994   -1    0    0    0    0 -0.00000000000E+00 -0.00000000000E+00  0.00000000000E+00  0.13100000000E+03  0.13100000000E+03 0.  0.
         13    1    1    2    0    0  0.18697407462E+02 -0.12101797974E+02  0.68443663013E+01  0.23300280559E+02  0.10566000000E+00 0. -1.
        994    1    1    2    0    0  0.23768868689E+02  0.12879084691E+02  0.10910332161E+03  0.17261333879E+03  0.13100000000E+03 0.  0.
        997    1    1    2    0    0 -0.42466276151E+02 -0.77728671668E+00  0.38405230092E+03  0.43508638065E+03  0.20000000000E+03 0.  0.
</event>
<event>
 5    1  0.8566659E-012  0.2297560E+03  0.7957747E-01  0.4574260E+00
         13   -1    0    0    0    0  0.00000000000E+00  0.00000000000E+00  0.49999998884E+03  0.50000000000E+03  0.10566000000E+00 0.  1.
        994   -1    0    0    0    0 -0.00000000000E+00 -0.00000000000E+00  0.00000000000E+00  0.13100000000E+03  0.13100000000E+03 0.  0.
         13    1    1    2    0    0 -0.13922623308E+02  0.67422993028E+01  0.31023753492E+02  0.34666734551E+02  0.10566000000E+00 0. -1.
        994    1    1    2    0    0  0.20358364717E+02 -0.17693550673E+02  0.72613278989E+02  0.15218808440E+03  0.13100000000E+03 0.  0.
        997    1    1    2    0    0 -0.64357414089E+01  0.10951251370E+02  0.39636295635E+03  0.44414518104E+03  0.20000000000E+03 0.  0.
</event>
<event>
 5    1  0.8566659E-012  0.2409112E+03  0.7957747E-01  0.4435665E+00
         13   -1    0    0    0    0  0.00000000000E+00  0.00000000000E+00  0.49999998884E+03  0.50000000000E+03  0.10566000000E+00 0.  1.
        994   -1    0    0    0    0 -0.00000000000E+00 -0.00000000000E+00  0.00000000000E+00  0.13100000000E+03  0.13100000000E+03 0.  0.
         13    1    1    2    0    0  0.28521566016E+01 -0.34798630817E+02  0.38239166604E+02  0.51781507612E+02  0.10566000000E+00 0. -1.
        994    1    1    2    0    0  0.19197134536E+02  0.42497278328E+02  0.12567754589E+03  0.18743103847E+03  0.13100000000E+03 0.  0.
        997    1    1    2    0    0 -0.22049291138E+02 -0.76986475103E+01  0.33608327634E+03  0.39178745392E+03  0.20000000000E+03 0.  0.
</event>
<event>
 5    1  0.8566659E-012  0.2395061E+03  0.7957747E-01  0.4452275E+00
         13   -1    0    0    0    0  0.00000000000E+00  0.00000000000E+00  0.49999998884E+03  0.50000000000E+03  0.10566000000E+00 0.  1.
        994   -1    0    0    0    0 -0.00000000000E+00 -0.00000000000E+00  0.00000000000E+00  0.13100000000E+03  0.13100000000E+03 0.  0.
         13    1    1    2    0    0  0.53346786141E+01  0.25996309864E+02  0.26528511703E+02  0.37523859338E+02  0.10566000000E+00 0. -1.
        994    1    1    2    0    0  0.34759608933E+01 -0.53073010898E+01  0.85947380073E+02  0.15680625590E+03  0.13100000000E+03 0.  0.
        997    1    1    2    0    0 -0.88106395074E+01 -0.20689008774E+02  0.38752409706E+03  0.43666988476E+03  0.20000000000E+03 0.  0.
</event>
<event>
 5    1  0.8566659E-012  0.2383659E+03  0.7957747E-01  0.4465925E+00
         13   -1    0    0    0    0  0.00000000000E+00  0.00000000000E+00  0.49999998884E+03  0.50000000000E+03  0.10566000000E+00 0.  1.
        994   -1    0    0    0    0 -0.00000000000E+00 -0.00000000000E+00  0.00000000000E+00  0.13100000000E+03  0.13100000000E+03 0.  0.
         13    1    1    2    0    0 -0.13635677176E+02  0.72257083013E+01  0.28731771576E+01  0.15697415823E+02  0.10566000000E+00 0. -1.
        994    1    1    2    0    0 -0.40474138089E+01 -0.91956564735E+01  0.83934520113E+02  0.15590684822E+03  0.13100000000E+03 0.  0.
        997    1    1    2    0    0  0.17683090985E+02  0.19699481722E+01  0.41319229157E+03  0.45939573595E+03  0.20000000000E+03 0.  0.
</event>
<event>
 5    1  0.8566659E-012  0.2476973E+03  0.7957747E-01  0.4358570E+00
         13   -1    0    0    0    0  0.00000000000E+00  0.00000000000E+00  0.49999998884E+03  0.50000000000E+03  0.10566000000E+00 0. -1.
        994   -1    0    0    0    0 -0.00000000000E+00 -0.00000000000E+00  0.00000000000E+00  0.13100000000E+03  0.13100000000E+03 0.  0.
         13    1    1    2    0    0  0.41507688878E+02  0.59399805160E+01  0.38329925473E+02  0.56809910714E+02  0.10566000000E+00 0.  1.
        994    1    1    2    0    0 -0.29625353508E+02  0.19573725277E+02  0.14515685692E+03  0.19872671034E+03  0.13100000000E+03 0.  0.
        997    1    1    2    0    0 -0.11882335370E+02 -0.25513705793E+02  0.31651320644E+03  0.37546337894E+03  0.20000000000E+03 0.  0.
</event>
<event>
 5    1  0.8566659E-012  0.2447209E+03  0.7957747E-01  0.4391764E+00
         13   -1    0    0    0    0  0.00000000000E+00  0.00000000000E+00  0.49999998884E+03  0.50000000000E+03  0.10566000000E+00 0. -1.
        994   -1    0    0    0    0 -0.00000000000E+00 -0.00000000000E+00  0.00000000000E+00  0.13100000000E+03  0.13100000000E+03 0.  0.
         13    1    1    2    0    0  0.52203352370E+00 -0.17454791205E+02 -0.81799451298E+01  0.19283799454E+02  0.10566000000E+00 0.  1.
        994    1    1    2    0    0  0.30944557853E+02  0.16030677114E+02  0.24074711663E+03  0.27628739102E+03  0.13100000000E+03 0.  0.
        997    1    1    2    0    0 -0.31466591377E+02  0.14241140910E+01  0.26743281733E+03  0.33542880953E+03  0.20000000000E+03 0.  0.
</event>
<event>
 5    1  0.8566659E-012  0.2485275E+03  0.7957747E-01  0.4349478E+00
         13   -1    0    0    0    0  0.00000000000E+00  0.00000000000E+00  0.49999998884E+03  0.50000000000E+03  0.10566000000E+00 0.  1.
        994   -1    0    0    0    0 -0.00000000000E+00 -0.00000000000E+00  0.00000000000E+00  0.13100000000E+03  0.13100000000E+03 0.  0.
         13    1    1    2    0    0 -0.34032071403E+02  0.31457370018E+02  0.79512637945E+02  0.92032704890E+02  0.10566000000E+00 0. -1.
        994    1    1    2    0    0  0.17387182471E+02 -0.33730055191E+02  0.17549652364E+03  0.22226124391E+03  0.13100000000E+03 0.  0.
        997    1    1    2    0    0  0.16644888932E+02  0.22726851735E+01  0.24499082726E+03  0.31670605120E+03  0.20000000000E+03 0.  0.
</event>
<event>
 5    1  0.8566659E-012  0.2349707E+03  0.7957747E-01  0.4507507E+00
         13   -1    0    0    0    0  0.00000000000E+00  0.00000000000E+00  0.49999998884E+03  0.50000000000E+03  0.10566000000E+00 0. -1.
        994   -1    0    0    0    0 -0.00000000000E+00 -0.00000000000E+00  0.00000000000E+00  0.13100000000E+03  0.13100000000E+03 0.  0.
         13    1    1    2    0    0 -0.57453190877E+01 -0.21054280605E+02  0.23949984096E+02  0.32402227168E+02  0.10566000000E+00 0.  1.
        994    1    1    2    0    0 -0.19634955348E+01  0.20700593203E+02  0.80136803319E+02  0.15496863270E+03  0.13100000000E+03 0.  0.
        997    1    1    2    0    0  0.77088146225E+01  0.35368740240E+00  0.39591320142E+03  0.44362914014E+03  0.20000000000E+03 0.  0.
</event>
<event>
 5    1  0.8566659E-012  0.2296897E+03  0.7957747E-01  0.4575133E+00
         13   -1    0    0    0    0  0.00000000000E+00  0.00000000000E+00  0.49999998884E+03  0.50000000000E+03  0.10566000000E+00 0.  1.
        994   -1    0    0    0    0 -0.00000000000E+00 -0.00000000000E+00  0.00000000000E+00  0.13100000000E+03  0.13100000000E+03 0.  0.
         13    1    1    2    0    0 -0.10450498400E+02 -0.88010285855E+01  0.22361606669E+02  0.26205412376E+02  0.10566000000E+00 0. -1.
        994    1    1    2    0    0  0.44096123512E+02 -0.37841023902E+02  0.10385285029E+03  0.17698255765E+03  0.13100000000E+03 0.  0.
        997    1    1    2    0    0 -0.33645625112E+02  0.46642052487E+02  0.37378553188E+03  0.42781202998E+03  0.20000000000E+03 0.  0.
</event>
<event>
 5    1  0.8566659E-012  0.2272734E+03  0.7957747E-01  0.4607345E+00
         13   -1    0    0    0    0  0.00000000000E+00  0.00000000000E+00  0.49999998884E+03  0.50000000000E+03  0.10566000000E+00 0. -1.
        994   -1    0    0    0    0 -0.00000000000E+00 -0.00000000000E+00  0.00000000000E+00  0.13100000000E+03  0.13100000000E+03 0.  0.
         13    1    1    2    0    0  0.60760773226E+01  0.10006524929E+02  0.19981348368E+02  0.23158469367E+02  0.10566000000E+00 0.  1.
        994    1    1    2    0    0 -0.47785722220E+02 -0.27501903868E+02  0.92982041719E+02  0.16984254487E+03  0.13100000000E+03 0.  0.
        997    1    1    2    0    0  0.41709644897E+02  0.17495378940E+02  0.38703659875E+03  0.43799898577E+03  0.20000000000E+03 0.  0.
</event>
<event>
 5    1  0.8566659E-012  0.2469083E+03  0.7957747E-01  0.4367278E+00
         13   -1    0    0    0    0  0.00000000000E+00  0.00000000000E+00  0.49999998884E+03  0.50000000000E+03  0.10566000000E+00 0. -1.
        994   -1    0    0    0    0 -0.00000000000E+00 -0.00000000000E+00  0.00000000000E+00  0.13100000000E+03  0.13100000000E+03 0.  0.
         13    1    1    2    0    0  0.16908866318E+02 -0.36035737074E+02  0.48998939490E+02  0.63129955978E+02  0.10566000000E+00 0.  1.
        994    1    1    2    0    0  0.24883783859E+02  0.21273589394E+02  0.13251133403E+03  0.18918779546E+03  0.13100000000E+03 0.  0.
        997    1    1    2    0    0 -0.41792650177E+02  0.14762147680E+02  0.31848971532E+03  0.37868224856E+03  0.20000000000E+03 0.  0.
</event>
<event>
 5    1  0.8566659E-012  0.2474291E+03  0.7957747E-01  0.4361523E+00
         13   -1    0    0    0    0  0.00000000000E+00  0.00000000000E+00  0.49999998884E+03  0.50000000000E+03  0.10566000000E+00 0.  1.
        994   -1    0    0    0    0 -0.00000000000E+00 -0.00000000000E+00  0.00000000000E+00  0.13100000000E+03  0.13100000000E+03 0.  0.
         13    1    1    2    0    0  0.11369796584E+02 -0.31672765370E+02  0.17610473222E+02  0.37981262113E+02  0.10566000000E+00 0. -1.
        994    1    1    2    0    0 -0.12987009278E+02  0.18276316180E+02  0.12088621050E+03  0.17965845940E+03  0.13100000000E+03 0.  0.
        997    1    1    2    0    0  0.16172126943E+01  0.13396449189E+02  0.36150330511E+03  0.41336027849E+03  0.20000000000E+03 0.  0.
</event>
<event>
 5    1  0.8566659E-012  0.2402601E+03  0.7957747E-01  0.4443334E+00
         13   -1    0    0    0    0  0.00000000000E+00  0.00000000000E+00  0.49999998884E+03  0.50000000000E+03  0.10566000000E+00 0. -1.
        994   -1    0    0    0    0 -0.00000000000E+00 -0.00000000000E+00  0.00000000000E+00  0.13100000000E+03  0.13100000000E+03 0.  0.
         13    1    1    2    0    0  0.30433013073E+02  0.30452621409E+01  0.50018357918E+02  0.58628399253E+02  0.10566000000E+00 0.  1.
        994    1    1    2    0    0 -0.79071824855E+01  0.22732224194E+02  0.95385859896E+02  0.16382533327E+03  0.13100000000E+03 0.  0.
        997    1    1    2    0    0 -0.22525830587E+02 -0.25777486335E+02  0.35459577102E+03  0.40854626748E+03  0.20000000000E+03 0.  0.
</event>
<event>
 5    1  0.8566659E-012  0.2335130E+03  0.7957747E-01  0.4525806E+00
         13   -1    0    0    0    0  0.00000000000E+00  0.00000000000E+00  0.49999998884E+03  0.50000000000E+03  0.10566000000E+00 0.  1.
        994   -1    0    0    0    0 -0.00000000000E+00 -0.00000000000E+00  0.00000000000E+00  0.13100000000E+03  0.13100000000E+03 0.  0.
         13    1    1    2    0    0 -0.21484368313E+02  0.12984639196E+01  0.31826897671E+02  0.38421695301E+02  0.10566000000E+00 0. -1.
        994    1    1    2    0    0  0.26267095148E+02  0.30394733557E+02  0.91086495780E+02  0.16453434240E+03  0.13100000000E+03 0.  0.
        997    1    1    2    0    0 -0.47827268350E+01 -0.31693197476E+02  0.37708659538E+03  0.42804396230E+03  0.20000000000E+03 0.  0.
</event>
<event>
 5    1  0.8566659E-012  0.2285033E+03  0.7957747E-01  0.4590846E+00
         13   -1    0    0    0    0  0.00000000000E+00  0.00000000000E+00  0.49999998884E+03  0.50000000000E+03  0.10566000000E+00 0.  1.
        994   -1    0    0    0    0 -0.00000000000E+00 -0.00000000000E+00  0.00000000000E+00  0.13100000000E+03  0.13100000000E+03 0.  0.
         13    1    1    2    0    0 -0.27429169827E+01  0.12754274414E+02  0.15735264604E+02  0.20440274597E+02  0.10566000000E+00 0. -1.
        994    1    1    2    0    0  0.31746928402E+02 -0.38934778248E+02  0.89835084639E+02  0.16659870003E+03  0.13100000000E+03 0.  0.
        997    1    1    2    0    0 -0.29004011419E+02  0.26180503834E+02  0.39442963959E+03  0.44396102537E+03  0.20000000000E+03 0.  0.
</event>
<event>
 5    1  0.8566659E-012  0.2437495E+03  0.7957747E-01  0.4402805E+00
         13   -1    0    0    0    0  0.00000000000E+00  0.00000000000E+00  0.49999998884E+03  0.50000000000E+03  0.10566000000E+00 0.  1.
        994   -1    0    0    0    0 -0.00000000000E+00 -0.00000000000E+00  0.00000000000E+00  0.13100000000E+03  0.13100000000E+03 0.  0.
         13    1    1    2    0    0  0.20268410229E+02  0.16000526070E+02  0.86166883786E+01  0.27222853825E+02  0.10566000000E+00 0. -1.
        994    1    1    2    0    0  0.21602932366E+02 -0.43453968138E+02  0.15008698352E+03  0.20504154861E+03  0.13100000000E+03 0.  0.
        997    1    1    2    0    0 -0.41871342595E+02  0.27453442067E+02  0.34129631693E+03  0.39873559756E+03  0.20000000000E+03 0.  0.
</event>
<event>
 5    1  0.8566659E-012  0.2328835E+03  0.7957747E-01  0.4533794E+00
         13   -1    0    0    0    0  0.00000000000E+00  0.00000000000E+00  0.49999998884E+03  0.50000000000E+03  0.10566000000E+00 0. -1.
        994   -1    0    0    0    0 -0.00000000000E+00 -0.00000000000E+00  0.00000000000E+00  0.13100000000E+03  0.13100000000E+03 0.  0.
         13    1    1    2    0    0  0.15950282476E+02  0.20045482976E+02  0.28604000213E+02  0.38398344900E+02  0.10566000000E+00 0.  1.
        994    1    1    2    0    0 -0.43296143633E+02 -0.61288019989E+02  0.16805492601E+03  0.22590758200E+03  0.13100000000E+03 0.  0.
        997    1    1    2    0    0  0.27345861157E+02  0.41242537013E+02  0.30334106261E+03  0.36669407310E+03  0.20000000000E+03 0.  0.
</event>
<event>
 5    1  0.8566659E-012  0.2292109E+03  0.7957747E-01  0.4581450E+00
         13   -1    0    0    0    0  0.00000000000E+00  0.00000000000E+00  0.49999998884E+03  0.50000000000E+03  0.10566000000E+00 0. -1.
        994   -1    0    0    0    0 -0.00000000000E+00 -0.00000000000E+00  0.00000000000E+00  0.13100000000E+03  0.13100000000E+03 0.  0.
         13    1    1    2    0    0 -0.11116510793E+02  0.97189454251E+01  0.14456080724E+02  0.20664562573E+02  0.10566000000E+00 0.  1.
        994    1    1    2    0    0  0.36636873256E+02 -0.51528009912E+02  0.11119299473E+03  0.18309090191E+03  0.13100000000E+03 0.  0.
        997    1    1    2    0    0 -0.25520362463E+02  0.41809064487E+02  0.37435091338E+03  0.42724453551E+03  0.20000000000E+03 0.  0.
</event>
<event>
 5    1  0.8566659E-012  0.2368095E+03  0.7957747E-01  0.4484809E+00
         13   -1    0    0    0    0  0.00000000000E+00  0.00000000000E+00  0.49999998884E+03  0.50000000000E+03  0.10566000000E+00 0. -1.
        994   -1    0    0    0    0 -0.00000000000E+00 -0.00000000000E+00  0.00000000000E+00  0.13100000000E+03  0.13100000000E+03 0.  0.
         13    1    1    2    0    0 -0.23462479817E+02 -0.13898584417E+02  0.17879947446E+02  0.32609236309E+02  0.10566000000E+00 0.  1.
        994    1    1    2    0    0  0.47913218787E+02  0.45825726702E+02  0.16046982444E+03  0.21750227198E+03  0.13100000000E+03 0.  0.
        997    1    1    2    0    0 -0.24450738970E+02 -0.31927142286E+02  0.32165021695E+03  0.38088849171E+03  0.20000000000E+03 0.  0.
</event>
<event>
 5    1  0.8566659E-012  0.2284557E+03  0.7957747E-01  0.4591480E+00
         13   -1    0    0    0    0  0.00000000000E+00  0.00000000000E+00  0.49999998884E+03  0.50000000000E+03  0.10566000000E+00 0.  1.
        994   -1    0    0    0    0 -0.00000000000E+00 -0.00000000000E+00  0.00000000000E+00  0.13100000000E+03  0.13100000000E+03 0.  0.
         13    1    1    2    0    0 -0.14290898539E+02  0.40506691742E+00  0.25142438367E+02  0.28923126237E+02  0.10566000000E+00 0. -1.
        994    1    1    2    0    0  0.49720241716E+02  0.26618943581E+02  0.97782048128E+02  0.17292483780E+03  0.13100000000E+03 0.  0.
        997    1    1    2    0    0 -0.35429343177E+02 -0.27024010499E+02  0.37707550234E+03  0.42915203596E+03  0.20000000000E+03 0.  0.
</event>
<event>
 5    1  0.8566659E-012  0.2400395E+03  0.7957747E-01  0.4445943E+00
         13   -1    0    0    0    0  0.00000000000E+00  0.00000000000E+00  0.49999998884E+03  0.50000000000E+03  0.10566000000E+00 0.  1.
        994   -1    0    0    0    0 -0.00000000000E+00 -0.00000000000E+00  0.00000000000E+00  0.13100000000E+03  0.13100000000E+03 0.  0.
         13    1    1    2    0    0  0.54246695028E+01 -0.13232805587E+02 -0.36216893318E+01  0.14753371838E+02  0.10566000000E+00 0. -1.
        994    1    1    2    0    0  0.56264795681E+01  0.55614530636E+02  0.14470234400E+03  0.20303793155E+03  0.13100000000E+03 0.  0.
        997    1    1    2    0    0 -0.11051149071E+02 -0.42381725049E+02  0.35891933417E+03  0.41320869661E+03  0.20000000000E+03 0.  0.
</event>
<event>
 5    1  0.8566659E-012  0.2351153E+03  0.7957747E-01  0.4505707E+00
         13   -1    0    0    0    0  0.00000000000E+00  0.00000000000E+00  0.49999998884E+03  0.50000000000E+03  0.10566000000E+00 0. -1.
        994   -1    0    0    0    0 -0.00000000000E+00 -0.00000000000E+00  0.00000000000E+00  0.13100000000E+03  0.13100000000E+03 0.  0.
         13    1    1    2    0    0 -0.61728152234E+01 -0.95752904411E+01  0.83802736154E+00  0.11423803601E+02  0.10566000000E+00 0.  1.
        994    1    1    2    0    0  0.58696081180E+01  0.83296221809E+01  0.76653644563E+02  0.15212040011E+03  0.13100000000E+03 0.  0.
        997    1    1    2    0    0  0.30320710547E+00  0.12456682602E+01  0.42250831691E+03  0.46745579629E+03  0.20000000000E+03 0.  0.
</event>
<event>
 5    1  0.8566659E-012  0.2488771E+03  0.7957747E-01  0.4345670E+00
         13   -1    0    0    0    0  0.00000000000E+00  0.00000000000E+00  0.49999998884E+03  0.50000000000E+03  0.10566000000E+00 0. -1.
        994   -1    0    0    0    0 -0.00000000000E+00 -0.00000000000E+00  0.00000000000E+00  0.13100000000E+03  0.13100000000E+03 0.  0.
         13    1    1    2    0    0  0.39048517878E+02 -0.50543124138E+01  0.27029970464E+02  0.47759431422E+02  0.10566000000E+00 0.  1.
        994    1    1    2    0    0 -0.16817353731E+02  0.26362575367E+02  0.14526485529E+03  0.19809262214E+03  0.13100000000E+03 0.  0.
        997    1    1    2    0    0 -0.22231164147E+02 -0.21308262953E+02  0.32770516309E+03  0.38514794643E+03  0.20000000000E+03 0.  0.
</event>
<event>
 5    1  0.9837232E-012  0.2471091E+03  0.7957747E-01  0.4365056E+00
         13   -1    0    0    0    0  0.00000000000E+00  0.00000000000E+00  0.49999998884E+03  0.50000000000E+03  0.10566000000E+00 0. -1.
        994   -1    0    0    0    0 -0.00000000000E+00 -0.00000000000E+00  0.00000000000E+00  0.13100000000E+03  0.13100000000E+03 0.  0.
         13    1    1    2    0    0 -0.16357166498E+02  0.10789828045E+02 -0.21027405338E+01  0.19708119314E+02  0.10566000000E+00 0.  1.
        994    1    1    2    0    0  0.10251747187E+02 -0.62234124490E+01  0.11169470158E+03  0.17257037852E+03  0.13100000000E+03 0.  0.
        997    1    1    2    0    0  0.61054193111E+01 -0.45664155964E+01  0.39040802779E+03  0.43872150216E+03  0.20000000000E+03 0.  0.
</event>
<event>
 5    1  0.8566659E-012  0.2350370E+03  0.7957747E-01  0.4506682E+00
         13   -1    0    0    0    0  0.00000000000E+00  0.00000000000E+00  0.49999998884E+03  0.50000000000E+03  0.10566000000E+00 0.  1.
        994   -1    0    0    0    0 -0.00000000000E+00 -0.00000000000E+00  0.00000000000E+00  0.13100000000E+03  0.13100000000E+03 0.  0.
         13    1    1    2    0    0  0.20501777129E+02 -0.32701997796E+01  0.92491213995E+01  0.22728274962E+02  0.10566000000E+00 0. -1.
        994    1    1    2    0    0 -0.63543413459E+02 -0.31549257434E+02  0.16776119243E+03  0.22436117918E+03  0.13100000000E+03 0.  0.
        997    1    1    2    0    0  0.43041636330E+02  0.34819457214E+02  0.32298967501E+03  0.38391054585E+03  0.20000000000E+03 0.  0.
</event>
<event>
 5    1  0.8566659E-012  0.2284461E+03  0.7957747E-01  0.4591609E+00
         13   -1    0    0    0    0  0.00000000000E+00  0.00000000000E+00  0.49999998884E+03  0.50000000000E+03  0.10566000000E+00 0. -1.
        994   -1    0    0    0    0 -0.00000000000E+00 -0.00000000000E+00  0.00000000000E+00  0.13100000000E+03  0.13100000000E+03 0.  0.
         13    1    1    2    0    0 -0.95104677292E+01  0.85660711978E+01  0.31079518108E+02  0.33612113621E+02  0.10566000000E+00 0.  1.
        994    1    1    2    0    0  0.17006368664E+02 -0.20812989490E+02  0.70076974359E+02  0.15097741368E+03  0.13100000000E+03 0.  0.
        997    1    1    2    0    0 -0.74959009348E+01  0.12246918292E+02  0.39884349637E+03  0.44641047270E+03  0.20000000000E+03 0.  0.
</event>
<event>
 5    1  0.8566659E-012  0.2302862E+03  0.7957747E-01  0.4567306E+00
         13   -1    0    0    0    0  0.00000000000E+00  0.00000000000E+00  0.49999998884E+03  0.50000000000E+03  0.10566000000E+00 0. -1.
        994   -1    0    0    0    0 -0.00000000000E+00 -0.00000000000E+00  0.00000000000E+00  0.13100000000E+03  0.13100000000E+03 0.  0.
         13    1    1    2    0    0  0.14245476625E+02 -0.11089181758E+02  0.37657888459E+02  0.41761600587E+02  0.10566000000E+00 0.  1.
        994    1    1    2    0    0 -0.27218700055E+02  0.45056167158E+02  0.97459052361E+02  0.17155227401E+03  0.13100000000E+03 0.  0.
        997    1    1    2    0    0  0.12973223430E+02 -0.33966985400E+02  0.36488304802E+03  0.41768612540E+03  0.20000000000E+03 0.  0.
</event>
<event>
 5    1  0.8566659E-012  0.2509436E+03  0.7957747E-01  0.4323416E+00
         13   -1    0    0    0    0  0.00000000000E+00  0.00000000000E+00  0.49999998884E+03  0.50000000000E+03  0.10566000000E+00 0. -1.
        994   -1    0    0    0    0 -0.00000000000E+00 -0.00000000000E+00  0.00000000000E+00  0.13100000000E+03  0.13100000000E+03 0.  0.
         13    1    1    2    0    0  0.21623819489E+02  0.42475663189E+02  0.44080284795E+02  0.64921908508E+02  0.10566000000E+00 0.  1.
        994    1    1    2    0    0 -0.11676155115E+02 -0.18346275598E+02  0.20312064997E+03  0.24267656844E+03  0.13100000000E+03 0.  0.
        997    1    1    2    0    0 -0.99476643745E+01 -0.24129387592E+02  0.25279905408E+03  0.32340152305E+03  0.20000000000E+03 0.  0.
</event>
<event>
 5    1  0.8625426E-012  0.2433487E+03  0.7957747E-01  0.4407389E+00
         13   -1    0    0    0    0  0.00000000000E+00  0.00000000000E+00  0.49999998884E+03  0.50000000000E+03  0.10566000000E+00 0.  1.
        994   -1    0    0    0    0 -0.00000000000E+00 -0.00000000000E+00  0.00000000000E+00  0.13100000000E+03  0.13100000000E+03 0.  0.
         13    1    1    2    0    0  0.12122114394E+02 -0.50122167261E+01 -0.47611492737E+01  0.13955202626E+02  0.10566000000E+00 0. -1.
        994    1    1    2    0    0  0.10542592488E+02  0.30075746919E+02  0.11310241698E+03  0.17597969637E+03  0.13100000000E+03 0.  0.
        997    1    1    2    0    0 -0.22664706881E+02 -0.25063530193E+02  0.39165872113E+03  0.44106510100E+03  0.20000000000E+03 0.  0.
</event>
<event>
 5    1  0.8566659E-012  0.2434234E+03  0.7957747E-01  0.4406534E+00
         13   -1    0    0    0    0  0.00000000000E+00  0.00000000000E+00  0.49999998884E+03  0.50000000000E+03  0.10566000000E+00 0.  1.
        994   -1    0    0    0    0 -0.00000000000E+00 -0.00000000000E+00  0.00000000000E+00  0.13100000000E+03  0.13100000000E+03 0.  0.
         13    1    1    2    0    0  0.22709621992E+02  0.55561757521E+01  0.32059466343E+01  0.23598459227E+02  0.10566000000E+00 0. -1.
        994    1    1    2    0    0 -0.25096485316E+02  0.47043590270E+02  0.17714107586E+03  0.22667795155E+03  0.13100000000E+03 0.  0.
        997    1    1    2    0    0  0.23868633233E+01 -0.52599766022E+02  0.31965296634E+03  0.38072358923E+03  0.20000000000E+03 0.  0.
</event>
<event>
 5    1  0.8566659E-012  0.2439770E+03  0.7957747E-01  0.4400210E+00
         13   -1    0    0    0    0  0.00000000000E+00  0.00000000000E+00  0.49999998884E+03  0.50000000000E+03  0.10566000000E+00 0. -1.
        994   -1    0    0    0    0 -0.00000000000E+00 -0.00000000000E+00  0.00000000000E+00  0.13100000000E+03  0.13100000000E+03 0.  0.
         13    1    1    2    0    0 -0.83062265357E+01 -0.34879887092E+02  0.92690290672E+02  0.99383605648E+02  0.10566000000E+00 0.  1.
        994    1    1    2    0    0  0.32134077596E+02  0.36265558211E+02  0.15217968316E+03  0.20656099734E+03  0.13100000000E+03 0.  0.
        997    1    1    2    0    0 -0.23827851060E+02 -0.13856711191E+01  0.25513001501E+03  0.32505539701E+03  0.20000000000E+03 0.  0.
</event>
<event>
 5    1  0.8566659E-012  0.2423294E+03  0.7957747E-01  0.4419132E+00
         13   -1    0    0    0    0  0.00000000000E+00  0.00000000000E+00  0.49999998884E+03  0.50000000000E+03  0.10566000000E+00 0. -1.
        994   -1    0    0    0    0 -0.00000000000E+00 -0.00000000000E+00  0.00000000000E+00  0.13100000000E+03  0.13100000000E+03 0.  0.
         13    1    1    2    0    0  0.25249422028E+02  0.13706007137E+02  0.35218708085E+02  0.45450594139E+02  0.10566000000E+00 0.  1.
        994    1    1    2    0    0  0.13127456779E+02  0.30391366322E+02  0.11055811824E+03  0.17458540253E+03  0.13100000000E+03 0.  0.
        997    1    1    2    0    0 -0.38376878807E+02 -0.44097373459E+02  0.35422316251E+03  0.41096400333E+03  0.20000000000E+03 0.  0.
</event>
<event>
 5    1  0.8566659E-012  0.2502308E+03  0.7957747E-01  0.4331043E+00
         13   -1    0    0    0    0  0.00000000000E+00  0.00000000000E+00  0.49999998884E+03  0.50000000000E+03  0.10566000000E+00 0. -1.
        994   -1    0    0    0    0 -0.00000000000E+00 -0.00000000000E+00  0.00000000000E+00  0.13100000000E+03  0.13100000000E+03 0.  0.
         13    1    1    2    0    0  0.21075293852E+01 -0.31057497170E+02  0.11137133381E+02  0.33061408237E+02  0.10566000000E+00 0.  1.
        994    1    1    2    0    0 -0.20829407787E+02 -0.16415643038E+02  0.14771989926E+03  0.19921221399E+03  0.13100000000E+03 0.  0.
        997    1    1    2    0    0  0.18721878402E+02  0.47473140208E+02  0.34114295619E+03  0.39872637777E+03  0.20000000000E+03 0.  0.
</event>
<event>
 5    1  0.8566659E-012  0.2360953E+03  0.7957747E-01  0.4493576E+00
         13   -1    0    0    0    0  0.00000000000E+00  0.00000000000E+00  0.49999998884E+03  0.50000000000E+03  0.10566000000E+00 0. -1.
        994   -1    0    0    0    0 -0.00000000000E+00 -0.00000000000E+00  0.00000000000E+00  0.13100000000E+03  0.13100000000E+03 0.  0.
         13    1    1    2    0    0 -0.16628910584E+02  0.87869067967E+00  0.80427153047E+02  0.82133007225E+02  0.10566000000E+00 0.  1.
        994    1    1    2    0    0  0.55400518415E+01 -0.27603139850E+02  0.87149629135E+02  0.15983955506E+03  0.13100000000E+03 0.  0.
        997    1    1    2    0    0  0.11088858743E+02  0.26724449171E+02  0.33242320665E+03  0.38902743771E+03  0.20000000000E+03 0.  0.
</event>
<event>
 5    1  0.8566659E-012  0.2319340E+03  0.7957747E-01  0.4545940E+00
         13   -1    0    0    0    0  0.00000000000E+00  0.00000000000E+00  0.49999998884E+03  0.50000000000E+03  0.10566000000E+00 0. -1.
        994   -1    0    0    0    0 -0.00000000000E+00 -0.00000000000E+00  0.00000000000E+00  0.13100000000E+03  0.13100000000E+03 0.  0.
         13    1    1    2    0    0 -0.72438413623E+01  0.11900407989E+02  0.12386080328E+02  0.18641864122E+02  0.10566000000E+00 0.  1.
        994    1    1    2    0    0 -0.18886210122E+02 -0.14880500210E+01  0.72976083007E+02  0.15114698779E+03  0.13100000000E+03 0.  0.
        997    1    1    2    0    0  0.26130051484E+02 -0.10412357968E+02  0.41463782550E+03  0.46121114809E+03  0.20000000000E+03 0.  0.
</event>
<event>
 5    1  0.8566659E-012  0.2486551E+03  0.7957747E-01  0.4348087E+00
         13   -1    0    0    0    0  0.00000000000E+00  0.00000000000E+00  0.49999998884E+03  0.50000000000E+03  0.10566000000E+00 0. -1.
        994   -1    0    0    0    0 -0.00000000000E+00 -0.00000000000E+00  0.00000000000E+00  0.13100000000E+03  0.13100000000E+03 0.  0.
         13    1    1    2    0    0  0.36177686088E+02  0.16369280854E+02  0.29955511729E+02  0.49740548583E+02  0.10566000000E+00 0.  1.
        994    1    1    2    0    0 -0.99216698247E+01  0.23907535976E+02  0.22148354052E+03  0.25862321731E+03  0.13100000000E+03 0.  0.
        997    1    1    2    0    0 -0.26256016263E+02 -0.40276816830E+02  0.24856093659E+03  0.32263623411E+03  0.20000000000E+03 0.  0.
</event>
<event>
 5    1  0.8566659E-012  0.2408251E+03  0.7957747E-01  0.4436677E+00
         13   -1    0    0    0    0  0.00000000000E+00  0.00000000000E+00  0.49999998884E+03  0.50000000000E+03  0.10566000000E+00 0. -1.
        994   -1    0    0    0    0 -0.00000000000E+00 -0.00000000000E+00  0.00000000000E+00  0.13100000000E+03  0.13100000000E+03 0.  0.
         13    1    1    2    0    0  0.13666649484E+02 -0.26866230928E+02  0.24473526291E+02  0.38827005106E+02  0.10566000000E+00 0.  1.
        994    1    1    2    0    0 -0.45449783235E+02  0.91815541199E+01  0.12471786225E+03  0.18672313434E+03  0.13100000000E+03 0.  0.
        997    1    1    2    0    0  0.31783133752E+02  0.17684676808E+02  0.35080860029E+03  0.40544986056E+03  0.20000000000E+03 0.  0.
</event>
<event>
 5    1  0.8566659E-012  0.2328891E+03  0.7957747E-01  0.4533722E+00
         13   -1    0    0    0    0  0.00000000000E+00  0.00000000000E+00  0.49999998884E+03  0.50000000000E+03  0.10566000000E+00 0. -1.
        994   -1    0    0    0    0 -0.00000000000E+00 -0.00000000000E+00  0.00000000000E+00  0.13100000000E+03  0.13100000000E+03 0.  0.
         13    1    1    2    0    0 -0.10391485516E+02  0.19623374610E+01  0.30260833147E+01  0.11000094718E+02  0.10566000000E+00 0.  1.
        994    1    1    2    0    0 -0.13229821489E+02  0.22531912372E+02  0.78489918189E+02  0.15493347769E+03  0.13100000000E+03 0.  0.
        997    1    1    2    0    0  0.23621307005E+02 -0.24494249833E+02  0.41848398733E+03  0.46506642759E+03  0.20000000000E+03 0.  0.
</event>
<event>
 5    1  0.8566659E-012  0.2423457E+03  0.7957747E-01  0.4418943E+00
         13   -1    0    0    0    0  0.00000000000E+00  0.00000000000E+00  0.49999998884E+03  0.50000000000E+03  0.10566000000E+00 0.  1.
        994   -1    0    0    0    0 -0.00000000000E+00 -0.00000000000E+00  0.00000000000E+00  0.13100000000E+03  0.13100000000E+03 0.  0.
         13    1    1    2    0    0 -0.15765380279E+02  0.89784866345E+01  0.27180934187E+01  0.18345561682E+02  0.10566000000E+00 0. -1.
        994    1    1    2    0    0 -0.14807915023E+02  0.88157415176E+01  0.97397658136E+02  0.16414717621E+03  0.13100000000E+03 0.  0.
        997    1    1    2    0    0  0.30573295302E+02 -0.17794228152E+02  0.39988423728E+03  0.44850726211E+03  0.20000000000E+03 0.  0.
</event>
<event>
 5    1  0.8566659E-012  0.2351936E+03  0.7957747E-01  0.4504734E+00
         13   -1    0    0    0    0  0.00000000000E+00  0.00000000000E+00  0.49999998884E+03  0.50000000000E+03  0.10566000000E+00 0.  1.
        994   -1    0    0    0    0 -0.00000000000E+00 -0.00000000000E+00  0.00000000000E+00  0.13100000000E+03  0.13100000000E+03 0.  0.
         13    1    1    2    0    0 -0.15415236776E+02  0.15854579444E+02  0.16187404751E+02  0.27405117237E+02  0.10566000000E+00 0. -1.
        994    1    1    2    0    0  0.67584269254E+02  0.17046711616E+02  0.16178967571E+03  0.21953387664E+03  0.13100000000E+03 0.  0.
        997    1    1    2    0    0 -0.52169032479E+02 -0.32901291060E+02  0.32202290837E+03  0.38406100612E+03  0.20000000000E+03 0.  0.
</event>
<event>
 5    1  0.8566659E-012  0.2439475E+03  0.7957747E-01  0.4400545E+00
         13   -1    0    0    0    0  0.00000000000E+00  0.00000000000E+00  0.49999998884E+03  0.50000000000E+03  0.10566000000E+00 0.  1.
        994   -1    0    0    0    0 -0.00000000000E+00 -0.00000000000E+00  0.00000000000E+00  0.13100000000E+03  0.13100000000E+03 0.  0.
         13    1    1    2    0    0 -0.29818650324E+01 -0.25360059187E+02  0.13181990410E+02  0.28736738789E+02  0.10566000000E+00 0. -1.
        994    1    1    2    0    0 -0.98785335021E+01 -0.10609950385E+02  0.10113120670E+03  0.16612849677E+03  0.13100000000E+03 0.  0.
        997    1    1    2    0    0  0.12860398534E+02  0.35970009572E+02  0.38568679173E+03  0.43613476444E+03  0.20000000000E+03 0.  0.
</event>
<event>
 5    1  0.8566659E-012  0.2321123E+03  0.7957747E-01  0.4543650E+00
         13   -1    0    0    0    0  0.00000000000E+00  0.00000000000E+00  0.49999998884E+03  0.50000000000E+03  0.10566000000E+00 0.  1.
        994   -1    0    0    0    0 -0.00000000000E+00 -0.00000000000E+00  0.00000000000E+00  0.13100000000E+03  0.13100000000E+03 0.  0.
         13    1    1    2    0    0 -0.10364307479E+02  0.15868331695E+02  0.32066443907E+02  0.37249037695E+02  0.10566000000E+00 0. -1.
        994    1    1    2    0    0  0.34103429026E+02 -0.71336677430E+00  0.82287472141E+02  0.15841647905E+03  0.13100000000E+03 0.  0.
        997    1    1    2    0    0 -0.23739121547E+02 -0.15154964921E+02  0.38564607279E+03  0.43533448325E+03  0.20000000000E+03 0.  0.
</event>
<event>
 5    1  0.8566659E-012  0.2401962E+03  0.7957747E-01  0.4444088E+00
         13   -1    0    0    0    0  0.00000000000E+00  0.00000000000E+00  0.49999998884E+03  0.50000000000E+03  0.10566000000E+00 0.  1.
        994   -1    0    0    0    0 -0.00000000000E+00 -0.00000000000E+00  0.00000000000E+00  0.13100000000E+03  0.13100000000E+03 0.  0.
         13    1    1    2    0    0  0.20762898672E+02 -0.17889161223E+02  0.21387482456E+02  0.34764286565E+02  0.10566000000E+00 0. -1.
        994    1    1    2    0    0 -0.38507571354E+02 -0.15776154037E+02  0.11374199496E+03  0.17840953311E+03  0.13100000000E+03 0.  0.
        997    1    1    2    0    0  0.17744672683E+02  0.33665315259E+02  0.36487051142E+03  0.41782618032E+03  0.20000000000E+03 0.  0.
</event>
<event>
 5    1  0.8566659E-012  0.2475684E+03  0.7957747E-01  0.4359988E+00
         13   -1    0    0    0    0  0.00000000000E+00  0.00000000000E+00  0.49999998884E+03  0.50000000000E+03  0.10566000000E+00 0. -1.
        994   -1    0    0    0    0 -0.00000000000E+00 -0.00000000000E+00  0.00000000000E+00  0.13100000000E+03  0.13100000000E+03 0.  0.
         13    1    1    2    0    0 -0.75620169682E+01  0.11316408440E+02 -0.70162731651E+01  0.15312885220E+02  0.10566000000E+00 0.  1.
        994    1    1    2    0    0 -0.16093910223E+02  0.23728190169E+02  0.12974022738E+03  0.18658930182E+03  0.13100000000E+03 0.  0.
        997    1    1    2    0    0  0.23655927191E+02 -0.35044598609E+02  0.37727603462E+03  0.42909781295E+03  0.20000000000E+03 0.  0.
</event>
<event>
 5    1  0.8566659E-012  0.2291377E+03  0.7957747E-01  0.4582419E+00
         13   -1    0    0    0    0  0.00000000000E+00  0.00000000000E+00  0.49999998884E+03  0.50000000000E+03  0.10566000000E+00 0. -1.
        994   -1    0    0    0    0 -0.00000000000E+00 -0.00000000000E+00  0.00000000000E+00  0.13100000000E+03  0.13100000000E+03 0.  0.
         13    1    1    2    0    0  0.11669872585E+02  0.57503292436E+01  0.14005458919E+02  0.19115863991E+02  0.10566000000E+00 0.  1.
        994    1    1    2    0    0 -0.42211224822E+02  0.76384137328E+01  0.83393489405E+02  0.16110743912E+03  0.13100000000E+03 0.  0.
        997    1    1    2    0    0  0.30541352237E+02 -0.13388742976E+02  0.40260104051E+03  0.45077669689E+03  0.20000000000E+03 0.  0.
</event>
<event>
 5    1  0.8566659E-012  0.2354268E+03  0.7957747E-01  0.4501838E+00
         13   -1    0    0    0    0  0.00000000000E+00  0.00000000000E+00  0.49999998884E+03  0.50000000000E+03  0.10566000000E+00 0. -1.
        994   -1    0    0    0    0 -0.00000000000E+00 -0.00000000000E+00  0.00000000000E+00  0.13100000000E+03  0.13100000000E+03 0.  0.
         13    1    1    2    0    0 -0.18576015594E+02  0.42028629932E+01  0.18152263253E+02  0.26310610749E+02  0.10566000000E+00 0.  1.
        994    1    1    2    0    0 -0.24269344280E+02 -0.41065171511E+02  0.10573866551E+03  0.17497718356E+03  0.13100000000E+03 0.  0.
        997    1    1    2    0    0  0.42845359874E+02  0.36862308518E+02  0.37610906007E+03  0.42971220569E+03  0.20000000000E+03 0.  0.
</event>
<event>
 5    1  0.8566659E-012  0.2479656E+03  0.7957747E-01  0.4355623E+00
         13   -1    0    0    0    0  0.00000000000E+00  0.00000000000E+00  0.49999998884E+03  0.50000000000E+03  0.10566000000E+00 0. -1.
        994   -1    0    0    0    0 -0.00000000000E+00 -0.00000000000E+00  0.00000000000E+00  0.13100000000E+03  0.13100000000E+03 0.  0.
         13    1    1    2    0    0 -0.20669163131E+02 -0.88883306332E+01 -0.24954024609E+01  0.22637467249E+02  0.10566000000E+00 0.  1.
        994    1    1    2    0    0  0.30642668638E+02 -0.23126583554E+02  0.15987735579E+03  0.21022745040E+03  0.13100000000E+03 0.  0.
        997    1    1    2    0    0 -0.99735055074E+01  0.32014914188E+02  0.34261803550E+03  0.39813508235E+03  0.20000000000E+03 0.  0.
</event>
<event>
 5    1  0.8566659E-012  0.2450730E+03  0.7957747E-01  0.4387788E+00
         13   -1    0    0    0    0  0.00000000000E+00  0.00000000000E+00  0.49999998884E+03  0.50000000000E+03  0.10566000000E+00 0. -1.
        994   -1    0    0    0    0 -0.00000000000E+00 -0.00000000000E+00  0.00000000000E+00  0.13100000000E+03  0.13100000000E+03 0.  0.
         13    1    1    2    0    0 -0.10761001405E+02 -0.13143290860E+02 -0.34962557399E+01  0.17343016292E+02  0.10566000000E+00 0.  1.
        994    1    1    2    0    0  0.20567411613E+02  0.15455055458E+02  0.11340244266E+03  0.17516561067E+03  0.13100000000E+03 0.  0.
        997    1    1    2    0    0 -0.98064102072E+01 -0.23117645978E+01  0.39009380191E+03  0.43849137304E+03  0.20000000000E+03 0.  0.
</event>
<event>
 5    1  0.8566659E-012  0.2386811E+03  0.7957747E-01  0.4462136E+00
         13   -1    0    0    0    0  0.00000000000E+00  0.00000000000E+00  0.49999998884E+03  0.50000000000E+03  0.10566000000E+00 0.  1.
        994   -1    0    0    0    0 -0.00000000000E+00 -0.00000000000E+00  0.00000000000E+00  0.13100000000E+03  0.13100000000E+03 0.  0.
         13    1    1    2    0    0  0.88648337458E+01  0.81859087209E+01 -0.98210063089E+00  0.12106612433E+02  0.10566000000E+00 0. -1.
        994    1    1    2    0    0  0.19809844031E+02  0.12936454816E+02  0.90726637972E+02  0.16109656924E+03  0.13100000000E+03 0.  0.
        997    1    1    2    0    0 -0.28674677777E+02 -0.21122363537E+02  0.41025545150E+03  0.45779681833E+03  0.20000000000E+03 0.  0.
</event>
<event>
 5    1  0.8566659E-012  0.2306275E+03  0.7957747E-01  0.4562850E+00
         13   -1    0    0    0    0  0.00000000000E+00  0.00000000000E+00  0.49999998884E+03  0.50000000000E+03  0.10566000000E+00 0. -1.
        994   -1    0    0    0    0 -0.00000000000E+00 -0.00000000000E+00  0.00000000000E+00  0.13100000000E+03  0.13100000000E+03 0.  0.
         13    1    1    2    0    0 -0.12301315964E+02 -0.57278471766E+01  0.14775152701E+02  0.20061079460E+02  0.10566000000E+00 0.  1.
        994    1    1    2    0    0  0.37151412436E+01 -0.18092368876E+01  0.66967058007E+02  0.14718241223E+03  0.13100000000E+03 0.  0.
        997    1    1    2    0    0  0.85861747208E+01  0.75370840642E+01  0.41825777813E+03  0.46375650831E+03  0.20000000000E+03 0.  0.
</event>
<event>
 5    1  0.8566659E-012  0.2473963E+03  0.7957747E-01  0.4361884E+00
         13   -1    0    0    0    0  0.00000000000E+00  0.00000000000E+00  0.49999998884E+03  0.50000000000E+03  0.10566000000E+00 0.  1.
        994   -1    0    0    0    0 -0.00000000000E+00 -0.00000000000E+00  0.00000000000E+00  0.13100000000E+03  0.13100000000E+03 0.  0.
         13    1    1    2    0    0 -0.14081795472E+02  0.14822535981E+02 -0.34306902336E+01  0.20731264702E+02  0.10566000000E+00 0. -1.
        994    1    1    2    0    0  0.31088759611E+02 -0.11713933680E+02  0.13693290016E+03  0.19239372745E+03  0.13100000000E+03 0.  0.
        997    1    1    2    0    0 -0.17006964139E+02 -0.31086023014E+01  0.36649777891E+03  0.41787500785E+03  0.20000000000E+03 0.  0.
</event>
<event>
 5    1  0.8566659E-012  0.2460302E+03  0.7957747E-01  0.4377046E+00
         13   -1    0    0    0    0  0.00000000000E+00  0.00000000000E+00  0.49999998884E+03  0.50000000000E+03  0.10566000000E+00 0.  1.
        994   -1    0    0    0    0 -0.00000000000E+00 -0.00000000000E+00  0.00000000000E+00  0.13100000000E+03  0.13100000000E+03 0.  0.
         13    1    1    2    0    0  0.10237441801E+02  0.17301507637E+02 -0.18589306006E+01  0.20189456856E+02  0.10566000000E+00 0. -1.
        994    1    1    2    0    0  0.17384400229E+02 -0.31785383199E+02  0.13358326378E+03  0.19057286354E+03  0.13100000000E+03 0.  0.
        997    1    1    2    0    0 -0.27621842030E+02  0.14483875563E+02  0.36827565565E+03  0.42023767960E+03  0.20000000000E+03 0.  0.
</event>
<event>
 5    1  0.8566659E-012  0.2445605E+03  0.7957747E-01  0.4393580E+00
         13   -1    0    0    0    0  0.00000000000E+00  0.00000000000E+00  0.49999998884E+03  0.50000000000E+03  0.10566000000E+00 0.  1.
        994   -1    0    0    0    0 -0.00000000000E+00 -0.00000000000E+00  0.00000000000E+00  0.13100000000E+03  0.13100000000E+03 0.  0.
         13    1    1    2    0    0 -0.28910076841E+02 -0.20642579239E+01  0.22815490699E+02  0.36886467486E+02  0.10566000000E+00 0. -1.
        994    1    1    2    0    0 -0.29227161838E+02  0.28613949365E+02  0.13408059524E+03  0.19186346996E+03  0.13100000000E+03 0.  0.
        997    1    1    2    0    0  0.58137238679E+02 -0.26549691441E+02  0.34310390290E+03  0.40225006255E+03  0.20000000000E+03 0.  0.
</event>
<event>
 5    1  0.8566659E-012  0.2363413E+03  0.7957747E-01  0.4490549E+00
         13   -1    0    0    0    0  0.00000000000E+00  0.00000000000E+00  0.49999998884E+03  0.50000000000E+03  0.10566000000E+00 0. -1.
        994   -1    0    0    0    0 -0.00000000000E+00 -0.00000000000E+00  0.00000000000E+00  0.13100000000E+03  0.13100000000E+03 0.  0.
         13    1    1    2    0    0  0.22114059039E+02 -0.17004981865E+00  0.79314985366E+02  0.82340382509E+02  0.10566000000E+00 0.  1.
        994    1    1    2    0    0 -0.32589713999E+02 -0.19001849013E+02  0.96144906513E+02  0.16681727360E+03  0.13100000000E+03 0.  0.
        997    1    1    2    0    0  0.10475654960E+02  0.19171898832E+02  0.32454009696E+03  0.38184234389E+03  0.20000000000E+03 0.  0.
</event>
<event>
 5    1  0.8566659E-012  0.2440624E+03  0.7957747E-01  0.4399237E+00
         13   -1    0    0    0    0  0.00000000000E+00  0.00000000000E+00  0.49999998884E+03  0.50000000000E+03  0.10566000000E+00 0. -1.
        994   -1    0    0    0    0 -0.00000000000E+00 -0.00000000000E+00  0.00000000000E+00  0.13100000000E+03  0.13100000000E+03 0.  0.
         13    1    1    2    0    0  0.34094486436E+02 -0.16350160361E+02  0.50402955865E+02  0.63009768077E+02  0.10566000000E+00 0.  1.
        994    1    1    2    0    0 -0.45558513517E+01  0.36908940303E+02  0.12395273941E+03  0.18414208444E+03  0.13100000000E+03 0.  0.
        997    1    1    2    0    0 -0.29538635084E+02 -0.20558779941E+02  0.32564429356E+03  0.38384814748E+03  0.20000000000E+03 0.  0.
</event>
<event>
 5    1  0.8566659E-012  0.2309851E+03  0.7957747E-01  0.4558199E+00
         13   -1    0    0    0    0  0.00000000000E+00  0.00000000000E+00  0.49999998884E+03  0.50000000000E+03  0.10566000000E+00 0.  1.
        994   -1    0    0    0    0 -0.00000000000E+00 -0.00000000000E+00  0.00000000000E+00  0.13100000000E+03  0.13100000000E+03 0.  0.
         13    1    1    2    0    0  0.45621702845E+01  0.12792264990E+02  0.21815675810E+02  0.25698060557E+02  0.10566000000E+00 0. -1.
        994    1    1    2    0    0  0.10476090706E+02  0.27845178342E+02  0.76745154214E+02  0.15471238195E+03  0.13100000000E+03 0.  0.
        997    1    1    2    0    0 -0.15038260990E+02 -0.40637443332E+02  0.40143915881E+03  0.45058955749E+03  0.20000000000E+03 0.  0.
</event>
<event>
 5    1  0.8566659E-012  0.2476090E+03  0.7957747E-01  0.4359542E+00
         13   -1    0    0    0    0  0.00000000000E+00  0.00000000000E+00  0.49999998884E+03  0.50000000000E+03  0.10566000000E+00 0. -1.
        994   -1    0    0    0    0 -0.00000000000E+00 -0.00000000000E+00  0.00000000000E+00  0.13100000000E+03  0.13100000000E+03 0.  0.
         13    1    1    2    0    0 -0.91925769691E+01 -0.27481530871E+02  0.10452989174E+03  0.10847233491E+03  0.10566000000E+00 0.  1.
        994    1    1    2    0    0  0.30532051099E+02 -0.14420162942E+02  0.13983415445E+03  0.19456294096E+03  0.13100000000E+03 0.  0.
        997    1    1    2    0    0 -0.21339474130E+02  0.41901693812E+02  0.25563594265E+03  0.32796472413E+03  0.20000000000E+03 0.  0.
</event>
<event>
 5    1  0.8566659E-012  0.2286579E+03  0.7957747E-01  0.4588787E+00
         13   -1    0    0    0    0  0.00000000000E+00  0.00000000000E+00  0.49999998884E+03  0.50000000000E+03  0.10566000000E+00 0. -1.
        994   -1    0    0    0    0 -0.00000000000E+00 -0.00000000000E+00  0.00000000000E+00  0.13100000000E+03  0.13100000000E+03 0.  0.
         13    1    1    2    0    0 -0.13336836005E+02  0.23368727628E-01  0.19287936218E+02  0.23450104228E+02  0.10566000000E+00 0.  1.
        994    1    1    2    0    0  0.34232950914E+02 -0.34883369732E+01  0.75239181017E+02  0.15493869040E+03  0.13100000000E+03 0.  0.
        997    1    1    2    0    0 -0.20896114909E+02  0.34649682455E+01  0.40547287160E+03  0.45261120537E+03  0.20000000000E+03 0.  0.
</event>
<event>
 5    1  0.8566659E-012  0.2479920E+03  0.7957747E-01  0.4355334E+00
         13   -1    0    0    0    0  0.00000000000E+00  0.00000000000E+00  0.49999998884E+03  0.50000000000E+03  0.10566000000E+00 0.  1.
        994   -1    0    0    0    0 -0.00000000000E+00 -0.00000000000E+00  0.00000000000E+00  0.13100000000E+03  0.13100000000E+03 0.  0.
         13    1    1    2    0    0  0.20213471048E+02 -0.16025071857E+02 -0.10103124922E+01  0.25815097040E+02  0.10566000000E+00 0. -1.
        994    1    1    2    0    0 -0.37180639385E+02  0.13963997718E+02  0.17267347094E+03  0.22035090366E+03  0.13100000000E+03 0.  0.
        997    1    1    2    0    0  0.16967168337E+02  0.20610741397E+01  0.32833683039E+03  0.38483399930E+03  0.20000000000E+03 0.  0.
</event>
<event>
 5    1  0.8566659E-012  0.2295449E+03  0.7957747E-01  0.4577040E+00
         13   -1    0    0    0    0  0.00000000000E+00  0.00000000000E+00  0.49999998884E+03  0.50000000000E+03  0.10566000000E+00 0.  1.
        994   -1    0    0    0    0 -0.00000000000E+00 -0.00000000000E+00  0.00000000000E+00  0.13100000000E+03  0.13100000000E+03 0.  0.
         13    1    1    2    0    0  0.25696179552E+01  0.10076457091E+02  0.37844735806E+02  0.39247587393E+02  0.10566000000E+00 0. -1.
        994    1    1    2    0    0  0.41714549982E+02  0.61179258103E+01  0.83590814870E+02  0.16101539376E+03  0.13100000000E+03 0.  0.
        997    1    1    2    0    0 -0.44284167937E+02 -0.16194382901E+02  0.37856443816E+03  0.43073701885E+03  0.20000000000E+03 0.  0.
</event>
<event>
 5    1  0.8566659E-012  0.2295598E+03  0.7957747E-01  0.4576844E+00
         13   -1    0    0    0    0  0.00000000000E+00  0.00000000000E+00  0.49999998884E+03  0.50000000000E+03  0.10566000000E+00 0.  1.
        994   -1    0    0    0    0 -0.00000000000E+00 -0.00000000000E+00  0.00000000000E+00  0.13100000000E+03  0.13100000000E+03 0.  0.
         13    1    1    2    0    0  0.16636121607E+02 -0.65760079738E+01  0.36237983844E+02  0.40412956587E+02  0.10566000000E+00 0. -1.
        994    1    1    2    0    0 -0.62434050711E+02  0.23642635898E+02  0.11954822126E+03  0.18949871273E+03  0.13100000000E+03 0.  0.
        997    1    1    2    0    0  0.45797929104E+02 -0.17066627924E+02  0.34421378373E+03  0.40108833068E+03  0.20000000000E+03 0.  0.
</event>
<event>
 5    1  0.8566659E-012  0.2373267E+03  0.7957747E-01  0.4478501E+00
         13   -1    0    0    0    0  0.00000000000E+00  0.00000000000E+00  0.49999998884E+03  0.50000000000E+03  0.10566000000E+00 0.  1.
        994   -1    0    0    0    0 -0.00000000000E+00 -0.00000000000E+00  0.00000000000E+00  0.13100000000E+03  0.13100000000E+03 0.  0.
         13    1    1    2    0    0  0.27712158007E+02 -0.14114122642E+02  0.35489646234E+02  0.47187904310E+02  0.10566000000E+00 0. -1.
        994    1    1    2    0    0 -0.52451735425E+02  0.16817828787E+02  0.12639401638E+03  0.19018536035E+03  0.13100000000E+03 0.  0.
        997    1    1    2    0    0  0.24739577419E+02 -0.27037061454E+01  0.33811632622E+03  0.39362673534E+03  0.20000000000E+03 0.  0.
</event>
<event>
 5    1  0.8566659E-012  0.2310263E+03  0.7957747E-01  0.4557664E+00
         13   -1    0    0    0    0  0.00000000000E+00  0.00000000000E+00  0.49999998884E+03  0.50000000000E+03  0.10566000000E+00 0. -1.
        994   -1    0    0    0    0 -0.00000000000E+00 -0.00000000000E+00  0.00000000000E+00  0.13100000000E+03  0.13100000000E+03 0.  0.
         13    1    1    2    0    0 -0.35505817772E+01 -0.12767988770E+02  0.13369555160E+02  0.18825098603E+02  0.10566000000E+00 0.  1.
        994    1    1    2    0    0 -0.78496463457E+02  0.14169869929E+01  0.16890071640E+03  0.22771068185E+03  0.13100000000E+03 0.  0.
        997    1    1    2    0    0  0.82047045235E+02  0.11351001777E+02  0.31772971727E+03  0.38446421955E+03  0.20000000000E+03 0.  0.
</event>
<event>
 5    1  0.8566659E-012  0.2387248E+03  0.7957747E-01  0.4461611E+00
         13   -1    0    0    0    0  0.00000000000E+00  0.00000000000E+00  0.49999998884E+03  0.50000000000E+03  0.10566000000E+00 0.  1.
        994   -1    0    0    0    0 -0.00000000000E+00 -0.00000000000E+00  0.00000000000E+00  0.13100000000E+03  0.13100000000E+03 0.  0.
         13    1    1    2    0    0  0.93928619526E+01 -0.23532379397E+02  0.25953624312E+02  0.36271207792E+02  0.10566000000E+00 0. -1.
        994    1    1    2    0    0  0.50650510894E+02  0.17045093635E+02  0.12955464547E+03  0.19183695065E+03  0.13100000000E+03 0.  0.
        997    1    1    2    0    0 -0.60043372846E+02  0.64872857622E+01  0.34449171905E+03  0.40289184156E+03  0.20000000000E+03 0.  0.
</event>
<event>
 5    1  0.8566659E-012  0.2294333E+03  0.7957747E-01  0.4578512E+00
         13   -1    0    0    0    0  0.00000000000E+00  0.00000000000E+00  0.49999998884E+03  0.50000000000E+03  0.10566000000E+00 0. -1.
        994   -1    0    0    0    0 -0.00000000000E+00 -0.00000000000E+00  0.00000000000E+00  0.13100000000E+03  0.13100000000E+03 0.  0.
         13    1    1    2    0    0 -0.58576815361E+01  0.12095029039E+02  0.16476668324E+02  0.21262500406E+02  0.10566000000E+00 0.  1.
        994    1    1    2    0    0 -0.24822583091E+02 -0.38199885656E+02  0.86765436691E+02  0.16359900030E+03  0.13100000000E+03 0.  0.
        997    1    1    2    0    0  0.30680264627E+02  0.26104856617E+02  0.39675788382E+03  0.44613849929E+03  0.20000000000E+03 0.  0.
</event>
<event>
 5    1  0.8566659E-012  0.2418424E+03  0.7957747E-01  0.4424783E+00
         13   -1    0    0    0    0  0.00000000000E+00  0.00000000000E+00  0.49999998884E+03  0.50000000000E+03  0.10566000000E+00 0.  1.
        994   -1    0    0    0    0 -0.00000000000E+00 -0.00000000000E+00  0.00000000000E+00  0.13100000000E+03  0.13100000000E+03 0.  0.
         13    1    1    2    0    0  0.14363210363E+02  0.14486404465E+02  0.78362897201E+01  0.21853519782E+02  0.10566000000E+00 0. -1.
        994    1    1    2    0    0  0.20267770901E+02  0.23895932670E+02  0.10676373455E+03  0.17187580734E+03  0.13100000000E+03 0.  0.
        997    1    1    2    0    0 -0.34630981264E+02 -0.38382337135E+02  0.38539996457E+03  0.43727067287E+03  0.20000000000E+03 0.  0.
</event>
<event>
 5    1  0.8566659E-012  0.2412883E+03  0.7957747E-01  0.4431247E+00
         13   -1    0    0    0    0  0.00000000000E+00  0.00000000000E+00  0.49999998884E+03  0.50000000000E+03  0.10566000000E+00 0.  1.
        994   -1    0    0    0    0 -0.00000000000E+00 -0.00000000000E+00  0.00000000000E+00  0.13100000000E+03  0.13100000000E+03 0.  0.
         13    1    1    2    0    0  0.81496962559E+01  0.19507058337E+02  0.23333248189E+01  0.21269660147E+02  0.10566000000E+00 0. -1.
        994    1    1    2    0    0  0.27013024592E+02 -0.49089524747E+02  0.15685059938E+03  0.21190232529E+03  0.13100000000E+03 0.  0.
        997    1    1    2    0    0 -0.35162720848E+02  0.29582466409E+02  0.34081606464E+03  0.39782801456E+03  0.20000000000E+03 0.  0.
</event>
<event>
 5    1  0.8566659E-012  0.2275776E+03  0.7957747E-01  0.4603245E+00
         13   -1    0    0    0    0  0.00000000000E+00  0.00000000000E+00  0.49999998884E+03  0.50000000000E+03  0.10566000000E+00 0. -1.
        994   -1    0    0    0    0 -0.00000000000E+00 -0.00000000000E+00  0.00000000000E+00  0.13100000000E+03  0.13100000000E+03 0.  0.
         13    1    1    2    0    0 -0.80465705152E+01 -0.70335028587E+01  0.20174214651E+02  0.22830408676E+02  0.10566000000E+00 0.  1.
        994    1    1    2    0    0 -0.14874076637E+01  0.26012224858E+02  0.68053232850E+02  0.14990360478E+03  0.13100000000E+03 0.  0.
        997    1    1    2    0    0  0.95339781788E+01 -0.18978721999E+02  0.41177254133E+03  0.45826598655E+03  0.20000000000E+03 0.  0.
</event>
<event>
 5    1  0.8566659E-012  0.2358922E+03  0.7957747E-01  0.4496080E+00
         13   -1    0    0    0    0  0.00000000000E+00  0.00000000000E+00  0.49999998884E+03  0.50000000000E+03  0.10566000000E+00 0.  1.
        994   -1    0    0    0    0 -0.00000000000E+00 -0.00000000000E+00  0.00000000000E+00  0.13100000000E+03  0.13100000000E+03 0.  0.
         13    1    1    2    0    0  0.20184292144E+02  0.15027275138E+02  0.28688887416E+02  0.38161342647E+02  0.10566000000E+00 0. -1.
        994    1    1    2    0    0  0.78556339338E+00 -0.53386783150E+02  0.11674923419E+03  0.18341796371E+03  0.13100000000E+03 0.  0.
        997    1    1    2    0    0 -0.20969855537E+02  0.38359508012E+02  0.35456186723E+03  0.40942069365E+03  0.20000000000E+03 0.  0.
</event>
<event>
 5    1  0.8566659E-012  0.2472731E+03  0.7957747E-01  0.4363244E+00
         13   -1    0    0    0    0  0.00000000000E+00  0.00000000000E+00  0.49999998884E+03  0.50000000000E+03  0.10566000000E+00 0. -1.
        994   -1    0    0    0    0 -0.00000000000E+00 -0.00000000000E+00  0.00000000000E+00  0.13100000000E+03  0.13100000000E+03 0.  0.
         13    1    1    2    0    0  0.55471924780E+01  0.39702660935E+02  0.54348811308E+02  0.67534266002E+02  0.10566000000E+00 0.  1.
        994    1    1    2    0    0  0.40373264208E+02 -0.11495965164E+02  0.17099458807E+03  0.21945912336E+03  0.13100000000E+03 0.  0.
        997    1    1    2    0    0 -0.45920456686E+02 -0.28206695771E+02  0.27465658946E+03  0.34400661063E+03  0.20000000000E+03 0.  0.
</event>
<event>
 5    1  0.8566659E-012  0.2428942E+03  0.7957747E-01  0.4412612E+00
         13   -1    0    0    0    0  0.00000000000E+00  0.00000000000E+00  0.49999998884E+03  0.50000000000E+03  0.10566000000E+00 0. -1.
        994   -1    0    0    0    0 -0.00000000000E+00 -0.00000000000E+00  0.00000000000E+00  0.13100000000E+03  0.13100000000E+03 0.  0.
         13    1    1    2    0    0 -0.19171468326E+02 -0.80096528000E+01  0.30498526685E+01  0.21000297643E+02  0.10566000000E+00 0.  1.
        994    1    1    2    0    0 -0.26803291348E+01  0.39066721351E+02  0.12150313639E+03  0.18291365459E+03  0.13100000000E+03 0.  0.
        997    1    1    2    0    0  0.21851797461E+02 -0.31057068551E+02  0.37544699977E+03  0.42708604777E+03  0.20000000000E+03 0.  0.
</event>
