<event>
 5    1  0.1247473E-008  0.3803169E+03  0.7957747E-01  0.3449780E+00
         13   -1    0    0    0    0  0.00000000000E+00  0.00000000000E+00  0.14999999963E+04  0.15000000000E+04  0.10566000000E+00 0.  1.
        994   -1    0    0    0    0 -0.00000000000E+00 -0.00000000000E+00  0.11368683772E-12  0.17120000000E+03  0.17120000000E+03 0.  0.
         13    1    1    2    0    0  0.59471572163E+02 -0.24492722438E+03  0.93047381604E+03  0.96400609263E+03  0.10566000000E+00 0.  1.
        994    1    1    2    0    0 -0.83393578727E+02  0.25725583642E+03  0.30832492595E+03  0.44441957012E+03  0.17120000000E+03 0.  0.
        998    1    1    2    0    0  0.23922006564E+02 -0.12328612038E+02  0.26120125429E+03  0.26277433725E+03  0.10000000000E+02 0. -1.
</event>
<event>
 5    1  0.1247473E-008  0.3838065E+03  0.7957747E-01  0.3434750E+00
         13   -1    0    0    0    0  0.00000000000E+00  0.00000000000E+00  0.14999999963E+04  0.15000000000E+04  0.10566000000E+00 0.  1.
        994   -1    0    0    0    0 -0.00000000000E+00 -0.00000000000E+00  0.11368683772E-12  0.17120000000E+03  0.17120000000E+03 0.  0.
         13    1    1    2    0    0  0.12123650497E+02  0.12283639723E+02  0.64397736690E+02  0.66670460933E+02  0.10566000000E+00 0.  1.
        994    1    1    2    0    0 -0.45577870709E+02  0.18427261645E+02  0.10244307712E+02  0.17841326215E+03  0.17120000000E+03 0.  0.
        998    1    1    2    0    0  0.33454220212E+02 -0.30710901368E+02  0.14253579519E+04  0.14261162769E+04  0.10000000000E+02 0.  1.
</event>
<event>
 5    1  0.1247473E-008  0.3749769E+03  0.7957747E-01  0.3473326E+00
         13   -1    0    0    0    0  0.00000000000E+00  0.00000000000E+00  0.14999999963E+04  0.15000000000E+04  0.10566000000E+00 0. -1.
        994   -1    0    0    0    0 -0.00000000000E+00 -0.00000000000E+00  0.11368683772E-12  0.17120000000E+03  0.17120000000E+03 0.  0.
         13    1    1    2    0    0 -0.42297814118E+02 -0.37752111051E+02  0.33277397640E+03  0.33756904109E+03  0.10566000000E+00 0. -1.
        994    1    1    2    0    0 -0.22080933192E+02  0.16371727296E+02  0.92634738330E+01  0.17364000983E+03  0.17120000000E+03 0.  0.
        998    1    1    2    0    0  0.64378747310E+02  0.21380383755E+02  0.11579625460E+04  0.11599909491E+04  0.10000000000E+02 0. -1.
</event>
<event>
 5    1  0.1247473E-008  0.3837663E+03  0.7957747E-01  0.3434921E+00
         13   -1    0    0    0    0  0.00000000000E+00  0.00000000000E+00  0.14999999963E+04  0.15000000000E+04  0.10566000000E+00 0.  1.
        994   -1    0    0    0    0 -0.00000000000E+00 -0.00000000000E+00  0.11368683772E-12  0.17120000000E+03  0.17120000000E+03 0.  0.
         13    1    1    2    0    0 -0.12132140180E+02  0.12748835315E+02  0.73161173445E+02  0.75248189952E+02  0.10566000000E+00 0.  1.
        994    1    1    2    0    0 -0.52346009410E+01 -0.52418175652E+01  0.24251153681E+01  0.17137735814E+03  0.17120000000E+03 0.  0.
        998    1    1    2    0    0  0.17366741121E+02 -0.75070177499E+01  0.14244137075E+04  0.14245744519E+04  0.10000000000E+02 0.  1.
</event>
<event>
 5    1  0.1247473E-008  0.3829001E+03  0.7957747E-01  0.3438627E+00
         13   -1    0    0    0    0  0.00000000000E+00  0.00000000000E+00  0.14999999963E+04  0.15000000000E+04  0.10566000000E+00 0. -1.
        994   -1    0    0    0    0 -0.00000000000E+00 -0.00000000000E+00  0.11368683772E-12  0.17120000000E+03  0.17120000000E+03 0.  0.
         13    1    1    2    0    0  0.98264449864E+00 -0.21705738903E+02  0.91594688506E+02  0.94136617838E+02  0.10566000000E+00 0. -1.
        994    1    1    2    0    0  0.10066776123E+01  0.59143971649E+01  0.27955005544E+01  0.17132789708E+03  0.17120000000E+03 0.  0.
        998    1    1    2    0    0 -0.19893221109E+01  0.15791341738E+02  0.14056098072E+04  0.14057354851E+04  0.10000000000E+02 0. -1.
</event>
<event>
 5    1  0.1247473E-008  0.3790964E+03  0.7957747E-01  0.3455102E+00
         13   -1    0    0    0    0  0.00000000000E+00  0.00000000000E+00  0.14999999963E+04  0.15000000000E+04  0.10566000000E+00 0.  1.
        994   -1    0    0    0    0 -0.00000000000E+00 -0.00000000000E+00  0.11368683772E-12  0.17120000000E+03  0.17120000000E+03 0.  0.
         13    1    1    2    0    0  0.35107999217E+01  0.19416871923E+02  0.45865653416E+01  0.20258044749E+02  0.10566000000E+00 0.  1.
        994    1    1    2    0    0  0.44329267948E+01 -0.50326333740E+02  0.25107808864E+02  0.18025602008E+03  0.17120000000E+03 0.  0.
        998    1    1    2    0    0 -0.79437267165E+01  0.30909461817E+02  0.14703056221E+04  0.14706859352E+04  0.10000000000E+02 0.  1.
</event>
<event>
 5    1  0.1247473E-008  0.3773698E+03  0.7957747E-01  0.3462691E+00
         13   -1    0    0    0    0  0.00000000000E+00  0.00000000000E+00  0.14999999963E+04  0.15000000000E+04  0.10566000000E+00 0.  1.
        994   -1    0    0    0    0 -0.00000000000E+00 -0.00000000000E+00  0.11368683772E-12  0.17120000000E+03  0.17120000000E+03 0.  0.
         13    1    1    2    0    0  0.86287292348E+02  0.13213000405E+02  0.22153976089E+03  0.23811752775E+03  0.10566000000E+00 0.  1.
        994    1    1    2    0    0 -0.75265833901E+02 -0.39171182967E+02  0.41204562684E+02  0.19546504371E+03  0.17120000000E+03 0.  0.
        998    1    1    2    0    0 -0.11021458447E+02  0.25958182562E+02  0.12372556727E+04  0.12376174285E+04  0.10000000000E+02 0.  1.
</event>
<event>
 5    1  0.1346436E-008  0.3837432E+03  0.7957747E-01  0.3435020E+00
         13   -1    0    0    0    0  0.00000000000E+00  0.00000000000E+00  0.14999999963E+04  0.15000000000E+04  0.10566000000E+00 0. -1.
        994   -1    0    0    0    0 -0.00000000000E+00 -0.00000000000E+00  0.11368683772E-12  0.17120000000E+03  0.17120000000E+03 0.  0.
         13    1    1    2    0    0  0.50968701842E+00 -0.10031952961E+02  0.21557252107E+02  0.23782896028E+02  0.10566000000E+00 0. -1.
        994    1    1    2    0    0  0.12123394345E+01  0.78860665581E+01  0.24656365736E+01  0.17140355649E+03  0.17120000000E+03 0.  0.
        998    1    1    2    0    0 -0.17220264530E+01  0.21458864032E+01  0.14759771076E+04  0.14760135475E+04  0.10000000000E+02 0.  0.
</event>
<event>
 5    1  0.1247473E-008  0.3752222E+03  0.7957747E-01  0.3472230E+00
         13   -1    0    0    0    0  0.00000000000E+00  0.00000000000E+00  0.14999999963E+04  0.15000000000E+04  0.10566000000E+00 0.  1.
        994   -1    0    0    0    0 -0.00000000000E+00 -0.00000000000E+00  0.11368683772E-12  0.17120000000E+03  0.17120000000E+03 0.  0.
         13    1    1    2    0    0 -0.60255675889E+02 -0.65959168382E+02  0.48105331476E+03  0.48927871523E+03  0.10566000000E+00 0.  1.
        994    1    1    2    0    0  0.85155119743E+01 -0.21015287970E+02  0.15560268715E+02  0.17339468918E+03  0.17120000000E+03 0.  0.
        998    1    1    2    0    0  0.51740163915E+02  0.86974456352E+02  0.10033864128E+04  0.10085265956E+04  0.10000000000E+02 0.  1.
</event>
<event>
 5    1  0.1247473E-008  0.2599191E+03  0.7957747E-01  0.4231502E+00
         13   -1    0    0    0    0  0.00000000000E+00  0.00000000000E+00  0.14999999963E+04  0.15000000000E+04  0.10566000000E+00 0. -1.
        994   -1    0    0    0    0 -0.00000000000E+00 -0.00000000000E+00  0.11368683772E-12  0.17120000000E+03  0.17120000000E+03 0.  0.
         13    1    1    2    0    0  0.19881384391E+03 -0.21243457950E+02  0.30223901842E+03  0.36239021021E+03  0.10566000000E+00 0. -1.
        994    1    1    2    0    0 -0.17488026723E+03  0.40030307179E+02  0.22293891673E+03  0.33346174286E+03  0.17120000000E+03 0.  0.
        998    1    1    2    0    0 -0.23933576677E+02 -0.18786849228E+02  0.97482206112E+03  0.97534804693E+03  0.10000000000E+02 0. -1.
</event>
<event>
 5    1  0.1247473E-008  0.3810718E+03  0.7957747E-01  0.3446505E+00
         13   -1    0    0    0    0  0.00000000000E+00  0.00000000000E+00  0.14999999963E+04  0.15000000000E+04  0.10566000000E+00 0.  1.
        994   -1    0    0    0    0 -0.00000000000E+00 -0.00000000000E+00  0.11368683772E-12  0.17120000000E+03  0.17120000000E+03 0.  0.
         13    1    1    2    0    0  0.72514485600E+01 -0.72168403279E+01  0.13078509179E+02  0.16604964827E+02  0.10566000000E+00 0.  1.
        994    1    1    2    0    0 -0.34236432316E+01  0.47585528211E+01  0.37075931088E+01  0.17134045466E+03  0.17120000000E+03 0.  0.
        998    1    1    2    0    0 -0.38278053284E+01  0.24582875068E+01  0.14832138940E+04  0.14832545805E+04  0.10000000000E+02 0.  1.
</event>
<event>
 5    1  0.1247473E-008  0.3761779E+03  0.7957747E-01  0.3467972E+00
         13   -1    0    0    0    0  0.00000000000E+00  0.00000000000E+00  0.14999999963E+04  0.15000000000E+04  0.10566000000E+00 0. -1.
        994   -1    0    0    0    0 -0.00000000000E+00 -0.00000000000E+00  0.11368683772E-12  0.17120000000E+03  0.17120000000E+03 0.  0.
         13    1    1    2    0    0 -0.10179390427E+02  0.70682548457E+02  0.21775937013E+03  0.22916979969E+03  0.10566000000E+00 0. -1.
        994    1    1    2    0    0 -0.28129176296E+02 -0.10680394014E+01  0.17080135115E+02  0.17433749534E+03  0.17120000000E+03 0.  0.
        998    1    1    2    0    0  0.38308566723E+02 -0.69614509055E+02  0.12651604910E+04  0.12676927050E+04  0.10000000000E+02 0. -1.
</event>
<event>
 5    1  0.1247473E-008  0.3698938E+03  0.7957747E-01  0.3496379E+00
         13   -1    0    0    0    0  0.00000000000E+00  0.00000000000E+00  0.14999999963E+04  0.15000000000E+04  0.10566000000E+00 0. -1.
        994   -1    0    0    0    0 -0.00000000000E+00 -0.00000000000E+00  0.11368683772E-12  0.17120000000E+03  0.17120000000E+03 0.  0.
         13    1    1    2    0    0 -0.50886845884E+02 -0.38677376444E+02  0.19532113727E+03  0.20551342623E+03  0.10566000000E+00 0. -1.
        994    1    1    2    0    0  0.48162743477E+02  0.31525285666E+02  0.20874498756E+02  0.18182045593E+03  0.17120000000E+03 0.  0.
        998    1    1    2    0    0  0.27241024074E+01  0.71520907782E+01  0.12838043603E+04  0.12838661178E+04  0.10000000000E+02 0. -1.
</event>
<event>
 5    1  0.1247473E-008  0.3851571E+03  0.7957747E-01  0.3429006E+00
         13   -1    0    0    0    0  0.00000000000E+00  0.00000000000E+00  0.14999999963E+04  0.15000000000E+04  0.10566000000E+00 0.  1.
        994   -1    0    0    0    0 -0.00000000000E+00 -0.00000000000E+00  0.11368683772E-12  0.17120000000E+03  0.17120000000E+03 0.  0.
         13    1    1    2    0    0 -0.14173032738E+02 -0.11042952568E+00  0.62451419646E+02  0.64039659832E+02  0.10566000000E+00 0.  1.
        994    1    1    2    0    0  0.15243294808E+02  0.59288395691E+01  0.24319665623E+01  0.17199669659E+03  0.17120000000E+03 0.  0.
        998    1    1    2    0    0 -0.10702620694E+01 -0.58184100434E+01  0.14351166101E+04  0.14351636436E+04  0.10000000000E+02 0.  1.
</event>
<event>
 5    1  0.1247473E-008  0.3846940E+03  0.7957747E-01  0.3430971E+00
         13   -1    0    0    0    0  0.00000000000E+00  0.00000000000E+00  0.14999999963E+04  0.15000000000E+04  0.10566000000E+00 0.  1.
        994   -1    0    0    0    0 -0.00000000000E+00 -0.00000000000E+00  0.11368683772E-12  0.17120000000E+03  0.17120000000E+03 0.  0.
         13    1    1    2    0    0  0.13458574408E+02  0.11034643887E+02  0.83006167605E+02  0.84811152659E+02  0.10566000000E+00 0.  1.
        994    1    1    2    0    0 -0.12538111604E+02 -0.75191457336E+01  0.24860933262E+01  0.17184109653E+03  0.17120000000E+03 0.  0.
        998    1    1    2    0    0 -0.92046280360E+00 -0.35154981535E+01  0.14145077353E+04  0.14145477508E+04  0.10000000000E+02 0.  1.
</event>
<event>
 5    1  0.1247473E-008  0.3766341E+03  0.7957747E-01  0.3465947E+00
         13   -1    0    0    0    0  0.00000000000E+00  0.00000000000E+00  0.14999999963E+04  0.15000000000E+04  0.10566000000E+00 0.  1.
        994   -1    0    0    0    0 -0.00000000000E+00 -0.00000000000E+00  0.11368683772E-12  0.17120000000E+03  0.17120000000E+03 0.  0.
         13    1    1    2    0    0 -0.20800579800E+02  0.21916539628E+02  0.86348390874E+02  0.91482537131E+02  0.10566000000E+00 0.  1.
        994    1    1    2    0    0 -0.63842270463E+00  0.15207329499E+02  0.66255243532E+01  0.17200293029E+03  0.17120000000E+03 0.  0.
        998    1    1    2    0    0  0.21439002505E+02 -0.37123869127E+02  0.14070260811E+04  0.14077145326E+04  0.10000000000E+02 0.  1.
</event>
<event>
 5    1  0.1247473E-008  0.3841619E+03  0.7957747E-01  0.3433235E+00
         13   -1    0    0    0    0  0.00000000000E+00  0.00000000000E+00  0.14999999963E+04  0.15000000000E+04  0.10566000000E+00 0. -1.
        994   -1    0    0    0    0 -0.00000000000E+00 -0.00000000000E+00  0.11368683772E-12  0.17120000000E+03  0.17120000000E+03 0.  0.
         13    1    1    2    0    0  0.13561022408E+02  0.10635650829E+02  0.73089946036E+02  0.75094405736E+02  0.10566000000E+00 0. -1.
        994    1    1    2    0    0  0.29228246721E+01 -0.19007699458E+02  0.32673377504E+01  0.17230772194E+03  0.17120000000E+03 0.  0.
        998    1    1    2    0    0 -0.16483847080E+02  0.83720486288E+01  0.14236427125E+04  0.14237978723E+04  0.10000000000E+02 0. -1.
</event>
<event>
 5    1  0.1247473E-008  0.3800835E+03  0.7957747E-01  0.3450795E+00
         13   -1    0    0    0    0  0.00000000000E+00  0.00000000000E+00  0.14999999963E+04  0.15000000000E+04  0.10566000000E+00 0.  1.
        994   -1    0    0    0    0 -0.00000000000E+00 -0.00000000000E+00  0.11368683772E-12  0.17120000000E+03  0.17120000000E+03 0.  0.
         13    1    1    2    0    0  0.30592364176E+02  0.21508421573E+01  0.13309830307E+03  0.13658582764E+03  0.10566000000E+00 0.  1.
        994    1    1    2    0    0  0.85689638194E+01 -0.20036272428E+02  0.56796598486E+01  0.17267477491E+03  0.17120000000E+03 0.  0.
        998    1    1    2    0    0 -0.39161327995E+02  0.17885430271E+02  0.13612220334E+04  0.13619393974E+04  0.10000000000E+02 0.  1.
</event>
<event>
 5    1  0.1247473E-008  0.3846556E+03  0.7957747E-01  0.3431134E+00
         13   -1    0    0    0    0  0.00000000000E+00  0.00000000000E+00  0.14999999963E+04  0.15000000000E+04  0.10566000000E+00 0.  1.
        994   -1    0    0    0    0 -0.00000000000E+00 -0.00000000000E+00  0.11368683772E-12  0.17120000000E+03  0.17120000000E+03 0.  0.
         13    1    1    2    0    0  0.13903800758E+02  0.44548089474E+01  0.63843345516E+02  0.65491563800E+02  0.10566000000E+00 0.  1.
        994    1    1    2    0    0  0.53168201992E+01 -0.57485980367E+01  0.20031373145E+01  0.17139068678E+03  0.17120000000E+03 0.  0.
        998    1    1    2    0    0 -0.19220620957E+02  0.12937890893E+01  0.14341535134E+04  0.14343177494E+04  0.10000000000E+02 0.  1.
</event>
<event>
 5    1  0.1247473E-008  0.3802506E+03  0.7957747E-01  0.3450068E+00
         13   -1    0    0    0    0  0.00000000000E+00  0.00000000000E+00  0.14999999963E+04  0.15000000000E+04  0.10566000000E+00 0. -1.
        994   -1    0    0    0    0 -0.00000000000E+00 -0.00000000000E+00  0.11368683772E-12  0.17120000000E+03  0.17120000000E+03 0.  0.
         13    1    1    2    0    0  0.12646609522E+02  0.24447229390E+01  0.18819015809E+02  0.22805260856E+02  0.10566000000E+00 0. -1.
        994    1    1    2    0    0 -0.12825499110E+02 -0.35983803000E+01  0.45996030839E+01  0.17177903864E+03  0.17120000000E+03 0.  0.
        998    1    1    2    0    0  0.17888958781E+00  0.11536573609E+01  0.14765813774E+04  0.14766157005E+04  0.10000000000E+02 0. -1.
</event>
<event>
 5    1  0.1247473E-008  0.3831013E+03  0.7957747E-01  0.3437765E+00
         13   -1    0    0    0    0  0.00000000000E+00  0.00000000000E+00  0.14999999963E+04  0.15000000000E+04  0.10566000000E+00 0. -1.
        994   -1    0    0    0    0 -0.00000000000E+00 -0.00000000000E+00  0.11368683772E-12  0.17120000000E+03  0.17120000000E+03 0.  0.
         13    1    1    2    0    0  0.16399053074E+02 -0.46396130902E+01  0.54230993490E+02  0.56845991682E+02  0.10566000000E+00 0. -1.
        994    1    1    2    0    0 -0.16905611384E+02  0.12077710071E+01  0.35268924719E+01  0.17207305826E+03  0.17120000000E+03 0.  0.
        998    1    1    2    0    0  0.50655831020E+00  0.34318420831E+01  0.14422421103E+04  0.14422809501E+04  0.10000000000E+02 0. -1.
</event>
<event>
 5    1  0.1247473E-008  0.3850416E+03  0.7957747E-01  0.3429496E+00
         13   -1    0    0    0    0  0.00000000000E+00  0.00000000000E+00  0.14999999963E+04  0.15000000000E+04  0.10566000000E+00 0.  1.
        994   -1    0    0    0    0 -0.00000000000E+00 -0.00000000000E+00  0.11368683772E-12  0.17120000000E+03  0.17120000000E+03 0.  0.
         13    1    1    2    0    0 -0.52014410485E+01  0.11450751077E+02  0.51876342849E+02  0.53379216936E+02  0.10566000000E+00 0.  1.
        994    1    1    2    0    0 -0.18676642087E+02 -0.77090724852E+01  0.29530349961E+01  0.17241347736E+03  0.17120000000E+03 0.  0.
        998    1    1    2    0    0  0.23878083135E+02 -0.37416785922E+01  0.14451706184E+04  0.14454073057E+04  0.10000000000E+02 0.  1.
</event>
<event>
 5    1  0.1247473E-008  0.3842122E+03  0.7957747E-01  0.3433020E+00
         13   -1    0    0    0    0  0.00000000000E+00  0.00000000000E+00  0.14999999963E+04  0.15000000000E+04  0.10566000000E+00 0.  1.
        994   -1    0    0    0    0 -0.00000000000E+00 -0.00000000000E+00  0.11368683772E-12  0.17120000000E+03  0.17120000000E+03 0.  0.
         13    1    1    2    0    0  0.20317371181E+02  0.46369037467E+01  0.11169261054E+03  0.11362018686E+03  0.10566000000E+00 0.  1.
        994    1    1    2    0    0 -0.76087734555E+01 -0.74905489288E-01  0.22127078796E+01  0.17138329884E+03  0.17120000000E+03 0.  0.
        998    1    1    2    0    0 -0.12708597725E+02 -0.45619982574E+01  0.13860946779E+04  0.13861965143E+04  0.10000000000E+02 0.  1.
</event>
<event>
 5    1  0.1247473E-008  0.3830474E+03  0.7957747E-01  0.3437996E+00
         13   -1    0    0    0    0  0.00000000000E+00  0.00000000000E+00  0.14999999963E+04  0.15000000000E+04  0.10566000000E+00 0.  1.
        994   -1    0    0    0    0 -0.00000000000E+00 -0.00000000000E+00  0.11368683772E-12  0.17120000000E+03  0.17120000000E+03 0.  0.
         13    1    1    2    0    0 -0.16439655388E+03  0.10746896058E+03  0.11385000120E+04  0.11553173126E+04  0.10566000000E+00 0.  1.
        994    1    1    2    0    0  0.16143405380E+03 -0.11412184242E+03  0.14500167084E+03  0.29903122444E+03  0.17120000000E+03 0.  0.
        998    1    1    2    0    0  0.29625000802E+01  0.66528818340E+01  0.21649831349E+03  0.21685146296E+03  0.10000000000E+02 0.  1.
</event>
<event>
 5    1  0.1247473E-008  0.4228702E+03  0.7957747E-01  0.3283395E+00
         13   -1    0    0    0    0  0.00000000000E+00  0.00000000000E+00  0.14999999963E+04  0.15000000000E+04  0.10566000000E+00 0. -1.
        994   -1    0    0    0    0 -0.00000000000E+00 -0.00000000000E+00  0.11368683772E-12  0.17120000000E+03  0.17120000000E+03 0.  0.
         13    1    1    2    0    0  0.10061809371E+02 -0.54279634983E+02  0.20445756238E+02  0.58868997731E+02  0.10566000000E+00 0. -1.
        994    1    1    2    0    0 -0.10529137555E+02  0.54016551962E+02  0.55437693395E+02  0.18817924559E+03  0.17120000000E+03 0.  0.
        998    1    1    2    0    0  0.46732818338E+00  0.26308302112E+00  0.14241165466E+04  0.14241517567E+04  0.10000000000E+02 0.  0.
</event>
<event>
 5    1  0.1247473E-008  0.3839143E+03  0.7957747E-01  0.3434290E+00
         13   -1    0    0    0    0  0.00000000000E+00  0.00000000000E+00  0.14999999963E+04  0.15000000000E+04  0.10566000000E+00 0.  1.
        994   -1    0    0    0    0 -0.00000000000E+00 -0.00000000000E+00  0.11368683772E-12  0.17120000000E+03  0.17120000000E+03 0.  0.
         13    1    1    2    0    0  0.15574302975E+01  0.15912027348E+02  0.57292304991E+02  0.59481405319E+02  0.10566000000E+00 0.  1.
        994    1    1    2    0    0 -0.52880304324E+01 -0.13798059906E+02  0.28910462650E+01  0.17186083868E+03  0.17120000000E+03 0.  0.
        998    1    1    2    0    0  0.37306001349E+01 -0.21139674423E+01  0.14398166450E+04  0.14398577560E+04  0.10000000000E+02 0.  1.
</event>
<event>
 5    1  0.1247473E-008  0.3839563E+03  0.7957747E-01  0.3434111E+00
         13   -1    0    0    0    0  0.00000000000E+00  0.00000000000E+00  0.14999999963E+04  0.15000000000E+04  0.10566000000E+00 0.  1.
        994   -1    0    0    0    0 -0.00000000000E+00 -0.00000000000E+00  0.11368683772E-12  0.17120000000E+03  0.17120000000E+03 0.  0.
         13    1    1    2    0    0 -0.68937332344E+02 -0.14133419718E+03  0.42752314309E+03  0.45552580622E+03  0.10566000000E+00 0.  1.
        994    1    1    2    0    0  0.74171970870E+02  0.14304289000E+03  0.12152105176E+03  0.26464987373E+03  0.17120000000E+03 0.  0.
        998    1    1    2    0    0 -0.52346385257E+01 -0.17086928214E+01  0.95095580143E+03  0.95102432006E+03  0.10000000000E+02 0. -1.
</event>
<event>
 5    1  0.1247473E-008  0.3834002E+03  0.7957747E-01  0.3436486E+00
         13   -1    0    0    0    0  0.00000000000E+00  0.00000000000E+00  0.14999999963E+04  0.15000000000E+04  0.10566000000E+00 0. -1.
        994   -1    0    0    0    0 -0.00000000000E+00 -0.00000000000E+00  0.11368683772E-12  0.17120000000E+03  0.17120000000E+03 0.  0.
         13    1    1    2    0    0  0.93600212950E+01 -0.10185004721E+02  0.39729890162E+02  0.42069224573E+02  0.10566000000E+00 0. -1.
        994    1    1    2    0    0 -0.22672244047E+01  0.22085048834E+01  0.24596231888E+01  0.17124691982E+03  0.17120000000E+03 0.  0.
        998    1    1    2    0    0 -0.70927968904E+01  0.79764998377E+01  0.14578104829E+04  0.14578838556E+04  0.10000000000E+02 0. -1.
</event>
<event>
 5    1  0.1247473E-008  0.3837128E+03  0.7957747E-01  0.3435150E+00
         13   -1    0    0    0    0  0.00000000000E+00  0.00000000000E+00  0.14999999963E+04  0.15000000000E+04  0.10566000000E+00 0. -1.
        994   -1    0    0    0    0 -0.00000000000E+00 -0.00000000000E+00  0.11368683772E-12  0.17120000000E+03  0.17120000000E+03 0.  0.
         13    1    1    2    0    0  0.39144645970E+01 -0.23867832449E+02  0.13838324069E+03  0.14048106252E+03  0.10566000000E+00 0. -1.
        994    1    1    2    0    0  0.33010888752E+01  0.59890555404E+01  0.24250236917E+01  0.17135368894E+03  0.17120000000E+03 0.  0.
        998    1    1    2    0    0 -0.72155534722E+01  0.17878776909E+02  0.13591917319E+04  0.13593652485E+04  0.10000000000E+02 0. -1.
</event>
<event>
 5    1  0.1247473E-008  0.3748958E+03  0.7957747E-01  0.3473689E+00
         13   -1    0    0    0    0  0.00000000000E+00  0.00000000000E+00  0.14999999963E+04  0.15000000000E+04  0.10566000000E+00 0. -1.
        994   -1    0    0    0    0 -0.00000000000E+00 -0.00000000000E+00  0.11368683772E-12  0.17120000000E+03  0.17120000000E+03 0.  0.
         13    1    1    2    0    0  0.25154274590E+02  0.10042151151E+02  0.44570500332E+02  0.52154798378E+02  0.10566000000E+00 0. -1.
        994    1    1    2    0    0 -0.66845905885E+02 -0.12470272993E+02  0.22621457611E+02  0.18559378542E+03  0.17120000000E+03 0.  0.
        998    1    1    2    0    0  0.41691631295E+02  0.24281218415E+01  0.14328080383E+04  0.14334514162E+04  0.10000000000E+02 0. -1.
</event>
<event>
 5    1  0.1247473E-008  0.3814520E+03  0.7957747E-01  0.3444860E+00
         13   -1    0    0    0    0  0.00000000000E+00  0.00000000000E+00  0.14999999963E+04  0.15000000000E+04  0.10566000000E+00 0.  1.
        994   -1    0    0    0    0 -0.00000000000E+00 -0.00000000000E+00  0.11368683772E-12  0.17120000000E+03  0.17120000000E+03 0.  0.
         13    1    1    2    0    0  0.53350453450E+02  0.19342064685E+02  0.33680054762E+03  0.34154795621E+03  0.10566000000E+00 0.  1.
        994    1    1    2    0    0 -0.60134036513E+02 -0.24844015082E+02  0.17616486152E+02  0.18399214118E+03  0.17120000000E+03 0.  0.
        998    1    1    2    0    0  0.67835830622E+01  0.55019503963E+01  0.11455829625E+04  0.11456599026E+04  0.10000000000E+02 0.  1.
</event>
<event>
 5    1  0.1247473E-008  0.3848984E+03  0.7957747E-01  0.3430103E+00
         13   -1    0    0    0    0  0.00000000000E+00  0.00000000000E+00  0.14999999963E+04  0.15000000000E+04  0.10566000000E+00 0.  1.
        994   -1    0    0    0    0 -0.00000000000E+00 -0.00000000000E+00  0.11368683772E-12  0.17120000000E+03  0.17120000000E+03 0.  0.
         13    1    1    2    0    0  0.52456341489E+01  0.11432451727E+02  0.45457611434E+02  0.47165911753E+02  0.10566000000E+00 0.  1.
        994    1    1    2    0    0  0.51623011209E+01 -0.18565714628E+02  0.29031272070E+01  0.17230555203E+03  0.17120000000E+03 0.  0.
        998    1    1    2    0    0 -0.10407935270E+02  0.71332629011E+01  0.14516392576E+04  0.14517285362E+04  0.10000000000E+02 0.  1.
</event>
<event>
 5    1  0.1247473E-008  0.3771075E+03  0.7957747E-01  0.3463850E+00
         13   -1    0    0    0    0  0.00000000000E+00  0.00000000000E+00  0.14999999963E+04  0.15000000000E+04  0.10566000000E+00 0. -1.
        994   -1    0    0    0    0 -0.00000000000E+00 -0.00000000000E+00  0.11368683772E-12  0.17120000000E+03  0.17120000000E+03 0.  0.
         13    1    1    2    0    0 -0.95647207811E+01  0.75031912209E+01  0.10660945166E+02  0.16169374694E+02  0.10566000000E+00 0. -1.
        994    1    1    2    0    0  0.87810212412E+01 -0.50573718537E+01  0.59470678252E+01  0.17160271257E+03  0.17120000000E+03 0.  0.
        998    1    1    2    0    0  0.78369953988E+00 -0.24458193672E+01  0.14833919833E+04  0.14834279127E+04  0.10000000000E+02 0. -1.
</event>
<event>
 5    1  0.1247473E-008  0.3818180E+03  0.7957747E-01  0.3443280E+00
         13   -1    0    0    0    0  0.00000000000E+00  0.00000000000E+00  0.14999999963E+04  0.15000000000E+04  0.10566000000E+00 0.  1.
        994   -1    0    0    0    0 -0.00000000000E+00 -0.00000000000E+00  0.11368683772E-12  0.17120000000E+03  0.17120000000E+03 0.  0.
         13    1    1    2    0    0 -0.69651937507E+01 -0.14821997379E+02  0.40396785399E+02  0.43590331094E+02  0.10566000000E+00 0.  1.
        994    1    1    2    0    0  0.10710983530E+02  0.79853213551E+01  0.38115558218E+01  0.17176279715E+03  0.17120000000E+03 0.  0.
        998    1    1    2    0    0 -0.37457897792E+01  0.68366760235E+01  0.14557916551E+04  0.14558468718E+04  0.10000000000E+02 0.  1.
</event>
<event>
 5    1  0.1247473E-008  0.3190619E+03  0.7957747E-01  0.3768680E+00
         13   -1    0    0    0    0  0.00000000000E+00  0.00000000000E+00  0.14999999963E+04  0.15000000000E+04  0.10566000000E+00 0.  1.
        994   -1    0    0    0    0 -0.00000000000E+00 -0.00000000000E+00  0.11368683772E-12  0.17120000000E+03  0.17120000000E+03 0.  0.
         13    1    1    2    0    0 -0.16606357184E+03  0.16679308328E+03  0.53957798822E+03  0.58867772088E+03  0.10566000000E+00 0.  1.
        994    1    1    2    0    0  0.20215126679E+03 -0.20575321782E+03  0.41122958472E+03  0.53067761650E+03  0.17120000000E+03 0.  0.
        998    1    1    2    0    0 -0.36087694946E+02  0.38960134542E+02  0.54919242334E+03  0.55184466262E+03  0.10000000000E+02 0.  1.
</event>
<event>
 5    1  0.1247473E-008  0.3822264E+03  0.7957747E-01  0.3441521E+00
         13   -1    0    0    0    0  0.00000000000E+00  0.00000000000E+00  0.14999999963E+04  0.15000000000E+04  0.10566000000E+00 0.  1.
        994   -1    0    0    0    0 -0.00000000000E+00 -0.00000000000E+00  0.11368683772E-12  0.17120000000E+03  0.17120000000E+03 0.  0.
         13    1    1    2    0    0  0.73364298932E+01 -0.20252141444E+02  0.74318161378E+02  0.77376822830E+02  0.10566000000E+00 0.  1.
        994    1    1    2    0    0 -0.76885393593E+00  0.18968998909E+02  0.42104294452E+01  0.17230084670E+03  0.17120000000E+03 0.  0.
        998    1    1    2    0    0 -0.65675759573E+01  0.12831425352E+01  0.14214714055E+04  0.14215223305E+04  0.10000000000E+02 0.  1.
</event>
<event>
 5    1  0.1247473E-008  0.3824216E+03  0.7957747E-01  0.3440681E+00
         13   -1    0    0    0    0  0.00000000000E+00  0.00000000000E+00  0.14999999963E+04  0.15000000000E+04  0.10566000000E+00 0. -1.
        994   -1    0    0    0    0 -0.00000000000E+00 -0.00000000000E+00  0.11368683772E-12  0.17120000000E+03  0.17120000000E+03 0.  0.
         13    1    1    2    0    0  0.25236637058E+02  0.17525277447E+02  0.17712336144E+03  0.17976851652E+03  0.10566000000E+00 0. -1.
        994    1    1    2    0    0 -0.87531319203E+01  0.10943242779E+01  0.31737936935E+01  0.17145648961E+03  0.17120000000E+03 0.  0.
        998    1    1    2    0    0 -0.16483505138E+02 -0.18619601725E+02  0.13197028411E+04  0.13199749939E+04  0.10000000000E+02 0. -1.
</event>
<event>
 5    1  0.1247473E-008  0.3793983E+03  0.7957747E-01  0.3453782E+00
         13   -1    0    0    0    0  0.00000000000E+00  0.00000000000E+00  0.14999999963E+04  0.15000000000E+04  0.10566000000E+00 0.  1.
        994   -1    0    0    0    0 -0.00000000000E+00 -0.00000000000E+00  0.11368683772E-12  0.17120000000E+03  0.17120000000E+03 0.  0.
         13    1    1    2    0    0  0.43014232163E+01  0.11321359708E+02  0.14713889458E+02  0.19057416780E+02  0.10566000000E+00 0.  1.
        994    1    1    2    0    0  0.20291593250E+01 -0.68986618341E+01  0.46103948316E+01  0.17141296556E+03  0.17120000000E+03 0.  0.
        998    1    1    2    0    0 -0.63305825413E+01 -0.44226978734E+01  0.14806757120E+04  0.14807296177E+04  0.10000000000E+02 0.  1.
</event>
<event>
 5    1  0.1247473E-008  0.3836941E+03  0.7957747E-01  0.3435230E+00
         13   -1    0    0    0    0  0.00000000000E+00  0.00000000000E+00  0.14999999963E+04  0.15000000000E+04  0.10566000000E+00 0.  1.
        994   -1    0    0    0    0 -0.00000000000E+00 -0.00000000000E+00  0.11368683772E-12  0.17120000000E+03  0.17120000000E+03 0.  0.
         13    1    1    2    0    0  0.61869560145E+01 -0.14161226564E+02  0.53315188119E+02  0.55509811842E+02  0.10566000000E+00 0.  1.
        994    1    1    2    0    0 -0.31807584432E+01  0.34437279209E+01  0.23524558183E+01  0.17128032734E+03  0.17120000000E+03 0.  0.
        998    1    1    2    0    0 -0.30061975713E+01  0.10717498643E+02  0.14443323523E+04  0.14444098608E+04  0.10000000000E+02 0.  1.
</event>
<event>
 5    1  0.1247473E-008  0.3843556E+03  0.7957747E-01  0.3432410E+00
         13   -1    0    0    0    0  0.00000000000E+00  0.00000000000E+00  0.14999999963E+04  0.15000000000E+04  0.10566000000E+00 0.  1.
        994   -1    0    0    0    0 -0.00000000000E+00 -0.00000000000E+00  0.11368683772E-12  0.17120000000E+03  0.17120000000E+03 0.  0.
         13    1    1    2    0    0 -0.29944237855E+01 -0.24200929464E+02  0.14292323567E+03  0.14498866859E+03  0.10566000000E+00 0.  1.
        994    1    1    2    0    0  0.27118696215E-01  0.22275915404E+02  0.35874093911E+01  0.17268041768E+03  0.17120000000E+03 0.  0.
        998    1    1    2    0    0  0.29673050892E+01  0.19250140606E+01  0.13534893512E+04  0.13535309137E+04  0.10000000000E+02 0.  1.
</event>
<event>
 5    1  0.1247473E-008  0.3815907E+03  0.7957747E-01  0.3444261E+00
         13   -1    0    0    0    0  0.00000000000E+00  0.00000000000E+00  0.14999999963E+04  0.15000000000E+04  0.10566000000E+00 0.  1.
        994   -1    0    0    0    0 -0.00000000000E+00 -0.00000000000E+00  0.11368683772E-12  0.17120000000E+03  0.17120000000E+03 0.  0.
         13    1    1    2    0    0 -0.15405208167E+02  0.53796381266E+01  0.38255890640E+02  0.41590687392E+02  0.10566000000E+00 0.  1.
        994    1    1    2    0    0  0.72770179420E+01 -0.22994801143E+02  0.52691811732E+01  0.17297086500E+03  0.17120000000E+03 0.  0.
        998    1    1    2    0    0  0.81281902245E+01  0.17615163016E+02  0.14564749245E+04  0.14566384476E+04  0.10000000000E+02 0.  1.
</event>
<event>
 5    1  0.1247473E-008  0.3761524E+03  0.7957747E-01  0.3468085E+00
         13   -1    0    0    0    0  0.00000000000E+00  0.00000000000E+00  0.14999999963E+04  0.15000000000E+04  0.10566000000E+00 0.  1.
        994   -1    0    0    0    0 -0.00000000000E+00 -0.00000000000E+00  0.11368683772E-12  0.17120000000E+03  0.17120000000E+03 0.  0.
         13    1    1    2    0    0 -0.12571052982E+02 -0.24815256295E+02  0.65410798649E+02  0.71080321201E+02  0.10566000000E+00 0.  1.
        994    1    1    2    0    0 -0.19581680968E+01  0.72923575646E+00  0.61029223842E+01  0.17132148689E+03  0.17120000000E+03 0.  0.
        998    1    1    2    0    0  0.14529221079E+02  0.24086020539E+02  0.14284862752E+04  0.14287981919E+04  0.10000000000E+02 0.  1.
</event>
<event>
 5    1  0.1247473E-008  0.3801397E+03  0.7957747E-01  0.3450550E+00
         13   -1    0    0    0    0  0.00000000000E+00  0.00000000000E+00  0.14999999963E+04  0.15000000000E+04  0.10566000000E+00 0. -1.
        994   -1    0    0    0    0 -0.00000000000E+00 -0.00000000000E+00  0.11368683772E-12  0.17120000000E+03  0.17120000000E+03 0.  0.
         13    1    1    2    0    0  0.17260604904E+02 -0.37341446688E+02  0.19247516408E+03  0.19682228551E+03  0.10566000000E+00 0. -1.
        994    1    1    2    0    0 -0.15790057979E+02  0.29936011433E+02  0.78996341632E+01  0.17469211468E+03  0.17120000000E+03 0.  0.
        998    1    1    2    0    0 -0.14705469244E+01  0.74054352556E+01  0.12996251980E+04  0.12996855998E+04  0.10000000000E+02 0. -1.
</event>
<event>
 5    1  0.1247473E-008  0.3846380E+03  0.7957747E-01  0.3431209E+00
         13   -1    0    0    0    0  0.00000000000E+00  0.00000000000E+00  0.14999999963E+04  0.15000000000E+04  0.10566000000E+00 0.  1.
        994   -1    0    0    0    0 -0.00000000000E+00 -0.00000000000E+00  0.11368683772E-12  0.17120000000E+03  0.17120000000E+03 0.  0.
         13    1    1    2    0    0  0.15724597614E+02  0.21614449235E+01  0.74946467987E+02  0.76608870518E+02  0.10566000000E+00 0.  1.
        994    1    1    2    0    0  0.43767467491E+01 -0.32553917102E+02  0.53704169221E+01  0.17440526027E+03  0.17120000000E+03 0.  0.
        998    1    1    2    0    0 -0.20101344363E+02  0.30392472179E+02  0.14196831114E+04  0.14201858692E+04  0.10000000000E+02 0.  1.
</event>
<event>
 5    1  0.1247473E-008  0.3854616E+03  0.7957747E-01  0.3427717E+00
         13   -1    0    0    0    0  0.00000000000E+00  0.00000000000E+00  0.14999999963E+04  0.15000000000E+04  0.10566000000E+00 0.  1.
        994   -1    0    0    0    0 -0.00000000000E+00 -0.00000000000E+00  0.11368683772E-12  0.17120000000E+03  0.17120000000E+03 0.  0.
         13    1    1    2    0    0  0.52596710093E+01 -0.12591172907E+02  0.63008558753E+02  0.64469305987E+02  0.10566000000E+00 0.  1.
        994    1    1    2    0    0 -0.10841301025E+02  0.14733627724E+02  0.25007026665E+01  0.17219264534E+03  0.17120000000E+03 0.  0.
        998    1    1    2    0    0  0.55816300160E+01 -0.21424548177E+01  0.14344907349E+04  0.14345380487E+04  0.10000000000E+02 0.  1.
</event>
<event>
 5    1  0.1247473E-008  0.3788830E+03  0.7957747E-01  0.3456037E+00
         13   -1    0    0    0    0  0.00000000000E+00  0.00000000000E+00  0.14999999963E+04  0.15000000000E+04  0.10566000000E+00 0.  1.
        994   -1    0    0    0    0 -0.00000000000E+00 -0.00000000000E+00  0.11368683772E-12  0.17120000000E+03  0.17120000000E+03 0.  0.
         13    1    1    2    0    0  0.18913326075E+02  0.41633077159E+02  0.20105947401E+03  0.20619396274E+03  0.10566000000E+00 0.  1.
        994    1    1    2    0    0 -0.26324799550E+02 -0.32155852063E+02  0.10514558939E+02  0.17648509808E+03  0.17120000000E+03 0.  0.
        998    1    1    2    0    0  0.74114734753E+01 -0.94772250966E+01  0.12884259633E+04  0.12885209392E+04  0.10000000000E+02 0.  1.
</event>
<event>
 5    1  0.1247473E-008  0.3836743E+03  0.7957747E-01  0.3435314E+00
         13   -1    0    0    0    0  0.00000000000E+00  0.00000000000E+00  0.14999999963E+04  0.15000000000E+04  0.10566000000E+00 0.  1.
        994   -1    0    0    0    0 -0.00000000000E+00 -0.00000000000E+00  0.11368683772E-12  0.17120000000E+03  0.17120000000E+03 0.  0.
         13    1    1    2    0    0 -0.23686907938E+02  0.88104920319E+01  0.10775680856E+03  0.11068078122E+03  0.10566000000E+00 0.  1.
        994    1    1    2    0    0  0.44530098608E+02 -0.34785990527E+02  0.12908035905E+02  0.18074582211E+03  0.17120000000E+03 0.  0.
        998    1    1    2    0    0 -0.20843190669E+02  0.25975498495E+02  0.13793351518E+04  0.13797733967E+04  0.10000000000E+02 0.  1.
</event>
<event>
 5    1  0.1247473E-008  0.3843043E+03  0.7957747E-01  0.3432628E+00
         13   -1    0    0    0    0  0.00000000000E+00  0.00000000000E+00  0.14999999963E+04  0.15000000000E+04  0.10566000000E+00 0. -1.
        994   -1    0    0    0    0 -0.00000000000E+00 -0.00000000000E+00  0.11368683772E-12  0.17120000000E+03  0.17120000000E+03 0.  0.
         13    1    1    2    0    0 -0.19035358981E+02  0.35333388955E+01  0.94032619994E+02  0.96005073628E+02  0.10566000000E+00 0. -1.
        994    1    1    2    0    0  0.11052195864E+02 -0.12922451336E+02  0.29295326269E+01  0.17206732096E+03  0.17120000000E+03 0.  0.
        998    1    1    2    0    0  0.79831631172E+01  0.93891124405E+01  0.14030378437E+04  0.14031276054E+04  0.10000000000E+02 0. -1.
</event>
<event>
 5    1  0.1247473E-008  0.3853898E+03  0.7957747E-01  0.3428021E+00
         13   -1    0    0    0    0  0.00000000000E+00  0.00000000000E+00  0.14999999963E+04  0.15000000000E+04  0.10566000000E+00 0.  1.
        994   -1    0    0    0    0 -0.00000000000E+00 -0.00000000000E+00  0.11368683772E-12  0.17120000000E+03  0.17120000000E+03 0.  0.
         13    1    1    2    0    0  0.10056399052E+02 -0.10564473655E+02  0.76477065352E+02  0.77855583964E+02  0.10566000000E+00 0.  1.
        994    1    1    2    0    0 -0.64500835442E+00  0.72686072423E+01  0.16116675499E+01  0.17136302448E+03  0.17120000000E+03 0.  0.
        998    1    1    2    0    0 -0.94113906980E+01  0.32958664128E+01  0.14219112634E+04  0.14219813916E+04  0.10000000000E+02 0.  1.
</event>
<event>
 5    1  0.1247473E-008  0.3813597E+03  0.7957747E-01  0.3445259E+00
         13   -1    0    0    0    0  0.00000000000E+00  0.00000000000E+00  0.14999999963E+04  0.15000000000E+04  0.10566000000E+00 0. -1.
        994   -1    0    0    0    0 -0.00000000000E+00 -0.00000000000E+00  0.11368683772E-12  0.17120000000E+03  0.17120000000E+03 0.  0.
         13    1    1    2    0    0 -0.11752452875E+02 -0.14246183430E+02  0.51447472736E+02  0.54661938365E+02  0.10566000000E+00 0. -1.
        994    1    1    2    0    0 -0.52351513587E+01 -0.38921221411E+00  0.35400634838E+01  0.17131704628E+03  0.17120000000E+03 0.  0.
        998    1    1    2    0    0  0.16987604234E+02  0.14635395645E+02  0.14450124601E+04  0.14452210154E+04  0.10000000000E+02 0. -1.
</event>
<event>
 5    1  0.1247473E-008  0.3746846E+03  0.7957747E-01  0.3474634E+00
         13   -1    0    0    0    0  0.00000000000E+00  0.00000000000E+00  0.14999999963E+04  0.15000000000E+04  0.10566000000E+00 0.  1.
        994   -1    0    0    0    0 -0.00000000000E+00 -0.00000000000E+00  0.11368683772E-12  0.17120000000E+03  0.17120000000E+03 0.  0.
         13    1    1    2    0    0 -0.25343009018E+02 -0.53551609901E+02  0.18832716973E+03  0.19742638388E+03  0.10566000000E+00 0.  1.
        994    1    1    2    0    0  0.53092511169E+02  0.72724589834E+02  0.34951104525E+02  0.19656729234E+03  0.17120000000E+03 0.  0.
        998    1    1    2    0    0 -0.27749502151E+02 -0.19172979933E+02  0.12767217220E+04  0.12772063238E+04  0.10000000000E+02 0.  1.
</event>
<event>
 5    1  0.1287877E-008  0.3849183E+03  0.7957747E-01  0.3430019E+00
         13   -1    0    0    0    0  0.00000000000E+00  0.00000000000E+00  0.14999999963E+04  0.15000000000E+04  0.10566000000E+00 0.  1.
        994   -1    0    0    0    0 -0.00000000000E+00 -0.00000000000E+00  0.11368683772E-12  0.17120000000E+03  0.17120000000E+03 0.  0.
         13    1    1    2    0    0  0.93105236566E+01  0.54945309459E+01  0.34927682372E+02  0.36562684270E+02  0.10566000000E+00 0.  1.
        994    1    1    2    0    0 -0.27925406181E+01 -0.77537806599E+01  0.18941453141E+01  0.17140871385E+03  0.17120000000E+03 0.  0.
        998    1    1    2    0    0 -0.65179830385E+01  0.22592497140E+01  0.14631781686E+04  0.14632286019E+04  0.10000000000E+02 0.  1.
</event>
<event>
 5    1  0.1247473E-008  0.3748550E+03  0.7957747E-01  0.3473871E+00
         13   -1    0    0    0    0  0.00000000000E+00  0.00000000000E+00  0.14999999963E+04  0.15000000000E+04  0.10566000000E+00 0.  1.
        994   -1    0    0    0    0 -0.00000000000E+00 -0.00000000000E+00  0.11368683772E-12  0.17120000000E+03  0.17120000000E+03 0.  0.
         13    1    1    2    0    0 -0.14251240295E+02 -0.19853977693E+02  0.39890332128E+02  0.46781706269E+02  0.10566000000E+00 0.  1.
        994    1    1    2    0    0  0.17355854159E+02  0.24634240730E+02  0.98476067631E+01  0.17411055927E+03  0.17120000000E+03 0.  0.
        998    1    1    2    0    0 -0.31046138642E+01 -0.47802630377E+01  0.14502620574E+04  0.14503077345E+04  0.10000000000E+02 0.  1.
</event>
<event>
 5    1  0.1247473E-008  0.3841119E+03  0.7957747E-01  0.3433448E+00
         13   -1    0    0    0    0  0.00000000000E+00  0.00000000000E+00  0.14999999963E+04  0.15000000000E+04  0.10566000000E+00 0. -1.
        994   -1    0    0    0    0 -0.00000000000E+00 -0.00000000000E+00  0.11368683772E-12  0.17120000000E+03  0.17120000000E+03 0.  0.
         13    1    1    2    0    0  0.19001062722E+02 -0.16604887510E+01  0.10931323949E+03  0.11096482821E+03  0.10566000000E+00 0. -1.
        994    1    1    2    0    0  0.18086857606E+02  0.32526500940E+02  0.66534209073E+01  0.17532488611E+03  0.17120000000E+03 0.  0.
        998    1    1    2    0    0 -0.37087920328E+02 -0.30866012189E+02  0.13840333359E+04  0.13849102857E+04  0.10000000000E+02 0. -1.
</event>
<event>
 5    1  0.1247473E-008  0.3834694E+03  0.7957747E-01  0.3436190E+00
         13   -1    0    0    0    0  0.00000000000E+00  0.00000000000E+00  0.14999999963E+04  0.15000000000E+04  0.10566000000E+00 0. -1.
        994   -1    0    0    0    0 -0.00000000000E+00 -0.00000000000E+00  0.11368683772E-12  0.17120000000E+03  0.17120000000E+03 0.  0.
         13    1    1    2    0    0 -0.17134273230E+02  0.31834444135E+01  0.64173927456E+02  0.66498283937E+02  0.10566000000E+00 0. -1.
        994    1    1    2    0    0  0.84132188129E+01  0.43691647319E+01  0.26890351008E+01  0.17148336001E+03  0.17120000000E+03 0.  0.
        998    1    1    2    0    0  0.87210544173E+01 -0.75526091454E+01  0.14331370337E+04  0.14332183561E+04  0.10000000000E+02 0. -1.
</event>
<event>
 5    1  0.1247473E-008  0.3781878E+03  0.7957747E-01  0.3459087E+00
         13   -1    0    0    0    0  0.00000000000E+00  0.00000000000E+00  0.14999999963E+04  0.15000000000E+04  0.10566000000E+00 0.  1.
        994   -1    0    0    0    0 -0.00000000000E+00 -0.00000000000E+00  0.11368683772E-12  0.17120000000E+03  0.17120000000E+03 0.  0.
         13    1    1    2    0    0 -0.32742807377E+01 -0.10280629549E+02  0.93489315401E+01  0.14276762352E+02  0.10566000000E+00 0.  1.
        994    1    1    2    0    0 -0.41211187833E+01  0.47964154807E+01  0.51852212864E+01  0.17139520338E+03  0.17120000000E+03 0.  0.
        998    1    1    2    0    0  0.73953995210E+01  0.54842140679E+01  0.14854658435E+04  0.14855280343E+04  0.10000000000E+02 0.  1.
</event>
<event>
 5    1  0.1247473E-008  0.3850277E+03  0.7957747E-01  0.3429555E+00
         13   -1    0    0    0    0  0.00000000000E+00  0.00000000000E+00  0.14999999963E+04  0.15000000000E+04  0.10566000000E+00 0. -1.
        994   -1    0    0    0    0 -0.00000000000E+00 -0.00000000000E+00  0.11368683772E-12  0.17120000000E+03  0.17120000000E+03 0.  0.
         13    1    1    2    0    0 -0.45283110992E+01  0.14425493516E+02  0.73719872399E+02  0.75254443159E+02  0.10566000000E+00 0. -1.
        994    1    1    2    0    0 -0.15506877698E+01 -0.45813432847E+01  0.16933239017E+01  0.17127667875E+03  0.17120000000E+03 0.  0.
        998    1    1    2    0    0  0.60789988691E+01 -0.98441502316E+01  0.14245868000E+04  0.14246688781E+04  0.10000000000E+02 0. -1.
</event>
<event>
 5    1  0.1247473E-008  0.3708852E+03  0.7957747E-01  0.3491833E+00
         13   -1    0    0    0    0  0.00000000000E+00  0.00000000000E+00  0.14999999963E+04  0.15000000000E+04  0.10566000000E+00 0.  1.
        994   -1    0    0    0    0 -0.00000000000E+00 -0.00000000000E+00  0.11368683772E-12  0.17120000000E+03  0.17120000000E+03 0.  0.
         13    1    1    2    0    0 -0.61561252495E+02 -0.75108822187E+01  0.18345315627E+03  0.19365245382E+03  0.10566000000E+00 0.  1.
        994    1    1    2    0    0  0.68599908847E+02  0.31619981472E+01  0.25243522025E+02  0.18617900293E+03  0.17120000000E+03 0.  0.
        998    1    1    2    0    0 -0.70386563519E+01  0.43488840715E+01  0.12913033180E+04  0.12913685433E+04  0.10000000000E+02 0.  1.
</event>
<event>
 5    1  0.1247473E-008  0.3852542E+03  0.7957747E-01  0.3428595E+00
         13   -1    0    0    0    0  0.00000000000E+00  0.00000000000E+00  0.14999999963E+04  0.15000000000E+04  0.10566000000E+00 0. -1.
        994   -1    0    0    0    0 -0.00000000000E+00 -0.00000000000E+00  0.11368683772E-12  0.17120000000E+03  0.17120000000E+03 0.  0.
         13    1    1    2    0    0 -0.14900397055E+02  0.35304313421E+01  0.73754072594E+02  0.75327021487E+02  0.10566000000E+00 0. -1.
        994    1    1    2    0    0  0.18173959107E+02 -0.31142911395E+01  0.26219551053E+01  0.17221006430E+03  0.17120000000E+03 0.  0.
        998    1    1    2    0    0 -0.32735620524E+01 -0.41614020259E+00  0.14236239686E+04  0.14236629142E+04  0.10000000000E+02 0. -1.
</event>
<event>
 5    1  0.1247473E-008  0.3767412E+03  0.7957747E-01  0.3465472E+00
         13   -1    0    0    0    0  0.00000000000E+00  0.00000000000E+00  0.14999999963E+04  0.15000000000E+04  0.10566000000E+00 0.  1.
        994   -1    0    0    0    0 -0.00000000000E+00 -0.00000000000E+00  0.11368683772E-12  0.17120000000E+03  0.17120000000E+03 0.  0.
         13    1    1    2    0    0  0.34376356310E+02 -0.28582921010E+02  0.13799393647E+03  0.14505535121E+03  0.10566000000E+00 0.  1.
        994    1    1    2    0    0 -0.48976124928E+02  0.47180770231E+02  0.21578991564E+02  0.18547177351E+03  0.17120000000E+03 0.  0.
        998    1    1    2    0    0  0.14599768619E+02 -0.18597849221E+02  0.13404270682E+04  0.13406728753E+04  0.10000000000E+02 0.  1.
</event>
<event>
 5    1  0.1247473E-008  0.3824061E+03  0.7957747E-01  0.3440748E+00
         13   -1    0    0    0    0  0.00000000000E+00  0.00000000000E+00  0.14999999963E+04  0.15000000000E+04  0.10566000000E+00 0.  1.
        994   -1    0    0    0    0 -0.00000000000E+00 -0.00000000000E+00  0.11368683772E-12  0.17120000000E+03  0.17120000000E+03 0.  0.
         13    1    1    2    0    0  0.32737760324E+01  0.15701682911E+02  0.43956427900E+02  0.46791443379E+02  0.10566000000E+00 0.  1.
        994    1    1    2    0    0  0.96381900477E+01 -0.75702536831E+01  0.34217951079E+01  0.17167222294E+03  0.17120000000E+03 0.  0.
        998    1    1    2    0    0 -0.12911966080E+02 -0.81314292277E+01  0.14526217733E+04  0.14527363337E+04  0.10000000000E+02 0.  1.
</event>
<event>
 5    1  0.1247473E-008  0.3850159E+03  0.7957747E-01  0.3429605E+00
         13   -1    0    0    0    0  0.00000000000E+00  0.00000000000E+00  0.14999999963E+04  0.15000000000E+04  0.10566000000E+00 0.  1.
        994   -1    0    0    0    0 -0.00000000000E+00 -0.00000000000E+00  0.11368683772E-12  0.17120000000E+03  0.17120000000E+03 0.  0.
         13    1    1    2    0    0  0.14223157654E+02  0.13489610229E+02  0.11601963213E+03  0.11766407268E+03  0.10566000000E+00 0.  1.
        994    1    1    2    0    0 -0.15124030449E+02 -0.57302938911E+01  0.24828776988E+01  0.17198016527E+03  0.17120000000E+03 0.  0.
        998    1    1    2    0    0  0.90087279438E+00 -0.77593163381E+01  0.13814974865E+04  0.13815557620E+04  0.10000000000E+02 0.  1.
</event>
<event>
 5    1  0.1247473E-008  0.3836282E+03  0.7957747E-01  0.3435511E+00
         13   -1    0    0    0    0  0.00000000000E+00  0.00000000000E+00  0.14999999963E+04  0.15000000000E+04  0.10566000000E+00 0.  1.
        994   -1    0    0    0    0 -0.00000000000E+00 -0.00000000000E+00  0.11368683772E-12  0.17120000000E+03  0.17120000000E+03 0.  0.
         13    1    1    2    0    0 -0.79570174376E+01  0.98331090347E+01  0.33712348147E+02  0.36007467856E+02  0.10566000000E+00 0.  1.
        994    1    1    2    0    0  0.54230609399E+01 -0.85792484281E+01  0.26531204385E+01  0.17152111282E+03  0.17120000000E+03 0.  0.
        998    1    1    2    0    0  0.25339564977E+01 -0.12538606066E+01  0.14636345277E+04  0.14636714193E+04  0.10000000000E+02 0.  1.
</event>
<event>
 5    1  0.1247473E-008  0.3739625E+03  0.7957747E-01  0.3477876E+00
         13   -1    0    0    0    0  0.00000000000E+00  0.00000000000E+00  0.14999999963E+04  0.15000000000E+04  0.10566000000E+00 0.  1.
        994   -1    0    0    0    0 -0.00000000000E+00 -0.00000000000E+00  0.11368683772E-12  0.17120000000E+03  0.17120000000E+03 0.  0.
         13    1    1    2    0    0 -0.63420324875E+02  0.37864091926E+02  0.42144625047E+03  0.42787005067E+03  0.10566000000E+00 0.  1.
        994    1    1    2    0    0  0.41618196077E+02  0.82743028750E+01  0.13379279051E+02  0.17688692275E+03  0.17120000000E+03 0.  0.
        998    1    1    2    0    0  0.21802128798E+02 -0.46138394801E+02  0.10651744668E+04  0.10664430266E+04  0.10000000000E+02 0.  1.
</event>
<event>
 5    1  0.1247473E-008  0.3835464E+03  0.7957747E-01  0.3435861E+00
         13   -1    0    0    0    0  0.00000000000E+00  0.00000000000E+00  0.14999999963E+04  0.15000000000E+04  0.10566000000E+00 0.  1.
        994   -1    0    0    0    0 -0.00000000000E+00 -0.00000000000E+00  0.11368683772E-12  0.17120000000E+03  0.17120000000E+03 0.  0.
         13    1    1    2    0    0  0.20259200105E+02 -0.31497815390E+01  0.95207077922E+02  0.97389707686E+02  0.10566000000E+00 0.  1.
        994    1    1    2    0    0 -0.11154664623E+01  0.69229632744E+01  0.25160430750E+01  0.17136202076E+03  0.17120000000E+03 0.  0.
        998    1    1    2    0    0 -0.19143733643E+02 -0.37731817354E+01  0.14022768753E+04  0.14024482716E+04  0.10000000000E+02 0.  1.
</event>
<event>
 5    1  0.1247473E-008  0.3852749E+03  0.7957747E-01  0.3428507E+00
         13   -1    0    0    0    0  0.00000000000E+00  0.00000000000E+00  0.14999999963E+04  0.15000000000E+04  0.10566000000E+00 0. -1.
        994   -1    0    0    0    0 -0.00000000000E+00 -0.00000000000E+00  0.11368683772E-12  0.17120000000E+03  0.17120000000E+03 0.  0.
         13    1    1    2    0    0  0.80339850383E+01  0.11330159042E+02  0.77239193200E+02  0.78478159699E+02  0.10566000000E+00 0. -1.
        994    1    1    2    0    0  0.19188571615E+02  0.38563540531E+01  0.27534213993E+01  0.17233715234E+03  0.17120000000E+03 0.  0.
        998    1    1    2    0    0 -0.27222556653E+02 -0.15186513096E+02  0.14200073817E+04  0.14203846880E+04  0.10000000000E+02 0. -1.
</event>
<event>
 5    1  0.1247473E-008  0.3713558E+03  0.7957747E-01  0.3489683E+00
         13   -1    0    0    0    0  0.00000000000E+00  0.00000000000E+00  0.14999999963E+04  0.15000000000E+04  0.10566000000E+00 0. -1.
        994   -1    0    0    0    0 -0.00000000000E+00 -0.00000000000E+00  0.11368683772E-12  0.17120000000E+03  0.17120000000E+03 0.  0.
         13    1    1    2    0    0 -0.55758742195E+02  0.35721322523E+02  0.17502054352E+03  0.18712897165E+03  0.10566000000E+00 0. -1.
        994    1    1    2    0    0  0.36901474757E+02 -0.38295740327E+02  0.21659415006E+02  0.18057367700E+03  0.17120000000E+03 0.  0.
        998    1    1    2    0    0  0.18857267438E+02  0.25744178040E+01  0.13033200378E+04  0.13034973514E+04  0.10000000000E+02 0. -1.
</event>
<event>
 5    1  0.1247473E-008  0.3838057E+03  0.7957747E-01  0.3434753E+00
         13   -1    0    0    0    0  0.00000000000E+00  0.00000000000E+00  0.14999999963E+04  0.15000000000E+04  0.10566000000E+00 0. -1.
        994   -1    0    0    0    0 -0.00000000000E+00 -0.00000000000E+00  0.11368683772E-12  0.17120000000E+03  0.17120000000E+03 0.  0.
         13    1    1    2    0    0 -0.15350427389E+02 -0.16470282274E+02  0.11775847811E+03  0.11989151826E+03  0.10566000000E+00 0. -1.
        994    1    1    2    0    0 -0.21763706322E+01  0.14454572096E+02  0.29299935298E+01  0.17184788653E+03  0.17120000000E+03 0.  0.
        998    1    1    2    0    0  0.17526798021E+02  0.20157101776E+01  0.13793115246E+04  0.13794605952E+04  0.10000000000E+02 0. -1.
</event>
<event>
 5    1  0.1247473E-008  0.3837470E+03  0.7957747E-01  0.3435004E+00
         13   -1    0    0    0    0  0.00000000000E+00  0.00000000000E+00  0.14999999963E+04  0.15000000000E+04  0.10566000000E+00 0. -1.
        994   -1    0    0    0    0 -0.00000000000E+00 -0.00000000000E+00  0.11368683772E-12  0.17120000000E+03  0.17120000000E+03 0.  0.
         13    1    1    2    0    0  0.16804090365E+00 -0.10470976797E+02  0.22172706536E+02  0.24521616424E+02  0.10566000000E+00 0. -1.
        994    1    1    2    0    0 -0.14128091327E+01  0.25554506790E+02  0.44194568862E+01  0.17315888786E+03  0.17120000000E+03 0.  0.
        998    1    1    2    0    0  0.12447682290E+01 -0.15083529993E+02  0.14734078329E+04  0.14735194957E+04  0.10000000000E+02 0. -1.
</event>
<event>
 5    1  0.1247473E-008  0.3793047E+03  0.7957747E-01  0.3454191E+00
         13   -1    0    0    0    0  0.00000000000E+00  0.00000000000E+00  0.14999999963E+04  0.15000000000E+04  0.10566000000E+00 0. -1.
        994   -1    0    0    0    0 -0.00000000000E+00 -0.00000000000E+00  0.11368683772E-12  0.17120000000E+03  0.17120000000E+03 0.  0.
         13    1    1    2    0    0 -0.41185384745E+02  0.52004746064E+01  0.24243346019E+03  0.24596193738E+03  0.10566000000E+00 0. -1.
        994    1    1    2    0    0 -0.57106343969E+01 -0.50409255827E+01  0.46789604271E+01  0.17143323758E+03  0.17120000000E+03 0.  0.
        998    1    1    2    0    0  0.46896019142E+02 -0.15954902367E+00  0.12528875757E+04  0.12538048250E+04  0.10000000000E+02 0. -1.
</event>
<event>
 5    1  0.1247473E-008  0.3864066E+03  0.7957747E-01  0.3423728E+00
         13   -1    0    0    0    0  0.00000000000E+00  0.00000000000E+00  0.14999999963E+04  0.15000000000E+04  0.10566000000E+00 0. -1.
        994   -1    0    0    0    0 -0.00000000000E+00 -0.00000000000E+00  0.11368683772E-12  0.17120000000E+03  0.17120000000E+03 0.  0.
         13    1    1    2    0    0 -0.17766881697E+01  0.12803663592E+02  0.74728790361E+02  0.75838602935E+02  0.10566000000E+00 0. -1.
        994    1    1    2    0    0  0.70721077959E+01 -0.31092530458E+02  0.42690579194E+01  0.17419651264E+03  0.17120000000E+03 0.  0.
        998    1    1    2    0    0 -0.52954196262E+01  0.18288866866E+02  0.14210021480E+04  0.14211648844E+04  0.10000000000E+02 0. -1.
</event>
<event>
 5    1  0.1247473E-008  0.3785113E+03  0.7957747E-01  0.3457667E+00
         13   -1    0    0    0    0  0.00000000000E+00  0.00000000000E+00  0.14999999963E+04  0.15000000000E+04  0.10566000000E+00 0.  1.
        994   -1    0    0    0    0 -0.00000000000E+00 -0.00000000000E+00  0.11368683772E-12  0.17120000000E+03  0.17120000000E+03 0.  0.
         13    1    1    2    0    0 -0.67216676239E+02  0.87678457073E+02  0.30972026778E+03  0.32883468314E+03  0.10566000000E+00 0.  1.
        994    1    1    2    0    0  0.60211696338E+02 -0.88660923422E+02  0.58169485205E+02  0.21018881209E+03  0.17120000000E+03 0.  0.
        998    1    1    2    0    0  0.70049799013E+01  0.98246634938E+00  0.11321102433E+04  0.11321765048E+04  0.10000000000E+02 0.  1.
</event>
<event>
 5    1  0.1247473E-008  0.3789571E+03  0.7957747E-01  0.3455712E+00
         13   -1    0    0    0    0  0.00000000000E+00  0.00000000000E+00  0.14999999963E+04  0.15000000000E+04  0.10566000000E+00 0. -1.
        994   -1    0    0    0    0 -0.00000000000E+00 -0.00000000000E+00  0.11368683772E-12  0.17120000000E+03  0.17120000000E+03 0.  0.
         13    1    1    2    0    0  0.45241333717E+02 -0.20158587735E+02  0.70409457779E+02  0.86085131380E+02  0.10566000000E+00 0. -1.
        994    1    1    2    0    0 -0.39833702809E+02  0.16738089187E+02  0.22524907100E+02  0.17799915435E+03  0.17120000000E+03 0.  0.
        998    1    1    2    0    0 -0.54076309084E+01  0.34204985486E+01  0.14070656314E+04  0.14071157143E+04  0.10000000000E+02 0. -1.
</event>
<event>
 5    1  0.1247473E-008  0.3774878E+03  0.7957747E-01  0.3462171E+00
         13   -1    0    0    0    0  0.00000000000E+00  0.00000000000E+00  0.14999999963E+04  0.15000000000E+04  0.10566000000E+00 0.  1.
        994   -1    0    0    0    0 -0.00000000000E+00 -0.00000000000E+00  0.11368683772E-12  0.17120000000E+03  0.17120000000E+03 0.  0.
         13    1    1    2    0    0 -0.12168151548E+03 -0.20996595480E+03  0.10116237203E+04  0.10403243033E+04  0.10566000000E+00 0.  1.
        994    1    1    2    0    0  0.10354024370E+03  0.22182058366E+03  0.24502518759E+03  0.38635700583E+03  0.17120000000E+03 0.  0.
        998    1    1    2    0    0  0.18141271782E+02 -0.11854628858E+02  0.24335108842E+03  0.24451869091E+03  0.10000000000E+02 0.  1.
</event>
<event>
 5    1  0.1247473E-008  0.3780864E+03  0.7957747E-01  0.3459533E+00
         13   -1    0    0    0    0  0.00000000000E+00  0.00000000000E+00  0.14999999963E+04  0.15000000000E+04  0.10566000000E+00 0. -1.
        994   -1    0    0    0    0 -0.00000000000E+00 -0.00000000000E+00  0.11368683772E-12  0.17120000000E+03  0.17120000000E+03 0.  0.
         13    1    1    2    0    0 -0.60965449066E+02  0.18572463649E+02  0.34287281057E+03  0.34874560610E+03  0.10566000000E+00 0. -1.
        994    1    1    2    0    0  0.62300835081E+02  0.17180497127E+02  0.19284183605E+02  0.18400511751E+03  0.17120000000E+03 0.  0.
        998    1    1    2    0    0 -0.13353860143E+01 -0.35752960776E+02  0.11378430021E+04  0.11384492764E+04  0.10000000000E+02 0. -1.
</event>
<event>
 5    1  0.1247473E-008  0.3759120E+03  0.7957747E-01  0.3469154E+00
         13   -1    0    0    0    0  0.00000000000E+00  0.00000000000E+00  0.14999999963E+04  0.15000000000E+04  0.10566000000E+00 0.  1.
        994   -1    0    0    0    0 -0.00000000000E+00 -0.00000000000E+00  0.11368683772E-12  0.17120000000E+03  0.17120000000E+03 0.  0.
         13    1    1    2    0    0 -0.13326733861E+01  0.20879488111E+02  0.33106308891E+02  0.39163348868E+02  0.10566000000E+00 0.  1.
        994    1    1    2    0    0 -0.16418386065E+01 -0.10044612247E+02  0.65622722345E+01  0.17162777539E+03  0.17120000000E+03 0.  0.
        998    1    1    2    0    0  0.29745119926E+01 -0.10834875864E+02  0.14603314152E+04  0.14604088757E+04  0.10000000000E+02 0.  1.
</event>
<event>
 5    1  0.1247473E-008  0.3732273E+03  0.7957747E-01  0.3481189E+00
         13   -1    0    0    0    0  0.00000000000E+00  0.00000000000E+00  0.14999999963E+04  0.15000000000E+04  0.10566000000E+00 0. -1.
        994   -1    0    0    0    0 -0.00000000000E+00 -0.00000000000E+00  0.11368683772E-12  0.17120000000E+03  0.17120000000E+03 0.  0.
         13    1    1    2    0    0  0.12852425572E+02  0.20292492380E+01  0.76478025162E+01  0.15093135622E+02  0.10566000000E+00 0. -1.
        994    1    1    2    0    0 -0.11922985241E+02 -0.50432401414E+01  0.81651836721E+01  0.17188281494E+03  0.17120000000E+03 0.  0.
        998    1    1    2    0    0 -0.92944033150E+00  0.30139909034E+01  0.14841870101E+04  0.14842240494E+04  0.10000000000E+02 0. -1.
</event>
<event>
 5    1  0.1247473E-008  0.3857489E+03  0.7957747E-01  0.3426502E+00
         13   -1    0    0    0    0  0.00000000000E+00  0.00000000000E+00  0.14999999963E+04  0.15000000000E+04  0.10566000000E+00 0. -1.
        994   -1    0    0    0    0 -0.00000000000E+00 -0.00000000000E+00  0.11368683772E-12  0.17120000000E+03  0.17120000000E+03 0.  0.
         13    1    1    2    0    0 -0.38728487628E+01 -0.10187923374E+02  0.39485177697E+02  0.40961972145E+02  0.10566000000E+00 0. -1.
        994    1    1    2    0    0  0.76571486321E+00  0.44038573949E+02  0.76492922972E+01  0.17694048148E+03  0.17120000000E+03 0.  0.
        998    1    1    2    0    0  0.31071338996E+01 -0.33850650575E+02  0.14528655263E+04  0.14532975464E+04  0.10000000000E+02 0. -1.
</event>
<event>
 5    1  0.1247473E-008  0.3803979E+03  0.7957747E-01  0.3449428E+00
         13   -1    0    0    0    0  0.00000000000E+00  0.00000000000E+00  0.14999999963E+04  0.15000000000E+04  0.10566000000E+00 0.  1.
        994   -1    0    0    0    0 -0.00000000000E+00 -0.00000000000E+00  0.11368683772E-12  0.17120000000E+03  0.17120000000E+03 0.  0.
         13    1    1    2    0    0  0.31058486522E+02  0.17291476147E+02  0.15478923955E+03  0.15881859015E+03  0.10566000000E+00 0.  1.
        994    1    1    2    0    0 -0.16830071207E+02 -0.22039787955E+02  0.65040189089E+01  0.17355329387E+03  0.17120000000E+03 0.  0.
        998    1    1    2    0    0 -0.14228415315E+02  0.47483118079E+01  0.13387067378E+04  0.13388281160E+04  0.10000000000E+02 0.  1.
</event>
<event>
 5    1  0.1247473E-008  0.3689190E+03  0.7957747E-01  0.3500874E+00
         13   -1    0    0    0    0  0.00000000000E+00  0.00000000000E+00  0.14999999963E+04  0.15000000000E+04  0.10566000000E+00 0.  1.
        994   -1    0    0    0    0 -0.00000000000E+00 -0.00000000000E+00  0.11368683772E-12  0.17120000000E+03  0.17120000000E+03 0.  0.
         13    1    1    2    0    0  0.49976161749E+02 -0.36304470086E+02  0.15933629162E+03  0.17089088999E+03  0.10566000000E+00 0.  1.
        994    1    1    2    0    0 -0.45570707027E+02  0.48692151382E+02  0.26023060141E+02  0.18556469116E+03  0.17120000000E+03 0.  0.
        998    1    1    2    0    0 -0.44054547225E+01 -0.12387681297E+02  0.13146406445E+04  0.13147444189E+04  0.10000000000E+02 0.  1.
</event>
<event>
 5    1  0.1247473E-008  0.3775843E+03  0.7957747E-01  0.3461745E+00
         13   -1    0    0    0    0  0.00000000000E+00  0.00000000000E+00  0.14999999963E+04  0.15000000000E+04  0.10566000000E+00 0.  1.
        994   -1    0    0    0    0 -0.00000000000E+00 -0.00000000000E+00  0.11368683772E-12  0.17120000000E+03  0.17120000000E+03 0.  0.
         13    1    1    2    0    0 -0.96710369154E+02 -0.18213986815E+01  0.56299791790E+03  0.57124677655E+03  0.10566000000E+00 0.  1.
        994    1    1    2    0    0  0.92915364013E+02  0.55412998131E+00  0.35027045314E+02  0.19791388489E+03  0.17120000000E+03 0.  0.
        998    1    1    2    0    0  0.37950051413E+01  0.12672687002E+01  0.90197503306E+03  0.90203933855E+03  0.10000000000E+02 0.  0.
</event>
<event>
 5    1  0.1247473E-008  0.2858896E+03  0.7957747E-01  0.4002206E+00
         13   -1    0    0    0    0  0.00000000000E+00  0.00000000000E+00  0.14999999963E+04  0.15000000000E+04  0.10566000000E+00 0. -1.
        994   -1    0    0    0    0 -0.00000000000E+00 -0.00000000000E+00  0.11368683772E-12  0.17120000000E+03  0.17120000000E+03 0.  0.
         13    1    1    2    0    0 -0.12542504004E+03 -0.44306856597E+02  0.72572050760E+03  0.73781081892E+03  0.10566000000E+00 0. -1.
        994    1    1    2    0    0  0.36562516859E+02  0.57623480844E+01  0.23971019811E+02  0.17678821252E+03  0.17120000000E+03 0.  0.
        998    1    1    2    0    0  0.88862523183E+02  0.38544508513E+02  0.75030846887E+03  0.75660096856E+03  0.10000000000E+02 0. -1.
</event>
<event>
 5    1  0.1247473E-008  0.3813635E+03  0.7957747E-01  0.3445243E+00
         13   -1    0    0    0    0  0.00000000000E+00  0.00000000000E+00  0.14999999963E+04  0.15000000000E+04  0.10566000000E+00 0. -1.
        994   -1    0    0    0    0 -0.00000000000E+00 -0.00000000000E+00  0.11368683772E-12  0.17120000000E+03  0.17120000000E+03 0.  0.
         13    1    1    2    0    0  0.45798918198E+01  0.37191557372E+02  0.20681034722E+03  0.21017782526E+03  0.10566000000E+00 0. -1.
        994    1    1    2    0    0  0.86036686148E+01 -0.20553581164E+02  0.51004093833E+01  0.17271921430E+03  0.17120000000E+03 0.  0.
        998    1    1    2    0    0 -0.13183560435E+02 -0.16637976208E+02  0.12880892397E+04  0.12883029604E+04  0.10000000000E+02 0. -1.
</event>
<event>
 5    1  0.1247473E-008  0.3753590E+03  0.7957747E-01  0.3471619E+00
         13   -1    0    0    0    0  0.00000000000E+00  0.00000000000E+00  0.14999999963E+04  0.15000000000E+04  0.10566000000E+00 0.  1.
        994   -1    0    0    0    0 -0.00000000000E+00 -0.00000000000E+00  0.11368683772E-12  0.17120000000E+03  0.17120000000E+03 0.  0.
         13    1    1    2    0    0  0.13564417671E+02 -0.80691971243E+01  0.16056967097E+02  0.22515388634E+02  0.10566000000E+00 0.  1.
        994    1    1    2    0    0 -0.19890843383E+02  0.34217409873E+01  0.78787117307E+01  0.17256554714E+03  0.17120000000E+03 0.  0.
        998    1    1    2    0    0  0.63264257124E+01  0.46474561370E+01  0.14760643175E+04  0.14761190642E+04  0.10000000000E+02 0.  1.
</event>
<event>
 5    1  0.1247473E-008  0.3840834E+03  0.7957747E-01  0.3433569E+00
         13   -1    0    0    0    0  0.00000000000E+00  0.00000000000E+00  0.14999999963E+04  0.15000000000E+04  0.10566000000E+00 0. -1.
        994   -1    0    0    0    0 -0.00000000000E+00 -0.00000000000E+00  0.11368683772E-12  0.17120000000E+03  0.17120000000E+03 0.  0.
         13    1    1    2    0    0 -0.13968335071E+02 -0.11932208309E+02  0.90712980392E+02  0.92554567447E+02  0.10566000000E+00 0. -1.
        994    1    1    2    0    0 -0.64747711378E+01 -0.13147026231E+01  0.22299123758E+01  0.17134194937E+03  0.17120000000E+03 0.  0.
        998    1    1    2    0    0  0.20443106208E+02  0.13246910932E+02  0.14070571035E+04  0.14073034832E+04  0.10000000000E+02 0. -1.
</event>
<event>
 5    1  0.1247473E-008  0.3812063E+03  0.7957747E-01  0.3445923E+00
         13   -1    0    0    0    0  0.00000000000E+00  0.00000000000E+00  0.14999999963E+04  0.15000000000E+04  0.10566000000E+00 0.  1.
        994   -1    0    0    0    0 -0.00000000000E+00 -0.00000000000E+00  0.11368683772E-12  0.17120000000E+03  0.17120000000E+03 0.  0.
         13    1    1    2    0    0 -0.32879795248E+02 -0.27684108987E+01  0.15777491448E+03  0.16118833654E+03  0.10566000000E+00 0.  1.
        994    1    1    2    0    0  0.15816311850E+02 -0.53801438926E+01  0.44553148255E+01  0.17207089091E+03  0.17120000000E+03 0.  0.
        998    1    1    2    0    0  0.17063483398E+02  0.81485547913E+01  0.13377697670E+04  0.13379407725E+04  0.10000000000E+02 0.  1.
</event>
<event>
 5    1  0.1247473E-008  0.3825809E+03  0.7957747E-01  0.3439997E+00
         13   -1    0    0    0    0  0.00000000000E+00  0.00000000000E+00  0.14999999963E+04  0.15000000000E+04  0.10566000000E+00 0. -1.
        994   -1    0    0    0    0 -0.00000000000E+00 -0.00000000000E+00  0.11368683772E-12  0.17120000000E+03  0.17120000000E+03 0.  0.
         13    1    1    2    0    0 -0.10775434496E+02 -0.11347513240E+02  0.44775271259E+02  0.47431130344E+02  0.10566000000E+00 0. -1.
        994    1    1    2    0    0 -0.11804225049E+01 -0.37212383896E+01  0.28864898212E+01  0.17126883206E+03  0.17120000000E+03 0.  0.
        998    1    1    2    0    0  0.11955857001E+02  0.15068751629E+02  0.14523382352E+04  0.14525000376E+04  0.10000000000E+02 0. -1.
</event>
<event>
 5    1  0.1247473E-008  0.3823064E+03  0.7957747E-01  0.3441177E+00
         13   -1    0    0    0    0  0.00000000000E+00  0.00000000000E+00  0.14999999963E+04  0.15000000000E+04  0.10566000000E+00 0.  1.
        994   -1    0    0    0    0 -0.00000000000E+00 -0.00000000000E+00  0.11368683772E-12  0.17120000000E+03  0.17120000000E+03 0.  0.
         13    1    1    2    0    0 -0.59791269811E+01 -0.87534557983E+01  0.17453236382E+02  0.20420567380E+02  0.10566000000E+00 0.  1.
        994    1    1    2    0    0  0.75004363946E+01  0.10292115037E+02  0.35116430075E+01  0.17170892759E+03  0.17120000000E+03 0.  0.
        998    1    1    2    0    0 -0.15213094135E+01 -0.15386592387E+01  0.14790351169E+04  0.14790705050E+04  0.10000000000E+02 0.  1.
</event>
<event>
 5    1  0.1247473E-008  0.3811528E+03  0.7957747E-01  0.3446154E+00
         13   -1    0    0    0    0  0.00000000000E+00  0.00000000000E+00  0.14999999963E+04  0.15000000000E+04  0.10566000000E+00 0. -1.
        994   -1    0    0    0    0 -0.00000000000E+00 -0.00000000000E+00  0.11368683772E-12  0.17120000000E+03  0.17120000000E+03 0.  0.
         13    1    1    2    0    0  0.28197098548E+01  0.24737903349E+02  0.73978809302E+02  0.78056325916E+02  0.10566000000E+00 0. -1.
        994    1    1    2    0    0 -0.25432434512E+02 -0.45398116264E+02  0.12623041001E+02  0.17937831209E+03  0.17120000000E+03 0.  0.
        998    1    1    2    0    0  0.22612724657E+02  0.20660212915E+02  0.14133981460E+04  0.14137653620E+04  0.10000000000E+02 0. -1.
</event>
<event>
 5    1  0.1247473E-008  0.3856581E+03  0.7957747E-01  0.3426886E+00
         13   -1    0    0    0    0  0.00000000000E+00  0.00000000000E+00  0.14999999963E+04  0.15000000000E+04  0.10566000000E+00 0. -1.
        994   -1    0    0    0    0 -0.00000000000E+00 -0.00000000000E+00  0.11368683772E-12  0.17120000000E+03  0.17120000000E+03 0.  0.
         13    1    1    2    0    0 -0.93029270445E+01  0.74417315264E+01  0.52713775267E+02  0.54043289006E+02  0.10566000000E+00 0. -1.
        994    1    1    2    0    0  0.14103253081E+02 -0.50104638893E+01  0.20391999382E+01  0.17186507741E+03  0.17120000000E+03 0.  0.
        998    1    1    2    0    0 -0.48003260363E+01 -0.24312676371E+01  0.14452470211E+04  0.14452916336E+04  0.10000000000E+02 0. -1.
</event>
<event>
 5    1  0.1247473E-008  0.3825431E+03  0.7957747E-01  0.3440160E+00
         13   -1    0    0    0    0  0.00000000000E+00  0.00000000000E+00  0.14999999963E+04  0.15000000000E+04  0.10566000000E+00 0.  1.
        994   -1    0    0    0    0 -0.00000000000E+00 -0.00000000000E+00  0.11368683772E-12  0.17120000000E+03  0.17120000000E+03 0.  0.
         13    1    1    2    0    0 -0.26711585045E+02 -0.39363220015E+02  0.25530367474E+03  0.25969780393E+03  0.10566000000E+00 0.  1.
        994    1    1    2    0    0  0.18745441927E+02  0.79120598536E+02  0.25090642058E+02  0.19118169636E+03  0.17120000000E+03 0.  0.
        998    1    1    2    0    0  0.79661431179E+01 -0.39757378521E+02  0.12196056795E+04  0.12203204997E+04  0.10000000000E+02 0.  1.
</event>
<event>
 5    1  0.1247473E-008  0.3756160E+03  0.7957747E-01  0.3470472E+00
         13   -1    0    0    0    0  0.00000000000E+00  0.00000000000E+00  0.14999999963E+04  0.15000000000E+04  0.10566000000E+00 0. -1.
        994   -1    0    0    0    0 -0.00000000000E+00 -0.00000000000E+00  0.11368683772E-12  0.17120000000E+03  0.17120000000E+03 0.  0.
         13    1    1    2    0    0  0.63537338719E+01  0.16037142743E+02  0.20384456500E+02  0.26703878226E+02  0.10566000000E+00 0. -1.
        994    1    1    2    0    0  0.16237740062E+00 -0.19059719120E+02  0.75960808350E+01  0.17242517132E+03  0.17120000000E+03 0.  0.
        998    1    1    2    0    0 -0.65161112725E+01  0.30225763773E+01  0.14720194589E+04  0.14720709505E+04  0.10000000000E+02 0. -1.
</event>
<event>
 5    1  0.1658522E-008  0.3859210E+03  0.7957747E-01  0.3425776E+00
         13   -1    0    0    0    0  0.00000000000E+00  0.00000000000E+00  0.14999999963E+04  0.15000000000E+04  0.10566000000E+00 0. -1.
        994   -1    0    0    0    0 -0.00000000000E+00 -0.00000000000E+00  0.11368683772E-12  0.17120000000E+03  0.17120000000E+03 0.  0.
         13    1    1    2    0    0  0.10316141218E+02  0.63385732933E+01  0.65354797675E+02  0.66466991990E+02  0.10566000000E+00 0. -1.
        994    1    1    2    0    0 -0.16159176382E+01 -0.39022191269E+01  0.12320673540E+01  0.17125652249E+03  0.17120000000E+03 0.  0.
        998    1    1    2    0    0 -0.87002235801E+01 -0.24363541664E+01  0.14334131312E+04  0.14334764855E+04  0.10000000000E+02 0. -1.
</event>
<event>
 5    1  0.1247473E-008  0.3821826E+03  0.7957747E-01  0.3441710E+00
         13   -1    0    0    0    0  0.00000000000E+00  0.00000000000E+00  0.14999999963E+04  0.15000000000E+04  0.10566000000E+00 0.  1.
        994   -1    0    0    0    0 -0.00000000000E+00 -0.00000000000E+00  0.11368683772E-12  0.17120000000E+03  0.17120000000E+03 0.  0.
         13    1    1    2    0    0 -0.20294589327E+02 -0.13748906773E+02  0.10323246186E+03  0.10610304020E+03  0.10566000000E+00 0.  1.
        994    1    1    2    0    0  0.44391965799E+01  0.50386189430E+01  0.31851159136E+01  0.17136125324E+03  0.17120000000E+03 0.  0.
        998    1    1    2    0    0  0.15855392747E+02  0.87102878301E+01  0.13935824185E+04  0.13937357066E+04  0.10000000000E+02 0.  1.
</event>
<event>
 5    1  0.1247473E-008  0.3798995E+03  0.7957747E-01  0.3451596E+00
         13   -1    0    0    0    0  0.00000000000E+00  0.00000000000E+00  0.14999999963E+04  0.15000000000E+04  0.10566000000E+00 0.  1.
        994   -1    0    0    0    0 -0.00000000000E+00 -0.00000000000E+00  0.11368683772E-12  0.17120000000E+03  0.17120000000E+03 0.  0.
         13    1    1    2    0    0 -0.12500753068E+02  0.28211876585E+02  0.12380972331E+03  0.12759716908E+03  0.10566000000E+00 0.  1.
        994    1    1    2    0    0 -0.65041791481E+01 -0.48050324652E+01  0.44025991603E+01  0.17144741340E+03  0.17120000000E+03 0.  0.
        998    1    1    2    0    0  0.19004932216E+02 -0.23406844120E+02  0.13717876738E+04  0.13721554175E+04  0.10000000000E+02 0.  1.
</event>
<event>
 5    1  0.1247473E-008  0.3802550E+03  0.7957747E-01  0.3450049E+00
         13   -1    0    0    0    0  0.00000000000E+00  0.00000000000E+00  0.14999999963E+04  0.15000000000E+04  0.10566000000E+00 0. -1.
        994   -1    0    0    0    0 -0.00000000000E+00 -0.00000000000E+00  0.11368683772E-12  0.17120000000E+03  0.17120000000E+03 0.  0.
         13    1    1    2    0    0  0.16348383947E+02  0.49727229622E+02  0.27884252952E+03  0.28371329623E+03  0.10566000000E+00 0. -1.
        994    1    1    2    0    0 -0.21945405646E+02 -0.48281400518E+02  0.13456976342E+02  0.17973097862E+03  0.17120000000E+03 0.  0.
        998    1    1    2    0    0  0.55970216991E+01 -0.14458291043E+01  0.12077004904E+04  0.12077557252E+04  0.10000000000E+02 0.  0.
</event>
<event>
 5    1  0.1247473E-008  0.2824307E+03  0.7957747E-01  0.4030023E+00
         13   -1    0    0    0    0  0.00000000000E+00  0.00000000000E+00  0.14999999963E+04  0.15000000000E+04  0.10566000000E+00 0. -1.
        994   -1    0    0    0    0 -0.00000000000E+00 -0.00000000000E+00  0.11368683772E-12  0.17120000000E+03  0.17120000000E+03 0.  0.
         13    1    1    2    0    0  0.20205548374E+03 -0.34372379102E+02  0.67825872546E+03  0.70854977861E+03  0.10566000000E+00 0. -1.
        994    1    1    2    0    0 -0.86077452971E+02  0.23953914765E+02  0.75555861910E+02  0.20736741839E+03  0.17120000000E+03 0.  0.
        998    1    1    2    0    0 -0.11597803077E+03  0.10418464336E+02  0.74618540891E+03  0.75528280299E+03  0.10000000000E+02 0. -1.
</event>
<event>
 5    1  0.1247473E-008  0.3817384E+03  0.7957747E-01  0.3443624E+00
         13   -1    0    0    0    0  0.00000000000E+00  0.00000000000E+00  0.14999999963E+04  0.15000000000E+04  0.10566000000E+00 0. -1.
        994   -1    0    0    0    0 -0.00000000000E+00 -0.00000000000E+00  0.11368683772E-12  0.17120000000E+03  0.17120000000E+03 0.  0.
         13    1    1    2    0    0 -0.17803707068E+02 -0.88993371570E+01  0.62207820128E+02  0.65314579048E+02  0.10566000000E+00 0. -1.
        994    1    1    2    0    0  0.46283068352E+01 -0.76583361574E+00  0.33313338249E+01  0.17129665937E+03  0.17120000000E+03 0.  0.
        998    1    1    2    0    0  0.13175400233E+02  0.96651707728E+01  0.14344608423E+04  0.14345887616E+04  0.10000000000E+02 0. -1.
</event>
<event>
 5    1  0.1247473E-008  0.3783959E+03  0.7957747E-01  0.3458173E+00
         13   -1    0    0    0    0  0.00000000000E+00  0.00000000000E+00  0.14999999963E+04  0.15000000000E+04  0.10566000000E+00 0. -1.
        994   -1    0    0    0    0 -0.00000000000E+00 -0.00000000000E+00  0.11368683772E-12  0.17120000000E+03  0.17120000000E+03 0.  0.
         13    1    1    2    0    0 -0.68214217033E+02 -0.18308957476E+02  0.38551571381E+03  0.39193210393E+03  0.10566000000E+00 0. -1.
        994    1    1    2    0    0  0.65544777036E+02  0.16826308651E+02  0.20492192608E+02  0.18522584166E+03  0.17120000000E+03 0.  0.
        998    1    1    2    0    0  0.26694399964E+01  0.14826488251E+01  0.10939920899E+04  0.10940420544E+04  0.10000000000E+02 0.  0.
</event>
<event>
 5    1  0.1247473E-008  0.3697731E+03  0.7957747E-01  0.3496934E+00
         13   -1    0    0    0    0  0.00000000000E+00  0.00000000000E+00  0.14999999963E+04  0.15000000000E+04  0.10566000000E+00 0.  1.
        994   -1    0    0    0    0 -0.00000000000E+00 -0.00000000000E+00  0.11368683772E-12  0.17120000000E+03  0.17120000000E+03 0.  0.
         13    1    1    2    0    0 -0.69931658096E+02  0.32038963150E+02  0.38487745377E+03  0.39248897761E+03  0.10566000000E+00 0.  1.
        994    1    1    2    0    0  0.25400157041E+02  0.11278499056E+02  0.12065052500E+02  0.17386022550E+03  0.17120000000E+03 0.  0.
        998    1    1    2    0    0  0.44531501056E+02 -0.43317462206E+02  0.11030574900E+04  0.11048507969E+04  0.10000000000E+02 0. -1.
</event>
<event>
 5    1  0.1247473E-008  0.4159177E+03  0.7957747E-01  0.3308274E+00
         13   -1    0    0    0    0  0.00000000000E+00  0.00000000000E+00  0.14999999963E+04  0.15000000000E+04  0.10566000000E+00 0. -1.
        994   -1    0    0    0    0 -0.00000000000E+00 -0.00000000000E+00  0.11368683772E-12  0.17120000000E+03  0.17120000000E+03 0.  0.
         13    1    1    2    0    0 -0.67506870834E+02  0.71952510251E+02  0.12317107255E+03  0.15781465591E+03  0.10566000000E+00 0. -1.
        994    1    1    2    0    0  0.41714598253E+02 -0.45028410196E+02  0.53616122801E+02  0.18960958324E+03  0.17120000000E+03 0.  0.
        998    1    1    2    0    0  0.25792272581E+02 -0.26924100055E+02  0.13232128009E+04  0.13237757609E+04  0.10000000000E+02 0. -1.
</event>
<event>
 5    1  0.1247473E-008  0.3783221E+03  0.7957747E-01  0.3458497E+00
         13   -1    0    0    0    0  0.00000000000E+00  0.00000000000E+00  0.14999999963E+04  0.15000000000E+04  0.10566000000E+00 0. -1.
        994   -1    0    0    0    0 -0.00000000000E+00 -0.00000000000E+00  0.11368683772E-12  0.17120000000E+03  0.17120000000E+03 0.  0.
         13    1    1    2    0    0  0.60796408000E+02  0.30194614793E+02  0.40826771636E+03  0.41387251343E+03  0.10566000000E+00 0. -1.
        994    1    1    2    0    0 -0.41347328534E+02 -0.30606363044E+02  0.13930513690E+02  0.17930379318E+03  0.17120000000E+03 0.  0.
        998    1    1    2    0    0 -0.19449079466E+02  0.41174825029E+00  0.10778017662E+04  0.10780236934E+04  0.10000000000E+02 0. -1.
</event>
<event>
 5    1  0.1247473E-008  0.3784267E+03  0.7957747E-01  0.3458038E+00
         13   -1    0    0    0    0  0.00000000000E+00  0.00000000000E+00  0.14999999963E+04  0.15000000000E+04  0.10566000000E+00 0.  1.
        994   -1    0    0    0    0 -0.00000000000E+00 -0.00000000000E+00  0.11368683772E-12  0.17120000000E+03  0.17120000000E+03 0.  0.
         13    1    1    2    0    0 -0.40872949097E+02  0.98926945640E+01  0.19973099976E+03  0.20411013401E+03  0.10566000000E+00 0.  1.
        994    1    1    2    0    0  0.70435979388E+01 -0.28784408830E+01  0.51240467759E+01  0.17144559939E+03  0.17120000000E+03 0.  0.
        998    1    1    2    0    0  0.33829351159E+02 -0.70142536810E+01  0.12951449497E+04  0.12956442666E+04  0.10000000000E+02 0.  1.
</event>
<event>
 5    1  0.1247473E-008  0.3840293E+03  0.7957747E-01  0.3433799E+00
         13   -1    0    0    0    0  0.00000000000E+00  0.00000000000E+00  0.14999999963E+04  0.15000000000E+04  0.10566000000E+00 0. -1.
        994   -1    0    0    0    0 -0.00000000000E+00 -0.00000000000E+00  0.11368683772E-12  0.17120000000E+03  0.17120000000E+03 0.  0.
         13    1    1    2    0    0 -0.15675829173E+02 -0.35675233922E+00  0.54719591969E+02  0.56921909681E+02  0.10566000000E+00 0. -1.
        994    1    1    2    0    0  0.20881339986E+02 -0.31262459042E+01  0.35849309756E+01  0.17253433138E+03  0.17120000000E+03 0.  0.
        998    1    1    2    0    0 -0.52055108136E+01  0.34829982435E+01  0.14416954733E+04  0.14417437589E+04  0.10000000000E+02 0. -1.
</event>
<event>
 5    1  0.1247473E-008  0.3825489E+03  0.7957747E-01  0.3440134E+00
         13   -1    0    0    0    0  0.00000000000E+00  0.00000000000E+00  0.14999999963E+04  0.15000000000E+04  0.10566000000E+00 0.  1.
        994   -1    0    0    0    0 -0.00000000000E+00 -0.00000000000E+00  0.11368683772E-12  0.17120000000E+03  0.17120000000E+03 0.  0.
         13    1    1    2    0    0  0.21433423197E+02  0.25009012730E+01  0.84963451007E+02  0.87660967985E+02  0.10566000000E+00 0.  1.
        994    1    1    2    0    0 -0.38403195375E+01 -0.68871524427E+01  0.30581226338E+01  0.17140878926E+03  0.17120000000E+03 0.  0.
        998    1    1    2    0    0 -0.17593103659E+02  0.43862511697E+01  0.14119784226E+04  0.14121302428E+04  0.10000000000E+02 0.  1.
</event>
<event>
 5    1  0.1247473E-008  0.3771640E+03  0.7957747E-01  0.3463601E+00
         13   -1    0    0    0    0  0.00000000000E+00  0.00000000000E+00  0.14999999963E+04  0.15000000000E+04  0.10566000000E+00 0.  1.
        994   -1    0    0    0    0 -0.00000000000E+00 -0.00000000000E+00  0.11368683772E-12  0.17120000000E+03  0.17120000000E+03 0.  0.
         13    1    1    2    0    0  0.29009661532E+02  0.20317861500E+02  0.10422889301E+03  0.11008201152E+03  0.10566000000E+00 0.  1.
        994    1    1    2    0    0 -0.26257413435E+02 -0.22372607289E+02  0.95978239103E+01  0.17490438400E+03  0.17120000000E+03 0.  0.
        998    1    1    2    0    0 -0.27522480971E+01  0.20547457883E+01  0.13861732794E+04  0.13862136045E+04  0.10000000000E+02 0.  1.
</event>
<event>
 5    1  0.1247473E-008  0.3852761E+03  0.7957747E-01  0.3428502E+00
         13   -1    0    0    0    0  0.00000000000E+00  0.00000000000E+00  0.14999999963E+04  0.15000000000E+04  0.10566000000E+00 0.  1.
        994   -1    0    0    0    0 -0.00000000000E+00 -0.00000000000E+00  0.11368683772E-12  0.17120000000E+03  0.17120000000E+03 0.  0.
         13    1    1    2    0    0  0.10860478388E+02  0.65365325016E+01  0.51727013743E+02  0.53257594413E+02  0.10566000000E+00 0.  1.
        994    1    1    2    0    0 -0.12512997454E+02 -0.93648596161E+01  0.22961407413E+01  0.17192727522E+03  0.17120000000E+03 0.  0.
        998    1    1    2    0    0  0.16525190662E+01  0.28283271145E+01  0.14459768418E+04  0.14460151304E+04  0.10000000000E+02 0.  1.
</event>
<event>
 5    1  0.1247473E-008  0.3819361E+03  0.7957747E-01  0.3442771E+00
         13   -1    0    0    0    0  0.00000000000E+00  0.00000000000E+00  0.14999999963E+04  0.15000000000E+04  0.10566000000E+00 0.  1.
        994   -1    0    0    0    0 -0.00000000000E+00 -0.00000000000E+00  0.11368683772E-12  0.17120000000E+03  0.17120000000E+03 0.  0.
         13    1    1    2    0    0  0.51187200644E+02 -0.51134853532E+02  0.23694583104E+03  0.24774632342E+03  0.10566000000E+00 0.  1.
        994    1    1    2    0    0  0.80504870239E+02  0.11528967218E+00  0.41448931144E+02  0.19367111637E+03  0.17120000000E+03 0.  0.
        998    1    1    2    0    0 -0.13169207088E+03  0.51019563860E+02  0.12216052341E+04  0.12297825602E+04  0.10000000000E+02 0.  1.
</event>
<event>
 5    1  0.1247473E-008  0.3844347E+03  0.7957747E-01  0.3432073E+00
         13   -1    0    0    0    0  0.00000000000E+00  0.00000000000E+00  0.14999999963E+04  0.15000000000E+04  0.10566000000E+00 0. -1.
        994   -1    0    0    0    0 -0.00000000000E+00 -0.00000000000E+00  0.11368683772E-12  0.17120000000E+03  0.17120000000E+03 0.  0.
         13    1    1    2    0    0  0.14811525465E+02 -0.14704869696E+01  0.62806581423E+02  0.64546273732E+02  0.10566000000E+00 0. -1.
        994    1    1    2    0    0  0.39143725390E+01 -0.73468478362E+01  0.21394051848E+01  0.17141562222E+03  0.17120000000E+03 0.  0.
        998    1    1    2    0    0 -0.18725898004E+02  0.88173348058E+01  0.14350540097E+04  0.14352381041E+04  0.10000000000E+02 0. -1.
</event>
<event>
 5    1  0.1247473E-008  0.3762312E+03  0.7957747E-01  0.3467734E+00
         13   -1    0    0    0    0  0.00000000000E+00  0.00000000000E+00  0.14999999963E+04  0.15000000000E+04  0.10566000000E+00 0.  1.
        994   -1    0    0    0    0 -0.00000000000E+00 -0.00000000000E+00  0.11368683772E-12  0.17120000000E+03  0.17120000000E+03 0.  0.
         13    1    1    2    0    0 -0.23683232573E+01 -0.40383533222E+02  0.13292730206E+03  0.13894645554E+03  0.10566000000E+00 0.  1.
        994    1    1    2    0    0  0.19588493465E+02  0.23633294443E+02  0.92440444666E+01  0.17417558394E+03  0.17120000000E+03 0.  0.
        998    1    1    2    0    0 -0.17220170208E+02  0.16750238779E+02  0.13578286498E+04  0.13580779605E+04  0.10000000000E+02 0.  1.
</event>
<event>
 5    1  0.1247473E-008  0.3760434E+03  0.7957747E-01  0.3468570E+00
         13   -1    0    0    0    0  0.00000000000E+00  0.00000000000E+00  0.14999999963E+04  0.15000000000E+04  0.10566000000E+00 0.  1.
        994   -1    0    0    0    0 -0.00000000000E+00 -0.00000000000E+00  0.11368683772E-12  0.17120000000E+03  0.17120000000E+03 0.  0.
         13    1    1    2    0    0  0.31151422699E+02  0.34020923665E+02  0.16497166073E+03  0.17129942905E+03  0.10566000000E+00 0.  1.
        994    1    1    2    0    0 -0.39238302100E+02 -0.10139782803E+02  0.11727690316E+02  0.17632197330E+03  0.17120000000E+03 0.  0.
        998    1    1    2    0    0  0.80868794010E+01 -0.23881140862E+02  0.13233006452E+04  0.13235785977E+04  0.10000000000E+02 0.  1.
</event>
<event>
 5    1  0.1247473E-008  0.3788104E+03  0.7957747E-01  0.3456355E+00
         13   -1    0    0    0    0  0.00000000000E+00  0.00000000000E+00  0.14999999963E+04  0.15000000000E+04  0.10566000000E+00 0. -1.
        994   -1    0    0    0    0 -0.00000000000E+00 -0.00000000000E+00  0.11368683772E-12  0.17120000000E+03  0.17120000000E+03 0.  0.
         13    1    1    2    0    0 -0.46609271678E+01 -0.21495363679E+02  0.47242857435E+02  0.52112125694E+02  0.10566000000E+00 0. -1.
        994    1    1    2    0    0  0.18553789018E+02  0.23082051350E+02  0.76838664137E+01  0.17391235144E+03  0.17120000000E+03 0.  0.
        998    1    1    2    0    0 -0.13892861850E+02 -0.15866876704E+01  0.14450732724E+04  0.14451755229E+04  0.10000000000E+02 0. -1.
</event>
<event>
 5    1  0.1247473E-008  0.3818985E+03  0.7957747E-01  0.3442934E+00
         13   -1    0    0    0    0  0.00000000000E+00  0.00000000000E+00  0.14999999963E+04  0.15000000000E+04  0.10566000000E+00 0.  1.
        994   -1    0    0    0    0 -0.00000000000E+00 -0.00000000000E+00  0.11368683772E-12  0.17120000000E+03  0.17120000000E+03 0.  0.
         13    1    1    2    0    0 -0.12505449692E+02  0.18973032205E+02  0.81091512739E+02  0.84215241052E+02  0.10566000000E+00 0.  1.
        994    1    1    2    0    0  0.12650390934E+02 -0.62574349239E+01  0.38398598125E+01  0.17182366661E+03  0.17120000000E+03 0.  0.
        998    1    1    2    0    0 -0.14494124262E+00 -0.12715597281E+02  0.14150686237E+04  0.14151610923E+04  0.10000000000E+02 0.  1.
</event>
<event>
 5    1  0.1247473E-008  0.3827362E+03  0.7957747E-01  0.3439330E+00
         13   -1    0    0    0    0  0.00000000000E+00  0.00000000000E+00  0.14999999963E+04  0.15000000000E+04  0.10566000000E+00 0.  1.
        994   -1    0    0    0    0 -0.00000000000E+00 -0.00000000000E+00  0.11368683772E-12  0.17120000000E+03  0.17120000000E+03 0.  0.
         13    1    1    2    0    0  0.22789986730E+02  0.24550454450E+02  0.19410780722E+03  0.19697705526E+03  0.10566000000E+00 0.  1.
        994    1    1    2    0    0 -0.25358082052E+01 -0.32021902720E+02  0.61841965992E+01  0.17429720842E+03  0.17120000000E+03 0.  0.
        998    1    1    2    0    0 -0.20254178525E+02  0.74714482705E+01  0.12997079925E+04  0.12999257363E+04  0.10000000000E+02 0.  1.
</event>
<event>
 5    1  0.1247473E-008  0.3844507E+03  0.7957747E-01  0.3432005E+00
         13   -1    0    0    0    0  0.00000000000E+00  0.00000000000E+00  0.14999999963E+04  0.15000000000E+04  0.10566000000E+00 0.  1.
        994   -1    0    0    0    0 -0.00000000000E+00 -0.00000000000E+00  0.11368683772E-12  0.17120000000E+03  0.17120000000E+03 0.  0.
         13    1    1    2    0    0  0.14818663431E+02 -0.60165954526E+01  0.67146738734E+02  0.69025269962E+02  0.10566000000E+00 0.  1.
        994    1    1    2    0    0 -0.93301409030E+01  0.35449046257E+01  0.22313492138E+01  0.17150520924E+03  0.17120000000E+03 0.  0.
        998    1    1    2    0    0 -0.54885225285E+01  0.24716908269E+01  0.14306219083E+04  0.14306695208E+04  0.10000000000E+02 0.  1.
</event>
<event>
 5    1  0.1247473E-008  0.3845994E+03  0.7957747E-01  0.3431373E+00
         13   -1    0    0    0    0  0.00000000000E+00  0.00000000000E+00  0.14999999963E+04  0.15000000000E+04  0.10566000000E+00 0. -1.
        994   -1    0    0    0    0 -0.00000000000E+00 -0.00000000000E+00  0.11368683772E-12  0.17120000000E+03  0.17120000000E+03 0.  0.
         13    1    1    2    0    0  0.69843608699E+01 -0.13637626426E+02  0.65602969152E+02  0.67368589690E+02  0.10566000000E+00 0. -1.
        994    1    1    2    0    0 -0.17500464676E+02 -0.19536089540E+01  0.28509086785E+01  0.17212684431E+03  0.17120000000E+03 0.  0.
        998    1    1    2    0    0  0.10516103806E+02  0.15591235380E+02  0.14315461184E+04  0.14317045660E+04  0.10000000000E+02 0. -1.
</event>
<event>
 5    1  0.1247473E-008  0.3854956E+03  0.7957747E-01  0.3427573E+00
         13   -1    0    0    0    0  0.00000000000E+00  0.00000000000E+00  0.14999999963E+04  0.15000000000E+04  0.10566000000E+00 0. -1.
        994   -1    0    0    0    0 -0.00000000000E+00 -0.00000000000E+00  0.11368683772E-12  0.17120000000E+03  0.17120000000E+03 0.  0.
         13    1    1    2    0    0 -0.30068027595E+01 -0.10820590243E+02  0.44306967001E+02  0.45708254451E+02  0.10566000000E+00 0. -1.
        994    1    1    2    0    0 -0.28112231521E+01  0.14485234036E+02  0.20994708158E+01  0.17184752765E+03  0.17120000000E+03 0.  0.
        998    1    1    2    0    0  0.58180259116E+01 -0.36646437924E+01  0.14535935585E+04  0.14536442179E+04  0.10000000000E+02 0. -1.
</event>
<event>
 5    1  0.1247473E-008  0.3775073E+03  0.7957747E-01  0.3462084E+00
         13   -1    0    0    0    0  0.00000000000E+00  0.00000000000E+00  0.14999999963E+04  0.15000000000E+04  0.10566000000E+00 0. -1.
        994   -1    0    0    0    0 -0.00000000000E+00 -0.00000000000E+00  0.11368683772E-12  0.17120000000E+03  0.17120000000E+03 0.  0.
         13    1    1    2    0    0  0.30427620179E+00 -0.29977931587E+02  0.88803124334E+02  0.93727130660E+02  0.10566000000E+00 0. -1.
        994    1    1    2    0    0  0.13045206247E+02 -0.13028046330E+01  0.59762948546E+01  0.17180521181E+03  0.17120000000E+03 0.  0.
        998    1    1    2    0    0 -0.13349482449E+02  0.31280736220E+02  0.14052205771E+04  0.14056676575E+04  0.10000000000E+02 0. -1.
</event>
<event>
 5    1  0.1247473E-008  0.3856104E+03  0.7957747E-01  0.3427088E+00
         13   -1    0    0    0    0  0.00000000000E+00  0.00000000000E+00  0.14999999963E+04  0.15000000000E+04  0.10566000000E+00 0. -1.
        994   -1    0    0    0    0 -0.00000000000E+00 -0.00000000000E+00  0.11368683772E-12  0.17120000000E+03  0.17120000000E+03 0.  0.
         13    1    1    2    0    0 -0.87674231142E-01  0.13561048409E+02  0.72872030611E+02  0.74123233403E+02  0.10566000000E+00 0. -1.
        994    1    1    2    0    0  0.86537547342E+01 -0.30700996156E+01  0.16041800576E+01  0.17145356916E+03  0.17120000000E+03 0.  0.
        998    1    1    2    0    0 -0.85660805031E+01 -0.10490948794E+02  0.14255237856E+04  0.14256231974E+04  0.10000000000E+02 0. -1.
</event>
<event>
 5    1  0.1247473E-008  0.3758215E+03  0.7957747E-01  0.3469557E+00
         13   -1    0    0    0    0  0.00000000000E+00  0.00000000000E+00  0.14999999963E+04  0.15000000000E+04  0.10566000000E+00 0. -1.
        994   -1    0    0    0    0 -0.00000000000E+00 -0.00000000000E+00  0.11368683772E-12  0.17120000000E+03  0.17120000000E+03 0.  0.
         13    1    1    2    0    0 -0.23486812483E+02  0.59575474528E+00  0.40542860456E+02  0.46858510244E+02  0.10566000000E+00 0. -1.
        994    1    1    2    0    0  0.24246681091E+02 -0.65354826923E+01  0.83980839826E+01  0.17323562536E+03  0.17120000000E+03 0.  0.
        998    1    1    2    0    0 -0.75986860889E+00  0.59397279471E+01  0.14510590518E+04  0.14511058644E+04  0.10000000000E+02 0. -1.
</event>
<event>
 5    1  0.1247473E-008  0.3794562E+03  0.7957747E-01  0.3453530E+00
         13   -1    0    0    0    0  0.00000000000E+00  0.00000000000E+00  0.14999999963E+04  0.15000000000E+04  0.10566000000E+00 0.  1.
        994   -1    0    0    0    0 -0.00000000000E+00 -0.00000000000E+00  0.11368683772E-12  0.17120000000E+03  0.17120000000E+03 0.  0.
         13    1    1    2    0    0 -0.10314176807E+03 -0.10775300771E+02  0.58873437432E+03  0.59779804792E+03  0.10566000000E+00 0.  1.
        994    1    1    2    0    0  0.12272888521E+03  0.74039054240E+02  0.76599906148E+02  0.23605327034E+03  0.17120000000E+03 0.  0.
        998    1    1    2    0    0 -0.19587117133E+02 -0.63263753469E+02  0.83466571581E+03  0.83734868174E+03  0.10000000000E+02 0.  1.
</event>
<event>
 5    1  0.1247473E-008  0.3839519E+03  0.7957747E-01  0.3434130E+00
         13   -1    0    0    0    0  0.00000000000E+00  0.00000000000E+00  0.14999999963E+04  0.15000000000E+04  0.10566000000E+00 0. -1.
        994   -1    0    0    0    0 -0.00000000000E+00 -0.00000000000E+00  0.11368683772E-12  0.17120000000E+03  0.17120000000E+03 0.  0.
         13    1    1    2    0    0  0.94636315878E+01  0.14847048811E+02  0.82446250720E+02  0.84305341486E+02  0.10566000000E+00 0. -1.
        994    1    1    2    0    0 -0.30692420099E+01  0.14404534845E+02  0.28675150659E+01  0.17185625829E+03  0.17120000000E+03 0.  0.
        998    1    1    2    0    0 -0.63943895779E+01 -0.29251583656E+02  0.14146862305E+04  0.14150384002E+04  0.10000000000E+02 0. -1.
</event>
<event>
 5    1  0.1247473E-008  0.3816394E+03  0.7957747E-01  0.3444051E+00
         13   -1    0    0    0    0  0.00000000000E+00  0.00000000000E+00  0.14999999963E+04  0.15000000000E+04  0.10566000000E+00 0.  1.
        994   -1    0    0    0    0 -0.00000000000E+00 -0.00000000000E+00  0.11368683772E-12  0.17120000000E+03  0.17120000000E+03 0.  0.
         13    1    1    2    0    0  0.21189644339E+02 -0.20873711662E+02  0.12852240842E+03  0.13191942047E+03  0.10566000000E+00 0.  1.
        994    1    1    2    0    0 -0.66203984702E+01  0.25962105967E+02  0.56983391328E+01  0.17337754091E+03  0.17120000000E+03 0.  0.
        998    1    1    2    0    0 -0.14569245869E+02 -0.50883943048E+01  0.13657792487E+04  0.13659030386E+04  0.10000000000E+02 0.  1.
</event>
<event>
 5    1  0.1247473E-008  0.3715294E+03  0.7957747E-01  0.3488892E+00
         13   -1    0    0    0    0  0.00000000000E+00  0.00000000000E+00  0.14999999963E+04  0.15000000000E+04  0.10566000000E+00 0.  1.
        994   -1    0    0    0    0 -0.00000000000E+00 -0.00000000000E+00  0.11368683772E-12  0.17120000000E+03  0.17120000000E+03 0.  0.
         13    1    1    2    0    0 -0.19270604229E+03 -0.29946865949E+01  0.62178974998E+03  0.65097395588E+03  0.10566000000E+00 0.  1.
        994    1    1    2    0    0  0.21470643642E+03 -0.45206897194E+02  0.20697700028E+03  0.34683055811E+03  0.17120000000E+03 0.  0.
        998    1    1    2    0    0 -0.22000394128E+02  0.48201583789E+02  0.67123324602E+03  0.67339548601E+03  0.10000000000E+02 0.  1.
</event>
<event>
 5    1  0.1247473E-008  0.3694498E+03  0.7957747E-01  0.3498423E+00
         13   -1    0    0    0    0  0.00000000000E+00  0.00000000000E+00  0.14999999963E+04  0.15000000000E+04  0.10566000000E+00 0.  1.
        994   -1    0    0    0    0 -0.00000000000E+00 -0.00000000000E+00  0.11368683772E-12  0.17120000000E+03  0.17120000000E+03 0.  0.
         13    1    1    2    0    0  0.14853549703E+02 -0.13813242841E+02  0.18130546673E+02  0.27205909345E+02  0.10566000000E+00 0.  1.
        994    1    1    2    0    0  0.11039224645E+02  0.71838530402E+01  0.10158115600E+02  0.17200610320E+03  0.17120000000E+03 0.  0.
        998    1    1    2    0    0 -0.25892774348E+02  0.66293898012E+01  0.14717113340E+04  0.14719879875E+04  0.10000000000E+02 0.  1.
</event>
<event>
 5    1  0.1247473E-008  0.3749432E+03  0.7957747E-01  0.3473477E+00
         13   -1    0    0    0    0  0.00000000000E+00  0.00000000000E+00  0.14999999963E+04  0.15000000000E+04  0.10566000000E+00 0.  1.
        994   -1    0    0    0    0 -0.00000000000E+00 -0.00000000000E+00  0.11368683772E-12  0.17120000000E+03  0.17120000000E+03 0.  0.
         13    1    1    2    0    0 -0.40599289777E+02 -0.16487213427E+01  0.14694184825E+03  0.15245634963E+03  0.10566000000E+00 0.  1.
        994    1    1    2    0    0 -0.11399888623E+02  0.79072718146E+02  0.28726682332E+02  0.19109451717E+03  0.17120000000E+03 0.  0.
        998    1    1    2    0    0  0.51999178400E+02 -0.77423996803E+02  0.13243314657E+04  0.13276491332E+04  0.10000000000E+02 0.  1.
</event>
<event>
 5    1  0.1247473E-008  0.3856678E+03  0.7957747E-01  0.3426845E+00
         13   -1    0    0    0    0  0.00000000000E+00  0.00000000000E+00  0.14999999963E+04  0.15000000000E+04  0.10566000000E+00 0.  1.
        994   -1    0    0    0    0 -0.00000000000E+00 -0.00000000000E+00  0.11368683772E-12  0.17120000000E+03  0.17120000000E+03 0.  0.
         13    1    1    2    0    0  0.59805713182E+01 -0.11548460648E+03  0.35451184354E+03  0.37289558853E+03  0.10566000000E+00 0.  1.
        994    1    1    2    0    0  0.27076970324E+02  0.62855719267E+02  0.37023377127E+02  0.18805364719E+03  0.17120000000E+03 0.  0.
        998    1    1    2    0    0 -0.33057541642E+02  0.52628887215E+02  0.11084647756E+04  0.11102507643E+04  0.10000000000E+02 0.  1.
</event>
<event>
 5    1  0.1247473E-008  0.3815895E+03  0.7957747E-01  0.3444267E+00
         13   -1    0    0    0    0  0.00000000000E+00  0.00000000000E+00  0.14999999963E+04  0.15000000000E+04  0.10566000000E+00 0. -1.
        994   -1    0    0    0    0 -0.00000000000E+00 -0.00000000000E+00  0.11368683772E-12  0.17120000000E+03  0.17120000000E+03 0.  0.
         13    1    1    2    0    0  0.28798632020E+01 -0.18666478362E+02  0.52710988914E+02  0.55992772238E+02  0.10566000000E+00 0. -1.
        994    1    1    2    0    0  0.25337168825E+01  0.11235383306E+02  0.37741827616E+01  0.17162848835E+03  0.17120000000E+03 0.  0.
        998    1    1    2    0    0 -0.54135800846E+01  0.74310950565E+01  0.14435148246E+04  0.14435787394E+04  0.10000000000E+02 0. -1.
</event>
<event>
 5    1  0.1247473E-008  0.3831855E+03  0.7957747E-01  0.3437404E+00
         13   -1    0    0    0    0  0.00000000000E+00  0.00000000000E+00  0.14999999963E+04  0.15000000000E+04  0.10566000000E+00 0. -1.
        994   -1    0    0    0    0 -0.00000000000E+00 -0.00000000000E+00  0.11368683772E-12  0.17120000000E+03  0.17120000000E+03 0.  0.
         13    1    1    2    0    0 -0.22240639317E+02 -0.32672733320E+01  0.98499539939E+02  0.10103213174E+03  0.10566000000E+00 0. -1.
        994    1    1    2    0    0  0.15120426716E+02 -0.92825993644E+00  0.32932493378E+01  0.17190047836E+03  0.17120000000E+03 0.  0.
        998    1    1    2    0    0  0.71202126018E+01  0.41955332684E+01  0.13982072070E+04  0.13982673899E+04  0.10000000000E+02 0. -1.
</event>
<event>
 5    1  0.1247473E-008  0.4158303E+03  0.7957747E-01  0.3308592E+00
         13   -1    0    0    0    0  0.00000000000E+00  0.00000000000E+00  0.14999999963E+04  0.15000000000E+04  0.10566000000E+00 0. -1.
        994   -1    0    0    0    0 -0.00000000000E+00 -0.00000000000E+00  0.11368683772E-12  0.17120000000E+03  0.17120000000E+03 0.  0.
         13    1    1    2    0    0  0.81732113884E+02 -0.48639927289E+02  0.11878057936E+03  0.15216707319E+03  0.10566000000E+00 0. -1.
        994    1    1    2    0    0 -0.27748621612E+02  0.39837701242E+02  0.47535416074E+02  0.18419034780E+03  0.17120000000E+03 0.  0.
        998    1    1    2    0    0 -0.53983492272E+02  0.88022260462E+01  0.13336840008E+04  0.13348425790E+04  0.10000000000E+02 0. -1.
</event>
<event>
 5    1  0.1247473E-008  0.3816915E+03  0.7957747E-01  0.3443826E+00
         13   -1    0    0    0    0  0.00000000000E+00  0.00000000000E+00  0.14999999963E+04  0.15000000000E+04  0.10566000000E+00 0.  1.
        994   -1    0    0    0    0 -0.00000000000E+00 -0.00000000000E+00  0.11368683772E-12  0.17120000000E+03  0.17120000000E+03 0.  0.
         13    1    1    2    0    0  0.18362947185E+02 -0.20547697342E+02  0.12503548248E+03  0.12803627900E+03  0.10566000000E+00 0.  1.
        994    1    1    2    0    0 -0.42861827590E+01  0.45696589019E+00  0.33434861421E+01  0.17128689115E+03  0.17120000000E+03 0.  0.
        998    1    1    2    0    0 -0.14076764426E+02  0.20090731451E+02  0.13716210277E+04  0.13718768299E+04  0.10000000000E+02 0.  1.
</event>
<event>
 5    1  0.1247473E-008  0.3853438E+03  0.7957747E-01  0.3428215E+00
         13   -1    0    0    0    0  0.00000000000E+00  0.00000000000E+00  0.14999999963E+04  0.15000000000E+04  0.10566000000E+00 0. -1.
        994   -1    0    0    0    0 -0.00000000000E+00 -0.00000000000E+00  0.11368683772E-12  0.17120000000E+03  0.17120000000E+03 0.  0.
         13    1    1    2    0    0  0.16167741196E+01  0.14496895505E+02  0.69084060947E+02  0.70607312503E+02  0.10566000000E+00 0. -1.
        994    1    1    2    0    0 -0.98039033562E+01 -0.17093268597E+02  0.27361140379E+01  0.17235203124E+03  0.17120000000E+03 0.  0.
        998    1    1    2    0    0  0.81871292366E+01  0.25963730928E+01  0.14281798213E+04  0.14282406563E+04  0.10000000000E+02 0. -1.
</event>
<event>
 5    1  0.1247473E-008  0.3804403E+03  0.7957747E-01  0.3449243E+00
         13   -1    0    0    0    0  0.00000000000E+00  0.00000000000E+00  0.14999999963E+04  0.15000000000E+04  0.10566000000E+00 0. -1.
        994   -1    0    0    0    0 -0.00000000000E+00 -0.00000000000E+00  0.11368683772E-12  0.17120000000E+03  0.17120000000E+03 0.  0.
         13    1    1    2    0    0 -0.18685652867E+02 -0.19806091707E+01  0.41670922367E+02  0.45711632772E+02  0.10566000000E+00 0. -1.
        994    1    1    2    0    0  0.24532745547E+02  0.11737857624E+02  0.63838945858E+01  0.17346419520E+03  0.17120000000E+03 0.  0.
        998    1    1    2    0    0 -0.58470926796E+01 -0.97572484533E+01  0.14519451793E+04  0.14520241720E+04  0.10000000000E+02 0. -1.
</event>
<event>
 5    1  0.1247473E-008  0.3838153E+03  0.7957747E-01  0.3434712E+00
         13   -1    0    0    0    0  0.00000000000E+00  0.00000000000E+00  0.14999999963E+04  0.15000000000E+04  0.10566000000E+00 0.  1.
        994   -1    0    0    0    0 -0.00000000000E+00 -0.00000000000E+00  0.11368683772E-12  0.17120000000E+03  0.17120000000E+03 0.  0.
         13    1    1    2    0    0  0.63447498883E+01  0.17211129517E+02  0.79241886596E+02  0.81337362790E+02  0.10566000000E+00 0.  1.
        994    1    1    2    0    0  0.21392518842E+01 -0.44654276088E+01  0.23003876889E+01  0.17128703461E+03  0.17120000000E+03 0.  0.
        998    1    1    2    0    0 -0.84840017725E+01 -0.12745701909E+02  0.14184577220E+04  0.14185756026E+04  0.10000000000E+02 0.  1.
</event>
<event>
 5    1  0.1247473E-008  0.3838009E+03  0.7957747E-01  0.3434774E+00
         13   -1    0    0    0    0  0.00000000000E+00  0.00000000000E+00  0.14999999963E+04  0.15000000000E+04  0.10566000000E+00 0. -1.
        994   -1    0    0    0    0 -0.00000000000E+00 -0.00000000000E+00  0.11368683772E-12  0.17120000000E+03  0.17120000000E+03 0.  0.
         13    1    1    2    0    0  0.21255141219E+02  0.42518293461E+00  0.11183775396E+03  0.11384048569E+03  0.10566000000E+00 0. -1.
        994    1    1    2    0    0  0.36401981441E+00 -0.22451291481E+02  0.38929818563E+01  0.17271012798E+03  0.17120000000E+03 0.  0.
        998    1    1    2    0    0 -0.21619161033E+02  0.22026108546E+02  0.13842692605E+04  0.13846493863E+04  0.10000000000E+02 0. -1.
</event>
<event>
 5    1  0.1247473E-008  0.3861198E+03  0.7957747E-01  0.3424937E+00
         13   -1    0    0    0    0  0.00000000000E+00  0.00000000000E+00  0.14999999963E+04  0.15000000000E+04  0.10566000000E+00 0. -1.
        994   -1    0    0    0    0 -0.00000000000E+00 -0.00000000000E+00  0.11368683772E-12  0.17120000000E+03  0.17120000000E+03 0.  0.
         13    1    1    2    0    0  0.13317102439E+01 -0.11228849171E+02  0.57037805499E+02  0.58147939999E+02  0.10566000000E+00 0. -1.
        994    1    1    2    0    0  0.11391551890E+02  0.17007325005E+02  0.24494339422E+01  0.17243681824E+03  0.17120000000E+03 0.  0.
        998    1    1    2    0    0 -0.12723262134E+02 -0.57784758340E+01  0.14405127568E+04  0.14406152418E+04  0.10000000000E+02 0. -1.
</event>
<event>
 5    1  0.1247473E-008  0.3843644E+03  0.7957747E-01  0.3432373E+00
         13   -1    0    0    0    0  0.00000000000E+00  0.00000000000E+00  0.14999999963E+04  0.15000000000E+04  0.10566000000E+00 0.  1.
        994   -1    0    0    0    0 -0.00000000000E+00 -0.00000000000E+00  0.11368683772E-12  0.17120000000E+03  0.17120000000E+03 0.  0.
         13    1    1    2    0    0  0.12757533105E+02 -0.55697265567E+00  0.39120782775E+02  0.41152298581E+02  0.10566000000E+00 0.  1.
        994    1    1    2    0    0 -0.21460216736E+02  0.35325470462E+01  0.35064124763E+01  0.17261157180E+03  0.17120000000E+03 0.  0.
        998    1    1    2    0    0  0.87026836303E+01 -0.29755743905E+01  0.14573728010E+04  0.14574361296E+04  0.10000000000E+02 0.  1.
</event>
<event>
 5    1  0.1247473E-008  0.3838608E+03  0.7957747E-01  0.3434518E+00
         13   -1    0    0    0    0  0.00000000000E+00  0.00000000000E+00  0.14999999963E+04  0.15000000000E+04  0.10566000000E+00 0.  1.
        994   -1    0    0    0    0 -0.00000000000E+00 -0.00000000000E+00  0.11368683772E-12  0.17120000000E+03  0.17120000000E+03 0.  0.
         13    1    1    2    0    0  0.23049076061E+02  0.79437797185E+01  0.11796221384E+03  0.12045521409E+03  0.10566000000E+00 0.  1.
        994    1    1    2    0    0 -0.26918361696E+02 -0.25041409386E+02  0.66712377514E+01  0.17523017946E+03  0.17120000000E+03 0.  0.
        998    1    1    2    0    0  0.38692856349E+01  0.17097629668E+02  0.13753665447E+04  0.13755146064E+04  0.10000000000E+02 0.  1.
</event>
<event>
 5    1  0.1247473E-008  0.3841988E+03  0.7957747E-01  0.3433077E+00
         13   -1    0    0    0    0  0.00000000000E+00  0.00000000000E+00  0.14999999963E+04  0.15000000000E+04  0.10566000000E+00 0. -1.
        994   -1    0    0    0    0 -0.00000000000E+00 -0.00000000000E+00  0.11368683772E-12  0.17120000000E+03  0.17120000000E+03 0.  0.
         13    1    1    2    0    0 -0.41465898292E-01  0.11018495002E+02  0.29716113239E+02  0.31693335287E+02  0.10566000000E+00 0. -1.
        994    1    1    2    0    0  0.24746404402E+01 -0.48232482344E+01  0.21253532850E+01  0.17129899210E+03  0.17120000000E+03 0.  0.
        998    1    1    2    0    0 -0.24331745419E+01 -0.61952467677E+01  0.14681585298E+04  0.14682076726E+04  0.10000000000E+02 0. -1.
</event>
<event>
 5    1  0.1247473E-008  0.4105794E+03  0.7957747E-01  0.3327939E+00
         13   -1    0    0    0    0  0.00000000000E+00  0.00000000000E+00  0.14999999963E+04  0.15000000000E+04  0.10566000000E+00 0.  1.
        994   -1    0    0    0    0 -0.00000000000E+00 -0.00000000000E+00  0.11368683772E-12  0.17120000000E+03  0.17120000000E+03 0.  0.
         13    1    1    2    0    0 -0.38515463570E+02  0.38354164774E+02  0.29670960320E+02  0.61926245970E+02  0.10566000000E+00 0.  1.
        994    1    1    2    0    0  0.78382301410E+02  0.44331178389E+01  0.59958763655E+02  0.19765609287E+03  0.17120000000E+03 0.  0.
        998    1    1    2    0    0 -0.39866837841E+02 -0.42787282613E+02  0.14103702723E+04  0.14116176612E+04  0.10000000000E+02 0.  1.
</event>
<event>
 5    1  0.1247473E-008  0.3842165E+03  0.7957747E-01  0.3433002E+00
         13   -1    0    0    0    0  0.00000000000E+00  0.00000000000E+00  0.14999999963E+04  0.15000000000E+04  0.10566000000E+00 0. -1.
        994   -1    0    0    0    0 -0.00000000000E+00 -0.00000000000E+00  0.11368683772E-12  0.17120000000E+03  0.17120000000E+03 0.  0.
         13    1    1    2    0    0  0.16281251953E+02  0.67671122935E+01  0.74164819376E+02  0.76231913075E+02  0.10566000000E+00 0. -1.
        994    1    1    2    0    0 -0.12708127591E+02 -0.13220622334E+02  0.31291173943E+01  0.17220776039E+03  0.17120000000E+03 0.  0.
        998    1    1    2    0    0 -0.35731243628E+01  0.64535100400E+01  0.14227060595E+04  0.14227603265E+04  0.10000000000E+02 0. -1.
</event>
<event>
 5    1  0.1649094E-008  0.3862497E+03  0.7957747E-01  0.3424389E+00
         13   -1    0    0    0    0  0.00000000000E+00  0.00000000000E+00  0.14999999963E+04  0.15000000000E+04  0.10566000000E+00 0. -1.
        994   -1    0    0    0    0 -0.00000000000E+00 -0.00000000000E+00  0.11368683772E-12  0.17120000000E+03  0.17120000000E+03 0.  0.
         13    1    1    2    0    0  0.44673864049E+00 -0.10657296866E+02  0.58406727025E+02  0.59372842931E+02  0.10566000000E+00 0. -1.
        994    1    1    2    0    0 -0.38928338159E+01  0.42608933269E+01  0.11200619510E+01  0.17130091624E+03  0.17120000000E+03 0.  0.
        998    1    1    2    0    0  0.34460951755E+01  0.63964035391E+01  0.14404732073E+04  0.14405262408E+04  0.10000000000E+02 0. -1.
</event>
<event>
 5    1  0.1247473E-008  0.3852008E+03  0.7957747E-01  0.3428821E+00
         13   -1    0    0    0    0  0.00000000000E+00  0.00000000000E+00  0.14999999963E+04  0.15000000000E+04  0.10566000000E+00 0. -1.
        994   -1    0    0    0    0 -0.00000000000E+00 -0.00000000000E+00  0.11368683772E-12  0.17120000000E+03  0.17120000000E+03 0.  0.
         13    1    1    2    0    0  0.28679541294E+01 -0.10817667752E+02  0.41351955948E+02  0.42839730639E+02  0.10566000000E+00 0. -1.
        994    1    1    2    0    0  0.37856247429E+01  0.66379921432E+01  0.17223905782E+01  0.17137911344E+03  0.17120000000E+03 0.  0.
        998    1    1    2    0    0 -0.66535788723E+01  0.41796756087E+01  0.14569256498E+04  0.14569811559E+04  0.10000000000E+02 0. -1.
</event>
<event>
 5    1  0.1247473E-008  0.3813830E+03  0.7957747E-01  0.3445158E+00
         13   -1    0    0    0    0  0.00000000000E+00  0.00000000000E+00  0.14999999963E+04  0.15000000000E+04  0.10566000000E+00 0. -1.
        994   -1    0    0    0    0 -0.00000000000E+00 -0.00000000000E+00  0.11368683772E-12  0.17120000000E+03  0.17120000000E+03 0.  0.
         13    1    1    2    0    0  0.14506948452E+02  0.26552865886E+02  0.13362820208E+03  0.13701099882E+03  0.10566000000E+00 0. -1.
        994    1    1    2    0    0 -0.44123402844E+01 -0.16090494626E+02  0.43635111661E+01  0.17206642030E+03  0.17120000000E+03 0.  0.
        998    1    1    2    0    0 -0.10094608167E+02 -0.10462371260E+02  0.13620082830E+04  0.13621225809E+04  0.10000000000E+02 0. -1.
</event>
<event>
 5    1  0.1247473E-008  0.3816507E+03  0.7957747E-01  0.3444002E+00
         13   -1    0    0    0    0  0.00000000000E+00  0.00000000000E+00  0.14999999963E+04  0.15000000000E+04  0.10566000000E+00 0.  1.
        994   -1    0    0    0    0 -0.00000000000E+00 -0.00000000000E+00  0.11368683772E-12  0.17120000000E+03  0.17120000000E+03 0.  0.
         13    1    1    2    0    0  0.10381623933E+02  0.51427240043E+00  0.14613605274E+02  0.17933522094E+02  0.10566000000E+00 0.  1.
        994    1    1    2    0    0 -0.16947130176E+02 -0.18794488016E+00  0.42577968392E+01  0.17208953884E+03  0.17120000000E+03 0.  0.
        998    1    1    2    0    0  0.65655062432E+01 -0.32632752027E+00  0.14811285942E+04  0.14811769391E+04  0.10000000000E+02 0.  1.
</event>
<event>
 5    1  0.1247473E-008  0.3730738E+03  0.7957747E-01  0.3481883E+00
         13   -1    0    0    0    0  0.00000000000E+00  0.00000000000E+00  0.14999999963E+04  0.15000000000E+04  0.10566000000E+00 0. -1.
        994   -1    0    0    0    0 -0.00000000000E+00 -0.00000000000E+00  0.11368683772E-12  0.17120000000E+03  0.17120000000E+03 0.  0.
         13    1    1    2    0    0  0.20176109037E+02 -0.35782474931E+02  0.12055529025E+03  0.12736188621E+03  0.10566000000E+00 0. -1.
        994    1    1    2    0    0 -0.13642320079E+02 -0.91231372051E+01  0.85932956154E+01  0.17219938809E+03  0.17120000000E+03 0.  0.
        998    1    1    2    0    0 -0.65337889587E+01  0.44905612136E+02  0.13708514104E+04  0.13716387257E+04  0.10000000000E+02 0. -1.
</event>
<event>
 5    1  0.1247473E-008  0.3754008E+03  0.7957747E-01  0.3471432E+00
         13   -1    0    0    0    0  0.00000000000E+00  0.00000000000E+00  0.14999999963E+04  0.15000000000E+04  0.10566000000E+00 0.  1.
        994   -1    0    0    0    0 -0.00000000000E+00 -0.00000000000E+00  0.11368683772E-12  0.17120000000E+03  0.17120000000E+03 0.  0.
         13    1    1    2    0    0  0.34170544790E+02  0.55247093890E+02  0.27890964653E+03  0.28637470141E+03  0.10566000000E+00 0.  1.
        994    1    1    2    0    0 -0.28830009453E+02 -0.50303349571E+02  0.17971117495E+02  0.18164249912E+03  0.17120000000E+03 0.  0.
        998    1    1    2    0    0 -0.53405353374E+01 -0.49437443192E+01  0.12031192323E+04  0.12031827995E+04  0.10000000000E+02 0.  1.
</event>
<event>
 5    1  0.1247473E-008  0.3776564E+03  0.7957747E-01  0.3461427E+00
         13   -1    0    0    0    0  0.00000000000E+00  0.00000000000E+00  0.14999999963E+04  0.15000000000E+04  0.10566000000E+00 0. -1.
        994   -1    0    0    0    0 -0.00000000000E+00 -0.00000000000E+00  0.11368683772E-12  0.17120000000E+03  0.17120000000E+03 0.  0.
         13    1    1    2    0    0 -0.70875134169E+01 -0.18108156638E+02  0.35834676395E+02  0.40770986984E+02  0.10566000000E+00 0. -1.
        994    1    1    2    0    0 -0.98357144861E+01 -0.72946878649E+01  0.58262360595E+01  0.17173624771E+03  0.17120000000E+03 0.  0.
        998    1    1    2    0    0  0.16923227903E+02  0.25402844503E+02  0.14583390838E+04  0.14586927653E+04  0.10000000000E+02 0. -1.
</event>
<event>
 5    1  0.1247473E-008  0.3840668E+03  0.7957747E-01  0.3433640E+00
         13   -1    0    0    0    0  0.00000000000E+00  0.00000000000E+00  0.14999999963E+04  0.15000000000E+04  0.10566000000E+00 0.  1.
        994   -1    0    0    0    0 -0.00000000000E+00 -0.00000000000E+00  0.11368683772E-12  0.17120000000E+03  0.17120000000E+03 0.  0.
         13    1    1    2    0    0  0.48529513897E+01  0.10971724046E+02  0.34736827291E+02  0.36750349659E+02  0.10566000000E+00 0.  1.
        994    1    1    2    0    0  0.78601594505E+01 -0.55928452271E+01  0.24012157930E+01  0.17148838987E+03  0.17120000000E+03 0.  0.
        998    1    1    2    0    0 -0.12713110840E+02 -0.53788788185E+01  0.14628619532E+04  0.14629612605E+04  0.10000000000E+02 0.  1.
</event>
<event>
 5    1  0.1247473E-008  0.3856226E+03  0.7957747E-01  0.3427036E+00
         13   -1    0    0    0    0  0.00000000000E+00  0.00000000000E+00  0.14999999963E+04  0.15000000000E+04  0.10566000000E+00 0.  1.
        994   -1    0    0    0    0 -0.00000000000E+00 -0.00000000000E+00  0.11368683772E-12  0.17120000000E+03  0.17120000000E+03 0.  0.
         13    1    1    2    0    0  0.24022916329E+01 -0.11036433766E+02  0.46841029347E+02  0.48183680533E+02  0.10566000000E+00 0.  1.
        994    1    1    2    0    0 -0.18765797428E+01  0.13573709585E+02  0.19378561070E+01  0.17175844209E+03  0.17120000000E+03 0.  0.
        998    1    1    2    0    0 -0.52571189015E+00 -0.25372758189E+01  0.14512211108E+04  0.14512578774E+04  0.10000000000E+02 0.  1.
</event>
<event>
 5    1  0.1247473E-008  0.3772884E+03  0.7957747E-01  0.3463051E+00
         13   -1    0    0    0    0  0.00000000000E+00  0.00000000000E+00  0.14999999963E+04  0.15000000000E+04  0.10566000000E+00 0. -1.
        994   -1    0    0    0    0 -0.00000000000E+00 -0.00000000000E+00  0.11368683772E-12  0.17120000000E+03  0.17120000000E+03 0.  0.
         13    1    1    2    0    0 -0.57427776068E+01 -0.16076362097E+02  0.24562419865E+02  0.29912414589E+02  0.10566000000E+00 0. -1.
        994    1    1    2    0    0 -0.13556695204E+01  0.62692788360E+01  0.56470243810E+01  0.17141315755E+03  0.17120000000E+03 0.  0.
        998    1    1    2    0    0  0.70984471272E+01  0.98070832606E+01  0.14697905520E+04  0.14698744279E+04  0.10000000000E+02 0. -1.
</event>
<event>
 5    1  0.1247473E-008  0.3689905E+03  0.7957747E-01  0.3500543E+00
         13   -1    0    0    0    0  0.00000000000E+00  0.00000000000E+00  0.14999999963E+04  0.15000000000E+04  0.10566000000E+00 0.  1.
        994   -1    0    0    0    0 -0.00000000000E+00 -0.00000000000E+00  0.11368683772E-12  0.17120000000E+03  0.17120000000E+03 0.  0.
         13    1    1    2    0    0  0.79818379795E+02 -0.29310728336E+02  0.47548176135E+03  0.48302485349E+03  0.10566000000E+00 0.  1.
        994    1    1    2    0    0 -0.15245456746E+02  0.17840534008E+02  0.11710811244E+02  0.17319726241E+03  0.17120000000E+03 0.  0.
        998    1    1    2    0    0 -0.64572923050E+02  0.11470194328E+02  0.10128074237E+04  0.10149778841E+04  0.10000000000E+02 0.  1.
</event>
<event>
 5    1  0.1247473E-008  0.3847300E+03  0.7957747E-01  0.3430818E+00
         13   -1    0    0    0    0  0.00000000000E+00  0.00000000000E+00  0.14999999963E+04  0.15000000000E+04  0.10566000000E+00 0.  1.
        994   -1    0    0    0    0 -0.00000000000E+00 -0.00000000000E+00  0.11368683772E-12  0.17120000000E+03  0.17120000000E+03 0.  0.
         13    1    1    2    0    0 -0.16918125813E+02 -0.30598122821E+01  0.95684443251E+02  0.97216815812E+02  0.10566000000E+00 0.  1.
        994    1    1    2    0    0 -0.59375659292E+01 -0.41833035031E+01  0.19379179018E+01  0.17136496212E+03  0.17120000000E+03 0.  0.
        998    1    1    2    0    0  0.22855691743E+02  0.72431157852E+01  0.14023776351E+04  0.14026182221E+04  0.10000000000E+02 0.  1.
</event>
<event>
 5    1  0.1247473E-008  0.3711980E+03  0.7957747E-01  0.3490403E+00
         13   -1    0    0    0    0  0.00000000000E+00  0.00000000000E+00  0.14999999963E+04  0.15000000000E+04  0.10566000000E+00 0.  1.
        994   -1    0    0    0    0 -0.00000000000E+00 -0.00000000000E+00  0.11368683772E-12  0.17120000000E+03  0.17120000000E+03 0.  0.
         13    1    1    2    0    0  0.35766595265E+02  0.94672830680E+02  0.34408990161E+03  0.35866428002E+03  0.10566000000E+00 0.  1.
        994    1    1    2    0    0 -0.27510388051E+02 -0.93086839969E+02  0.45429614429E+02  0.20197839264E+03  0.17120000000E+03 0.  0.
        998    1    1    2    0    0 -0.82562072139E+01 -0.15859907112E+01  0.11104804802E+04  0.11105573273E+04  0.10000000000E+02 0.  1.
</event>
<event>
 5    1  0.1247473E-008  0.3833386E+03  0.7957747E-01  0.3436749E+00
         13   -1    0    0    0    0  0.00000000000E+00  0.00000000000E+00  0.14999999963E+04  0.15000000000E+04  0.10566000000E+00 0.  1.
        994   -1    0    0    0    0 -0.00000000000E+00 -0.00000000000E+00  0.11368683772E-12  0.17120000000E+03  0.17120000000E+03 0.  0.
         13    1    1    2    0    0 -0.46352978296E+01  0.15351947587E+02  0.50304614588E+02  0.52798993300E+02  0.10566000000E+00 0.  1.
        994    1    1    2    0    0 -0.73071714275E+01 -0.19267263308E+02  0.38625072519E+01  0.17247892959E+03  0.17120000000E+03 0.  0.
        998    1    1    2    0    0  0.11942469257E+02  0.39153157210E+01  0.14458328744E+04  0.14459220771E+04  0.10000000000E+02 0.  1.
</event>
<event>
 5    1  0.1247473E-008  0.3724476E+03  0.7957747E-01  0.3484717E+00
         13   -1    0    0    0    0  0.00000000000E+00  0.00000000000E+00  0.14999999963E+04  0.15000000000E+04  0.10566000000E+00 0.  1.
        994   -1    0    0    0    0 -0.00000000000E+00 -0.00000000000E+00  0.11368683772E-12  0.17120000000E+03  0.17120000000E+03 0.  0.
         13    1    1    2    0    0  0.21118799517E+02  0.17482873746E+02  0.53110497509E+02  0.59769479479E+02  0.10566000000E+00 0.  1.
        994    1    1    2    0    0  0.33073027029E+02  0.30571858463E+02  0.14982552164E+02  0.17765804377E+03  0.17120000000E+03 0.  0.
        998    1    1    2    0    0 -0.54191826547E+02 -0.48054732209E+02  0.14319069466E+04  0.14337724768E+04  0.10000000000E+02 0.  1.
</event>
<event>
 5    1  0.1247473E-008  0.3808444E+03  0.7957747E-01  0.3447490E+00
         13   -1    0    0    0    0  0.00000000000E+00  0.00000000000E+00  0.14999999963E+04  0.15000000000E+04  0.10566000000E+00 0.  1.
        994   -1    0    0    0    0 -0.00000000000E+00 -0.00000000000E+00  0.11368683772E-12  0.17120000000E+03  0.17120000000E+03 0.  0.
         13    1    1    2    0    0  0.40135113817E+02 -0.12812602427E+02  0.20209088397E+03  0.20643576892E+03  0.10566000000E+00 0.  1.
        994    1    1    2    0    0 -0.44667271875E+02  0.10958404571E+02  0.10791307742E+02  0.17759826612E+03  0.17120000000E+03 0.  0.
        998    1    1    2    0    0  0.45321580580E+01  0.18541978555E+01  0.12871178046E+04  0.12871659650E+04  0.10000000000E+02 0.  1.
</event>
<event>
 5    1  0.1247473E-008  0.3832825E+03  0.7957747E-01  0.3436989E+00
         13   -1    0    0    0    0  0.00000000000E+00  0.00000000000E+00  0.14999999963E+04  0.15000000000E+04  0.10566000000E+00 0.  1.
        994   -1    0    0    0    0 -0.00000000000E+00 -0.00000000000E+00  0.11368683772E-12  0.17120000000E+03  0.17120000000E+03 0.  0.
         13    1    1    2    0    0  0.18490094432E+02 -0.18333336269E+02  0.13938457465E+03  0.14179585899E+03  0.10566000000E+00 0.  1.
        994    1    1    2    0    0 -0.15007721350E+02  0.24434587502E+01  0.32502265010E+01  0.17190464265E+03  0.17120000000E+03 0.  0.
        998    1    1    2    0    0 -0.34823730814E+01  0.15889877519E+02  0.13573651951E+04  0.13574994984E+04  0.10000000000E+02 0.  1.
</event>
<event>
 5    1  0.1247473E-008  0.3819112E+03  0.7957747E-01  0.3442879E+00
         13   -1    0    0    0    0  0.00000000000E+00  0.00000000000E+00  0.14999999963E+04  0.15000000000E+04  0.10566000000E+00 0. -1.
        994   -1    0    0    0    0 -0.00000000000E+00 -0.00000000000E+00  0.11368683772E-12  0.17120000000E+03  0.17120000000E+03 0.  0.
         13    1    1    2    0    0  0.55322717144E+01  0.29176607051E+02  0.16006131955E+03  0.16279286719E+03  0.10566000000E+00 0. -1.
        994    1    1    2    0    0  0.14810413848E+02 -0.11711945964E+01  0.39050513949E+01  0.17188778165E+03  0.17120000000E+03 0.  0.
        998    1    1    2    0    0 -0.20342685563E+02 -0.28005412454E+02  0.13360336253E+04  0.13365193512E+04  0.10000000000E+02 0. -1.
</event>
<event>
 5    1  0.1247473E-008  0.3855379E+03  0.7957747E-01  0.3427394E+00
         13   -1    0    0    0    0  0.00000000000E+00  0.00000000000E+00  0.14999999963E+04  0.15000000000E+04  0.10566000000E+00 0.  1.
        994   -1    0    0    0    0 -0.00000000000E+00 -0.00000000000E+00  0.11368683772E-12  0.17120000000E+03  0.17120000000E+03 0.  0.
         13    1    1    2    0    0 -0.15242466976E+02  0.68171018237E+00  0.87288293828E+02  0.88611821625E+02  0.10566000000E+00 0.  1.
        994    1    1    2    0    0  0.78015987485E+01 -0.80099226272E+00  0.15652651024E+01  0.17138668731E+03  0.17120000000E+03 0.  0.
        998    1    1    2    0    0  0.74408682274E+01  0.11928208036E+00  0.14111464373E+04  0.14112014911E+04  0.10000000000E+02 0.  1.
</event>
<event>
 5    1  0.1247473E-008  0.4145122E+03  0.7957747E-01  0.3313403E+00
         13   -1    0    0    0    0  0.00000000000E+00  0.00000000000E+00  0.14999999963E+04  0.15000000000E+04  0.10566000000E+00 0. -1.
        994   -1    0    0    0    0 -0.00000000000E+00 -0.00000000000E+00  0.11368683772E-12  0.17120000000E+03  0.17120000000E+03 0.  0.
         13    1    1    2    0    0  0.32746973669E+02  0.34903133620E+02  0.16736498570E+02  0.50702214641E+02  0.10566000000E+00 0. -1.
        994    1    1    2    0    0 -0.31905589179E+02 -0.40826602336E+02  0.48014578959E+02  0.18520156012E+03  0.17120000000E+03 0.  0.
        998    1    1    2    0    0 -0.84138449067E+00  0.59234687160E+01  0.14352489187E+04  0.14352962252E+04  0.10000000000E+02 0. -1.
</event>
<event>
 5    1  0.1247473E-008  0.3760288E+03  0.7957747E-01  0.3468634E+00
         13   -1    0    0    0    0  0.00000000000E+00  0.00000000000E+00  0.14999999963E+04  0.15000000000E+04  0.10566000000E+00 0.  1.
        994   -1    0    0    0    0 -0.00000000000E+00 -0.00000000000E+00  0.11368683772E-12  0.17120000000E+03  0.17120000000E+03 0.  0.
         13    1    1    2    0    0 -0.76535087943E+01 -0.30938364699E+02  0.75223243485E+02  0.81696426675E+02  0.10566000000E+00 0.  1.
        994    1    1    2    0    0  0.66884707584E+01  0.36481505994E+02  0.10825481637E+02  0.17550574627E+03  0.17120000000E+03 0.  0.
        998    1    1    2    0    0  0.96503803592E+00 -0.55431412951E+01  0.14139512712E+04  0.14139978271E+04  0.10000000000E+02 0.  1.
</event>
<event>
 5    1  0.1247473E-008  0.3834306E+03  0.7957747E-01  0.3436355E+00
         13   -1    0    0    0    0  0.00000000000E+00  0.00000000000E+00  0.14999999963E+04  0.15000000000E+04  0.10566000000E+00 0.  1.
        994   -1    0    0    0    0 -0.00000000000E+00 -0.00000000000E+00  0.11368683772E-12  0.17120000000E+03  0.17120000000E+03 0.  0.
         13    1    1    2    0    0  0.22831818544E+02  0.24606118559E+02  0.19548184304E+03  0.19834292307E+03  0.10566000000E+00 0.  1.
        994    1    1    2    0    0 -0.21507427946E+02 -0.33376046818E+02  0.76399895666E+01  0.17591003211E+03  0.17120000000E+03 0.  0.
        998    1    1    2    0    0 -0.13243905983E+01  0.87699282595E+01  0.12968781637E+04  0.12969470448E+04  0.10000000000E+02 0.  1.
</event>
<event>
 5    1  0.1247473E-008  0.3846917E+03  0.7957747E-01  0.3430981E+00
         13   -1    0    0    0    0  0.00000000000E+00  0.00000000000E+00  0.14999999963E+04  0.15000000000E+04  0.10566000000E+00 0. -1.
        994   -1    0    0    0    0 -0.00000000000E+00 -0.00000000000E+00  0.11368683772E-12  0.17120000000E+03  0.17120000000E+03 0.  0.
         13    1    1    2    0    0 -0.11080520926E+02 -0.28335006715E+02  0.17109819339E+03  0.17378220132E+03  0.10566000000E+00 0. -1.
        994    1    1    2    0    0  0.29415042769E+02  0.56363618789E+02  0.15204841946E+02  0.18325591254E+03  0.17120000000E+03 0.  0.
        998    1    1    2    0    0 -0.18334521843E+02 -0.28028612073E+02  0.13136969609E+04  0.13141618861E+04  0.10000000000E+02 0. -1.
</event>
<event>
 5    1  0.1247473E-008  0.3846249E+03  0.7957747E-01  0.3431264E+00
         13   -1    0    0    0    0  0.00000000000E+00  0.00000000000E+00  0.14999999963E+04  0.15000000000E+04  0.10566000000E+00 0. -1.
        994   -1    0    0    0    0 -0.00000000000E+00 -0.00000000000E+00  0.11368683772E-12  0.17120000000E+03  0.17120000000E+03 0.  0.
         13    1    1    2    0    0 -0.12309398756E+02  0.87747016262E-01  0.43271162714E+02  0.44988150483E+02  0.10566000000E+00 0. -1.
        994    1    1    2    0    0 -0.40636752917E+00 -0.86234349779E+01  0.20618989463E+01  0.17142992794E+03  0.17120000000E+03 0.  0.
        998    1    1    2    0    0  0.12715766285E+02  0.85356879616E+01  0.14546669346E+04  0.14547819216E+04  0.10000000000E+02 0. -1.
</event>
<event>
 5    1  0.1247473E-008  0.3848638E+03  0.7957747E-01  0.3430250E+00
         13   -1    0    0    0    0  0.00000000000E+00  0.00000000000E+00  0.14999999963E+04  0.15000000000E+04  0.10566000000E+00 0. -1.
        994   -1    0    0    0    0 -0.00000000000E+00 -0.00000000000E+00  0.11368683772E-12  0.17120000000E+03  0.17120000000E+03 0.  0.
         13    1    1    2    0    0 -0.19173956012E+02 -0.38996400485E+01  0.10831713399E+03  0.11007025239E+03  0.10566000000E+00 0. -1.
        994    1    1    2    0    0  0.17050380062E+02  0.32234554846E+01  0.26890608074E+01  0.17209816145E+03  0.17120000000E+03 0.  0.
        998    1    1    2    0    0  0.21235759507E+01  0.67618456392E+00  0.13889938015E+04  0.13890315862E+04  0.10000000000E+02 0.  0.
</event>
<event>
 5    1  0.1247473E-008  0.3850024E+03  0.7957747E-01  0.3429662E+00
         13   -1    0    0    0    0  0.00000000000E+00  0.00000000000E+00  0.14999999963E+04  0.15000000000E+04  0.10566000000E+00 0.  1.
        994   -1    0    0    0    0 -0.00000000000E+00 -0.00000000000E+00  0.11368683772E-12  0.17120000000E+03  0.17120000000E+03 0.  0.
         13    1    1    2    0    0 -0.71058139071E+01  0.88199904904E+01  0.38168998669E+02  0.39814173945E+02  0.10566000000E+00 0.  1.
        994    1    1    2    0    0  0.47457131538E+01 -0.13266712030E+02  0.22821012594E+01  0.17179399124E+03  0.17120000000E+03 0.  0.
        998    1    1    2    0    0  0.23601007532E+01  0.44467215396E+01  0.14595488964E+04  0.14595918348E+04  0.10000000000E+02 0.  1.
</event>
<event>
 5    1  0.1247473E-008  0.4070171E+03  0.7957747E-01  0.3341345E+00
         13   -1    0    0    0    0  0.00000000000E+00  0.00000000000E+00  0.14999999963E+04  0.15000000000E+04  0.10566000000E+00 0.  1.
        994   -1    0    0    0    0 -0.00000000000E+00 -0.00000000000E+00  0.11368683772E-12  0.17120000000E+03  0.17120000000E+03 0.  0.
         13    1    1    2    0    0  0.13726140628E+03  0.26919957256E+02  0.25660928253E+03  0.29225624510E+03  0.10566000000E+00 0.  1.
        994    1    1    2    0    0 -0.13112342235E+03  0.24432912595E+02  0.10814576326E+03  0.24247734991E+03  0.17120000000E+03 0.  0.
        998    1    1    2    0    0 -0.61379839267E+01 -0.51352869850E+02  0.11352449505E+04  0.11364664050E+04  0.10000000000E+02 0.  1.
</event>
<event>
 5    1  0.1247473E-008  0.3771771E+03  0.7957747E-01  0.3463543E+00
         13   -1    0    0    0    0  0.00000000000E+00  0.00000000000E+00  0.14999999963E+04  0.15000000000E+04  0.10566000000E+00 0.  1.
        994   -1    0    0    0    0 -0.00000000000E+00 -0.00000000000E+00  0.11368683772E-12  0.17120000000E+03  0.17120000000E+03 0.  0.
         13    1    1    2    0    0  0.14281480698E+02  0.33744536315E+01  0.17216060889E+02  0.22621926196E+02  0.10566000000E+00 0.  1.
        994    1    1    2    0    0 -0.24909674236E+01 -0.59790107763E+01  0.57065612154E+01  0.17141749715E+03  0.17120000000E+03 0.  0.
        998    1    1    2    0    0 -0.11790513274E+02  0.26045571448E+01  0.14770773742E+04  0.14771605767E+04  0.10000000000E+02 0.  1.
</event>
<event>
 5    1  0.1247473E-008  0.3844219E+03  0.7957747E-01  0.3432128E+00
         13   -1    0    0    0    0  0.00000000000E+00  0.00000000000E+00  0.14999999963E+04  0.15000000000E+04  0.10566000000E+00 0. -1.
        994   -1    0    0    0    0 -0.00000000000E+00 -0.00000000000E+00  0.11368683772E-12  0.17120000000E+03  0.17120000000E+03 0.  0.
         13    1    1    2    0    0  0.38754404604E+02 -0.16541519978E+02  0.23889258016E+03  0.24258029966E+03  0.10566000000E+00 0. -1.
        994    1    1    2    0    0 -0.77585735526E+02  0.44843103865E+02  0.28840425698E+02  0.19537569060E+03  0.17120000000E+03 0.  0.
        998    1    1    2    0    0  0.38831330922E+02 -0.28301583888E+02  0.12322669904E+04  0.12332440097E+04  0.10000000000E+02 0. -1.
</event>
<event>
 5    1  0.1247473E-008  0.3707482E+03  0.7957747E-01  0.3492460E+00
         13   -1    0    0    0    0  0.00000000000E+00  0.00000000000E+00  0.14999999963E+04  0.15000000000E+04  0.10566000000E+00 0.  1.
        994   -1    0    0    0    0 -0.00000000000E+00 -0.00000000000E+00  0.11368683772E-12  0.17120000000E+03  0.17120000000E+03 0.  0.
         13    1    1    2    0    0 -0.81015075133E+01  0.68914570517E+02  0.29248141945E+03  0.30059980762E+03  0.10566000000E+00 0.  1.
        994    1    1    2    0    0 -0.15585594315E+01  0.13334759161E+02  0.11966992340E+02  0.17214207451E+03  0.17120000000E+03 0.  0.
        998    1    1    2    0    0  0.96600669448E+01 -0.82249329678E+02  0.11955515845E+04  0.11984581179E+04  0.10000000000E+02 0.  1.
</event>
<event>
 5    1  0.1247473E-008  0.3824526E+03  0.7957747E-01  0.3440548E+00
         13   -1    0    0    0    0  0.00000000000E+00  0.00000000000E+00  0.14999999963E+04  0.15000000000E+04  0.10566000000E+00 0. -1.
        994   -1    0    0    0    0 -0.00000000000E+00 -0.00000000000E+00  0.11368683772E-12  0.17120000000E+03  0.17120000000E+03 0.  0.
         13    1    1    2    0    0  0.12530810293E+02  0.10608228661E+02  0.44022946599E+02  0.46984962628E+02  0.10566000000E+00 0. -1.
        994    1    1    2    0    0 -0.15762220422E+02 -0.10843745865E+02  0.41149137835E+01  0.17231484826E+03  0.17120000000E+03 0.  0.
        998    1    1    2    0    0  0.32314101291E+01  0.23551720462E+00  0.14518621359E+04  0.14519001891E+04  0.10000000000E+02 0. -1.
</event>
<event>
 5    1  0.1247473E-008  0.3850212E+03  0.7957747E-01  0.3429582E+00
         13   -1    0    0    0    0  0.00000000000E+00  0.00000000000E+00  0.14999999963E+04  0.15000000000E+04  0.10566000000E+00 0.  1.
        994   -1    0    0    0    0 -0.00000000000E+00 -0.00000000000E+00  0.11368683772E-12  0.17120000000E+03  0.17120000000E+03 0.  0.
         13    1    1    2    0    0  0.44757169517E+01  0.20308256747E+02  0.10499841984E+03  0.10703801505E+03  0.10566000000E+00 0.  1.
        994    1    1    2    0    0 -0.27280541370E+02 -0.39818384997E+02  0.93185923754E+01  0.17811796059E+03  0.17120000000E+03 0.  0.
        998    1    1    2    0    0  0.22804824418E+02  0.19510128250E+02  0.13856829841E+04  0.13860440244E+04  0.10000000000E+02 0.  1.
</event>
<event>
 5    1  0.1247473E-008  0.3833591E+03  0.7957747E-01  0.3436662E+00
         13   -1    0    0    0    0  0.00000000000E+00  0.00000000000E+00  0.14999999963E+04  0.15000000000E+04  0.10566000000E+00 0.  1.
        994   -1    0    0    0    0 -0.00000000000E+00 -0.00000000000E+00  0.11368683772E-12  0.17120000000E+03  0.17120000000E+03 0.  0.
         13    1    1    2    0    0  0.16361033763E+02 -0.17512353016E+02  0.10713610878E+03  0.10978398290E+03  0.10566000000E+00 0.  1.
        994    1    1    2    0    0 -0.13775224744E+02  0.25046285701E+02  0.51531481986E+01  0.17364638833E+03  0.17120000000E+03 0.  0.
        998    1    1    2    0    0 -0.25858090189E+01 -0.75339326853E+01  0.13877107393E+04  0.13877696288E+04  0.10000000000E+02 0.  1.
</event>
<event>
 5    1  0.1247473E-008  0.3843687E+03  0.7957747E-01  0.3432354E+00
         13   -1    0    0    0    0  0.00000000000E+00  0.00000000000E+00  0.14999999963E+04  0.15000000000E+04  0.10566000000E+00 0.  1.
        994   -1    0    0    0    0 -0.00000000000E+00 -0.00000000000E+00  0.11368683772E-12  0.17120000000E+03  0.17120000000E+03 0.  0.
         13    1    1    2    0    0  0.18311838662E+02  0.11910771637E+02  0.11802759231E+03  0.12003213580E+03  0.10566000000E+00 0.  1.
        994    1    1    2    0    0 -0.12940658156E+02 -0.13648785484E+02  0.31104926703E+01  0.17225813520E+03  0.17120000000E+03 0.  0.
        998    1    1    2    0    0 -0.53711805064E+01  0.17380138470E+01  0.13788619113E+04  0.13789097290E+04  0.10000000000E+02 0.  1.
</event>
<event>
 5    1  0.1247473E-008  0.3795108E+03  0.7957747E-01  0.3453291E+00
         13   -1    0    0    0    0  0.00000000000E+00  0.00000000000E+00  0.14999999963E+04  0.15000000000E+04  0.10566000000E+00 0. -1.
        994   -1    0    0    0    0 -0.00000000000E+00 -0.00000000000E+00  0.11368683772E-12  0.17120000000E+03  0.17120000000E+03 0.  0.
         13    1    1    2    0    0  0.44215864899E+02 -0.35971639293E+02  0.82408425336E+02  0.10020060515E+03  0.10566000000E+00 0. -1.
        994    1    1    2    0    0 -0.30578686423E+02  0.97554074072E+02  0.54913234335E+02  0.20682542575E+03  0.17120000000E+03 0.  0.
        998    1    1    2    0    0 -0.13637178475E+02 -0.61582434779E+02  0.13626783366E+04  0.13641739691E+04  0.10000000000E+02 0. -1.
</event>
<event>
 5    1  0.1247473E-008  0.3847140E+03  0.7957747E-01  0.3430886E+00
         13   -1    0    0    0    0  0.00000000000E+00  0.00000000000E+00  0.14999999963E+04  0.15000000000E+04  0.10566000000E+00 0.  1.
        994   -1    0    0    0    0 -0.00000000000E+00 -0.00000000000E+00  0.11368683772E-12  0.17120000000E+03  0.17120000000E+03 0.  0.
         13    1    1    2    0    0 -0.14781232713E+01 -0.16976954573E+02  0.75910270922E+02  0.77799628730E+02  0.10566000000E+00 0.  1.
        994    1    1    2    0    0  0.50500915507E+01  0.22254803315E+02  0.34883400085E+01  0.17274949555E+03  0.17120000000E+03 0.  0.
        998    1    1    2    0    0 -0.35719682793E+01 -0.52778487419E+01  0.14206013853E+04  0.14206508757E+04  0.10000000000E+02 0.  1.
</event>
<event>
 5    1  0.1247473E-008  0.3793305E+03  0.7957747E-01  0.3454079E+00
         13   -1    0    0    0    0  0.00000000000E+00  0.00000000000E+00  0.14999999963E+04  0.15000000000E+04  0.10566000000E+00 0.  1.
        994   -1    0    0    0    0 -0.00000000000E+00 -0.00000000000E+00  0.11368683772E-12  0.17120000000E+03  0.17120000000E+03 0.  0.
         13    1    1    2    0    0 -0.98230521481E+01 -0.55908572448E+01  0.12127769403E+02  0.16578419496E+02  0.10566000000E+00 0.  1.
        994    1    1    2    0    0  0.10016828424E+02  0.12308753369E+02  0.53157050636E+01  0.17201610094E+03  0.17120000000E+03 0.  0.
        998    1    1    2    0    0 -0.19377627583E+00 -0.67178961240E+01  0.14825565218E+04  0.14826054796E+04  0.10000000000E+02 0.  1.
</event>
<event>
 5    1  0.1247473E-008  0.3843635E+03  0.7957747E-01  0.3432376E+00
         13   -1    0    0    0    0  0.00000000000E+00  0.00000000000E+00  0.14999999963E+04  0.15000000000E+04  0.10566000000E+00 0. -1.
        994   -1    0    0    0    0 -0.00000000000E+00 -0.00000000000E+00  0.11368683772E-12  0.17120000000E+03  0.17120000000E+03 0.  0.
         13    1    1    2    0    0 -0.10395364550E+02 -0.93228954623E+01  0.48420918311E+02  0.50394210759E+02  0.10566000000E+00 0. -1.
        994    1    1    2    0    0  0.12194193226E+02  0.83563183662E+01  0.26669652266E+01  0.17185772927E+03  0.17120000000E+03 0.  0.
        998    1    1    2    0    0 -0.17988286762E+01  0.96657709603E+00  0.14489121127E+04  0.14489480600E+04  0.10000000000E+02 0.  0.
</event>
<event>
 5    1  0.1247473E-008  0.3850292E+03  0.7957747E-01  0.3429549E+00
         13   -1    0    0    0    0  0.00000000000E+00  0.00000000000E+00  0.14999999963E+04  0.15000000000E+04  0.10566000000E+00 0. -1.
        994   -1    0    0    0    0 -0.00000000000E+00 -0.00000000000E+00  0.11368683772E-12  0.17120000000E+03  0.17120000000E+03 0.  0.
         13    1    1    2    0    0 -0.10027331709E+02  0.55660870325E+01  0.39674679939E+02  0.41299153724E+02  0.10566000000E+00 0. -1.
        994    1    1    2    0    0  0.11412252570E+02 -0.47805577901E+01  0.21192455615E+01  0.17165961797E+03  0.17120000000E+03 0.  0.
        998    1    1    2    0    0 -0.13849208614E+01 -0.78552924238E+00  0.14582060708E+04  0.14582412283E+04  0.10000000000E+02 0. -1.
</event>
<event>
 5    1  0.1247473E-008  0.3851489E+03  0.7957747E-01  0.3429041E+00
         13   -1    0    0    0    0  0.00000000000E+00  0.00000000000E+00  0.14999999963E+04  0.15000000000E+04  0.10566000000E+00 0. -1.
        994   -1    0    0    0    0 -0.00000000000E+00 -0.00000000000E+00  0.11368683772E-12  0.17120000000E+03  0.17120000000E+03 0.  0.
         13    1    1    2    0    0  0.14505621298E+02 -0.18095493338E+01  0.72232515708E+02  0.73696913149E+02  0.10566000000E+00 0. -1.
        994    1    1    2    0    0 -0.27588519656E+01 -0.21342667572E+01  0.15962482008E+01  0.17124296881E+03  0.17120000000E+03 0.  0.
        998    1    1    2    0    0 -0.11746769333E+02  0.39438160910E+01  0.14261712324E+04  0.14262601180E+04  0.10000000000E+02 0. -1.
</event>
<event>
 5    1  0.1247473E-008  0.3781748E+03  0.7957747E-01  0.3459144E+00
         13   -1    0    0    0    0  0.00000000000E+00  0.00000000000E+00  0.14999999963E+04  0.15000000000E+04  0.10566000000E+00 0. -1.
        994   -1    0    0    0    0 -0.00000000000E+00 -0.00000000000E+00  0.11368683772E-12  0.17120000000E+03  0.17120000000E+03 0.  0.
         13    1    1    2    0    0 -0.17683892274E+02 -0.10861547856E+02  0.42287215254E+02  0.47105339462E+02  0.10566000000E+00 0. -1.
        994    1    1    2    0    0 -0.16684789182E+01  0.51391706361E+01  0.51555344423E+01  0.17136281520E+03  0.17120000000E+03 0.  0.
        998    1    1    2    0    0  0.19352371192E+02  0.57223772203E+01  0.14525572466E+04  0.14527318453E+04  0.10000000000E+02 0. -1.
</event>
<event>
 5    1  0.1247473E-008  0.3726620E+03  0.7957747E-01  0.3483746E+00
         13   -1    0    0    0    0  0.00000000000E+00  0.00000000000E+00  0.14999999963E+04  0.15000000000E+04  0.10566000000E+00 0. -1.
        994   -1    0    0    0    0 -0.00000000000E+00 -0.00000000000E+00  0.11368683772E-12  0.17120000000E+03  0.17120000000E+03 0.  0.
         13    1    1    2    0    0 -0.39992675695E+01  0.11000173982E+02  0.50753067115E+01  0.12758051222E+02  0.10566000000E+00 0. -1.
        994    1    1    2    0    0  0.14298344062E+01 -0.74225667984E+01  0.80800743180E+01  0.17155718150E+03  0.17120000000E+03 0.  0.
        998    1    1    2    0    0  0.25694331633E+01 -0.35776071834E+01  0.14868446152E+04  0.14868847673E+04  0.10000000000E+02 0. -1.
</event>
<event>
 5    1  0.1247473E-008  0.3828274E+03  0.7957747E-01  0.3438939E+00
         13   -1    0    0    0    0  0.00000000000E+00  0.00000000000E+00  0.14999999963E+04  0.15000000000E+04  0.10566000000E+00 0. -1.
        994   -1    0    0    0    0 -0.00000000000E+00 -0.00000000000E+00  0.11368683772E-12  0.17120000000E+03  0.17120000000E+03 0.  0.
         13    1    1    2    0    0  0.18088090454E+02 -0.18027925931E+02  0.12646811989E+03  0.12902085739E+03  0.10566000000E+00 0. -1.
        994    1    1    2    0    0 -0.78595194177E+01  0.25843080606E+01  0.29393803214E+01  0.17142500007E+03  0.17120000000E+03 0.  0.
        998    1    1    2    0    0 -0.10228571036E+02  0.15443617870E+02  0.13705924961E+04  0.13707541425E+04  0.10000000000E+02 0. -1.
</event>
<event>
 5    1  0.1247473E-008  0.3768030E+03  0.7957747E-01  0.3465198E+00
         13   -1    0    0    0    0  0.00000000000E+00  0.00000000000E+00  0.14999999963E+04  0.15000000000E+04  0.10566000000E+00 0.  1.
        994   -1    0    0    0    0 -0.00000000000E+00 -0.00000000000E+00  0.11368683772E-12  0.17120000000E+03  0.17120000000E+03 0.  0.
         13    1    1    2    0    0 -0.42209690059E+02  0.67368378442E+02  0.36339900615E+03  0.37199328648E+03  0.10566000000E+00 0.  1.
        994    1    1    2    0    0  0.55111841977E+02 -0.75526001759E+02  0.35885377733E+02  0.19833984068E+03  0.17120000000E+03 0.  0.
        998    1    1    2    0    0 -0.12902151918E+02  0.81576233168E+01  0.11007156124E+04  0.11008668728E+04  0.10000000000E+02 0.  1.
</event>
<event>
 5    1  0.1247473E-008  0.3839898E+03  0.7957747E-01  0.3433968E+00
         13   -1    0    0    0    0  0.00000000000E+00  0.00000000000E+00  0.14999999963E+04  0.15000000000E+04  0.10566000000E+00 0.  1.
        994   -1    0    0    0    0 -0.00000000000E+00 -0.00000000000E+00  0.11368683772E-12  0.17120000000E+03  0.17120000000E+03 0.  0.
         13    1    1    2    0    0  0.74902152962E+01 -0.16802273936E+02  0.89418768915E+02  0.91291550173E+02  0.10566000000E+00 0.  1.
        994    1    1    2    0    0 -0.12618753593E+02 -0.12767081517E+02  0.31964301935E+01  0.17216819822E+03  0.17120000000E+03 0.  0.
        998    1    1    2    0    0  0.51285382969E+01  0.29569355453E+02  0.14073847972E+04  0.14077402516E+04  0.10000000000E+02 0.  1.
</event>
<event>
 5    1  0.1247473E-008  0.3857676E+03  0.7957747E-01  0.3426423E+00
         13   -1    0    0    0    0  0.00000000000E+00  0.00000000000E+00  0.14999999963E+04  0.15000000000E+04  0.10566000000E+00 0. -1.
        994   -1    0    0    0    0 -0.00000000000E+00 -0.00000000000E+00  0.11368683772E-12  0.17120000000E+03  0.17120000000E+03 0.  0.
         13    1    1    2    0    0  0.10777817030E+02 -0.40479260214E+01  0.56068181460E+02  0.57238092048E+02  0.10566000000E+00 0. -1.
        994    1    1    2    0    0 -0.67319364432E+01 -0.14923722844E+02  0.21292860096E+01  0.17199421598E+03  0.17120000000E+03 0.  0.
        998    1    1    2    0    0 -0.40458805864E+01  0.18971648866E+02  0.14418025288E+04  0.14419676920E+04  0.10000000000E+02 0. -1.
</event>
<event>
 5    1  0.1247473E-008  0.3849729E+03  0.7957747E-01  0.3429787E+00
         13   -1    0    0    0    0  0.00000000000E+00  0.00000000000E+00  0.14999999963E+04  0.15000000000E+04  0.10566000000E+00 0.  1.
        994   -1    0    0    0    0 -0.00000000000E+00 -0.00000000000E+00  0.11368683772E-12  0.17120000000E+03  0.17120000000E+03 0.  0.
         13    1    1    2    0    0 -0.11181755393E+02  0.88602909043E+01  0.64045256269E+02  0.65615108193E+02  0.10566000000E+00 0.  1.
        994    1    1    2    0    0  0.44677838300E+00 -0.59685264804E+01  0.17614469242E+01  0.17131364690E+03  0.17120000000E+03 0.  0.
        998    1    1    2    0    0  0.10734977010E+02 -0.28917644239E+01  0.14341932931E+04  0.14342712449E+04  0.10000000000E+02 0.  1.
</event>
<event>
 5    1  0.1247473E-008  0.3850800E+03  0.7957747E-01  0.3429333E+00
         13   -1    0    0    0    0  0.00000000000E+00  0.00000000000E+00  0.14999999963E+04  0.15000000000E+04  0.10566000000E+00 0.  1.
        994   -1    0    0    0    0 -0.00000000000E+00 -0.00000000000E+00  0.11368683772E-12  0.17120000000E+03  0.17120000000E+03 0.  0.
         13    1    1    2    0    0  0.71655990464E+01  0.85828961505E+01  0.39145480511E+02  0.40711076189E+02  0.10566000000E+00 0.  1.
        994    1    1    2    0    0 -0.38043430779E+01 -0.70321747287E+01  0.18006081579E+01  0.17139605216E+03  0.17120000000E+03 0.  0.
        998    1    1    2    0    0 -0.33612559685E+01 -0.15507214218E+01  0.14590539076E+04  0.14590928716E+04  0.10000000000E+02 0.  1.
</event>
<event>
 5    1  0.1247473E-008  0.3860250E+03  0.7957747E-01  0.3425337E+00
         13   -1    0    0    0    0  0.00000000000E+00  0.00000000000E+00  0.14999999963E+04  0.15000000000E+04  0.10566000000E+00 0. -1.
        994   -1    0    0    0    0 -0.00000000000E+00 -0.00000000000E+00  0.11368683772E-12  0.17120000000E+03  0.17120000000E+03 0.  0.
         13    1    1    2    0    0  0.77763247931E+01 -0.10646078314E+02  0.74936730617E+02  0.76087679491E+02  0.10566000000E+00 0. -1.
        994    1    1    2    0    0 -0.71165899594E+01  0.12431815640E+02  0.17949668321E+01  0.17180761857E+03  0.17120000000E+03 0.  0.
        998    1    1    2    0    0 -0.65973483367E+00 -0.17857373263E+01  0.14232682988E+04  0.14233047019E+04  0.10000000000E+02 0. -1.
</event>
<event>
 5    1  0.1247473E-008  0.3845452E+03  0.7957747E-01  0.3431603E+00
         13   -1    0    0    0    0  0.00000000000E+00  0.00000000000E+00  0.14999999963E+04  0.15000000000E+04  0.10566000000E+00 0.  1.
        994   -1    0    0    0    0 -0.00000000000E+00 -0.00000000000E+00  0.11368683772E-12  0.17120000000E+03  0.17120000000E+03 0.  0.
         13    1    1    2    0    0  0.80841137408E+01 -0.15976492459E+02  0.89934686835E+02  0.91699837876E+02  0.10566000000E+00 0.  1.
        994    1    1    2    0    0 -0.51288032700E+01  0.34969508104E+01  0.19830354210E+01  0.17132397882E+03  0.17120000000E+03 0.  0.
        998    1    1    2    0    0 -0.29553104709E+01  0.12479541648E+02  0.14080822740E+04  0.14081761833E+04  0.10000000000E+02 0.  1.
</event>
<event>
 5    1  0.1247473E-008  0.3839983E+03  0.7957747E-01  0.3433932E+00
         13   -1    0    0    0    0  0.00000000000E+00  0.00000000000E+00  0.14999999963E+04  0.15000000000E+04  0.10566000000E+00 0.  1.
        994   -1    0    0    0    0 -0.00000000000E+00 -0.00000000000E+00  0.11368683772E-12  0.17120000000E+03  0.17120000000E+03 0.  0.
         13    1    1    2    0    0 -0.92180638583E+01 -0.21499095583E+02  0.12968755587E+03  0.13178033664E+03  0.10566000000E+00 0.  1.
        994    1    1    2    0    0  0.59802858242E+01  0.11357071590E+02  0.26720436001E+01  0.17170127172E+03  0.17120000000E+03 0.  0.
        998    1    1    2    0    0  0.32377780341E+01  0.10142023992E+02  0.13676403968E+04  0.13677183916E+04  0.10000000000E+02 0.  1.
</event>
<event>
 5    1  0.1247473E-008  0.3041313E+03  0.7957747E-01  0.3866960E+00
         13   -1    0    0    0    0  0.00000000000E+00  0.00000000000E+00  0.14999999963E+04  0.15000000000E+04  0.10566000000E+00 0. -1.
        994   -1    0    0    0    0 -0.00000000000E+00 -0.00000000000E+00  0.11368683772E-12  0.17120000000E+03  0.17120000000E+03 0.  0.
         13    1    1    2    0    0 -0.69836263298E+02 -0.20362116996E+03  0.64168468095E+03  0.67682931782E+03  0.10566000000E+00 0. -1.
        994    1    1    2    0    0  0.12405090445E+03  0.16653793210E+03  0.20662816481E+03  0.33930539079E+03  0.17120000000E+03 0.  0.
        998    1    1    2    0    0 -0.54214641149E+02  0.37083237852E+02  0.65168715051E+03  0.65506529139E+03  0.10000000000E+02 0. -1.
</event>
<event>
 5    1  0.1247473E-008  0.3814621E+03  0.7957747E-01  0.3444817E+00
         13   -1    0    0    0    0  0.00000000000E+00  0.00000000000E+00  0.14999999963E+04  0.15000000000E+04  0.10566000000E+00 0.  1.
        994   -1    0    0    0    0 -0.00000000000E+00 -0.00000000000E+00  0.11368683772E-12  0.17120000000E+03  0.17120000000E+03 0.  0.
         13    1    1    2    0    0 -0.24669218116E+02 -0.74922808774E+01  0.94189438461E+02  0.97654319294E+02  0.10566000000E+00 0.  1.
        994    1    1    2    0    0  0.20433777692E+02  0.40461076639E+01  0.48417633200E+01  0.17253055651E+03  0.17120000000E+03 0.  0.
        998    1    1    2    0    0  0.42354404245E+01  0.34461732136E+01  0.14009687945E+04  0.14010151242E+04  0.10000000000E+02 0.  1.
</event>
<event>
 5    1  0.1247473E-008  0.3793310E+03  0.7957747E-01  0.3454077E+00
         13   -1    0    0    0    0  0.00000000000E+00  0.00000000000E+00  0.14999999963E+04  0.15000000000E+04  0.10566000000E+00 0. -1.
        994   -1    0    0    0    0 -0.00000000000E+00 -0.00000000000E+00  0.11368683772E-12  0.17120000000E+03  0.17120000000E+03 0.  0.
         13    1    1    2    0    0  0.19726070415E+02  0.44893170069E+01  0.43620991788E+02  0.48084029676E+02  0.10566000000E+00 0. -1.
        994    1    1    2    0    0 -0.24670839901E+02  0.34832713725E+02  0.10599748034E+02  0.17675905336E+03  0.17120000000E+03 0.  0.
        998    1    1    2    0    0  0.49447694863E+01 -0.39322030732E+02  0.14457792565E+04  0.14463569170E+04  0.10000000000E+02 0. -1.
</event>
<event>
 5    1  0.1247473E-008  0.3801251E+03  0.7957747E-01  0.3450614E+00
         13   -1    0    0    0    0  0.00000000000E+00  0.00000000000E+00  0.14999999963E+04  0.15000000000E+04  0.10566000000E+00 0. -1.
        994   -1    0    0    0    0 -0.00000000000E+00 -0.00000000000E+00  0.11368683772E-12  0.17120000000E+03  0.17120000000E+03 0.  0.
         13    1    1    2    0    0 -0.23123622046E+02 -0.11234243639E+02  0.92763813648E+02  0.96260305491E+02  0.10566000000E+00 0. -1.
        994    1    1    2    0    0 -0.80754232806E+01 -0.14587626068E+02  0.49995147947E+01  0.17208267328E+03  0.17120000000E+03 0.  0.
        998    1    1    2    0    0  0.31199045326E+02  0.25821869707E+02  0.14022366678E+04  0.14028570212E+04  0.10000000000E+02 0. -1.
</event>
<event>
 5    1  0.1247473E-008  0.3472119E+03  0.7957747E-01  0.3607657E+00
         13   -1    0    0    0    0  0.00000000000E+00  0.00000000000E+00  0.14999999963E+04  0.15000000000E+04  0.10566000000E+00 0.  1.
        994   -1    0    0    0    0 -0.00000000000E+00 -0.00000000000E+00  0.11368683772E-12  0.17120000000E+03  0.17120000000E+03 0.  0.
         13    1    1    2    0    0  0.28219988917E+03  0.87684883011E+02  0.82901264024E+03  0.88010646231E+03  0.10566000000E+00 0.  1.
        994    1    1    2    0    0 -0.24740183370E+03 -0.63324130663E+02  0.34466772201E+03  0.46186891153E+03  0.17120000000E+03 0.  0.
        998    1    1    2    0    0 -0.34798055473E+02 -0.24360752347E+02  0.32631963403E+03  0.32922462617E+03  0.10000000000E+02 0.  0.
</event>
<event>
 5    1  0.1247473E-008  0.3832824E+03  0.7957747E-01  0.3436990E+00
         13   -1    0    0    0    0  0.00000000000E+00  0.00000000000E+00  0.14999999963E+04  0.15000000000E+04  0.10566000000E+00 0. -1.
        994   -1    0    0    0    0 -0.00000000000E+00 -0.00000000000E+00  0.11368683772E-12  0.17120000000E+03  0.17120000000E+03 0.  0.
         13    1    1    2    0    0  0.26693885562E+02 -0.15966869595E+02  0.17900378937E+03  0.18168619162E+03  0.10566000000E+00 0. -1.
        994    1    1    2    0    0 -0.37031057766E+02 -0.60573375708E+01  0.71555930346E+01  0.17540990020E+03  0.17120000000E+03 0.  0.
        998    1    1    2    0    0  0.10337172204E+02  0.22024207165E+02  0.13138406139E+04  0.13141039082E+04  0.10000000000E+02 0. -1.
</event>
<event>
 5    1  0.1247473E-008  0.3686201E+03  0.7957747E-01  0.3502257E+00
         13   -1    0    0    0    0  0.00000000000E+00  0.00000000000E+00  0.14999999963E+04  0.15000000000E+04  0.10566000000E+00 0.  1.
        994   -1    0    0    0    0 -0.00000000000E+00 -0.00000000000E+00  0.11368683772E-12  0.17120000000E+03  0.17120000000E+03 0.  0.
         13    1    1    2    0    0 -0.14708458227E+02 -0.23692883716E+02  0.34055066128E+02  0.44016476179E+02  0.10566000000E+00 0.  1.
        994    1    1    2    0    0  0.18286817295E+02  0.22509040656E+02  0.12919696610E+02  0.17411899138E+03  0.17120000000E+03 0.  0.
        998    1    1    2    0    0 -0.35783590683E+01  0.11838430606E+01  0.14530252335E+04  0.14530645324E+04  0.10000000000E+02 0.  1.
</event>
<event>
 5    1  0.1247473E-008  0.3790847E+03  0.7957747E-01  0.3455154E+00
         13   -1    0    0    0    0  0.00000000000E+00  0.00000000000E+00  0.14999999963E+04  0.15000000000E+04  0.10566000000E+00 0. -1.
        994   -1    0    0    0    0 -0.00000000000E+00 -0.00000000000E+00  0.11368683772E-12  0.17120000000E+03  0.17120000000E+03 0.  0.
         13    1    1    2    0    0 -0.11413441381E+02  0.34858094991E+02  0.18869165683E+03  0.19222358323E+03  0.10566000000E+00 0. -1.
        994    1    1    2    0    0 -0.28359445681E+02  0.62560614205E+01  0.74290093250E+01  0.17380456451E+03  0.17120000000E+03 0.  0.
        998    1    1    2    0    0  0.39772887061E+02 -0.41114156412E+02  0.13038793301E+04  0.13051718523E+04  0.10000000000E+02 0. -1.
</event>
<event>
 5    1  0.1247473E-008  0.2797618E+03  0.7957747E-01  0.4052010E+00
         13   -1    0    0    0    0  0.00000000000E+00  0.00000000000E+00  0.14999999963E+04  0.15000000000E+04  0.10566000000E+00 0. -1.
        994   -1    0    0    0    0 -0.00000000000E+00 -0.00000000000E+00  0.11368683772E-12  0.17120000000E+03  0.17120000000E+03 0.  0.
         13    1    1    2    0    0 -0.14096549646E+03 -0.13751560610E+03  0.41943722390E+03  0.46336746656E+03  0.10566000000E+00 0. -1.
        994    1    1    2    0    0  0.14910006289E+03  0.15174535509E+03  0.22992132731E+03  0.35697442247E+03  0.17120000000E+03 0.  0.
        998    1    1    2    0    0 -0.81345664383E+01 -0.14229748987E+02  0.85064144508E+03  0.85085811097E+03  0.10000000000E+02 0. -1.
</event>
<event>
 5    1  0.1247473E-008  0.3813142E+03  0.7957747E-01  0.3445456E+00
         13   -1    0    0    0    0  0.00000000000E+00  0.00000000000E+00  0.14999999963E+04  0.15000000000E+04  0.10566000000E+00 0.  1.
        994   -1    0    0    0    0 -0.00000000000E+00 -0.00000000000E+00  0.11368683772E-12  0.17120000000E+03  0.17120000000E+03 0.  0.
         13    1    1    2    0    0  0.19348594776E+02 -0.31547322149E+02  0.17620547188E+03  0.18004994068E+03  0.10566000000E+00 0.  1.
        994    1    1    2    0    0 -0.14234771419E+02  0.33722703749E+02  0.79437111266E+01  0.17524951359E+03  0.17120000000E+03 0.  0.
        998    1    1    2    0    0 -0.51138233569E+01 -0.21753815997E+01  0.13158508133E+04  0.13159005457E+04  0.10000000000E+02 0.  1.
</event>
<event>
 5    1  0.1247473E-008  0.3814100E+03  0.7957747E-01  0.3445042E+00
         13   -1    0    0    0    0  0.00000000000E+00  0.00000000000E+00  0.14999999963E+04  0.15000000000E+04  0.10566000000E+00 0.  1.
        994   -1    0    0    0    0 -0.00000000000E+00 -0.00000000000E+00  0.11368683772E-12  0.17120000000E+03  0.17120000000E+03 0.  0.
         13    1    1    2    0    0  0.12927299188E+02 -0.17966003921E+02  0.75315948388E+02  0.78500927426E+02  0.10566000000E+00 0.  1.
        994    1    1    2    0    0 -0.40402934587E+01 -0.26015005511E+01  0.34999406435E+01  0.17130318550E+03  0.17120000000E+03 0.  0.
        998    1    1    2    0    0 -0.88870057290E+01  0.20567504472E+02  0.14211841072E+04  0.14213958871E+04  0.10000000000E+02 0.  1.
</event>
<event>
 5    1  0.1247473E-008  0.3849332E+03  0.7957747E-01  0.3429956E+00
         13   -1    0    0    0    0  0.00000000000E+00  0.00000000000E+00  0.14999999963E+04  0.15000000000E+04  0.10566000000E+00 0.  1.
        994   -1    0    0    0    0 -0.00000000000E+00 -0.00000000000E+00  0.11368683772E-12  0.17120000000E+03  0.17120000000E+03 0.  0.
         13    1    1    2    0    0 -0.10742530404E+02  0.20514110739E-01  0.35027045461E+02  0.36637514354E+02  0.10566000000E+00 0.  1.
        994    1    1    2    0    0  0.39364268171E+01 -0.34258916879E+01  0.17529116337E+01  0.17128848440E+03  0.17120000000E+03 0.  0.
        998    1    1    2    0    0  0.68061035867E+01  0.34053775772E+01  0.14632200392E+04  0.14632740012E+04  0.10000000000E+02 0.  1.
</event>
<event>
 5    1  0.1247473E-008  0.3836769E+03  0.7957747E-01  0.3435303E+00
         13   -1    0    0    0    0  0.00000000000E+00  0.00000000000E+00  0.14999999963E+04  0.15000000000E+04  0.10566000000E+00 0. -1.
        994   -1    0    0    0    0 -0.00000000000E+00 -0.00000000000E+00  0.11368683772E-12  0.17120000000E+03  0.17120000000E+03 0.  0.
         13    1    1    2    0    0  0.85638366554E+01 -0.14938886531E+02  0.66946501786E+02  0.69125645707E+02  0.10566000000E+00 0. -1.
        994    1    1    2    0    0 -0.87932706487E-01  0.42357130650E+01  0.23477318747E+01  0.17126850511E+03  0.17120000000E+03 0.  0.
        998    1    1    2    0    0 -0.84759039489E+01  0.10703173466E+02  0.14307057626E+04  0.14308058492E+04  0.10000000000E+02 0. -1.
</event>
<event>
 5    1  0.1247473E-008  0.3762160E+03  0.7957747E-01  0.3467802E+00
         13   -1    0    0    0    0  0.00000000000E+00  0.00000000000E+00  0.14999999963E+04  0.15000000000E+04  0.10566000000E+00 0.  1.
        994   -1    0    0    0    0 -0.00000000000E+00 -0.00000000000E+00  0.11368683772E-12  0.17120000000E+03  0.17120000000E+03 0.  0.
         13    1    1    2    0    0  0.48684495671E+01 -0.21401283353E+02  0.36996513731E+02  0.43017088728E+02  0.10566000000E+00 0.  1.
        994    1    1    2    0    0 -0.40147841573E+02  0.89256333748E+01  0.11803470268E+02  0.17646608180E+03  0.17120000000E+03 0.  0.
        998    1    1    2    0    0  0.35279392006E+02  0.12475649978E+02  0.14512000123E+04  0.14517168295E+04  0.10000000000E+02 0.  1.
</event>
<event>
 5    1  0.1247473E-008  0.3743655E+03  0.7957747E-01  0.3476065E+00
         13   -1    0    0    0    0  0.00000000000E+00  0.00000000000E+00  0.14999999963E+04  0.15000000000E+04  0.10566000000E+00 0.  1.
        994   -1    0    0    0    0 -0.00000000000E+00 -0.00000000000E+00  0.11368683772E-12  0.17120000000E+03  0.17120000000E+03 0.  0.
         13    1    1    2    0    0 -0.32484580152E+01 -0.27431012871E+02  0.52328480523E+02  0.59171732985E+02  0.10566000000E+00 0.  1.
        994    1    1    2    0    0  0.18727143648E+01  0.14519901943E+02  0.77353783658E+01  0.17199886828E+03  0.17120000000E+03 0.  0.
        998    1    1    2    0    0  0.13757436504E+01  0.12911110927E+02  0.14399361374E+04  0.14400293987E+04  0.10000000000E+02 0.  1.
</event>
<event>
 5    1  0.1247473E-008  0.3838233E+03  0.7957747E-01  0.3434678E+00
         13   -1    0    0    0    0  0.00000000000E+00  0.00000000000E+00  0.14999999963E+04  0.15000000000E+04  0.10566000000E+00 0.  1.
        994   -1    0    0    0    0 -0.00000000000E+00 -0.00000000000E+00  0.11368683772E-12  0.17120000000E+03  0.17120000000E+03 0.  0.
         13    1    1    2    0    0 -0.11323190529E+02 -0.91117620389E+01  0.46992854187E+02  0.49189209792E+02  0.10566000000E+00 0.  1.
        994    1    1    2    0    0  0.70258693576E+01  0.76998686297E+01  0.25742213122E+01  0.17153634435E+03  0.17120000000E+03 0.  0.
        998    1    1    2    0    0  0.42973211718E+01  0.14118934092E+01  0.14504329208E+04  0.14504744459E+04  0.10000000000E+02 0.  1.
</event>
<event>
 5    1  0.1247473E-008  0.3800300E+03  0.7957747E-01  0.3451028E+00
         13   -1    0    0    0    0  0.00000000000E+00  0.00000000000E+00  0.14999999963E+04  0.15000000000E+04  0.10566000000E+00 0.  1.
        994   -1    0    0    0    0 -0.00000000000E+00 -0.00000000000E+00  0.11368683772E-12  0.17120000000E+03  0.17120000000E+03 0.  0.
         13    1    1    2    0    0  0.24552729846E+02  0.72875069232E+01  0.78818826662E+02  0.82875586878E+02  0.10566000000E+00 0.  1.
        994    1    1    2    0    0 -0.14954131630E+02  0.34092492378E+00  0.48662195081E+01  0.17192109346E+03  0.17120000000E+03 0.  0.
        998    1    1    2    0    0 -0.95985982154E+01 -0.76284318470E+01  0.14163149501E+04  0.14164033197E+04  0.10000000000E+02 0.  1.
</event>
<event>
 5    1  0.1247473E-008  0.3822394E+03  0.7957747E-01  0.3441465E+00
         13   -1    0    0    0    0  0.00000000000E+00  0.00000000000E+00  0.14999999963E+04  0.15000000000E+04  0.10566000000E+00 0. -1.
        994   -1    0    0    0    0 -0.00000000000E+00 -0.00000000000E+00  0.11368683772E-12  0.17120000000E+03  0.17120000000E+03 0.  0.
         13    1    1    2    0    0 -0.12934358097E+02  0.16460250559E+02  0.78365337428E+02  0.81113345031E+02  0.10566000000E+00 0. -1.
        994    1    1    2    0    0 -0.24184107967E+02 -0.16262383173E+02  0.58304795636E+01  0.17376067068E+03  0.17120000000E+03 0.  0.
        998    1    1    2    0    0  0.37118466064E+02 -0.19786738575E+00  0.14158041793E+04  0.14163259843E+04  0.10000000000E+02 0. -1.
</event>
<event>
 5    1  0.1247473E-008  0.3737756E+03  0.7957747E-01  0.3478717E+00
         13   -1    0    0    0    0  0.00000000000E+00  0.00000000000E+00  0.14999999963E+04  0.15000000000E+04  0.10566000000E+00 0.  1.
        994   -1    0    0    0    0 -0.00000000000E+00 -0.00000000000E+00  0.11368683772E-12  0.17120000000E+03  0.17120000000E+03 0.  0.
         13    1    1    2    0    0  0.10574927858E+02 -0.60956084959E+02  0.26492404646E+03  0.27205189753E+03  0.10566000000E+00 0.  1.
        994    1    1    2    0    0 -0.10568428843E+02  0.31136690475E+02  0.11008125217E+02  0.17467628346E+03  0.17120000000E+03 0.  0.
        998    1    1    2    0    0 -0.64990153785E-02  0.29819394484E+02  0.12240678246E+04  0.12244718190E+04  0.10000000000E+02 0.  1.
</event>
<event>
 5    1  0.1247473E-008  0.3750888E+03  0.7957747E-01  0.3472825E+00
         13   -1    0    0    0    0  0.00000000000E+00  0.00000000000E+00  0.14999999963E+04  0.15000000000E+04  0.10566000000E+00 0.  1.
        994   -1    0    0    0    0 -0.00000000000E+00 -0.00000000000E+00  0.11368683772E-12  0.17120000000E+03  0.17120000000E+03 0.  0.
         13    1    1    2    0    0  0.13664127514E+02 -0.19649616406E+02  0.39460032486E+02  0.46151068605E+02  0.10566000000E+00 0.  1.
        994    1    1    2    0    0 -0.14721898817E+02  0.20455335085E+02  0.87944807502E+01  0.17326839853E+03  0.17120000000E+03 0.  0.
        998    1    1    2    0    0  0.10577713034E+01 -0.80571867882E+00  0.14517454830E+04  0.14517805329E+04  0.10000000000E+02 0.  0.
</event>
<event>
 5    1  0.1247473E-008  0.3809199E+03  0.7957747E-01  0.3447163E+00
         13   -1    0    0    0    0  0.00000000000E+00  0.00000000000E+00  0.14999999963E+04  0.15000000000E+04  0.10566000000E+00 0.  1.
        994   -1    0    0    0    0 -0.00000000000E+00 -0.00000000000E+00  0.11368683772E-12  0.17120000000E+03  0.17120000000E+03 0.  0.
         13    1    1    2    0    0 -0.41024454933E+02  0.18631483706E+02  0.21631846138E+03  0.22096114135E+03  0.10566000000E+00 0.  1.
        994    1    1    2    0    0  0.36264189059E+02 -0.64821253248E+02  0.22280082265E+02  0.18794341794E+03  0.17120000000E+03 0.  0.
        998    1    1    2    0    0  0.47602658737E+01  0.46189769542E+02  0.12614014526E+04  0.12622954407E+04  0.10000000000E+02 0.  1.
</event>
<event>
 5    1  0.1247473E-008  0.3807427E+03  0.7957747E-01  0.3447931E+00
         13   -1    0    0    0    0  0.00000000000E+00  0.00000000000E+00  0.14999999963E+04  0.15000000000E+04  0.10566000000E+00 0. -1.
        994   -1    0    0    0    0 -0.00000000000E+00 -0.00000000000E+00  0.11368683772E-12  0.17120000000E+03  0.17120000000E+03 0.  0.
         13    1    1    2    0    0 -0.14443203961E+02  0.35130047038E+02  0.16475222488E+03  0.16907404624E+03  0.10566000000E+00 0. -1.
        994    1    1    2    0    0  0.10890045631E+01 -0.47170057877E+02  0.11218427633E+02  0.17793676801E+03  0.17120000000E+03 0.  0.
        998    1    1    2    0    0  0.13354199398E+02  0.12040010839E+02  0.13240293438E+04  0.13241891858E+04  0.10000000000E+02 0. -1.
</event>
<event>
 5    1  0.1247473E-008  0.3772137E+03  0.7957747E-01  0.3463381E+00
         13   -1    0    0    0    0  0.00000000000E+00  0.00000000000E+00  0.14999999963E+04  0.15000000000E+04  0.10566000000E+00 0.  1.
        994   -1    0    0    0    0 -0.00000000000E+00 -0.00000000000E+00  0.11368683772E-12  0.17120000000E+03  0.17120000000E+03 0.  0.
         13    1    1    2    0    0  0.71003048785E+01 -0.27496687975E+02  0.21045681383E+02  0.35347051473E+02  0.10566000000E+00 0.  1.
        994    1    1    2    0    0 -0.21645302515E+01  0.22409600193E+02  0.16625253467E+02  0.17347251778E+03  0.17120000000E+03 0.  0.
        998    1    1    2    0    0 -0.49357746270E+01  0.50870877818E+01  0.14623290614E+04  0.14623804307E+04  0.10000000000E+02 0.  1.
</event>
<event>
 5    1  0.1247473E-008  0.3820093E+03  0.7957747E-01  0.3442456E+00
         13   -1    0    0    0    0  0.00000000000E+00  0.00000000000E+00  0.14999999963E+04  0.15000000000E+04  0.10566000000E+00 0. -1.
        994   -1    0    0    0    0 -0.00000000000E+00 -0.00000000000E+00  0.11368683772E-12  0.17120000000E+03  0.17120000000E+03 0.  0.
         13    1    1    2    0    0  0.61973490645E+01  0.28359410690E+02  0.14638307827E+03  0.14923364258E+03  0.10566000000E+00 0. -1.
        994    1    1    2    0    0  0.79331670584E+01 -0.69298196474E+01  0.34908500646E+01  0.17155927131E+03  0.17120000000E+03 0.  0.
        998    1    1    2    0    0 -0.14130516123E+02 -0.21429591043E+02  0.13501260679E+04  0.13504070861E+04  0.10000000000E+02 0. -1.
</event>
<event>
 5    1  0.1247473E-008  0.3847194E+03  0.7957747E-01  0.3430863E+00
         13   -1    0    0    0    0  0.00000000000E+00  0.00000000000E+00  0.14999999963E+04  0.15000000000E+04  0.10566000000E+00 0. -1.
        994   -1    0    0    0    0 -0.00000000000E+00 -0.00000000000E+00  0.11368683772E-12  0.17120000000E+03  0.17120000000E+03 0.  0.
         13    1    1    2    0    0 -0.11326839222E+02  0.11889769887E+02  0.75188325704E+02  0.76960765335E+02  0.10566000000E+00 0. -1.
        994    1    1    2    0    0  0.12972786361E+02 -0.49591028791E+01  0.24046666769E+01  0.17177924295E+03  0.17120000000E+03 0.  0.
        998    1    1    2    0    0 -0.16459471398E+01 -0.69306670077E+01  0.14224070039E+04  0.14224599917E+04  0.10000000000E+02 0. -1.
</event>
<event>
 5    1  0.1247473E-008  0.3823332E+03  0.7957747E-01  0.3441062E+00
         13   -1    0    0    0    0  0.00000000000E+00  0.00000000000E+00  0.14999999963E+04  0.15000000000E+04  0.10566000000E+00 0.  1.
        994   -1    0    0    0    0 -0.00000000000E+00 -0.00000000000E+00  0.11368683772E-12  0.17120000000E+03  0.17120000000E+03 0.  0.
         13    1    1    2    0    0  0.45740519707E+01  0.14633161739E+02  0.42918059571E+02  0.45574360942E+02  0.10566000000E+00 0.  1.
        994    1    1    2    0    0 -0.11367856492E+02  0.19510347775E+02  0.46532667228E+01  0.17274540435E+03  0.17120000000E+03 0.  0.
        998    1    1    2    0    0  0.67938045217E+01 -0.34143509514E+02  0.14524286700E+04  0.14528802347E+04  0.10000000000E+02 0.  1.
</event>
<event>
 5    1  0.1247473E-008  0.3807067E+03  0.7957747E-01  0.3448087E+00
         13   -1    0    0    0    0  0.00000000000E+00  0.00000000000E+00  0.14999999963E+04  0.15000000000E+04  0.10566000000E+00 0.  1.
        994   -1    0    0    0    0 -0.00000000000E+00 -0.00000000000E+00  0.11368683772E-12  0.17120000000E+03  0.17120000000E+03 0.  0.
         13    1    1    2    0    0 -0.10190929605E+02 -0.17028678135E+02  0.52376840984E+02  0.56010495095E+02  0.10566000000E+00 0.  1.
        994    1    1    2    0    0  0.19945801818E+02 -0.58662446455E+01  0.52197417325E+01  0.17253675997E+03  0.17120000000E+03 0.  0.
        998    1    1    2    0    0 -0.97548722125E+01  0.22894922780E+02  0.14424034136E+04  0.14426527449E+04  0.10000000000E+02 0.  1.
</event>
<event>
 5    1  0.1965079E-008  0.3839760E+03  0.7957747E-01  0.3434027E+00
         13   -1    0    0    0    0  0.00000000000E+00  0.00000000000E+00  0.14999999963E+04  0.15000000000E+04  0.10566000000E+00 0. -1.
        994   -1    0    0    0    0 -0.00000000000E+00 -0.00000000000E+00  0.11368683772E-12  0.17120000000E+03  0.17120000000E+03 0.  0.
         13    1    1    2    0    0  0.40207496891E+01  0.93447970687E+01  0.23161990354E+02  0.25297838278E+02  0.10566000000E+00 0. -1.
        994    1    1    2    0    0 -0.48676713868E+01 -0.10360898768E+02  0.25719176916E+01  0.17160156529E+03  0.17120000000E+03 0.  0.
        998    1    1    2    0    0  0.84692169766E+00  0.10161016994E+01  0.14742660882E+04  0.14743005964E+04  0.10000000000E+02 0. -1.
</event>
<event>
 5    1  0.1247473E-008  0.3792175E+03  0.7957747E-01  0.3454573E+00
         13   -1    0    0    0    0  0.00000000000E+00  0.00000000000E+00  0.14999999963E+04  0.15000000000E+04  0.10566000000E+00 0. -1.
        994   -1    0    0    0    0 -0.00000000000E+00 -0.00000000000E+00  0.11368683772E-12  0.17120000000E+03  0.17120000000E+03 0.  0.
         13    1    1    2    0    0  0.20582273681E+02 -0.41293353329E+02  0.22738681034E+03  0.23202056740E+03  0.10566000000E+00 0. -1.
        994    1    1    2    0    0  0.56936561953E+01  0.37083238513E+02  0.92607821718E+01  0.17550722602E+03  0.17120000000E+03 0.  0.
        998    1    1    2    0    0 -0.26275929876E+02  0.42101148151E+01  0.12633524038E+04  0.12636722066E+04  0.10000000000E+02 0. -1.
</event>
<event>
 5    1  0.1247473E-008  0.3801655E+03  0.7957747E-01  0.3450438E+00
         13   -1    0    0    0    0  0.00000000000E+00  0.00000000000E+00  0.14999999963E+04  0.15000000000E+04  0.10566000000E+00 0.  1.
        994   -1    0    0    0    0 -0.00000000000E+00 -0.00000000000E+00  0.11368683772E-12  0.17120000000E+03  0.17120000000E+03 0.  0.
         13    1    1    2    0    0 -0.26205330573E+02 -0.21466409733E+02  0.14551984871E+03  0.14941072127E+03  0.10566000000E+00 0.  1.
        994    1    1    2    0    0  0.15693227179E+02  0.33813461919E+01  0.49111524453E+01  0.17202113329E+03  0.17120000000E+03 0.  0.
        998    1    1    2    0    0  0.10512103394E+02  0.18085063541E+02  0.13495689951E+04  0.13497681454E+04  0.10000000000E+02 0.  1.
</event>
<event>
 5    1  0.1247473E-008  0.3829578E+03  0.7957747E-01  0.3438380E+00
         13   -1    0    0    0    0  0.00000000000E+00  0.00000000000E+00  0.14999999963E+04  0.15000000000E+04  0.10566000000E+00 0. -1.
        994   -1    0    0    0    0 -0.00000000000E+00 -0.00000000000E+00  0.11368683772E-12  0.17120000000E+03  0.17120000000E+03 0.  0.
         13    1    1    2    0    0 -0.23156436076E+01  0.14518491155E+02  0.38440185113E+02  0.41155896131E+02  0.10566000000E+00 0. -1.
        994    1    1    2    0    0 -0.41603221883E+01 -0.20618293343E+02  0.41134887460E+01  0.17253632397E+03  0.17120000000E+03 0.  0.
        998    1    1    2    0    0  0.64759657959E+01  0.60998021887E+01  0.14574463224E+04  0.14575077799E+04  0.10000000000E+02 0. -1.
</event>
<event>
 5    1  0.1247473E-008  0.3847393E+03  0.7957747E-01  0.3430779E+00
         13   -1    0    0    0    0  0.00000000000E+00  0.00000000000E+00  0.14999999963E+04  0.15000000000E+04  0.10566000000E+00 0. -1.
        994   -1    0    0    0    0 -0.00000000000E+00 -0.00000000000E+00  0.11368683772E-12  0.17120000000E+03  0.17120000000E+03 0.  0.
         13    1    1    2    0    0  0.11817337129E+02  0.34774412771E+01  0.43159929906E+02  0.44883546742E+02  0.10566000000E+00 0. -1.
        994    1    1    2    0    0 -0.85696633837E+01  0.39668195117E+01  0.20531881126E+01  0.17147253532E+03  0.17120000000E+03 0.  0.
        998    1    1    2    0    0 -0.32476737448E+01 -0.74442607888E+01  0.14547868783E+04  0.14548439179E+04  0.10000000000E+02 0. -1.
</event>
<event>
 5    1  0.2052693E-008  0.3862705E+03  0.7957747E-01  0.3424301E+00
         13   -1    0    0    0    0  0.00000000000E+00  0.00000000000E+00  0.14999999963E+04  0.15000000000E+04  0.10566000000E+00 0. -1.
        994   -1    0    0    0    0 -0.00000000000E+00 -0.00000000000E+00  0.11368683772E-12  0.17120000000E+03  0.17120000000E+03 0.  0.
         13    1    1    2    0    0 -0.84687212826E+01 -0.65723958571E+01  0.57636753866E+02  0.58625269190E+02  0.10566000000E+00 0. -1.
        994    1    1    2    0    0  0.54503720905E+01  0.75247299581E+01  0.12834276513E+01  0.17145674470E+03  0.17120000000E+03 0.  0.
        998    1    1    2    0    0  0.30183491921E+01 -0.95233410102E+00  0.14410798148E+04  0.14411179861E+04  0.10000000000E+02 0. -1.
</event>
<event>
 5    1  0.1247473E-008  0.3808455E+03  0.7957747E-01  0.3447485E+00
         13   -1    0    0    0    0  0.00000000000E+00  0.00000000000E+00  0.14999999963E+04  0.15000000000E+04  0.10566000000E+00 0. -1.
        994   -1    0    0    0    0 -0.00000000000E+00 -0.00000000000E+00  0.11368683772E-12  0.17120000000E+03  0.17120000000E+03 0.  0.
         13    1    1    2    0    0 -0.29918710606E+02  0.15685283579E+02  0.15081418640E+03  0.15455124506E+03  0.10566000000E+00 0. -1.
        994    1    1    2    0    0  0.17745214483E+02 -0.12984172696E+02  0.53203472502E+01  0.17268823779E+03  0.17120000000E+03 0.  0.
        998    1    1    2    0    0  0.12173496122E+02 -0.27011108835E+01  0.13438654626E+04  0.13439605171E+04  0.10000000000E+02 0.  1.
</event>
<event>
 5    1  0.1247473E-008  0.3819378E+03  0.7957747E-01  0.3442764E+00
         13   -1    0    0    0    0  0.00000000000E+00  0.00000000000E+00  0.14999999963E+04  0.15000000000E+04  0.10566000000E+00 0. -1.
        994   -1    0    0    0    0 -0.00000000000E+00 -0.00000000000E+00  0.11368683772E-12  0.17120000000E+03  0.17120000000E+03 0.  0.
         13    1    1    2    0    0  0.49220573548E+01  0.28783544707E+02  0.12793802011E+03  0.13122830201E+03  0.10566000000E+00 0. -1.
        994    1    1    2    0    0 -0.26723894908E+01 -0.24472211769E+02  0.51737651836E+01  0.17303825779E+03  0.17120000000E+03 0.  0.
        998    1    1    2    0    0 -0.22496678640E+01 -0.43113329381E+01  0.13668882110E+04  0.13669334402E+04  0.10000000000E+02 0. -1.
</event>
<event>
 5    1  0.1247473E-008  0.3830131E+03  0.7957747E-01  0.3438143E+00
         13   -1    0    0    0    0  0.00000000000E+00  0.00000000000E+00  0.14999999963E+04  0.15000000000E+04  0.10566000000E+00 0.  1.
        994   -1    0    0    0    0 -0.00000000000E+00 -0.00000000000E+00  0.11368683772E-12  0.17120000000E+03  0.17120000000E+03 0.  0.
         13    1    1    2    0    0 -0.14744945363E+02  0.27592086125E+02  0.17983295231E+03  0.18253393803E+03  0.10566000000E+00 0.  1.
        994    1    1    2    0    0 -0.33957111516E+01 -0.27690292626E+02  0.52001922354E+01  0.17353606299E+03  0.17120000000E+03 0.  0.
        998    1    1    2    0    0  0.18140656515E+02  0.98206500929E-01  0.13149668517E+04  0.13151299990E+04  0.10000000000E+02 0.  1.
</event>
<event>
 5    1  0.1247473E-008  0.3842189E+03  0.7957747E-01  0.3432992E+00
         13   -1    0    0    0    0  0.00000000000E+00  0.00000000000E+00  0.14999999963E+04  0.15000000000E+04  0.10566000000E+00 0. -1.
        994   -1    0    0    0    0 -0.00000000000E+00 -0.00000000000E+00  0.11368683772E-12  0.17120000000E+03  0.17120000000E+03 0.  0.
         13    1    1    2    0    0  0.91564035169E+01  0.89237195481E+01  0.39761965524E+02  0.41767182839E+02  0.10566000000E+00 0. -1.
        994    1    1    2    0    0 -0.47248684123E+01 -0.97986809880E+01  0.24086848457E+01  0.17156217617E+03  0.17120000000E+03 0.  0.
        998    1    1    2    0    0 -0.44315351045E+01  0.87496143991E+00  0.14578293459E+04  0.14578706410E+04  0.10000000000E+02 0. -1.
</event>
<event>
 5    1  0.1247473E-008  0.3709850E+03  0.7957747E-01  0.3491376E+00
         13   -1    0    0    0    0  0.00000000000E+00  0.00000000000E+00  0.14999999963E+04  0.15000000000E+04  0.10566000000E+00 0.  1.
        994   -1    0    0    0    0 -0.00000000000E+00 -0.00000000000E+00  0.11368683772E-12  0.17120000000E+03  0.17120000000E+03 0.  0.
         13    1    1    2    0    0  0.49369988792E+02  0.10069510574E+02  0.13314031197E+03  0.14235569771E+03  0.10566000000E+00 0.  1.
        994    1    1    2    0    0 -0.44831716179E+02 -0.72529534987E+01  0.15896053858E+02  0.17783310333E+03  0.17120000000E+03 0.  0.
        998    1    1    2    0    0 -0.45382726132E+01 -0.28165570756E+01  0.13509636305E+04  0.13510111990E+04  0.10000000000E+02 0.  1.
</event>
<event>
 5    1  0.1247473E-008  0.3818250E+03  0.7957747E-01  0.3443251E+00
         13   -1    0    0    0    0  0.00000000000E+00  0.00000000000E+00  0.14999999963E+04  0.15000000000E+04  0.10566000000E+00 0.  1.
        994   -1    0    0    0    0 -0.00000000000E+00 -0.00000000000E+00  0.11368683772E-12  0.17120000000E+03  0.17120000000E+03 0.  0.
         13    1    1    2    0    0  0.13725691305E+02 -0.96033500178E-01  0.29491828853E+02  0.32529724212E+02  0.10566000000E+00 0.  1.
        994    1    1    2    0    0  0.51703295562E+01 -0.37528695096E+00  0.33040498916E+01  0.17131033213E+03  0.17120000000E+03 0.  0.
        998    1    1    2    0    0 -0.18896020861E+02  0.47132045113E+00  0.14672041175E+04  0.14673599437E+04  0.10000000000E+02 0.  1.
</event>
<event>
 5    1  0.1247473E-008  0.4614486E+03  0.7957747E-01  0.3158635E+00
         13   -1    0    0    0    0  0.00000000000E+00  0.00000000000E+00  0.14999999963E+04  0.15000000000E+04  0.10566000000E+00 0. -1.
        994   -1    0    0    0    0 -0.00000000000E+00 -0.00000000000E+00  0.11368683772E-12  0.17120000000E+03  0.17120000000E+03 0.  0.
         13    1    1    2    0    0  0.15549019319E+02  0.82954594870E+01 -0.25881842116E+02  0.31312418706E+02  0.10566000000E+00 0. -1.
        994    1    1    2    0    0 -0.18185960043E+02  0.54841740878E+01  0.73291033915E+02  0.18719460719E+03  0.17120000000E+03 0.  0.
        998    1    1    2    0    0  0.26369407234E+01 -0.13779633575E+02  0.14525908045E+04  0.14526929741E+04  0.10000000000E+02 0. -1.
</event>
<event>
 5    1  0.1247473E-008  0.3835976E+03  0.7957747E-01  0.3435642E+00
         13   -1    0    0    0    0  0.00000000000E+00  0.00000000000E+00  0.14999999963E+04  0.15000000000E+04  0.10566000000E+00 0.  1.
        994   -1    0    0    0    0 -0.00000000000E+00 -0.00000000000E+00  0.11368683772E-12  0.17120000000E+03  0.17120000000E+03 0.  0.
         13    1    1    2    0    0  0.18961031161E+02 -0.70566061071E+01  0.80057879561E+02  0.82574763919E+02  0.10566000000E+00 0.  1.
        994    1    1    2    0    0 -0.25111748280E+02  0.11883877092E+02  0.48820297741E+01  0.17350821494E+03  0.17120000000E+03 0.  0.
        998    1    1    2    0    0  0.61507171187E+01 -0.48272709854E+01  0.14150600869E+04  0.14151170211E+04  0.10000000000E+02 0.  1.
</event>
<event>
 5    1  0.1247473E-008  0.3844406E+03  0.7957747E-01  0.3432048E+00
         13   -1    0    0    0    0  0.00000000000E+00  0.00000000000E+00  0.14999999963E+04  0.15000000000E+04  0.10566000000E+00 0. -1.
        994   -1    0    0    0    0 -0.00000000000E+00 -0.00000000000E+00  0.11368683772E-12  0.17120000000E+03  0.17120000000E+03 0.  0.
         13    1    1    2    0    0 -0.98073358813E+00 -0.21752367289E+02  0.11857342274E+03  0.12055619049E+03  0.10566000000E+00 0. -1.
        994    1    1    2    0    0  0.35800800271E+01  0.19032693471E+02  0.31447772497E+01  0.17232060242E+03  0.17120000000E+03 0.  0.
        998    1    1    2    0    0 -0.25993464390E+01  0.27196738180E+01  0.13782817963E+04  0.13783232071E+04  0.10000000000E+02 0. -1.
</event>
<event>
 5    1  0.1247473E-008  0.3828742E+03  0.7957747E-01  0.3438738E+00
         13   -1    0    0    0    0  0.00000000000E+00  0.00000000000E+00  0.14999999963E+04  0.15000000000E+04  0.10566000000E+00 0. -1.
        994   -1    0    0    0    0 -0.00000000000E+00 -0.00000000000E+00  0.11368683772E-12  0.17120000000E+03  0.17120000000E+03 0.  0.
         13    1    1    2    0    0  0.10458789317E+02  0.16941589333E+02  0.74800448903E+02  0.77404922603E+02  0.10566000000E+00 0. -1.
        994    1    1    2    0    0 -0.44942842704E+01 -0.65988031623E+01  0.29003365640E+01  0.17141060278E+03  0.17120000000E+03 0.  0.
        998    1    1    2    0    0 -0.59645050465E+01 -0.10342786171E+02  0.14222992108E+04  0.14223844746E+04  0.10000000000E+02 0. -1.
</event>
<event>
 5    1  0.1247473E-008  0.3847503E+03  0.7957747E-01  0.3430732E+00
         13   -1    0    0    0    0  0.00000000000E+00  0.00000000000E+00  0.14999999963E+04  0.15000000000E+04  0.10566000000E+00 0.  1.
        994   -1    0    0    0    0 -0.00000000000E+00 -0.00000000000E+00  0.11368683772E-12  0.17120000000E+03  0.17120000000E+03 0.  0.
         13    1    1    2    0    0  0.86560418976E+00  0.16826697383E+02  0.93656314199E+02  0.95159883190E+02  0.10566000000E+00 0.  1.
        994    1    1    2    0    0  0.12655895605E+02  0.77579853191E+01  0.24797834569E+01  0.17186025531E+03  0.17120000000E+03 0.  0.
        998    1    1    2    0    0 -0.13521499794E+02 -0.24584682702E+02  0.14038638986E+04  0.14041798615E+04  0.10000000000E+02 0.  1.
</event>
<event>
 5    1  0.1247473E-008  0.3684787E+03  0.7957747E-01  0.3502912E+00
         13   -1    0    0    0    0  0.00000000000E+00  0.00000000000E+00  0.14999999963E+04  0.15000000000E+04  0.10566000000E+00 0.  1.
        994   -1    0    0    0    0 -0.00000000000E+00 -0.00000000000E+00  0.11368683772E-12  0.17120000000E+03  0.17120000000E+03 0.  0.
         13    1    1    2    0    0  0.11270068393E+02  0.36071067029E+02  0.74807404360E+02  0.83811068656E+02  0.10566000000E+00 0.  1.
        994    1    1    2    0    0  0.20260779827E+02  0.26068436721E+01  0.11518217315E+02  0.17279873889E+03  0.17120000000E+03 0.  0.
        998    1    1    2    0    0 -0.31530848220E+02 -0.38677910701E+02  0.14136743746E+04  0.14145901924E+04  0.10000000000E+02 0.  1.
</event>
<event>
 5    1  0.1247473E-008  0.3838086E+03  0.7957747E-01  0.3434741E+00
         13   -1    0    0    0    0  0.00000000000E+00  0.00000000000E+00  0.14999999963E+04  0.15000000000E+04  0.10566000000E+00 0. -1.
        994   -1    0    0    0    0 -0.00000000000E+00 -0.00000000000E+00  0.11368683772E-12  0.17120000000E+03  0.17120000000E+03 0.  0.
         13    1    1    2    0    0  0.78632267148E+02 -0.91043046095E+02  0.55241034466E+03  0.56535747075E+03  0.10566000000E+00 0. -1.
        994    1    1    2    0    0  0.28227814949E+02  0.68487396171E+02  0.38891391655E+02  0.19055002838E+03  0.17120000000E+03 0.  0.
        998    1    1    2    0    0 -0.10686008210E+03  0.22555649924E+02  0.90869825996E+03  0.91529250087E+03  0.10000000000E+02 0. -1.
</event>
<event>
 5    1  0.1247473E-008  0.3791390E+03  0.7957747E-01  0.3454916E+00
         13   -1    0    0    0    0  0.00000000000E+00  0.00000000000E+00  0.14999999963E+04  0.15000000000E+04  0.10566000000E+00 0.  1.
        994   -1    0    0    0    0 -0.00000000000E+00 -0.00000000000E+00  0.11368683772E-12  0.17120000000E+03  0.17120000000E+03 0.  0.
         13    1    1    2    0    0  0.14622355361E+02  0.36355422028E+02  0.16966937913E+03  0.17413569239E+03  0.10566000000E+00 0.  1.
        994    1    1    2    0    0 -0.45551992747E+02 -0.52763860991E+01  0.11650535165E+02  0.17761756462E+03  0.17120000000E+03 0.  0.
        998    1    1    2    0    0  0.30929637386E+02 -0.31079035929E+02  0.13186800820E+04  0.13194467430E+04  0.10000000000E+02 0.  1.
</event>
<event>
 5    1  0.1247473E-008  0.3841074E+03  0.7957747E-01  0.3433467E+00
         13   -1    0    0    0    0  0.00000000000E+00  0.00000000000E+00  0.14999999963E+04  0.15000000000E+04  0.10566000000E+00 0.  1.
        994   -1    0    0    0    0 -0.00000000000E+00 -0.00000000000E+00  0.11368683772E-12  0.17120000000E+03  0.17120000000E+03 0.  0.
         13    1    1    2    0    0 -0.17289423654E+01 -0.13686085127E+02  0.44522570298E+02  0.46610820608E+02  0.10566000000E+00 0.  1.
        994    1    1    2    0    0 -0.16713946061E+02  0.15912573874E+02  0.38324420572E+01  0.17279089563E+03  0.17120000000E+03 0.  0.
        998    1    1    2    0    0  0.18442888427E+02 -0.22264887476E+01  0.14516449839E+04  0.14517982838E+04  0.10000000000E+02 0.  1.
</event>
<event>
 5    1  0.1247473E-008  0.3759180E+03  0.7957747E-01  0.3469127E+00
         13   -1    0    0    0    0  0.00000000000E+00  0.00000000000E+00  0.14999999963E+04  0.15000000000E+04  0.10566000000E+00 0. -1.
        994   -1    0    0    0    0 -0.00000000000E+00 -0.00000000000E+00  0.11368683772E-12  0.17120000000E+03  0.17120000000E+03 0.  0.
         13    1    1    2    0    0  0.45284261018E+02  0.35783777449E+02  0.22676770094E+03  0.23399731704E+03  0.10566000000E+00 0. -1.
        994    1    1    2    0    0 -0.48772826479E+02 -0.31770306115E+02  0.17777174174E+02  0.18169647458E+03  0.17120000000E+03 0.  0.
        998    1    1    2    0    0  0.34885654604E+01 -0.40134713345E+01  0.12554551212E+04  0.12555062084E+04  0.10000000000E+02 0. -1.
</event>
<event>
 5    1  0.1247473E-008  0.3849179E+03  0.7957747E-01  0.3430020E+00
         13   -1    0    0    0    0  0.00000000000E+00  0.00000000000E+00  0.14999999963E+04  0.15000000000E+04  0.10566000000E+00 0. -1.
        994   -1    0    0    0    0 -0.00000000000E+00 -0.00000000000E+00  0.11368683772E-12  0.17120000000E+03  0.17120000000E+03 0.  0.
         13    1    1    2    0    0 -0.87259749576E+01  0.51639035848E+01  0.30154977509E+02  0.31814185072E+02  0.10566000000E+00 0. -1.
        994    1    1    2    0    0  0.64739781916E+01 -0.77938892072E+01  0.20086677268E+01  0.17151131697E+03  0.17120000000E+03 0.  0.
        998    1    1    2    0    0  0.22519967660E+01  0.26299856224E+01  0.14678363510E+04  0.14678744980E+04  0.10000000000E+02 0. -1.
</event>
<event>
 5    1  0.1247473E-008  0.3836554E+03  0.7957747E-01  0.3435395E+00
         13   -1    0    0    0    0  0.00000000000E+00  0.00000000000E+00  0.14999999963E+04  0.15000000000E+04  0.10566000000E+00 0.  1.
        994   -1    0    0    0    0 -0.00000000000E+00 -0.00000000000E+00  0.11368683772E-12  0.17120000000E+03  0.17120000000E+03 0.  0.
         13    1    1    2    0    0 -0.67226175748E+00 -0.18509887635E+02  0.69739396637E+02  0.72157206733E+02  0.10566000000E+00 0.  1.
        994    1    1    2    0    0 -0.91987530791E+01  0.23198239155E+02  0.43589395887E+01  0.17306419535E+03  0.17120000000E+03 0.  0.
        998    1    1    2    0    0  0.98710148365E+01 -0.46883515197E+01  0.14259016601E+04  0.14259785979E+04  0.10000000000E+02 0.  1.
</event>
<event>
 5    1  0.1247473E-008  0.3776992E+03  0.7957747E-01  0.3461238E+00
         13   -1    0    0    0    0  0.00000000000E+00  0.00000000000E+00  0.14999999963E+04  0.15000000000E+04  0.10566000000E+00 0. -1.
        994   -1    0    0    0    0 -0.00000000000E+00 -0.00000000000E+00  0.11368683772E-12  0.17120000000E+03  0.17120000000E+03 0.  0.
         13    1    1    2    0    0  0.22209029554E+02  0.26561684586E+02  0.10618232150E+03  0.11168464821E+03  0.10566000000E+00 0. -1.
        994    1    1    2    0    0 -0.23738718494E+02 -0.20241023109E+02  0.85844439365E+01  0.17423076207E+03  0.17120000000E+03 0.  0.
        998    1    1    2    0    0  0.15296889401E+01 -0.63206614776E+01  0.13852332308E+04  0.13852845897E+04  0.10000000000E+02 0. -1.
</event>
<event>
 5    1  0.1247473E-008  0.3859273E+03  0.7957747E-01  0.3425749E+00
         13   -1    0    0    0    0  0.00000000000E+00  0.00000000000E+00  0.14999999963E+04  0.15000000000E+04  0.10566000000E+00 0. -1.
        994   -1    0    0    0    0 -0.00000000000E+00 -0.00000000000E+00  0.11368683772E-12  0.17120000000E+03  0.17120000000E+03 0.  0.
         13    1    1    2    0    0  0.39013333610E+01 -0.12645270107E+02  0.73484078095E+02  0.74666218302E+02  0.10566000000E+00 0. -1.
        994    1    1    2    0    0 -0.10650724707E+01  0.12585456116E+02  0.16936864138E+01  0.17167363414E+03  0.17120000000E+03 0.  0.
        998    1    1    2    0    0 -0.28362608903E+01  0.59813990914E-01  0.14248222318E+04  0.14248601476E+04  0.10000000000E+02 0. -1.
</event>
<event>
 5    1  0.1247473E-008  0.3812756E+03  0.7957747E-01  0.3445623E+00
         13   -1    0    0    0    0  0.00000000000E+00  0.00000000000E+00  0.14999999963E+04  0.15000000000E+04  0.10566000000E+00 0.  1.
        994   -1    0    0    0    0 -0.00000000000E+00 -0.00000000000E+00  0.11368683772E-12  0.17120000000E+03  0.17120000000E+03 0.  0.
         13    1    1    2    0    0  0.72786978119E+01 -0.15099461256E+02  0.38322379096E+02  0.41828089553E+02  0.10566000000E+00 0.  1.
        994    1    1    2    0    0 -0.57684288924E+01  0.14770904354E+02  0.43281221688E+01  0.17198728740E+03  0.17120000000E+03 0.  0.
        998    1    1    2    0    0 -0.15102689195E+01  0.32855690273E+00  0.14573494950E+04  0.14573846230E+04  0.10000000000E+02 0.  1.
</event>
<event>
 5    1  0.1247473E-008  0.3691986E+03  0.7957747E-01  0.3499582E+00
         13   -1    0    0    0    0  0.00000000000E+00  0.00000000000E+00  0.14999999963E+04  0.15000000000E+04  0.10566000000E+00 0.  1.
        994   -1    0    0    0    0 -0.00000000000E+00 -0.00000000000E+00  0.11368683772E-12  0.17120000000E+03  0.17120000000E+03 0.  0.
         13    1    1    2    0    0  0.87124864913E+01 -0.17059739671E+02  0.12907049293E+02  0.23098597880E+02  0.10566000000E+00 0.  1.
        994    1    1    2    0    0  0.80604363987E+01  0.17099721013E+02  0.11762507673E+02  0.17264173215E+03  0.17120000000E+03 0.  0.
        998    1    1    2    0    0 -0.16772922890E+02 -0.39981342356E-01  0.14753304393E+04  0.14754596700E+04  0.10000000000E+02 0.  1.
</event>
<event>
 5    1  0.1247473E-008  0.3783815E+03  0.7957747E-01  0.3458236E+00
         13   -1    0    0    0    0  0.00000000000E+00  0.00000000000E+00  0.14999999963E+04  0.15000000000E+04  0.10566000000E+00 0.  1.
        994   -1    0    0    0    0 -0.00000000000E+00 -0.00000000000E+00  0.11368683772E-12  0.17120000000E+03  0.17120000000E+03 0.  0.
         13    1    1    2    0    0 -0.48476908539E+02 -0.24485141232E+02  0.25276420274E+03  0.25853294984E+03  0.10566000000E+00 0.  1.
        994    1    1    2    0    0  0.48276014275E+02  0.19481632903E+02  0.14115395970E+02  0.17949593861E+03  0.17120000000E+03 0.  0.
        998    1    1    2    0    0  0.20089426433E+00  0.50035083285E+01  0.12331203976E+04  0.12331711115E+04  0.10000000000E+02 0.  0.
</event>
<event>
 5    1  0.1247473E-008  0.3732794E+03  0.7957747E-01  0.3480954E+00
         13   -1    0    0    0    0  0.00000000000E+00  0.00000000000E+00  0.14999999963E+04  0.15000000000E+04  0.10566000000E+00 0.  1.
        994   -1    0    0    0    0 -0.00000000000E+00 -0.00000000000E+00  0.11368683772E-12  0.17120000000E+03  0.17120000000E+03 0.  0.
         13    1    1    2    0    0 -0.59583768065E+01  0.27509502719E+02  0.51371888908E+02  0.58577786985E+02  0.10566000000E+00 0.  1.
        994    1    1    2    0    0  0.10180445829E+02 -0.39363304949E+01  0.79723728360E+01  0.17173274267E+03  0.17120000000E+03 0.  0.
        998    1    1    2    0    0 -0.42220690222E+01 -0.23573172224E+02  0.14406557345E+04  0.14408894703E+04  0.10000000000E+02 0.  1.
</event>
<event>
 5    1  0.1247473E-008  0.3857417E+03  0.7957747E-01  0.3426532E+00
         13   -1    0    0    0    0  0.00000000000E+00  0.00000000000E+00  0.14999999963E+04  0.15000000000E+04  0.10566000000E+00 0. -1.
        994   -1    0    0    0    0 -0.00000000000E+00 -0.00000000000E+00  0.11368683772E-12  0.17120000000E+03  0.17120000000E+03 0.  0.
         13    1    1    2    0    0  0.43213769187E+01  0.12222433719E+02  0.68514758542E+02  0.69730520481E+02  0.10566000000E+00 0. -1.
        994    1    1    2    0    0  0.26668986514E+01 -0.70963637568E+01  0.14508900558E+01  0.17137390644E+03  0.17120000000E+03 0.  0.
        998    1    1    2    0    0 -0.69882755701E+01 -0.51260699621E+01  0.14300343477E+04  0.14300955731E+04  0.10000000000E+02 0. -1.
</event>
<event>
 5    1  0.1247473E-008  0.3846796E+03  0.7957747E-01  0.3431032E+00
         13   -1    0    0    0    0  0.00000000000E+00  0.00000000000E+00  0.14999999963E+04  0.15000000000E+04  0.10566000000E+00 0. -1.
        994   -1    0    0    0    0 -0.00000000000E+00 -0.00000000000E+00  0.11368683772E-12  0.17120000000E+03  0.17120000000E+03 0.  0.
         13    1    1    2    0    0 -0.23965752540E+01  0.16564250897E+02  0.84523765139E+02  0.86164934968E+02  0.10566000000E+00 0. -1.
        994    1    1    2    0    0 -0.74880251655E+01 -0.79413772849E+00  0.19759748852E+01  0.17137691108E+03  0.17120000000E+03 0.  0.
        998    1    1    2    0    0  0.98846004195E+01 -0.15770113169E+02  0.14135002563E+04  0.14136581539E+04  0.10000000000E+02 0. -1.
</event>
<event>
 5    1  0.1407239E-008  0.3830474E+03  0.7957747E-01  0.3437996E+00
         13   -1    0    0    0    0  0.00000000000E+00  0.00000000000E+00  0.14999999963E+04  0.15000000000E+04  0.10566000000E+00 0. -1.
        994   -1    0    0    0    0 -0.00000000000E+00 -0.00000000000E+00  0.11368683772E-12  0.17120000000E+03  0.17120000000E+03 0.  0.
         13    1    1    2    0    0  0.31404010550E+00 -0.10379056823E+02  0.19481706395E+02  0.22076491792E+02  0.10566000000E+00 0. -1.
        994    1    1    2    0    0 -0.18562330366E+01  0.11630331387E+02  0.30619056577E+01  0.17163194771E+03  0.17120000000E+03 0.  0.
        998    1    1    2    0    0  0.15421929311E+01 -0.12512745635E+01  0.14774563842E+04  0.14774915605E+04  0.10000000000E+02 0. -1.
</event>
<event>
 5    1  0.1247473E-008  0.3829038E+03  0.7957747E-01  0.3438611E+00
         13   -1    0    0    0    0  0.00000000000E+00  0.00000000000E+00  0.14999999963E+04  0.15000000000E+04  0.10566000000E+00 0.  1.
        994   -1    0    0    0    0 -0.00000000000E+00 -0.00000000000E+00  0.11368683772E-12  0.17120000000E+03  0.17120000000E+03 0.  0.
         13    1    1    2    0    0 -0.11188213866E+02  0.23625746185E+02  0.12692680199E+03  0.12959080307E+03  0.10566000000E+00 0.  1.
        994    1    1    2    0    0  0.33347806701E+01 -0.16000905126E+02  0.35595379326E+01  0.17201529013E+03  0.17120000000E+03 0.  0.
        998    1    1    2    0    0  0.78534331959E+01 -0.76248410597E+01  0.13695136564E+04  0.13695939068E+04  0.10000000000E+02 0.  1.
</event>
<event>
 5    1  0.1247473E-008  0.3853550E+03  0.7957747E-01  0.3428168E+00
         13   -1    0    0    0    0  0.00000000000E+00  0.00000000000E+00  0.14999999963E+04  0.15000000000E+04  0.10566000000E+00 0.  1.
        994   -1    0    0    0    0 -0.00000000000E+00 -0.00000000000E+00  0.11368683772E-12  0.17120000000E+03  0.17120000000E+03 0.  0.
         13    1    1    2    0    0  0.48622012426E+01 -0.13680135194E+02  0.74486912394E+02  0.75888723681E+02  0.10566000000E+00 0.  1.
        994    1    1    2    0    0  0.94325052740E+00  0.69801427677E+01  0.16169825345E+01  0.17135246350E+03  0.17120000000E+03 0.  0.
        998    1    1    2    0    0 -0.58054517700E+01  0.66999924268E+01  0.14238961014E+04  0.14239588128E+04  0.10000000000E+02 0.  1.
</event>
<event>
 5    1  0.1247473E-008  0.3818640E+03  0.7957747E-01  0.3443082E+00
         13   -1    0    0    0    0  0.00000000000E+00  0.00000000000E+00  0.14999999963E+04  0.15000000000E+04  0.10566000000E+00 0.  1.
        994   -1    0    0    0    0 -0.00000000000E+00 -0.00000000000E+00  0.11368683772E-12  0.17120000000E+03  0.17120000000E+03 0.  0.
         13    1    1    2    0    0 -0.14471829815E+02  0.45431536447E+00  0.31428416720E+02  0.34603421828E+02  0.10566000000E+00 0.  1.
        994    1    1    2    0    0  0.11503744779E+02 -0.58414970929E+01  0.37484287499E+01  0.17172638106E+03  0.17120000000E+03 0.  0.
        998    1    1    2    0    0  0.29680850358E+01  0.53871817284E+01  0.14648231508E+04  0.14648701971E+04  0.10000000000E+02 0.  1.
</event>
<event>
 5    1  0.1247473E-008  0.3754734E+03  0.7957747E-01  0.3471108E+00
         13   -1    0    0    0    0  0.00000000000E+00  0.00000000000E+00  0.14999999963E+04  0.15000000000E+04  0.10566000000E+00 0. -1.
        994   -1    0    0    0    0 -0.00000000000E+00 -0.00000000000E+00  0.11368683772E-12  0.17120000000E+03  0.17120000000E+03 0.  0.
         13    1    1    2    0    0 -0.14507522839E+02 -0.39704400783E+02  0.11580964357E+03  0.12328338237E+03  0.10566000000E+00 0. -1.
        994    1    1    2    0    0  0.29652731536E+02  0.54849682645E+02  0.19746401574E+02  0.18326792559E+03  0.17120000000E+03 0.  0.
        998    1    1    2    0    0 -0.15145208697E+02 -0.15145281862E+02  0.13644439511E+04  0.13646486920E+04  0.10000000000E+02 0. -1.
</event>
<event>
 5    1  0.1247473E-008  0.3736600E+03  0.7957747E-01  0.3479238E+00
         13   -1    0    0    0    0  0.00000000000E+00  0.00000000000E+00  0.14999999963E+04  0.15000000000E+04  0.10566000000E+00 0. -1.
        994   -1    0    0    0    0 -0.00000000000E+00 -0.00000000000E+00  0.11368683772E-12  0.17120000000E+03  0.17120000000E+03 0.  0.
         13    1    1    2    0    0 -0.39253374958E+01 -0.13222854075E+02  0.96015079119E+01  0.16806316151E+02  0.10566000000E+00 0. -1.
        994    1    1    2    0    0  0.22226912086E+01  0.95966145067E+01  0.76998836080E+01  0.17165594535E+03  0.17120000000E+03 0.  0.
        998    1    1    2    0    0  0.17026462872E+01  0.36262395683E+01  0.14826986048E+04  0.14827377385E+04  0.10000000000E+02 0. -1.
</event>
<event>
 5    1  0.1247473E-008  0.3777038E+03  0.7957747E-01  0.3461218E+00
         13   -1    0    0    0    0  0.00000000000E+00  0.00000000000E+00  0.14999999963E+04  0.15000000000E+04  0.10566000000E+00 0.  1.
        994   -1    0    0    0    0 -0.00000000000E+00 -0.00000000000E+00  0.11368683772E-12  0.17120000000E+03  0.17120000000E+03 0.  0.
         13    1    1    2    0    0 -0.28359059357E+02  0.51427503958E+02  0.10749492911E+03  0.12249161342E+03  0.10566000000E+00 0.  1.
        994    1    1    2    0    0  0.43012218640E+01 -0.47461682262E+02  0.23277480102E+02  0.17922721019E+03  0.17120000000E+03 0.  0.
        998    1    1    2    0    0  0.24057837493E+02 -0.39658216964E+01  0.13692275871E+04  0.13694811764E+04  0.10000000000E+02 0.  1.
</event>
<event>
 5    1  0.1247473E-008  0.3833457E+03  0.7957747E-01  0.3436719E+00
         13   -1    0    0    0    0  0.00000000000E+00  0.00000000000E+00  0.14999999963E+04  0.15000000000E+04  0.10566000000E+00 0.  1.
        994   -1    0    0    0    0 -0.00000000000E+00 -0.00000000000E+00  0.11368683772E-12  0.17120000000E+03  0.17120000000E+03 0.  0.
         13    1    1    2    0    0  0.12825931053E+02  0.29158366222E+01  0.33534734476E+02  0.36022162498E+02  0.10566000000E+00 0.  1.
        994    1    1    2    0    0 -0.15750993270E+02 -0.36470929480E+01  0.33184449211E+01  0.17199374161E+03  0.17120000000E+03 0.  0.
        998    1    1    2    0    0  0.29250622165E+01  0.73125632581E+00  0.14631468169E+04  0.14631840959E+04  0.10000000000E+02 0.  1.
</event>
<event>
 5    1  0.1247473E-008  0.3820452E+03  0.7957747E-01  0.3442301E+00
         13   -1    0    0    0    0  0.00000000000E+00  0.00000000000E+00  0.14999999963E+04  0.15000000000E+04  0.10566000000E+00 0.  1.
        994   -1    0    0    0    0 -0.00000000000E+00 -0.00000000000E+00  0.11368683772E-12  0.17120000000E+03  0.17120000000E+03 0.  0.
         13    1    1    2    0    0  0.10320521803E+02  0.86773545500E+01  0.27655719089E+02  0.30767834091E+02  0.10566000000E+00 0.  1.
        994    1    1    2    0    0 -0.11009282615E+02 -0.92350878524E+01  0.37902413526E+01  0.17184381595E+03  0.17120000000E+03 0.  0.
        998    1    1    2    0    0  0.68876081249E+00  0.55773330242E+00  0.14685540358E+04  0.14685883500E+04  0.10000000000E+02 0.  1.
</event>
<event>
 5    1  0.1247473E-008  0.3804142E+03  0.7957747E-01  0.3449357E+00
         13   -1    0    0    0    0  0.00000000000E+00  0.00000000000E+00  0.14999999963E+04  0.15000000000E+04  0.10566000000E+00 0. -1.
        994   -1    0    0    0    0 -0.00000000000E+00 -0.00000000000E+00  0.11368683772E-12  0.17120000000E+03  0.17120000000E+03 0.  0.
         13    1    1    2    0    0  0.20973723451E+02 -0.13772958297E+03  0.53274351260E+03  0.55065869327E+03  0.10566000000E+00 0. -1.
        994    1    1    2    0    0  0.32160570418E+02  0.10272368843E+03  0.59914743857E+02  0.21091627482E+03  0.17120000000E+03 0.  0.
        998    1    1    2    0    0 -0.53134293869E+02  0.35005894538E+02  0.90734173983E+03  0.90962503190E+03  0.10000000000E+02 0. -1.
</event>
<event>
 5    1  0.1247473E-008  0.3851726E+03  0.7957747E-01  0.3428940E+00
         13   -1    0    0    0    0  0.00000000000E+00  0.00000000000E+00  0.14999999963E+04  0.15000000000E+04  0.10566000000E+00 0.  1.
        994   -1    0    0    0    0 -0.00000000000E+00 -0.00000000000E+00  0.11368683772E-12  0.17120000000E+03  0.17120000000E+03 0.  0.
         13    1    1    2    0    0  0.87490570025E+01 -0.57998433718E+01  0.35195895680E+02  0.36728005913E+02  0.10566000000E+00 0.  1.
        994    1    1    2    0    0 -0.43442678925E+01  0.10366255209E+02  0.19598007998E+01  0.17157975618E+03  0.17120000000E+03 0.  0.
        998    1    1    2    0    0 -0.44047891100E+01 -0.45664118371E+01  0.14628442998E+04  0.14628922379E+04  0.10000000000E+02 0.  1.
</event>
<event>
 5    1  0.1247473E-008  0.3785346E+03  0.7957747E-01  0.3457564E+00
         13   -1    0    0    0    0  0.00000000000E+00  0.00000000000E+00  0.14999999963E+04  0.15000000000E+04  0.10566000000E+00 0.  1.
        994   -1    0    0    0    0 -0.00000000000E+00 -0.00000000000E+00  0.11368683772E-12  0.17120000000E+03  0.17120000000E+03 0.  0.
         13    1    1    2    0    0 -0.53520882172E+02  0.53655211883E+02  0.40078561485E+03  0.40788783608E+03  0.10566000000E+00 0.  1.
        994    1    1    2    0    0  0.50190210912E+02 -0.66492063728E+02  0.28553800624E+02  0.19252275538E+03  0.17120000000E+03 0.  0.
        998    1    1    2    0    0  0.33306712601E+01  0.12836851844E+02  0.10706605808E+04  0.10707894085E+04  0.10000000000E+02 0.  1.
</event>
<event>
 5    1  0.1247473E-008  0.3002212E+03  0.7957747E-01  0.3894441E+00
         13   -1    0    0    0    0  0.00000000000E+00  0.00000000000E+00  0.14999999963E+04  0.15000000000E+04  0.10566000000E+00 0. -1.
        994   -1    0    0    0    0 -0.00000000000E+00 -0.00000000000E+00  0.11368683772E-12  0.17120000000E+03  0.17120000000E+03 0.  0.
         13    1    1    2    0    0  0.36195294374E+02  0.18819308826E+03  0.59506464490E+03  0.62516292322E+03  0.10566000000E+00 0. -1.
        994    1    1    2    0    0 -0.46740097468E+02 -0.20893784643E+03  0.19682700494E+03  0.33747588100E+03  0.17120000000E+03 0.  0.
        998    1    1    2    0    0  0.10544803094E+02  0.20744758170E+02  0.70810834644E+03  0.70856119578E+03  0.10000000000E+02 0. -1.
</event>
<event>
 5    1  0.1247473E-008  0.3773186E+03  0.7957747E-01  0.3462917E+00
         13   -1    0    0    0    0  0.00000000000E+00  0.00000000000E+00  0.14999999963E+04  0.15000000000E+04  0.10566000000E+00 0.  1.
        994   -1    0    0    0    0 -0.00000000000E+00 -0.00000000000E+00  0.11368683772E-12  0.17120000000E+03  0.17120000000E+03 0.  0.
         13    1    1    2    0    0 -0.41630873780E+02 -0.45960184381E+02  0.26475056450E+03  0.27191605463E+03  0.10566000000E+00 0.  1.
        994    1    1    2    0    0  0.47401162679E+02  0.55198627931E+02  0.23561257202E+02  0.18750555082E+03  0.17120000000E+03 0.  0.
        998    1    1    2    0    0 -0.57702888988E+01 -0.92384435498E+01  0.12116881746E+04  0.12117783945E+04  0.10000000000E+02 0.  1.
</event>
<event>
 5    1  0.1247473E-008  0.3841477E+03  0.7957747E-01  0.3433295E+00
         13   -1    0    0    0    0  0.00000000000E+00  0.00000000000E+00  0.14999999963E+04  0.15000000000E+04  0.10566000000E+00 0. -1.
        994   -1    0    0    0    0 -0.00000000000E+00 -0.00000000000E+00  0.11368683772E-12  0.17120000000E+03  0.17120000000E+03 0.  0.
         13    1    1    2    0    0  0.23739945672E+01  0.20176219170E+02  0.11837890329E+03  0.12010949829E+03  0.10566000000E+00 0. -1.
        994    1    1    2    0    0 -0.49935001125E+02  0.99296732985E+01  0.10649300682E+02  0.17892722083E+03  0.17120000000E+03 0.  0.
        998    1    1    2    0    0  0.47561006558E+02 -0.30105892469E+02  0.13709717923E+04  0.13721632809E+04  0.10000000000E+02 0. -1.
</event>
<event>
 5    1  0.1247473E-008  0.3815762E+03  0.7957747E-01  0.3444324E+00
         13   -1    0    0    0    0  0.00000000000E+00  0.00000000000E+00  0.14999999963E+04  0.15000000000E+04  0.10566000000E+00 0. -1.
        994   -1    0    0    0    0 -0.00000000000E+00 -0.00000000000E+00  0.11368683772E-12  0.17120000000E+03  0.17120000000E+03 0.  0.
         13    1    1    2    0    0 -0.47343707819E+02 -0.38098787735E+02  0.36258293393E+03  0.36764023099E+03  0.10566000000E+00 0. -1.
        994    1    1    2    0    0  0.41518192357E+02  0.68939180268E+02  0.25185542525E+02  0.19084056808E+03  0.17120000000E+03 0.  0.
        998    1    1    2    0    0  0.58255154621E+01 -0.30840392533E+02  0.11122315198E+04  0.11127192009E+04  0.10000000000E+02 0. -1.
</event>
<event>
 5    1  0.1247473E-008  0.3701942E+03  0.7957747E-01  0.3494999E+00
         13   -1    0    0    0    0  0.00000000000E+00  0.00000000000E+00  0.14999999963E+04  0.15000000000E+04  0.10566000000E+00 0.  1.
        994   -1    0    0    0    0 -0.00000000000E+00 -0.00000000000E+00  0.11368683772E-12  0.17120000000E+03  0.17120000000E+03 0.  0.
         13    1    1    2    0    0  0.14096839680E+02 -0.34573090593E+02  0.55132121899E+02  0.66585144824E+02  0.10566000000E+00 0.  1.
        994    1    1    2    0    0 -0.60860583655E+02  0.26510140424E+02  0.26621521412E+02  0.18553960114E+03  0.17120000000E+03 0.  0.
        998    1    1    2    0    0  0.46763743976E+02  0.80629501696E+01  0.14182463530E+04  0.14190752540E+04  0.10000000000E+02 0.  1.
</event>
<event>
 5    1  0.1247473E-008  0.3833750E+03  0.7957747E-01  0.3436593E+00
         13   -1    0    0    0    0  0.00000000000E+00  0.00000000000E+00  0.14999999963E+04  0.15000000000E+04  0.10566000000E+00 0. -1.
        994   -1    0    0    0    0 -0.00000000000E+00 -0.00000000000E+00  0.11368683772E-12  0.17120000000E+03  0.17120000000E+03 0.  0.
         13    1    1    2    0    0 -0.78531326463E+01  0.16688725048E+02  0.70364635020E+02  0.72741860449E+02  0.10566000000E+00 0. -1.
        994    1    1    2    0    0  0.18495179715E+02 -0.10281092076E+01  0.35742761355E+01  0.17223630317E+03  0.17120000000E+03 0.  0.
        998    1    1    2    0    0 -0.10642047068E+02 -0.15660615841E+02  0.14260610851E+04  0.14262218364E+04  0.10000000000E+02 0. -1.
</event>
<event>
 5    1  0.1247473E-008  0.3794559E+03  0.7957747E-01  0.3453531E+00
         13   -1    0    0    0    0  0.00000000000E+00  0.00000000000E+00  0.14999999963E+04  0.15000000000E+04  0.10566000000E+00 0.  1.
        994   -1    0    0    0    0 -0.00000000000E+00 -0.00000000000E+00  0.11368683772E-12  0.17120000000E+03  0.17120000000E+03 0.  0.
         13    1    1    2    0    0  0.18706829943E+01  0.14590067939E+02  0.23165979653E+02  0.27441634693E+02  0.10566000000E+00 0.  1.
        994    1    1    2    0    0 -0.93046813691E+01 -0.19834882829E+01  0.47112120933E+01  0.17152885134E+03  0.17120000000E+03 0.  0.
        998    1    1    2    0    0  0.74339983748E+01 -0.12606579656E+02  0.14721228045E+04  0.14722295140E+04  0.10000000000E+02 0.  1.
</event>
<event>
 5    1  0.1247473E-008  0.3776825E+03  0.7957747E-01  0.3461312E+00
         13   -1    0    0    0    0  0.00000000000E+00  0.00000000000E+00  0.14999999963E+04  0.15000000000E+04  0.10566000000E+00 0.  1.
        994   -1    0    0    0    0 -0.00000000000E+00 -0.00000000000E+00  0.11368683772E-12  0.17120000000E+03  0.17120000000E+03 0.  0.
         13    1    1    2    0    0 -0.94960944343E+01 -0.15803498799E+02  0.29211310421E+02  0.34543280162E+02  0.10566000000E+00 0.  1.
        994    1    1    2    0    0  0.96773558856E+01  0.17830705957E+02  0.66953641865E+01  0.17252783310E+03  0.17120000000E+03 0.  0.
        998    1    1    2    0    0 -0.18126145124E+00 -0.20272071580E+01  0.14640933217E+04  0.14641288867E+04  0.10000000000E+02 0.  1.
</event>
<event>
 5    1  0.1643234E-008  0.3861445E+03  0.7957747E-01  0.3424833E+00
         13   -1    0    0    0    0  0.00000000000E+00  0.00000000000E+00  0.14999999963E+04  0.15000000000E+04  0.10566000000E+00 0. -1.
        994   -1    0    0    0    0 -0.00000000000E+00 -0.00000000000E+00  0.11368683772E-12  0.17120000000E+03  0.17120000000E+03 0.  0.
         13    1    1    2    0    0  0.53189109447E+01 -0.10743234709E+02  0.65746002651E+02  0.66830052628E+02  0.10566000000E+00 0. -1.
        994    1    1    2    0    0 -0.71941769143E+01  0.11347266043E+02  0.16546742300E+01  0.17173437214E+03  0.17120000000E+03 0.  0.
        998    1    1    2    0    0  0.18752659696E+01 -0.60403133395E+00  0.14325993194E+04  0.14326355752E+04  0.10000000000E+02 0. -1.
</event>
<event>
 5    1  0.1247473E-008  0.3844020E+03  0.7957747E-01  0.3432212E+00
         13   -1    0    0    0    0  0.00000000000E+00  0.00000000000E+00  0.14999999963E+04  0.15000000000E+04  0.10566000000E+00 0. -1.
        994   -1    0    0    0    0 -0.00000000000E+00 -0.00000000000E+00  0.11368683772E-12  0.17120000000E+03  0.17120000000E+03 0.  0.
         13    1    1    2    0    0  0.35544146027E-01  0.14768648298E+02  0.54988448213E+02  0.56937288633E+02  0.10566000000E+00 0. -1.
        994    1    1    2    0    0 -0.17705637179E+01 -0.14101309375E+02  0.25931562390E+01  0.17180845812E+03  0.17120000000E+03 0.  0.
        998    1    1    2    0    0  0.17350195719E+01 -0.66733892286E+00  0.14424183918E+04  0.14424542532E+04  0.10000000000E+02 0. -1.
</event>
<event>
 5    1  0.1247473E-008  0.3719087E+03  0.7957747E-01  0.3487165E+00
         13   -1    0    0    0    0  0.00000000000E+00  0.00000000000E+00  0.14999999963E+04  0.15000000000E+04  0.10566000000E+00 0. -1.
        994   -1    0    0    0    0 -0.00000000000E+00 -0.00000000000E+00  0.11368683772E-12  0.17120000000E+03  0.17120000000E+03 0.  0.
         13    1    1    2    0    0 -0.35980455382E+02  0.83581532456E+01  0.53660716733E+02  0.65145495466E+02  0.10566000000E+00 0. -1.
        994    1    1    2    0    0  0.14727101105E+02 -0.14705768526E+02  0.13477556943E+02  0.17298621817E+03  0.17120000000E+03 0.  0.
        998    1    1    2    0    0  0.21253354277E+02  0.63476152809E+01  0.14328617226E+04  0.14330682864E+04  0.10000000000E+02 0. -1.
</event>
<event>
 5    1  0.1247473E-008  0.3812405E+03  0.7957747E-01  0.3445775E+00
         13   -1    0    0    0    0  0.00000000000E+00  0.00000000000E+00  0.14999999963E+04  0.15000000000E+04  0.10566000000E+00 0.  1.
        994   -1    0    0    0    0 -0.00000000000E+00 -0.00000000000E+00  0.11368683772E-12  0.17120000000E+03  0.17120000000E+03 0.  0.
         13    1    1    2    0    0  0.35961719909E+02  0.19202540489E+03  0.10909613327E+04  0.11083156779E+04  0.10566000000E+00 0.  1.
        994    1    1    2    0    0 -0.13861410040E+02 -0.19988876175E+03  0.15130435121E+03  0.30389159655E+03  0.17120000000E+03 0.  0.
        998    1    1    2    0    0 -0.22100309869E+02  0.78633568622E+01  0.25773431241E+03  0.25899272552E+03  0.10000000000E+02 0.  1.
</event>
<event>
 5    1  0.1247473E-008  0.3804128E+03  0.7957747E-01  0.3449363E+00
         13   -1    0    0    0    0  0.00000000000E+00  0.00000000000E+00  0.14999999963E+04  0.15000000000E+04  0.10566000000E+00 0. -1.
        994   -1    0    0    0    0 -0.00000000000E+00 -0.00000000000E+00  0.11368683772E-12  0.17120000000E+03  0.17120000000E+03 0.  0.
         13    1    1    2    0    0 -0.20739937720E+02 -0.30636422670E+02  0.11209620576E+03  0.11804366108E+03  0.10566000000E+00 0. -1.
        994    1    1    2    0    0  0.66041140068E+02  0.79969814323E+02  0.40711707364E+02  0.20426327742E+03  0.17120000000E+03 0.  0.
        998    1    1    2    0    0 -0.45301202348E+02 -0.49333391653E+02  0.13471920832E+04  0.13488930615E+04  0.10000000000E+02 0. -1.
</event>
<event>
 5    1  0.1247473E-008  0.3896917E+03  0.7957747E-01  0.3410015E+00
         13   -1    0    0    0    0  0.00000000000E+00  0.00000000000E+00  0.14999999963E+04  0.15000000000E+04  0.10566000000E+00 0. -1.
        994   -1    0    0    0    0 -0.00000000000E+00 -0.00000000000E+00  0.11368683772E-12  0.17120000000E+03  0.17120000000E+03 0.  0.
         13    1    1    2    0    0 -0.61008214122E+02 -0.32623334166E+02  0.10822310033E+03  0.12844662211E+03  0.10566000000E+00 0. -1.
        994    1    1    2    0    0  0.25522632272E+02  0.19743050937E+02  0.25678179005E+02  0.17609656923E+03  0.17120000000E+03 0.  0.
        998    1    1    2    0    0  0.35485581850E+02  0.12880283230E+02  0.13660987169E+04  0.13666568087E+04  0.10000000000E+02 0. -1.
</event>
<event>
 5    1  0.1247473E-008  0.3860544E+03  0.7957747E-01  0.3425213E+00
         13   -1    0    0    0    0  0.00000000000E+00  0.00000000000E+00  0.14999999963E+04  0.15000000000E+04  0.10566000000E+00 0. -1.
        994   -1    0    0    0    0 -0.00000000000E+00 -0.00000000000E+00  0.11368683772E-12  0.17120000000E+03  0.17120000000E+03 0.  0.
         13    1    1    2    0    0 -0.14866616720E+02  0.86240469699E+01 -0.14507516210E+01  0.17248371608E+02  0.10566000000E+00 0. -1.
        994    1    1    2    0    0  0.16242852222E+02 -0.14521446999E+02  0.21454584391E+02  0.17390929205E+03  0.17120000000E+03 0.  0.
        998    1    1    2    0    0 -0.13762355022E+01  0.58974000288E+01  0.14799961635E+04  0.14800423363E+04  0.10000000000E+02 0. -1.
</event>
<event>
 5    1  0.1247473E-008  0.3706806E+03  0.7957747E-01  0.3492769E+00
         13   -1    0    0    0    0  0.00000000000E+00  0.00000000000E+00  0.14999999963E+04  0.15000000000E+04  0.10566000000E+00 0. -1.
        994   -1    0    0    0    0 -0.00000000000E+00 -0.00000000000E+00  0.11368683772E-12  0.17120000000E+03  0.17120000000E+03 0.  0.
         13    1    1    2    0    0 -0.44243007944E+02 -0.47095578451E+02  0.28148823632E+03  0.28880975678E+03  0.10566000000E+00 0. -1.
        994    1    1    2    0    0  0.47090961290E+01  0.61052429685E+01  0.91188590688E+01  0.17161597586E+03  0.17120000000E+03 0.  0.
        998    1    1    2    0    0  0.39533911815E+02  0.40990335483E+02  0.12093929009E+04  0.12107742674E+04  0.10000000000E+02 0. -1.
</event>
<event>
 5    1  0.1252528E-008  0.3844114E+03  0.7957747E-01  0.3432173E+00
         13   -1    0    0    0    0  0.00000000000E+00  0.00000000000E+00  0.14999999963E+04  0.15000000000E+04  0.10566000000E+00 0.  1.
        994   -1    0    0    0    0 -0.00000000000E+00 -0.00000000000E+00  0.11368683772E-12  0.17120000000E+03  0.17120000000E+03 0.  0.
         13    1    1    2    0    0 -0.10277940791E+02 -0.65606989867E+01  0.36497774641E+02  0.38480872598E+02  0.10566000000E+00 0.  1.
        994    1    1    2    0    0  0.15957502378E+02  0.10171255249E+02  0.31034615597E+01  0.17227062370E+03  0.17120000000E+03 0.  0.
        998    1    1    2    0    0 -0.56795615871E+01 -0.36105562619E+01  0.14603987601E+04  0.14604485037E+04  0.10000000000E+02 0.  1.
</event>
<event>
 5    1  0.1247473E-008  0.3796962E+03  0.7957747E-01  0.3452482E+00
         13   -1    0    0    0    0  0.00000000000E+00  0.00000000000E+00  0.14999999963E+04  0.15000000000E+04  0.10566000000E+00 0. -1.
        994   -1    0    0    0    0 -0.00000000000E+00 -0.00000000000E+00  0.11368683772E-12  0.17120000000E+03  0.17120000000E+03 0.  0.
         13    1    1    2    0    0 -0.59084655479E+02  0.50563950380E+02  0.20065064150E+03  0.21519386768E+03  0.10566000000E+00 0. -1.
        994    1    1    2    0    0  0.23137759622E+02 -0.12383131777E+02  0.18657078685E+02  0.17420167754E+03  0.17120000000E+03 0.  0.
        998    1    1    2    0    0  0.35946895857E+02 -0.38180818603E+02  0.12806922761E+04  0.12818044548E+04  0.10000000000E+02 0. -1.
</event>
<event>
 5    1  0.1247473E-008  0.3846318E+03  0.7957747E-01  0.3431235E+00
         13   -1    0    0    0    0  0.00000000000E+00  0.00000000000E+00  0.14999999963E+04  0.15000000000E+04  0.10566000000E+00 0. -1.
        994   -1    0    0    0    0 -0.00000000000E+00 -0.00000000000E+00  0.11368683772E-12  0.17120000000E+03  0.17120000000E+03 0.  0.
         13    1    1    2    0    0 -0.23784231147E+01  0.17819110423E+02  0.84453499331E+02  0.86345713884E+02  0.10566000000E+00 0. -1.
        994    1    1    2    0    0  0.23685639393E+01 -0.19076124910E+02  0.30306146125E+01  0.17230244706E+03  0.17120000000E+03 0.  0.
        998    1    1    2    0    0  0.98591754078E-02  0.12570144868E+01  0.14125158823E+04  0.14125518391E+04  0.10000000000E+02 0. -1.
</event>
<event>
 5    1  0.1247473E-008  0.3856450E+03  0.7957747E-01  0.3426941E+00
         13   -1    0    0    0    0  0.00000000000E+00  0.00000000000E+00  0.14999999963E+04  0.15000000000E+04  0.10566000000E+00 0. -1.
        994   -1    0    0    0    0 -0.00000000000E+00 -0.00000000000E+00  0.11368683772E-12  0.17120000000E+03  0.17120000000E+03 0.  0.
         13    1    1    2    0    0  0.63527464229E+01  0.89656516125E+01  0.49404981752E+02  0.50612287855E+02  0.10566000000E+00 0. -1.
        994    1    1    2    0    0 -0.32421098747E+01  0.57522803433E+01  0.14533328686E+01  0.17133345319E+03  0.17120000000E+03 0.  0.
        998    1    1    2    0    0 -0.31106365482E+01 -0.14717931956E+02  0.14491416817E+04  0.14492542590E+04  0.10000000000E+02 0. -1.
</event>
<event>
 5    1  0.1247473E-008  0.3838684E+03  0.7957747E-01  0.3434486E+00
         13   -1    0    0    0    0  0.00000000000E+00  0.00000000000E+00  0.14999999963E+04  0.15000000000E+04  0.10566000000E+00 0. -1.
        994   -1    0    0    0    0 -0.00000000000E+00 -0.00000000000E+00  0.11368683772E-12  0.17120000000E+03  0.17120000000E+03 0.  0.
         13    1    1    2    0    0  0.58622228848E+01 -0.19433501128E+02  0.94511756469E+02  0.96667005220E+02  0.10566000000E+00 0. -1.
        994    1    1    2    0    0 -0.15875912443E+02  0.70687868759E+01  0.31905212428E+01  0.17210935991E+03  0.17120000000E+03 0.  0.
        998    1    1    2    0    0  0.10013689559E+02  0.12364714252E+02  0.14022977186E+04  0.14024236349E+04  0.10000000000E+02 0. -1.
</event>
<event>
 5    1  0.1247473E-008  0.3861788E+03  0.7957747E-01  0.3424688E+00
         13   -1    0    0    0    0  0.00000000000E+00  0.00000000000E+00  0.14999999963E+04  0.15000000000E+04  0.10566000000E+00 0.  1.
        994   -1    0    0    0    0 -0.00000000000E+00 -0.00000000000E+00  0.11368683772E-12  0.17120000000E+03  0.17120000000E+03 0.  0.
         13    1    1    2    0    0 -0.54846942607E+01  0.94143798912E+01  0.55614302443E+02  0.56671635058E+02  0.10566000000E+00 0.  1.
        994    1    1    2    0    0  0.10471919455E+02 -0.80285063825E+01  0.16166486191E+01  0.17171537952E+03  0.17120000000E+03 0.  0.
        998    1    1    2    0    0 -0.49872251944E+01 -0.13858735087E+01  0.14427690452E+04  0.14428129854E+04  0.10000000000E+02 0.  1.
</event>
<event>
 5    1  0.1247473E-008  0.3728152E+03  0.7957747E-01  0.3483052E+00
         13   -1    0    0    0    0  0.00000000000E+00  0.00000000000E+00  0.14999999963E+04  0.15000000000E+04  0.10566000000E+00 0.  1.
        994   -1    0    0    0    0 -0.00000000000E+00 -0.00000000000E+00  0.11368683772E-12  0.17120000000E+03  0.17120000000E+03 0.  0.
         13    1    1    2    0    0 -0.52084923146E+01  0.25996158408E+02  0.22148111268E+02  0.34546760209E+02  0.10566000000E+00 0.  1.
        994    1    1    2    0    0  0.14923485663E+02 -0.34133804675E+02  0.17351298441E+02  0.17606343914E+03  0.17120000000E+03 0.  0.
        998    1    1    2    0    0 -0.97149933482E+01  0.81376462668E+01  0.14605005866E+04  0.14605898006E+04  0.10000000000E+02 0.  1.
</event>
<event>
 5    1  0.1247473E-008  0.3826951E+03  0.7957747E-01  0.3439507E+00
         13   -1    0    0    0    0  0.00000000000E+00  0.00000000000E+00  0.14999999963E+04  0.15000000000E+04  0.10566000000E+00 0.  1.
        994   -1    0    0    0    0 -0.00000000000E+00 -0.00000000000E+00  0.11368683772E-12  0.17120000000E+03  0.17120000000E+03 0.  0.
         13    1    1    2    0    0  0.99576687074E+01 -0.10285206208E+02  0.37448158640E+02  0.40091350469E+02  0.10566000000E+00 0.  1.
        994    1    1    2    0    0  0.49329317875E+01  0.35692643796E+01  0.29016545785E+01  0.17133281374E+03  0.17120000000E+03 0.  0.
        998    1    1    2    0    0 -0.14890600495E+02  0.67159418286E+01  0.14596501831E+04  0.14597758358E+04  0.10000000000E+02 0.  1.
</event>
<event>
 5    1  0.1247473E-008  0.3839124E+03  0.7957747E-01  0.3434298E+00
         13   -1    0    0    0    0  0.00000000000E+00  0.00000000000E+00  0.14999999963E+04  0.15000000000E+04  0.10566000000E+00 0. -1.
        994   -1    0    0    0    0 -0.00000000000E+00 -0.00000000000E+00  0.11368683772E-12  0.17120000000E+03  0.17120000000E+03 0.  0.
         13    1    1    2    0    0 -0.39132471215E+01 -0.16443386699E+02  0.63289136359E+02  0.65507437854E+02  0.10566000000E+00 0. -1.
        994    1    1    2    0    0  0.49308903678E+01  0.16130733390E+02  0.31106249994E+01  0.17205705515E+03  0.17120000000E+03 0.  0.
        998    1    1    2    0    0 -0.10176432463E+01  0.31265330902E+00  0.14336002349E+04  0.14336355070E+04  0.10000000000E+02 0. -1.
</event>
<event>
 5    1  0.1247473E-008  0.3822632E+03  0.7957747E-01  0.3441363E+00
         13   -1    0    0    0    0  0.00000000000E+00  0.00000000000E+00  0.14999999963E+04  0.15000000000E+04  0.10566000000E+00 0.  1.
        994   -1    0    0    0    0 -0.00000000000E+00 -0.00000000000E+00  0.11368683772E-12  0.17120000000E+03  0.17120000000E+03 0.  0.
         13    1    1    2    0    0  0.92431506057E+01 -0.41351981462E+01  0.15716766547E+02  0.18696620325E+02  0.10566000000E+00 0.  1.
        994    1    1    2    0    0 -0.11640869315E+02  0.22966599626E+01  0.34622971214E+01  0.17164559996E+03  0.17120000000E+03 0.  0.
        998    1    1    2    0    0  0.23977187095E+01  0.18385381836E+01  0.14808209326E+04  0.14808577797E+04  0.10000000000E+02 0.  1.
</event>
<event>
 5    1  0.1247473E-008  0.3845997E+03  0.7957747E-01  0.3431372E+00
         13   -1    0    0    0    0  0.00000000000E+00  0.00000000000E+00  0.14999999963E+04  0.15000000000E+04  0.10566000000E+00 0. -1.
        994   -1    0    0    0    0 -0.00000000000E+00 -0.00000000000E+00  0.11368683772E-12  0.17120000000E+03  0.17120000000E+03 0.  0.
         13    1    1    2    0    0  0.21922555130E+02 -0.58617241338E+01  0.12649321630E+03  0.12851265762E+03  0.10566000000E+00 0. -1.
        994    1    1    2    0    0 -0.27509771178E+02  0.11630696923E+01  0.43295173526E+01  0.17345410045E+03  0.17120000000E+03 0.  0.
        998    1    1    2    0    0  0.55872160481E+01  0.46986544415E+01  0.13691772626E+04  0.13692332419E+04  0.10000000000E+02 0. -1.
</event>
<event>
 5    1  0.1247473E-008  0.3832219E+03  0.7957747E-01  0.3437249E+00
         13   -1    0    0    0    0  0.00000000000E+00  0.00000000000E+00  0.14999999963E+04  0.15000000000E+04  0.10566000000E+00 0.  1.
        994   -1    0    0    0    0 -0.00000000000E+00 -0.00000000000E+00  0.11368683772E-12  0.17120000000E+03  0.17120000000E+03 0.  0.
         13    1    1    2    0    0  0.23379741724E+01  0.10713685000E+02  0.22953896968E+02  0.25438980317E+02  0.10566000000E+00 0.  1.
        994    1    1    2    0    0 -0.23954623147E+01 -0.81109658601E+01  0.27521540087E+01  0.17143086174E+03  0.17120000000E+03 0.  0.
        998    1    1    2    0    0  0.57488142282E-01 -0.26027191402E+01  0.14742939453E+04  0.14743301579E+04  0.10000000000E+02 0.  1.
</event>
<event>
 5    1  0.1247473E-008  0.3837036E+03  0.7957747E-01  0.3435189E+00
         13   -1    0    0    0    0  0.00000000000E+00  0.00000000000E+00  0.14999999963E+04  0.15000000000E+04  0.10566000000E+00 0. -1.
        994   -1    0    0    0    0 -0.00000000000E+00 -0.00000000000E+00  0.11368683772E-12  0.17120000000E+03  0.17120000000E+03 0.  0.
         13    1    1    2    0    0  0.79695879864E+01 -0.16556464570E+02  0.73059791056E+02  0.75335085351E+02  0.10566000000E+00 0. -1.
        994    1    1    2    0    0 -0.69019420333E+01  0.11399793974E+02  0.28618684828E+01  0.17174173167E+03  0.17120000000E+03 0.  0.
        998    1    1    2    0    0 -0.10676459530E+01  0.51566705959E+01  0.14240783367E+04  0.14241231830E+04  0.10000000000E+02 0. -1.
</event>
<event>
 5    1  0.1247473E-008  0.3781916E+03  0.7957747E-01  0.3459071E+00
         13   -1    0    0    0    0  0.00000000000E+00  0.00000000000E+00  0.14999999963E+04  0.15000000000E+04  0.10566000000E+00 0. -1.
        994   -1    0    0    0    0 -0.00000000000E+00 -0.00000000000E+00  0.11368683772E-12  0.17120000000E+03  0.17120000000E+03 0.  0.
         13    1    1    2    0    0 -0.27988800123E+02 -0.10382929504E+00  0.72951453005E+02  0.78136479140E+02  0.10566000000E+00 0. -1.
        994    1    1    2    0    0  0.26717775304E+02  0.17545427597E+01  0.74635868858E+01  0.17344181464E+03  0.17120000000E+03 0.  0.
        998    1    1    2    0    0  0.12710248183E+01 -0.16507134647E+01  0.14195849564E+04  0.14196217062E+04  0.10000000000E+02 0. -1.
</event>
<event>
 5    1  0.1247473E-008  0.3849540E+03  0.7957747E-01  0.3429867E+00
         13   -1    0    0    0    0  0.00000000000E+00  0.00000000000E+00  0.14999999963E+04  0.15000000000E+04  0.10566000000E+00 0.  1.
        994   -1    0    0    0    0 -0.00000000000E+00 -0.00000000000E+00  0.11368683772E-12  0.17120000000E+03  0.17120000000E+03 0.  0.
         13    1    1    2    0    0 -0.32468742768E-01 -0.17290711162E+02  0.86501512173E+02  0.88212768458E+02  0.10566000000E+00 0.  1.
        994    1    1    2    0    0 -0.14817066601E+01  0.17373273757E+02  0.26536011052E+01  0.17210609430E+03  0.17120000000E+03 0.  0.
        998    1    1    2    0    0  0.15141754029E+01 -0.82562594863E-01  0.14108448830E+04  0.14108811372E+04  0.10000000000E+02 0.  1.
</event>
<event>
 5    1  0.1247473E-008  0.3810349E+03  0.7957747E-01  0.3446665E+00
         13   -1    0    0    0    0  0.00000000000E+00  0.00000000000E+00  0.14999999963E+04  0.15000000000E+04  0.10566000000E+00 0. -1.
        994   -1    0    0    0    0 -0.00000000000E+00 -0.00000000000E+00  0.11368683772E-12  0.17120000000E+03  0.17120000000E+03 0.  0.
         13    1    1    2    0    0  0.15859826228E+02 -0.34699163582E+01  0.37161314305E+02  0.40553037524E+02  0.10566000000E+00 0. -1.
        994    1    1    2    0    0  0.35545114952E+01 -0.77811404238E+01  0.38554770360E+01  0.17145694912E+03  0.17120000000E+03 0.  0.
        998    1    1    2    0    0 -0.19414337723E+02  0.11251056782E+02  0.14589832049E+04  0.14591900134E+04  0.10000000000E+02 0. -1.
</event>
<event>
 5    1  0.1247473E-008  0.3772246E+03  0.7957747E-01  0.3463333E+00
         13   -1    0    0    0    0  0.00000000000E+00  0.00000000000E+00  0.14999999963E+04  0.15000000000E+04  0.10566000000E+00 0. -1.
        994   -1    0    0    0    0 -0.00000000000E+00 -0.00000000000E+00  0.11368683772E-12  0.17120000000E+03  0.17120000000E+03 0.  0.
         13    1    1    2    0    0  0.11174626775E+02 -0.21844583973E+01  0.92047251071E+01  0.14641798741E+02  0.10566000000E+00 0. -1.
        994    1    1    2    0    0 -0.75502893814E+01  0.39353195867E+01  0.57853902772E+01  0.17150919611E+03  0.17120000000E+03 0.  0.
        998    1    1    2    0    0 -0.36243373934E+01 -0.17508611894E+01  0.14850098809E+04  0.14850490051E+04  0.10000000000E+02 0. -1.
</event>
<event>
 5    1  0.1247473E-008  0.3850841E+03  0.7957747E-01  0.3429315E+00
         13   -1    0    0    0    0  0.00000000000E+00  0.00000000000E+00  0.14999999963E+04  0.15000000000E+04  0.10566000000E+00 0.  1.
        994   -1    0    0    0    0 -0.00000000000E+00 -0.00000000000E+00  0.11368683772E-12  0.17120000000E+03  0.17120000000E+03 0.  0.
         13    1    1    2    0    0 -0.13333481853E+02 -0.68437707805E+01  0.69338152245E+02  0.70939477427E+02  0.10566000000E+00 0.  1.
        994    1    1    2    0    0  0.13369682241E+02  0.24124856199E+01  0.21954267314E+01  0.17175222965E+03  0.17120000000E+03 0.  0.
        998    1    1    2    0    0 -0.36200387979E-01  0.44312851606E+01  0.14284664173E+04  0.14285082929E+04  0.10000000000E+02 0.  1.
</event>
<event>
 5    1  0.1247473E-008  0.3690600E+03  0.7957747E-01  0.3500222E+00
         13   -1    0    0    0    0  0.00000000000E+00  0.00000000000E+00  0.14999999963E+04  0.15000000000E+04  0.10566000000E+00 0. -1.
        994   -1    0    0    0    0 -0.00000000000E+00 -0.00000000000E+00  0.11368683772E-12  0.17120000000E+03  0.17120000000E+03 0.  0.
         13    1    1    2    0    0  0.11103790570E+02 -0.25339020397E+02  0.35286274248E+02  0.44838515074E+02  0.10566000000E+00 0. -1.
        994    1    1    2    0    0 -0.16892879395E+02  0.13321674153E+02  0.11368402315E+02  0.17292055097E+03  0.17120000000E+03 0.  0.
        998    1    1    2    0    0  0.57890888255E+01  0.12017346244E+02  0.14533453197E+04  0.14534409340E+04  0.10000000000E+02 0. -1.
</event>
<event>
 5    1  0.1247473E-008  0.3729512E+03  0.7957747E-01  0.3482437E+00
         13   -1    0    0    0    0  0.00000000000E+00  0.00000000000E+00  0.14999999963E+04  0.15000000000E+04  0.10566000000E+00 0.  1.
        994   -1    0    0    0    0 -0.00000000000E+00 -0.00000000000E+00  0.11368683772E-12  0.17120000000E+03  0.17120000000E+03 0.  0.
         13    1    1    2    0    0  0.30945280031E+01  0.68545245810E+02  0.16859131595E+03  0.18201942150E+03  0.10566000000E+00 0.  1.
        994    1    1    2    0    0 -0.48671614762E+01 -0.62386663864E+02  0.26472292432E+02  0.18419013914E+03  0.17120000000E+03 0.  0.
        998    1    1    2    0    0  0.17726334730E+01 -0.61585819462E+01  0.13049363879E+04  0.13049904394E+04  0.10000000000E+02 0.  1.
</event>
<event>
 5    1  0.1247473E-008  0.3796256E+03  0.7957747E-01  0.3452791E+00
         13   -1    0    0    0    0  0.00000000000E+00  0.00000000000E+00  0.14999999963E+04  0.15000000000E+04  0.10566000000E+00 0.  1.
        994   -1    0    0    0    0 -0.00000000000E+00 -0.00000000000E+00  0.11368683772E-12  0.17120000000E+03  0.17120000000E+03 0.  0.
         13    1    1    2    0    0 -0.93371871966E+01  0.64308854108E+01  0.13161601495E+02  0.17371766457E+02  0.10566000000E+00 0.  1.
        994    1    1    2    0    0  0.88352400627E+01  0.85227352819E+01  0.48268381991E+01  0.17170741641E+03  0.17120000000E+03 0.  0.
        998    1    1    2    0    0  0.50194713388E+00 -0.14953620693E+02  0.14820115566E+04  0.14821208171E+04  0.10000000000E+02 0.  1.
</event>
<event>
 5    1  0.1247473E-008  0.3687298E+03  0.7957747E-01  0.3501749E+00
         13   -1    0    0    0    0  0.00000000000E+00  0.00000000000E+00  0.14999999963E+04  0.15000000000E+04  0.10566000000E+00 0. -1.
        994   -1    0    0    0    0 -0.00000000000E+00 -0.00000000000E+00  0.11368683772E-12  0.17120000000E+03  0.17120000000E+03 0.  0.
         13    1    1    2    0    0  0.12962402638E+02 -0.11170102106E+01  0.39134991142E+01  0.13586693245E+02  0.10566000000E+00 0. -1.
        994    1    1    2    0    0 -0.12724657829E+02  0.37977610682E+01  0.10547136039E+02  0.17203785044E+03  0.17120000000E+03 0.  0.
        998    1    1    2    0    0 -0.23774480882E+00 -0.26807508575E+01  0.14855393611E+04  0.14855754563E+04  0.10000000000E+02 0.  0.
</event>
<event>
 5    1  0.1247473E-008  0.3843278E+03  0.7957747E-01  0.3432528E+00
         13   -1    0    0    0    0  0.00000000000E+00  0.00000000000E+00  0.14999999963E+04  0.15000000000E+04  0.10566000000E+00 0.  1.
        994   -1    0    0    0    0 -0.00000000000E+00 -0.00000000000E+00  0.11368683772E-12  0.17120000000E+03  0.17120000000E+03 0.  0.
         13    1    1    2    0    0  0.73062712003E+01 -0.99846271006E+01  0.39024841669E+02  0.40939269760E+02  0.10566000000E+00 0.  1.
        994    1    1    2    0    0  0.91042319482E+01  0.13913477427E+02  0.28759497446E+01  0.17202959914E+03  0.17120000000E+03 0.  0.
        998    1    1    2    0    0 -0.16410503149E+02 -0.39288503266E+01  0.14580992049E+04  0.14582311311E+04  0.10000000000E+02 0.  1.
</event>
<event>
 5    1  0.1247473E-008  0.3751063E+03  0.7957747E-01  0.3472747E+00
         13   -1    0    0    0    0  0.00000000000E+00  0.00000000000E+00  0.14999999963E+04  0.15000000000E+04  0.10566000000E+00 0. -1.
        994   -1    0    0    0    0 -0.00000000000E+00 -0.00000000000E+00  0.11368683772E-12  0.17120000000E+03  0.17120000000E+03 0.  0.
         13    1    1    2    0    0  0.31824451519E+02  0.11786643767E+02  0.81437932640E+02  0.88226236021E+02  0.10566000000E+00 0. -1.
        994    1    1    2    0    0 -0.29026266505E+02 -0.10351435368E+02  0.98578805281E+01  0.17423057760E+03  0.17120000000E+03 0.  0.
        998    1    1    2    0    0 -0.27981850141E+01 -0.14352083995E+01  0.14087041831E+04  0.14087431864E+04  0.10000000000E+02 0. -1.
</event>
<event>
 5    1  0.1247473E-008  0.3832744E+03  0.7957747E-01  0.3437024E+00
         13   -1    0    0    0    0  0.00000000000E+00  0.00000000000E+00  0.14999999963E+04  0.15000000000E+04  0.10566000000E+00 0. -1.
        994   -1    0    0    0    0 -0.00000000000E+00 -0.00000000000E+00  0.11368683772E-12  0.17120000000E+03  0.17120000000E+03 0.  0.
         13    1    1    2    0    0 -0.16940923631E+02 -0.19871778762E+01  0.56739902386E+02  0.59248387794E+02  0.10566000000E+00 0. -1.
        994    1    1    2    0    0  0.14615870921E+02  0.20720060594E+01  0.32103286446E+01  0.17186524693E+03  0.17120000000E+03 0.  0.
        998    1    1    2    0    0  0.23250527101E+01 -0.84828183210E-01  0.14400497652E+04  0.14400863653E+04  0.10000000000E+02 0. -1.
</event>
<event>
 5    1  0.1247473E-008  0.3740669E+03  0.7957747E-01  0.3477407E+00
         13   -1    0    0    0    0  0.00000000000E+00  0.00000000000E+00  0.14999999963E+04  0.15000000000E+04  0.10566000000E+00 0. -1.
        994   -1    0    0    0    0 -0.00000000000E+00 -0.00000000000E+00  0.11368683772E-12  0.17120000000E+03  0.17120000000E+03 0.  0.
         13    1    1    2    0    0  0.32095448389E+02  0.28188660384E+02  0.12893661560E+03  0.13582849623E+03  0.10566000000E+00 0. -1.
        994    1    1    2    0    0 -0.28226729311E+02  0.29854401311E+01  0.99108446009E+01  0.17381980883E+03  0.17120000000E+03 0.  0.
        998    1    1    2    0    0 -0.38687190779E+01 -0.31174100515E+02  0.13611525361E+04  0.13615516949E+04  0.10000000000E+02 0. -1.
</event>
<event>
 5    1  0.1247473E-008  0.3709082E+03  0.7957747E-01  0.3491727E+00
         13   -1    0    0    0    0  0.00000000000E+00  0.00000000000E+00  0.14999999963E+04  0.15000000000E+04  0.10566000000E+00 0. -1.
        994   -1    0    0    0    0 -0.00000000000E+00 -0.00000000000E+00  0.11368683772E-12  0.17120000000E+03  0.17120000000E+03 0.  0.
         13    1    1    2    0    0  0.11799127474E+02  0.38353301079E+01  0.47383998769E+01  0.13281293748E+02  0.10566000000E+00 0. -1.
        994    1    1    2    0    0 -0.96303084624E+01  0.77838841753E+01  0.93238249363E+01  0.17190027750E+03  0.17120000000E+03 0.  0.
        998    1    1    2    0    0 -0.21688190118E+01 -0.11619214283E+02  0.14859377715E+04  0.14860184287E+04  0.10000000000E+02 0. -1.
</event>
<event>
 5    1  0.1247473E-008  0.3745228E+03  0.7957747E-01  0.3475360E+00
         13   -1    0    0    0    0  0.00000000000E+00  0.00000000000E+00  0.14999999963E+04  0.15000000000E+04  0.10566000000E+00 0. -1.
        994   -1    0    0    0    0 -0.00000000000E+00 -0.00000000000E+00  0.11368683772E-12  0.17120000000E+03  0.17120000000E+03 0.  0.
         13    1    1    2    0    0  0.75102160768E+02  0.64969589075E+02  0.24164141048E+03  0.26125076934E+03  0.10566000000E+00 0. -1.
        994    1    1    2    0    0 -0.36207838803E+02 -0.17861320090E+03  0.14290322182E+03  0.28800078808E+03  0.17120000000E+03 0.  0.
        998    1    1    2    0    0 -0.38894321965E+02  0.11364361183E+03  0.11154553640E+04  0.11219484426E+04  0.10000000000E+02 0. -1.
</event>
<event>
 5    1  0.1247473E-008  0.3831806E+03  0.7957747E-01  0.3437425E+00
         13   -1    0    0    0    0  0.00000000000E+00  0.00000000000E+00  0.14999999963E+04  0.15000000000E+04  0.10566000000E+00 0. -1.
        994   -1    0    0    0    0 -0.00000000000E+00 -0.00000000000E+00  0.11368683772E-12  0.17120000000E+03  0.17120000000E+03 0.  0.
         13    1    1    2    0    0  0.78670267123E+01  0.79578046243E+01  0.23746242329E+02  0.26250941936E+02  0.10566000000E+00 0. -1.
        994    1    1    2    0    0 -0.54486082121E+01 -0.64296096543E+01  0.27711182206E+01  0.17142971244E+03  0.17120000000E+03 0.  0.
        998    1    1    2    0    0 -0.24184185002E+01 -0.15281949700E+01  0.14734826357E+04  0.14735193456E+04  0.10000000000E+02 0. -1.
</event>
<event>
 5    1  0.1247473E-008  0.3837351E+03  0.7957747E-01  0.3435055E+00
         13   -1    0    0    0    0  0.00000000000E+00  0.00000000000E+00  0.14999999963E+04  0.15000000000E+04  0.10566000000E+00 0. -1.
        994   -1    0    0    0    0 -0.00000000000E+00 -0.00000000000E+00  0.11368683772E-12  0.17120000000E+03  0.17120000000E+03 0.  0.
         13    1    1    2    0    0  0.10436715220E+02  0.12222622592E+02  0.60541232609E+02  0.62638403056E+02  0.10566000000E+00 0. -1.
        994    1    1    2    0    0  0.78215948224E+01 -0.40980444340E+01  0.25169644546E+01  0.17144604523E+03  0.17120000000E+03 0.  0.
        998    1    1    2    0    0 -0.18258310042E+02 -0.81245781576E+01  0.14369417992E+04  0.14371155517E+04  0.10000000000E+02 0. -1.
</event>
<event>
 5    1  0.1247473E-008  0.3815271E+03  0.7957747E-01  0.3444536E+00
         13   -1    0    0    0    0  0.00000000000E+00  0.00000000000E+00  0.14999999963E+04  0.15000000000E+04  0.10566000000E+00 0.  1.
        994   -1    0    0    0    0 -0.00000000000E+00 -0.00000000000E+00  0.11368683772E-12  0.17120000000E+03  0.17120000000E+03 0.  0.
         13    1    1    2    0    0  0.47723380507E+01  0.16925602910E+02  0.45983738220E+02  0.49231764026E+02  0.10566000000E+00 0.  1.
        994    1    1    2    0    0  0.28129643499E+01 -0.57686941441E+01  0.35012615215E+01  0.17135603121E+03  0.17120000000E+03 0.  0.
        998    1    1    2    0    0 -0.75853024006E+01 -0.11156908766E+02  0.14505149965E+04  0.14506122048E+04  0.10000000000E+02 0.  1.
</event>
<event>
 5    1  0.1247473E-008  0.3697964E+03  0.7957747E-01  0.3496827E+00
         13   -1    0    0    0    0  0.00000000000E+00  0.00000000000E+00  0.14999999963E+04  0.15000000000E+04  0.10566000000E+00 0. -1.
        994   -1    0    0    0    0 -0.00000000000E+00 -0.00000000000E+00  0.11368683772E-12  0.17120000000E+03  0.17120000000E+03 0.  0.
         13    1    1    2    0    0  0.62567942648E+02  0.14246450958E+02  0.21236107919E+03  0.22184442281E+03  0.10566000000E+00 0. -1.
        994    1    1    2    0    0 -0.31074090097E+02  0.62569135358E+02  0.28081476355E+02  0.18702541295E+03  0.17120000000E+03 0.  0.
        998    1    1    2    0    0 -0.31493852551E+02 -0.76815586316E+02  0.12595574407E+04  0.12623301642E+04  0.10000000000E+02 0. -1.
</event>
<event>
 5    1  0.1247473E-008  0.3789667E+03  0.7957747E-01  0.3455670E+00
         13   -1    0    0    0    0  0.00000000000E+00  0.00000000000E+00  0.14999999963E+04  0.15000000000E+04  0.10566000000E+00 0. -1.
        994   -1    0    0    0    0 -0.00000000000E+00 -0.00000000000E+00  0.11368683772E-12  0.17120000000E+03  0.17120000000E+03 0.  0.
         13    1    1    2    0    0 -0.10469969429E+02  0.11406965540E+02  0.23596365919E+02  0.28223018465E+02  0.10566000000E+00 0. -1.
        994    1    1    2    0    0  0.25876944647E+01 -0.16791913802E+02  0.56245360317E+01  0.17213291358E+03  0.17120000000E+03 0.  0.
        998    1    1    2    0    0  0.78822749640E+01  0.53849482618E+01  0.14707790943E+04  0.14708440680E+04  0.10000000000E+02 0. -1.
</event>
<event>
 5    1  0.1247473E-008  0.3763333E+03  0.7957747E-01  0.3467281E+00
         13   -1    0    0    0    0  0.00000000000E+00  0.00000000000E+00  0.14999999963E+04  0.15000000000E+04  0.10566000000E+00 0. -1.
        994   -1    0    0    0    0 -0.00000000000E+00 -0.00000000000E+00  0.11368683772E-12  0.17120000000E+03  0.17120000000E+03 0.  0.
         13    1    1    2    0    0  0.10223947876E+02  0.62886321774E+01  0.92582605648E+01  0.15159240006E+02  0.10566000000E+00 0. -1.
        994    1    1    2    0    0 -0.90522080447E+01 -0.68186469084E+01  0.64303726914E+01  0.17169515459E+03  0.17120000000E+03 0.  0.
        998    1    1    2    0    0 -0.11717398314E+01  0.53001473105E+00  0.14843113630E+04  0.14843456054E+04  0.10000000000E+02 0. -1.
</event>
<event>
 5    1  0.1247473E-008  0.3833439E+03  0.7957747E-01  0.3436726E+00
         13   -1    0    0    0    0  0.00000000000E+00  0.00000000000E+00  0.14999999963E+04  0.15000000000E+04  0.10566000000E+00 0.  1.
        994   -1    0    0    0    0 -0.00000000000E+00 -0.00000000000E+00  0.11368683772E-12  0.17120000000E+03  0.17120000000E+03 0.  0.
         13    1    1    2    0    0  0.12223601139E+02  0.13638086166E+02  0.69093099453E+02  0.71479237371E+02  0.10566000000E+00 0.  1.
        994    1    1    2    0    0 -0.77991338897E+01 -0.37332635992E+01  0.27018447293E+01  0.17143950452E+03  0.17120000000E+03 0.  0.
        998    1    1    2    0    0 -0.44244672490E+01 -0.99048225667E+01  0.14282050521E+04  0.14282812581E+04  0.10000000000E+02 0.  1.
</event>
<event>
 5    1  0.1247473E-008  0.3822058E+03  0.7957747E-01  0.3441610E+00
         13   -1    0    0    0    0  0.00000000000E+00  0.00000000000E+00  0.14999999963E+04  0.15000000000E+04  0.10566000000E+00 0. -1.
        994   -1    0    0    0    0 -0.00000000000E+00 -0.00000000000E+00  0.11368683772E-12  0.17120000000E+03  0.17120000000E+03 0.  0.
         13    1    1    2    0    0 -0.26923874179E+02  0.10073861600E+02  0.14466039597E+03  0.14748904710E+03  0.10566000000E+00 0. -1.
        994    1    1    2    0    0  0.73848908417E+01 -0.39116786843E+01  0.32555943824E+01  0.17143475942E+03  0.17120000000E+03 0.  0.
        998    1    1    2    0    0  0.19538983337E+02 -0.61621829158E+01  0.13520840059E+04  0.13522761935E+04  0.10000000000E+02 0. -1.
</event>
<event>
 5    1  0.1247473E-008  0.3842319E+03  0.7957747E-01  0.3432936E+00
         13   -1    0    0    0    0  0.00000000000E+00  0.00000000000E+00  0.14999999963E+04  0.15000000000E+04  0.10566000000E+00 0.  1.
        994   -1    0    0    0    0 -0.00000000000E+00 -0.00000000000E+00  0.11368683772E-12  0.17120000000E+03  0.17120000000E+03 0.  0.
         13    1    1    2    0    0 -0.14336400108E+02  0.68768059836E+01  0.62258053021E+02  0.64256510632E+02  0.10566000000E+00 0.  1.
        994    1    1    2    0    0  0.12910886780E+02  0.12480509161E+01  0.25668619937E+01  0.17170986404E+03  0.17120000000E+03 0.  0.
        998    1    1    2    0    0  0.14255133286E+01 -0.81248568997E+01  0.14351750813E+04  0.14352336253E+04  0.10000000000E+02 0.  1.
</event>
<event>
 5    1  0.1247473E-008  0.3792706E+03  0.7957747E-01  0.3454340E+00
         13   -1    0    0    0    0  0.00000000000E+00  0.00000000000E+00  0.14999999963E+04  0.15000000000E+04  0.10566000000E+00 0.  1.
        994   -1    0    0    0    0 -0.00000000000E+00 -0.00000000000E+00  0.11368683772E-12  0.17120000000E+03  0.17120000000E+03 0.  0.
         13    1    1    2    0    0 -0.21254284085E+02  0.15901656794E+02  0.68893430522E+02  0.73830367830E+02  0.10566000000E+00 0.  1.
        994    1    1    2    0    0  0.42650979149E+02 -0.13749444493E+02  0.11260664493E+02  0.17732567725E+03  0.17120000000E+03 0.  0.
        998    1    1    2    0    0 -0.21396695064E+02 -0.21522123014E+01  0.14198459013E+04  0.14200439549E+04  0.10000000000E+02 0.  1.
</event>
<event>
 5    1  0.1247473E-008  0.3826707E+03  0.7957747E-01  0.3439612E+00
         13   -1    0    0    0    0  0.00000000000E+00  0.00000000000E+00  0.14999999963E+04  0.15000000000E+04  0.10566000000E+00 0. -1.
        994   -1    0    0    0    0 -0.00000000000E+00 -0.00000000000E+00  0.11368683772E-12  0.17120000000E+03  0.17120000000E+03 0.  0.
         13    1    1    2    0    0 -0.13442135787E+02 -0.18950936986E+02  0.10115492348E+03  0.10378901067E+03  0.10566000000E+00 0. -1.
        994    1    1    2    0    0  0.52405273527E+01  0.33310438916E+01  0.29188188081E+01  0.17133744040E+03  0.17120000000E+03 0.  0.
        998    1    1    2    0    0  0.82016084340E+01  0.15619893094E+02  0.13959262540E+04  0.13960735489E+04  0.10000000000E+02 0. -1.
</event>
<event>
 5    1  0.1247473E-008  0.3822064E+03  0.7957747E-01  0.3441607E+00
         13   -1    0    0    0    0  0.00000000000E+00  0.00000000000E+00  0.14999999963E+04  0.15000000000E+04  0.10566000000E+00 0.  1.
        994   -1    0    0    0    0 -0.00000000000E+00 -0.00000000000E+00  0.11368683772E-12  0.17120000000E+03  0.17120000000E+03 0.  0.
         13    1    1    2    0    0 -0.57746383903E+01 -0.11582882071E+02  0.26104221892E+02  0.29136766640E+02  0.10566000000E+00 0.  1.
        994    1    1    2    0    0  0.57500551697E+01  0.13218203885E+02  0.37133589405E+01  0.17184589923E+03  0.17120000000E+03 0.  0.
        998    1    1    2    0    0  0.24583220644E-01 -0.16353218136E+01  0.14701824154E+04  0.14702173341E+04  0.10000000000E+02 0.  1.
</event>
<event>
 5    1  0.1247473E-008  0.3841872E+03  0.7957747E-01  0.3433127E+00
         13   -1    0    0    0    0  0.00000000000E+00  0.00000000000E+00  0.14999999963E+04  0.15000000000E+04  0.10566000000E+00 0.  1.
        994   -1    0    0    0    0 -0.00000000000E+00 -0.00000000000E+00  0.11368683772E-12  0.17120000000E+03  0.17120000000E+03 0.  0.
         13    1    1    2    0    0  0.73846845665E+01 -0.13557914954E+02  0.60312562187E+02  0.62257264200E+02  0.10566000000E+00 0.  1.
        994    1    1    2    0    0 -0.34090073714E+01  0.24265063705E+01  0.20919755861E+01  0.17126390637E+03  0.17120000000E+03 0.  0.
        998    1    1    2    0    0 -0.39756771951E+01  0.11131408584E+02  0.14375954585E+04  0.14376788294E+04  0.10000000000E+02 0.  1.
</event>
<event>
 5    1  0.1247473E-008  0.3810852E+03  0.7957747E-01  0.3446447E+00
         13   -1    0    0    0    0  0.00000000000E+00  0.00000000000E+00  0.14999999963E+04  0.15000000000E+04  0.10566000000E+00 0. -1.
        994   -1    0    0    0    0 -0.00000000000E+00 -0.00000000000E+00  0.11368683772E-12  0.17120000000E+03  0.17120000000E+03 0.  0.
         13    1    1    2    0    0  0.15425026926E+02 -0.78699860986E+01  0.40615226816E+02  0.44152870238E+02  0.10566000000E+00 0. -1.
        994    1    1    2    0    0 -0.70691623220E+01  0.95480514978E+01  0.40565970820E+01  0.17165964675E+03  0.17120000000E+03 0.  0.
        998    1    1    2    0    0 -0.83558646044E+01 -0.16780653992E+01  0.14553281724E+04  0.14553874830E+04  0.10000000000E+02 0. -1.
</event>
<event>
 5    1  0.1247473E-008  0.3737677E+03  0.7957747E-01  0.3478752E+00
         13   -1    0    0    0    0  0.00000000000E+00  0.00000000000E+00  0.14999999963E+04  0.15000000000E+04  0.10566000000E+00 0. -1.
        994   -1    0    0    0    0 -0.00000000000E+00 -0.00000000000E+00  0.11368683772E-12  0.17120000000E+03  0.17120000000E+03 0.  0.
         13    1    1    2    0    0 -0.17273106162E+02 -0.43280882810E+02  0.15825502918E+03  0.16497351435E+03  0.10566000000E+00 0. -1.
        994    1    1    2    0    0 -0.35876765366E-01  0.12874263228E+02  0.78788379829E+01  0.17186408592E+03  0.17120000000E+03 0.  0.
        998    1    1    2    0    0  0.17308982928E+02  0.30406619582E+02  0.13338661291E+04  0.13343623997E+04  0.10000000000E+02 0. -1.
</event>
<event>
 5    1  0.1247473E-008  0.3820678E+03  0.7957747E-01  0.3442204E+00
         13   -1    0    0    0    0  0.00000000000E+00  0.00000000000E+00  0.14999999963E+04  0.15000000000E+04  0.10566000000E+00 0.  1.
        994   -1    0    0    0    0 -0.00000000000E+00 -0.00000000000E+00  0.11368683772E-12  0.17120000000E+03  0.17120000000E+03 0.  0.
         13    1    1    2    0    0 -0.11854183101E+02 -0.10859100538E+02  0.39742896564E+02  0.42871327398E+02  0.10566000000E+00 0.  1.
        994    1    1    2    0    0  0.13494917160E+02  0.10393634840E+02  0.40568717256E+01  0.17209311039E+03  0.17120000000E+03 0.  0.
        998    1    1    2    0    0 -0.16407340584E+01  0.46546569869E+00  0.14562002280E+04  0.14562355622E+04  0.10000000000E+02 0.  1.
</event>
<event>
 5    1  0.1247473E-008  0.3725584E+03  0.7957747E-01  0.3484215E+00
         13   -1    0    0    0    0  0.00000000000E+00  0.00000000000E+00  0.14999999963E+04  0.15000000000E+04  0.10566000000E+00 0.  1.
        994   -1    0    0    0    0 -0.00000000000E+00 -0.00000000000E+00  0.11368683772E-12  0.17120000000E+03  0.17120000000E+03 0.  0.
         13    1    1    2    0    0  0.87085247273E+01 -0.46822987914E+02  0.16902625103E+03  0.17560784521E+03  0.10566000000E+00 0.  1.
        994    1    1    2    0    0 -0.19092196710E+01 -0.81492077512E+01  0.81780390888E+01  0.17159946104E+03  0.17120000000E+03 0.  0.
        998    1    1    2    0    0 -0.67993050563E+01  0.54972195665E+02  0.13227957062E+04  0.13239926937E+04  0.10000000000E+02 0.  1.
</event>
<event>
 5    1  0.1247473E-008  0.3836188E+03  0.7957747E-01  0.3435551E+00
         13   -1    0    0    0    0  0.00000000000E+00  0.00000000000E+00  0.14999999963E+04  0.15000000000E+04  0.10566000000E+00 0.  1.
        994   -1    0    0    0    0 -0.00000000000E+00 -0.00000000000E+00  0.11368683772E-12  0.17120000000E+03  0.17120000000E+03 0.  0.
         13    1    1    2    0    0  0.78121926347E+02  0.24187960741E+02  0.20119781509E+03  0.21718348183E+03  0.10566000000E+00 0.  1.
        994    1    1    2    0    0 -0.16904682423E+02 -0.13841259201E+02  0.20084216845E+02  0.17375317122E+03  0.17120000000E+03 0.  0.
        998    1    1    2    0    0 -0.61217243924E+02 -0.10346701540E+02  0.12787179643E+04  0.12802633469E+04  0.10000000000E+02 0.  1.
</event>
<event>
 5    1  0.1247473E-008  0.3845081E+03  0.7957747E-01  0.3431761E+00
         13   -1    0    0    0    0  0.00000000000E+00  0.00000000000E+00  0.14999999963E+04  0.15000000000E+04  0.10566000000E+00 0. -1.
        994   -1    0    0    0    0 -0.00000000000E+00 -0.00000000000E+00  0.11368683772E-12  0.17120000000E+03  0.17120000000E+03 0.  0.
         13    1    1    2    0    0 -0.17378083770E+02 -0.59501992704E+01  0.86133591121E+02  0.88070479449E+02  0.10566000000E+00 0. -1.
        994    1    1    2    0    0  0.14305125773E+02  0.13748142075E+02  0.31722571145E+01  0.17237503082E+03  0.17120000000E+03 0.  0.
        998    1    1    2    0    0  0.30729579969E+01 -0.77979428048E+01  0.14106941480E+04  0.14107544897E+04  0.10000000000E+02 0. -1.
</event>
<event>
 5    1  0.1247473E-008  0.3851344E+03  0.7957747E-01  0.3429102E+00
         13   -1    0    0    0    0  0.00000000000E+00  0.00000000000E+00  0.14999999963E+04  0.15000000000E+04  0.10566000000E+00 0.  1.
        994   -1    0    0    0    0 -0.00000000000E+00 -0.00000000000E+00  0.11368683772E-12  0.17120000000E+03  0.17120000000E+03 0.  0.
         13    1    1    2    0    0 -0.91154963909E+01 -0.86645024400E+01  0.49995215176E+02  0.51552871709E+02  0.10566000000E+00 0.  1.
        994    1    1    2    0    0  0.23350139094E+01  0.12915247727E+02  0.21298576505E+01  0.17171555610E+03  0.17120000000E+03 0.  0.
        998    1    1    2    0    0  0.67804824815E+01 -0.42507452872E+01  0.14478749235E+04  0.14479315722E+04  0.10000000000E+02 0.  1.
</event>
<event>
 5    1  0.1247473E-008  0.3840467E+03  0.7957747E-01  0.3433725E+00
         13   -1    0    0    0    0  0.00000000000E+00  0.00000000000E+00  0.14999999963E+04  0.15000000000E+04  0.10566000000E+00 0. -1.
        994   -1    0    0    0    0 -0.00000000000E+00 -0.00000000000E+00  0.11368683772E-12  0.17120000000E+03  0.17120000000E+03 0.  0.
         13    1    1    2    0    0 -0.16819350764E+01 -0.15884432116E+02  0.57739717569E+02  0.59908515574E+02  0.10566000000E+00 0. -1.
        994    1    1    2    0    0 -0.19461116425E+01  0.18708865214E+02  0.32721878985E+01  0.17226130210E+03  0.17120000000E+03 0.  0.
        998    1    1    2    0    0  0.36280467190E+01 -0.28244330980E+01  0.14389880908E+04  0.14390301823E+04  0.10000000000E+02 0. -1.
</event>
<event>
 5    1  0.1247473E-008  0.3822736E+03  0.7957747E-01  0.3441318E+00
         13   -1    0    0    0    0  0.00000000000E+00  0.00000000000E+00  0.14999999963E+04  0.15000000000E+04  0.10566000000E+00 0.  1.
        994   -1    0    0    0    0 -0.00000000000E+00 -0.00000000000E+00  0.11368683772E-12  0.17120000000E+03  0.17120000000E+03 0.  0.
         13    1    1    2    0    0  0.11571765565E+02 -0.22992210142E+02  0.10462644708E+03  0.10774623928E+03  0.10566000000E+00 0.  1.
        994    1    1    2    0    0  0.26111535877E+00  0.26999511839E+02  0.54125280369E+01  0.17340062653E+03  0.17120000000E+03 0.  0.
        998    1    1    2    0    0 -0.11832880924E+02 -0.40073016965E+01  0.13899610212E+04  0.13900531342E+04  0.10000000000E+02 0.  1.
</event>
<event>
 5    1  0.1247473E-008  0.3834169E+03  0.7957747E-01  0.3436414E+00
         13   -1    0    0    0    0  0.00000000000E+00  0.00000000000E+00  0.14999999963E+04  0.15000000000E+04  0.10566000000E+00 0.  1.
        994   -1    0    0    0    0 -0.00000000000E+00 -0.00000000000E+00  0.11368683772E-12  0.17120000000E+03  0.17120000000E+03 0.  0.
         13    1    1    2    0    0  0.22251087651E+02  0.10392870628E+02  0.13344256611E+03  0.13568364778E+03  0.10566000000E+00 0.  1.
        994    1    1    2    0    0 -0.33037544943E+01 -0.59238359805E+01  0.25702349624E+01  0.17135358979E+03  0.17120000000E+03 0.  0.
        998    1    1    2    0    0 -0.18947333157E+02 -0.44690346472E+01  0.13639871952E+04  0.13641627624E+04  0.10000000000E+02 0.  1.
</event>
<event>
 5    1  0.1247473E-008  0.3692125E+03  0.7957747E-01  0.3499518E+00
         13   -1    0    0    0    0  0.00000000000E+00  0.00000000000E+00  0.14999999963E+04  0.15000000000E+04  0.10566000000E+00 0. -1.
        994   -1    0    0    0    0 -0.00000000000E+00 -0.00000000000E+00  0.11368683772E-12  0.17120000000E+03  0.17120000000E+03 0.  0.
         13    1    1    2    0    0 -0.51323821924E+02  0.50024041158E+02  0.21111918184E+03  0.22295259473E+03  0.10566000000E+00 0. -1.
        994    1    1    2    0    0  0.37091593950E+02 -0.59849605070E+02  0.28013315696E+02  0.18722165319E+03  0.17120000000E+03 0.  0.
        998    1    1    2    0    0  0.14232227974E+02  0.98255639123E+01  0.12608674987E+04  0.12610257521E+04  0.10000000000E+02 0. -1.
</event>
<event>
 5    1  0.1247473E-008  0.3690414E+03  0.7957747E-01  0.3500308E+00
         13   -1    0    0    0    0  0.00000000000E+00  0.00000000000E+00  0.14999999963E+04  0.15000000000E+04  0.10566000000E+00 0. -1.
        994   -1    0    0    0    0 -0.00000000000E+00 -0.00000000000E+00  0.11368683772E-12  0.17120000000E+03  0.17120000000E+03 0.  0.
         13    1    1    2    0    0 -0.27913332678E+01 -0.70680570549E+02  0.22406465505E+03  0.23496492377E+03  0.10566000000E+00 0. -1.
        994    1    1    2    0    0  0.92342865025E+01  0.63644205991E+02  0.24259089876E+02  0.18448252070E+03  0.17120000000E+03 0.  0.
        998    1    1    2    0    0 -0.64429532346E+01  0.70363645583E+01  0.12516762514E+04  0.12517525555E+04  0.10000000000E+02 0. -1.
</event>
<event>
 5    1  0.1247473E-008  0.3689490E+03  0.7957747E-01  0.3500735E+00
         13   -1    0    0    0    0  0.00000000000E+00  0.00000000000E+00  0.14999999963E+04  0.15000000000E+04  0.10566000000E+00 0. -1.
        994   -1    0    0    0    0 -0.00000000000E+00 -0.00000000000E+00  0.11368683772E-12  0.17120000000E+03  0.17120000000E+03 0.  0.
         13    1    1    2    0    0  0.55045783610E+01  0.77460693370E+02  0.29497838329E+03  0.30502904316E+03  0.10566000000E+00 0. -1.
        994    1    1    2    0    0  0.49024917028E+02 -0.56327792893E+02  0.29428087256E+02  0.18908123932E+03  0.17120000000E+03 0.  0.
        998    1    1    2    0    0 -0.54529495389E+02 -0.21132900477E+02  0.11755935257E+04  0.11770897175E+04  0.10000000000E+02 0. -1.
</event>
<event>
 5    1  0.1247473E-008  0.3716450E+03  0.7957747E-01  0.3488365E+00
         13   -1    0    0    0    0  0.00000000000E+00  0.00000000000E+00  0.14999999963E+04  0.15000000000E+04  0.10566000000E+00 0. -1.
        994   -1    0    0    0    0 -0.00000000000E+00 -0.00000000000E+00  0.11368683772E-12  0.17120000000E+03  0.17120000000E+03 0.  0.
         13    1    1    2    0    0  0.14040809176E+03 -0.93756198854E+02  0.54029667546E+03  0.56606109717E+03  0.10566000000E+00 0. -1.
        994    1    1    2    0    0 -0.17084580937E+03  0.91115024462E+02  0.15828051371E+03  0.30307160752E+03  0.17120000000E+03 0.  0.
        998    1    1    2    0    0  0.30437717610E+02  0.26411743918E+01  0.80142280710E+03  0.80206729531E+03  0.10000000000E+02 0. -1.
</event>
<event>
 5    1  0.1247473E-008  0.3612553E+03  0.7957747E-01  0.3537071E+00
         13   -1    0    0    0    0  0.00000000000E+00  0.00000000000E+00  0.14999999963E+04  0.15000000000E+04  0.10566000000E+00 0.  1.
        994   -1    0    0    0    0 -0.00000000000E+00 -0.00000000000E+00  0.11368683772E-12  0.17120000000E+03  0.17120000000E+03 0.  0.
         13    1    1    2    0    0 -0.11937924991E+03  0.21409292667E+03  0.12419464301E+04  0.12659060522E+04  0.10566000000E+00 0.  1.
        994    1    1    2    0    0  0.95371948401E+02 -0.17106129604E+03  0.19763512448E+03  0.32669076811E+03  0.17120000000E+03 0.  0.
        998    1    1    2    0    0  0.24007301505E+02 -0.43031630630E+02  0.60418441663E+02  0.78603179663E+02  0.10000000000E+02 0. -1.
</event>
<event>
 5    1  0.1247473E-008  0.3842239E+03  0.7957747E-01  0.3432971E+00
         13   -1    0    0    0    0  0.00000000000E+00  0.00000000000E+00  0.14999999963E+04  0.15000000000E+04  0.10566000000E+00 0.  1.
        994   -1    0    0    0    0 -0.00000000000E+00 -0.00000000000E+00  0.11368683772E-12  0.17120000000E+03  0.17120000000E+03 0.  0.
         13    1    1    2    0    0 -0.29719481396E+02  0.27362247147E+01  0.17273981419E+03  0.17529914167E+03  0.10566000000E+00 0.  1.
        994    1    1    2    0    0  0.45204697071E+02  0.28586099616E+01  0.88096234146E+01  0.17730957603E+03  0.17120000000E+03 0.  0.
        998    1    1    2    0    0 -0.15485215675E+02 -0.55948346763E+01  0.13184505587E+04  0.13185912823E+04  0.10000000000E+02 0.  1.
</event>
<event>
 5    1  0.1434752E-008  0.3860591E+03  0.7957747E-01  0.3425193E+00
         13   -1    0    0    0    0  0.00000000000E+00  0.00000000000E+00  0.14999999963E+04  0.15000000000E+04  0.10566000000E+00 0.  1.
        994   -1    0    0    0    0 -0.00000000000E+00 -0.00000000000E+00  0.11368683772E-12  0.17120000000E+03  0.17120000000E+03 0.  0.
         13    1    1    2    0    0  0.69166040198E+01 -0.99730601874E+01  0.62722151347E+02  0.63885685207E+02  0.10566000000E+00 0.  1.
        994    1    1    2    0    0 -0.11128409590E+02  0.14161486564E+02  0.21691193506E+01  0.17215845689E+03  0.17120000000E+03 0.  0.
        998    1    1    2    0    0  0.42118055702E+01 -0.41884263764E+01  0.14351087256E+04  0.14351558579E+04  0.10000000000E+02 0.  1.
</event>
<event>
 5    1  0.1551125E-008  0.3858169E+03  0.7957747E-01  0.3426215E+00
         13   -1    0    0    0    0  0.00000000000E+00  0.00000000000E+00  0.14999999963E+04  0.15000000000E+04  0.10566000000E+00 0.  1.
        994   -1    0    0    0    0 -0.00000000000E+00 -0.00000000000E+00  0.11368683772E-12  0.17120000000E+03  0.17120000000E+03 0.  0.
         13    1    1    2    0    0  0.59702590757E+01 -0.11995006703E+02  0.72817834278E+02  0.74040342599E+02  0.10566000000E+00 0.  1.
        994    1    1    2    0    0 -0.25215803109E+01  0.10820873451E+02  0.16301411327E+01  0.17156790792E+03  0.17120000000E+03 0.  0.
        998    1    1    2    0    0 -0.34486787649E+01  0.11741332521E+01  0.14255520209E+04  0.14255917495E+04  0.10000000000E+02 0.  1.
</event>
<event>
 5    1  0.1247473E-008  0.3694031E+03  0.7957747E-01  0.3498639E+00
         13   -1    0    0    0    0  0.00000000000E+00  0.00000000000E+00  0.14999999963E+04  0.15000000000E+04  0.10566000000E+00 0.  1.
        994   -1    0    0    0    0 -0.00000000000E+00 -0.00000000000E+00  0.11368683772E-12  0.17120000000E+03  0.17120000000E+03 0.  0.
         13    1    1    2    0    0 -0.13838752214E+02 -0.33086981985E+02  0.53703134166E+02  0.64577838482E+02  0.10566000000E+00 0.  1.
        994    1    1    2    0    0 -0.55489301570E+02  0.65942012285E+02  0.37004943557E+02  0.19520813872E+03  0.17120000000E+03 0.  0.
        998    1    1    2    0    0  0.69328053784E+02 -0.32855030300E+02  0.14092919186E+04  0.14114140228E+04  0.10000000000E+02 0.  1.
</event>
<event>
 5    1  0.1247473E-008  0.3746703E+03  0.7957747E-01  0.3474699E+00
         13   -1    0    0    0    0  0.00000000000E+00  0.00000000000E+00  0.14999999963E+04  0.15000000000E+04  0.10566000000E+00 0. -1.
        994   -1    0    0    0    0 -0.00000000000E+00 -0.00000000000E+00  0.11368683772E-12  0.17120000000E+03  0.17120000000E+03 0.  0.
         13    1    1    2    0    0  0.80717104972E+02  0.58642172889E+02  0.28949733516E+03  0.30620723979E+03  0.10566000000E+00 0. -1.
        994    1    1    2    0    0 -0.79187636015E+02 -0.63715523703E+02  0.51120782177E+02  0.20555564704E+03  0.17120000000E+03 0.  0.
        998    1    1    2    0    0 -0.15294689566E+01  0.50733508136E+01  0.11593818789E+04  0.11594371132E+04  0.10000000000E+02 0. -1.
</event>
<event>
 5    1  0.1247473E-008  0.3848336E+03  0.7957747E-01  0.3430378E+00
         13   -1    0    0    0    0  0.00000000000E+00  0.00000000000E+00  0.14999999963E+04  0.15000000000E+04  0.10566000000E+00 0. -1.
        994   -1    0    0    0    0 -0.00000000000E+00 -0.00000000000E+00  0.11368683772E-12  0.17120000000E+03  0.17120000000E+03 0.  0.
         13    1    1    2    0    0  0.11860128478E+02  0.83337301172E+01  0.58678726522E+02  0.60442682067E+02  0.10566000000E+00 0. -1.
        994    1    1    2    0    0 -0.94371420196E+01 -0.16103088378E+02  0.28599052499E+01  0.17223817278E+03  0.17120000000E+03 0.  0.
        998    1    1    2    0    0 -0.24229864583E+01  0.77693582603E+01  0.14384613645E+04  0.14385191452E+04  0.10000000000E+02 0. -1.
</event>
<event>
 5    1  0.3154860E-008  0.3863394E+03  0.7957747E-01  0.3424011E+00
         13   -1    0    0    0    0  0.00000000000E+00  0.00000000000E+00  0.14999999963E+04  0.15000000000E+04  0.10566000000E+00 0.  1.
        994   -1    0    0    0    0 -0.00000000000E+00 -0.00000000000E+00  0.11368683772E-12  0.17120000000E+03  0.17120000000E+03 0.  0.
         13    1    1    2    0    0  0.43104467206E-01 -0.10780610118E+02  0.60670374702E+02  0.61620848282E+02  0.10566000000E+00 0.  1.
        994    1    1    2    0    0  0.94858538284E-01  0.83552595127E+01  0.11952461240E+01  0.17140795773E+03  0.17120000000E+03 0.  0.
        998    1    1    2    0    0 -0.13796300549E+00  0.24253506048E+01  0.14381343755E+04  0.14381711940E+04  0.10000000000E+02 0.  1.
</event>
<event>
 5    1  0.1247473E-008  0.3974227E+03  0.7957747E-01  0.3378636E+00
         13   -1    0    0    0    0  0.00000000000E+00  0.00000000000E+00  0.14999999963E+04  0.15000000000E+04  0.10566000000E+00 0.  1.
        994   -1    0    0    0    0 -0.00000000000E+00 -0.00000000000E+00  0.11368683772E-12  0.17120000000E+03  0.17120000000E+03 0.  0.
         13    1    1    2    0    0 -0.48675735578E+02  0.27494469332E+02  0.46208521567E+02  0.72529385130E+02  0.10566000000E+00 0.  1.
        994    1    1    2    0    0  0.70142434937E+02 -0.26747811383E+02  0.48426752487E+02  0.19310618050E+03  0.17120000000E+03 0.  0.
        998    1    1    2    0    0 -0.21466699360E+02 -0.74665794932E+00  0.14053647222E+04  0.14055644344E+04  0.10000000000E+02 0.  1.
</event>
<event>
 5    1  0.1247473E-008  0.3806540E+03  0.7957747E-01  0.3448316E+00
         13   -1    0    0    0    0  0.00000000000E+00  0.00000000000E+00  0.14999999963E+04  0.15000000000E+04  0.10566000000E+00 0.  1.
        994   -1    0    0    0    0 -0.00000000000E+00 -0.00000000000E+00  0.11368683772E-12  0.17120000000E+03  0.17120000000E+03 0.  0.
         13    1    1    2    0    0 -0.11620055554E+02 -0.26436707062E+02  0.10072308881E+03  0.10478109063E+03  0.10566000000E+00 0.  1.
        994    1    1    2    0    0  0.10722524531E+02  0.29447729449E+02  0.70864320513E+01  0.17418897445E+03  0.17120000000E+03 0.  0.
        998    1    1    2    0    0  0.89753102274E+00 -0.30110223870E+01  0.13921904754E+04  0.13922299349E+04  0.10000000000E+02 0.  1.
</event>
<event>
 5    1  0.1247473E-008  0.3742277E+03  0.7957747E-01  0.3476684E+00
         13   -1    0    0    0    0  0.00000000000E+00  0.00000000000E+00  0.14999999963E+04  0.15000000000E+04  0.10566000000E+00 0.  1.
        994   -1    0    0    0    0 -0.00000000000E+00 -0.00000000000E+00  0.11368683772E-12  0.17120000000E+03  0.17120000000E+03 0.  0.
         13    1    1    2    0    0 -0.16726129682E+02 -0.17247141673E+01  0.16172626044E+02  0.23330303262E+02  0.10566000000E+00 0.  1.
        994    1    1    2    0    0  0.29628514627E+02  0.96514865914E+01  0.10392215619E+02  0.17432279890E+03  0.17120000000E+03 0.  0.
        998    1    1    2    0    0 -0.12902384944E+02 -0.79267724241E+01  0.14734351546E+04  0.14735468978E+04  0.10000000000E+02 0.  1.
</event>
<event>
 5    1  0.1247473E-008  0.3937133E+03  0.7957747E-01  0.3393538E+00
         13   -1    0    0    0    0  0.00000000000E+00  0.00000000000E+00  0.14999999963E+04  0.15000000000E+04  0.10566000000E+00 0. -1.
        994   -1    0    0    0    0 -0.00000000000E+00 -0.00000000000E+00  0.11368683772E-12  0.17120000000E+03  0.17120000000E+03 0.  0.
         13    1    1    2    0    0  0.10158124465E+02 -0.20674155237E+02  0.69346217607E+00  0.23045612190E+02  0.10566000000E+00 0. -1.
        994    1    1    2    0    0 -0.10608689135E+02  0.67191307518E+01  0.24676686029E+02  0.17342453643E+03  0.17120000000E+03 0.  0.
        998    1    1    2    0    0  0.45056467001E+00  0.13955024485E+02  0.14746298481E+04  0.14747298514E+04  0.10000000000E+02 0. -1.
</event>
<event>
 5    1  0.1247473E-008  0.3801434E+03  0.7957747E-01  0.3450535E+00
         13   -1    0    0    0    0  0.00000000000E+00  0.00000000000E+00  0.14999999963E+04  0.15000000000E+04  0.10566000000E+00 0. -1.
        994   -1    0    0    0    0 -0.00000000000E+00 -0.00000000000E+00  0.11368683772E-12  0.17120000000E+03  0.17120000000E+03 0.  0.
         13    1    1    2    0    0 -0.15864222531E+02  0.10280596496E+02  0.41236819160E+02  0.45363538655E+02  0.10566000000E+00 0. -1.
        994    1    1    2    0    0  0.18023205089E+02 -0.10645848814E+02  0.55262354594E+01  0.17256346455E+03  0.17120000000E+03 0.  0.
        998    1    1    2    0    0 -0.21589825578E+01  0.36525231831E+00  0.14532369417E+04  0.14532729968E+04  0.10000000000E+02 0. -1.
</event>
<event>
 5    1  0.1247473E-008  0.3761998E+03  0.7957747E-01  0.3467874E+00
         13   -1    0    0    0    0  0.00000000000E+00  0.00000000000E+00  0.14999999963E+04  0.15000000000E+04  0.10566000000E+00 0.  1.
        994   -1    0    0    0    0 -0.00000000000E+00 -0.00000000000E+00  0.11368683772E-12  0.17120000000E+03  0.17120000000E+03 0.  0.
         13    1    1    2    0    0 -0.17225753081E+02  0.87210486232E+01  0.27747863216E+02  0.33804412957E+02  0.10566000000E+00 0.  1.
        994    1    1    2    0    0  0.20588147189E+02 -0.28136687126E+01  0.75270940622E+01  0.17262064095E+03  0.17120000000E+03 0.  0.
        998    1    1    2    0    0 -0.33623941081E+01 -0.59073799106E+01  0.14647250390E+04  0.14647749461E+04  0.10000000000E+02 0.  1.
</event>
<event>
 5    1  0.1247473E-008  0.3697160E+03  0.7957747E-01  0.3497197E+00
         13   -1    0    0    0    0  0.00000000000E+00  0.00000000000E+00  0.14999999963E+04  0.15000000000E+04  0.10566000000E+00 0.  1.
        994   -1    0    0    0    0 -0.00000000000E+00 -0.00000000000E+00  0.11368683772E-12  0.17120000000E+03  0.17120000000E+03 0.  0.
         13    1    1    2    0    0  0.80098991974E+01 -0.98498753416E+02  0.34839228313E+03  0.36213720745E+03  0.10566000000E+00 0.  1.
        994    1    1    2    0    0  0.30936360770E+02  0.10004367261E+03  0.50133831330E+02  0.20685414158E+03  0.17120000000E+03 0.  0.
        998    1    1    2    0    0 -0.38946259968E+02 -0.15449191918E+01  0.11014738818E+04  0.11022086510E+04  0.10000000000E+02 0.  1.
</event>
<event>
 5    1  0.1247473E-008  0.3791017E+03  0.7957747E-01  0.3455079E+00
         13   -1    0    0    0    0  0.00000000000E+00  0.00000000000E+00  0.14999999963E+04  0.15000000000E+04  0.10566000000E+00 0. -1.
        994   -1    0    0    0    0 -0.00000000000E+00 -0.00000000000E+00  0.11368683772E-12  0.17120000000E+03  0.17120000000E+03 0.  0.
         13    1    1    2    0    0  0.70888708825E+01  0.32325978214E+02  0.11724034959E+03  0.12182172094E+03  0.10566000000E+00 0. -1.
        994    1    1    2    0    0  0.55338100730E+01 -0.22507434379E+02  0.63905701163E+01  0.17287997872E+03  0.17120000000E+03 0.  0.
        998    1    1    2    0    0 -0.12622680955E+02 -0.98185438357E+01  0.13763690766E+04  0.13764983003E+04  0.10000000000E+02 0. -1.
</event>
<event>
 5    1  0.1247473E-008  0.3739749E+03  0.7957747E-01  0.3477820E+00
         13   -1    0    0    0    0  0.00000000000E+00  0.00000000000E+00  0.14999999963E+04  0.15000000000E+04  0.10566000000E+00 0.  1.
        994   -1    0    0    0    0 -0.00000000000E+00 -0.00000000000E+00  0.11368683772E-12  0.17120000000E+03  0.17120000000E+03 0.  0.
         13    1    1    2    0    0  0.46534709340E+02 -0.54959341199E+01  0.76217279753E+02  0.89469376673E+02  0.10566000000E+00 0.  1.
        994    1    1    2    0    0 -0.44903758303E+02  0.11189490276E+01  0.20243896184E+02  0.17814840692E+03  0.17120000000E+03 0.  0.
        998    1    1    2    0    0 -0.16309510362E+01  0.43769850923E+01  0.14035388203E+04  0.14035822164E+04  0.10000000000E+02 0.  1.
</event>
<event>
 5    1  0.1247473E-008  0.3810706E+03  0.7957747E-01  0.3446510E+00
         13   -1    0    0    0    0  0.00000000000E+00  0.00000000000E+00  0.14999999963E+04  0.15000000000E+04  0.10566000000E+00 0. -1.
        994   -1    0    0    0    0 -0.00000000000E+00 -0.00000000000E+00  0.11368683772E-12  0.17120000000E+03  0.17120000000E+03 0.  0.
         13    1    1    2    0    0 -0.15260114459E+02  0.73900628413E+01  0.40130016824E+02  0.43565049483E+02  0.10566000000E+00 0. -1.
        994    1    1    2    0    0 -0.57512265753E+00 -0.35714070255E+01  0.36373018737E+01  0.17127683930E+03  0.17120000000E+03 0.  0.
        998    1    1    2    0    0  0.15835237116E+02 -0.38186558158E+01  0.14562326776E+04  0.14563581112E+04  0.10000000000E+02 0. -1.
</event>
<event>
 5    1  0.1247473E-008  0.3834365E+03  0.7957747E-01  0.3436330E+00
         13   -1    0    0    0    0  0.00000000000E+00  0.00000000000E+00  0.14999999963E+04  0.15000000000E+04  0.10566000000E+00 0. -1.
        994   -1    0    0    0    0 -0.00000000000E+00 -0.00000000000E+00  0.11368683772E-12  0.17120000000E+03  0.17120000000E+03 0.  0.
         13    1    1    2    0    0  0.29899845443E+02 -0.54069993112E+01  0.17685824580E+03  0.17944939864E+03  0.10566000000E+00 0. -1.
        994    1    1    2    0    0 -0.26884782497E+02  0.17471838412E+01  0.48112819599E+01  0.17337367913E+03  0.17120000000E+03 0.  0.
        998    1    1    2    0    0 -0.30150629463E+01  0.36598154700E+01  0.13183304685E+04  0.13183769222E+04  0.10000000000E+02 0.  0.
</event>
<event>
 5    1  0.1247473E-008  0.3837176E+03  0.7957747E-01  0.3435129E+00
         13   -1    0    0    0    0  0.00000000000E+00  0.00000000000E+00  0.14999999963E+04  0.15000000000E+04  0.10566000000E+00 0. -1.
        994   -1    0    0    0    0 -0.00000000000E+00 -0.00000000000E+00  0.11368683772E-12  0.17120000000E+03  0.17120000000E+03 0.  0.
         13    1    1    2    0    0  0.18987664188E+02  0.11625341440E+02  0.11698691758E+03  0.11908664914E+03  0.10566000000E+00 0. -1.
        994    1    1    2    0    0 -0.12899162551E+02  0.12730365049E+02  0.33536068619E+01  0.17218924841E+03  0.17120000000E+03 0.  0.
        998    1    1    2    0    0 -0.60885016361E+01 -0.24355706489E+02  0.13796594718E+04  0.13799241024E+04  0.10000000000E+02 0. -1.
</event>
<event>
 5    1  0.1247473E-008  0.3775152E+03  0.7957747E-01  0.3462050E+00
         13   -1    0    0    0    0  0.00000000000E+00  0.00000000000E+00  0.14999999963E+04  0.15000000000E+04  0.10566000000E+00 0. -1.
        994   -1    0    0    0    0 -0.00000000000E+00 -0.00000000000E+00  0.11368683772E-12  0.17120000000E+03  0.17120000000E+03 0.  0.
         13    1    1    2    0    0 -0.16151049911E+03  0.19535044725E+02  0.90549502073E+03  0.91999375162E+03  0.10566000000E+00 0. -1.
        994    1    1    2    0    0  0.15737983240E+03 -0.36885961124E+02  0.99229975358E+02  0.25550932230E+03  0.17120000000E+03 0.  0.
        998    1    1    2    0    0  0.41306667097E+01  0.17350916399E+02  0.49527500019E+03  0.49569692608E+03  0.10000000000E+02 0. -1.
</event>
<event>
 5    1  0.1247473E-008  0.3783626E+03  0.7957747E-01  0.3458319E+00
         13   -1    0    0    0    0  0.00000000000E+00  0.00000000000E+00  0.14999999963E+04  0.15000000000E+04  0.10566000000E+00 0.  1.
        994   -1    0    0    0    0 -0.00000000000E+00 -0.00000000000E+00  0.11368683772E-12  0.17120000000E+03  0.17120000000E+03 0.  0.
         13    1    1    2    0    0  0.14096520872E+02 -0.30640301660E+02  0.10234662934E+03  0.10776077064E+03  0.10566000000E+00 0.  1.
        994    1    1    2    0    0 -0.18937749126E+02  0.36336271978E+02  0.10625976545E+02  0.17635564743E+03  0.17120000000E+03 0.  0.
        998    1    1    2    0    0  0.48412282531E+01 -0.56959703185E+01  0.13870273904E+04  0.13870835819E+04  0.10000000000E+02 0.  1.
</event>
<event>
 5    1  0.1247473E-008  0.3765536E+03  0.7957747E-01  0.3466304E+00
         13   -1    0    0    0    0  0.00000000000E+00  0.00000000000E+00  0.14999999963E+04  0.15000000000E+04  0.10566000000E+00 0.  1.
        994   -1    0    0    0    0 -0.00000000000E+00 -0.00000000000E+00  0.11368683772E-12  0.17120000000E+03  0.17120000000E+03 0.  0.
         13    1    1    2    0    0 -0.46882015865E+02 -0.90832893665E+02  0.59235671300E+03  0.60111149098E+03  0.10566000000E+00 0.  1.
        994    1    1    2    0    0  0.54725570130E+02  0.77284040306E+02  0.36835876454E+02  0.19908297945E+03  0.17120000000E+03 0.  0.
        998    1    1    2    0    0 -0.78435542644E+01  0.13548853359E+02  0.87080740682E+03  0.87100552957E+03  0.10000000000E+02 0.  1.
</event>
<event>
 5    1  0.1247473E-008  0.3759516E+03  0.7957747E-01  0.3468978E+00
         13   -1    0    0    0    0  0.00000000000E+00  0.00000000000E+00  0.14999999963E+04  0.15000000000E+04  0.10566000000E+00 0. -1.
        994   -1    0    0    0    0 -0.00000000000E+00 -0.00000000000E+00  0.11368683772E-12  0.17120000000E+03  0.17120000000E+03 0.  0.
         13    1    1    2    0    0 -0.34866155714E+02  0.27743815821E+01  0.90116842278E+02  0.96666449369E+02  0.10566000000E+00 0. -1.
        994    1    1    2    0    0  0.37772970593E+02 -0.79922056084E+01  0.11258464068E+02  0.17586035844E+03  0.17120000000E+03 0.  0.
        998    1    1    2    0    0 -0.29068148792E+01  0.52178240263E+01  0.13986246899E+04  0.13986731922E+04  0.10000000000E+02 0. -1.
</event>
<event>
 5    1  0.1247473E-008  0.3821676E+03  0.7957747E-01  0.3441774E+00
         13   -1    0    0    0    0  0.00000000000E+00  0.00000000000E+00  0.14999999963E+04  0.15000000000E+04  0.10566000000E+00 0.  1.
        994   -1    0    0    0    0 -0.00000000000E+00 -0.00000000000E+00  0.11368683772E-12  0.17120000000E+03  0.17120000000E+03 0.  0.
         13    1    1    2    0    0  0.31817950179E+01 -0.10656418946E+02  0.19255415072E+02  0.22236574779E+02  0.10566000000E+00 0.  1.
        994    1    1    2    0    0  0.22165470557E+02  0.12158203708E+02  0.51671651138E+01  0.17313367552E+03  0.17120000000E+03 0.  0.
        998    1    1    2    0    0 -0.25347265575E+02 -0.15017847620E+01  0.14755774161E+04  0.14758297497E+04  0.10000000000E+02 0.  1.
</event>
<event>
 5    1  0.1247473E-008  0.3772075E+03  0.7957747E-01  0.3463408E+00
         13   -1    0    0    0    0  0.00000000000E+00  0.00000000000E+00  0.14999999963E+04  0.15000000000E+04  0.10566000000E+00 0. -1.
        994   -1    0    0    0    0 -0.00000000000E+00 -0.00000000000E+00  0.11368683772E-12  0.17120000000E+03  0.17120000000E+03 0.  0.
         13    1    1    2    0    0  0.32146788758E+02 -0.13983486416E+02  0.14319108260E+03  0.14741998243E+03  0.10566000000E+00 0. -1.
        994    1    1    2    0    0  0.10539361616E+02 -0.42234837749E+02  0.11969700850E+02  0.17705245946E+03  0.17120000000E+03 0.  0.
        998    1    1    2    0    0 -0.42686150373E+02  0.56218324165E+02  0.13448392128E+04  0.13467275581E+04  0.10000000000E+02 0. -1.
</event>
<event>
 5    1  0.1247473E-008  0.3811584E+03  0.7957747E-01  0.3446130E+00
         13   -1    0    0    0    0  0.00000000000E+00  0.00000000000E+00  0.14999999963E+04  0.15000000000E+04  0.10566000000E+00 0. -1.
        994   -1    0    0    0    0 -0.00000000000E+00 -0.00000000000E+00  0.11368683772E-12  0.17120000000E+03  0.17120000000E+03 0.  0.
         13    1    1    2    0    0  0.86768682312E+01  0.79863929914E+01  0.17835476548E+02  0.21381905973E+02  0.10566000000E+00 0. -1.
        994    1    1    2    0    0 -0.11105951965E+02 -0.90168013905E+01  0.42313509952E+01  0.17184873933E+03  0.17120000000E+03 0.  0.
        998    1    1    2    0    0  0.24290837341E+01  0.10304083992E+01  0.14779331687E+04  0.14779693547E+04  0.10000000000E+02 0. -1.
</event>
<event>
 5    1  0.1247473E-008  0.3757334E+03  0.7957747E-01  0.3469949E+00
         13   -1    0    0    0    0  0.00000000000E+00  0.00000000000E+00  0.14999999963E+04  0.15000000000E+04  0.10566000000E+00 0. -1.
        994   -1    0    0    0    0 -0.00000000000E+00 -0.00000000000E+00  0.11368683772E-12  0.17120000000E+03  0.17120000000E+03 0.  0.
         13    1    1    2    0    0  0.30326704625E+02 -0.19172690330E+02  0.41226497358E+02  0.54652871072E+02  0.10566000000E+00 0. -1.
        994    1    1    2    0    0 -0.48247395036E+01  0.27061723815E+02  0.16703562165E+02  0.17419547639E+03  0.17120000000E+03 0.  0.
        998    1    1    2    0    0 -0.25501965122E+02 -0.78890334848E+01  0.14420699368E+04  0.14423516525E+04  0.10000000000E+02 0. -1.
</event>
<event>
 5    1  0.1247473E-008  0.3823082E+03  0.7957747E-01  0.3441169E+00
         13   -1    0    0    0    0  0.00000000000E+00  0.00000000000E+00  0.14999999963E+04  0.15000000000E+04  0.10566000000E+00 0. -1.
        994   -1    0    0    0    0 -0.00000000000E+00 -0.00000000000E+00  0.11368683772E-12  0.17120000000E+03  0.17120000000E+03 0.  0.
         13    1    1    2    0    0  0.19902959524E+03  0.17571735849E+03  0.82935300829E+03  0.87081329422E+03  0.10566000000E+00 0. -1.
        994    1    1    2    0    0 -0.23303131721E+03 -0.18819688841E+03  0.40471481993E+03  0.53181311480E+03  0.17120000000E+03 0.  0.
        998    1    1    2    0    0  0.34001721969E+02  0.12479529918E+02  0.26593216806E+03  0.26857359098E+03  0.10000000000E+02 0.  1.
</event>
<event>
 5    1  0.1247473E-008  0.3852602E+03  0.7957747E-01  0.3428570E+00
         13   -1    0    0    0    0  0.00000000000E+00  0.00000000000E+00  0.14999999963E+04  0.15000000000E+04  0.10566000000E+00 0. -1.
        994   -1    0    0    0    0 -0.00000000000E+00 -0.00000000000E+00  0.11368683772E-12  0.17120000000E+03  0.17120000000E+03 0.  0.
         13    1    1    2    0    0 -0.22828206081E+01  0.99719591910E+01  0.34131727246E+02  0.35631968917E+02  0.10566000000E+00 0. -1.
        994    1    1    2    0    0 -0.52961228339E+01 -0.12453241875E+02  0.21030108751E+01  0.17174689169E+03  0.17120000000E+03 0.  0.
        998    1    1    2    0    0  0.75789434420E+01  0.24812826842E+01  0.14637652582E+04  0.14638211394E+04  0.10000000000E+02 0. -1.
</event>
<event>
 5    1  0.1247473E-008  0.3750401E+03  0.7957747E-01  0.3473043E+00
         13   -1    0    0    0    0  0.00000000000E+00  0.00000000000E+00  0.14999999963E+04  0.15000000000E+04  0.10566000000E+00 0.  1.
        994   -1    0    0    0    0 -0.00000000000E+00 -0.00000000000E+00  0.11368683772E-12  0.17120000000E+03  0.17120000000E+03 0.  0.
         13    1    1    2    0    0  0.25564638680E+02  0.39423601577E+02  0.15362734991E+03  0.16065224840E+03  0.10566000000E+00 0.  1.
        994    1    1    2    0    0 -0.22227827060E+02 -0.33005538760E+02  0.12058868368E+02  0.17617689460E+03  0.17120000000E+03 0.  0.
        998    1    1    2    0    0 -0.33368116205E+01 -0.64180628163E+01  0.13343137780E+04  0.13343708570E+04  0.10000000000E+02 0.  1.
</event>
<event>
 5    1  0.1247473E-008  0.3830054E+03  0.7957747E-01  0.3438176E+00
         13   -1    0    0    0    0  0.00000000000E+00  0.00000000000E+00  0.14999999963E+04  0.15000000000E+04  0.10566000000E+00 0. -1.
        994   -1    0    0    0    0 -0.00000000000E+00 -0.00000000000E+00  0.11368683772E-12  0.17120000000E+03  0.17120000000E+03 0.  0.
         13    1    1    2    0    0 -0.37037499240E+01  0.17540082781E+02  0.57926031258E+02  0.60636692924E+02  0.10566000000E+00 0. -1.
        994    1    1    2    0    0 -0.19426428793E+01 -0.21517146859E+02  0.41702204449E+01  0.17260820435E+03  0.17120000000E+03 0.  0.
        998    1    1    2    0    0  0.56463928033E+01  0.39770640788E+01  0.14379037446E+04  0.14379551027E+04  0.10000000000E+02 0. -1.
</event>
<event>
 5    1  0.1247473E-008  0.3733974E+03  0.7957747E-01  0.3480421E+00
         13   -1    0    0    0    0  0.00000000000E+00  0.00000000000E+00  0.14999999963E+04  0.15000000000E+04  0.10566000000E+00 0.  1.
        994   -1    0    0    0    0 -0.00000000000E+00 -0.00000000000E+00  0.11368683772E-12  0.17120000000E+03  0.17120000000E+03 0.  0.
         13    1    1    2    0    0  0.32893708615E+01  0.25028209893E+02  0.38299132331E+02  0.45870098675E+02  0.10566000000E+00 0.  1.
        994    1    1    2    0    0 -0.11529425843E+02 -0.26328388588E+02  0.10332557924E+02  0.17390317265E+03  0.17120000000E+03 0.  0.
        998    1    1    2    0    0  0.82400549813E+01  0.13001786950E+01  0.14513683060E+04  0.14514267287E+04  0.10000000000E+02 0.  1.
</event>
<event>
 5    1  0.1247473E-008  0.3859621E+03  0.7957747E-01  0.3425602E+00
         13   -1    0    0    0    0  0.00000000000E+00  0.00000000000E+00  0.14999999963E+04  0.15000000000E+04  0.10566000000E+00 0. -1.
        994   -1    0    0    0    0 -0.00000000000E+00 -0.00000000000E+00  0.11368683772E-12  0.17120000000E+03  0.17120000000E+03 0.  0.
         13    1    1    2    0    0  0.86733714547E+01 -0.12217027151E+02  0.88242743089E+02  0.89505731642E+02  0.10566000000E+00 0. -1.
        994    1    1    2    0    0 -0.64662332628E+01  0.23025164923E+02  0.30306338584E+01  0.17288896765E+03  0.17120000000E+03 0.  0.
        998    1    1    2    0    0 -0.22071381919E+01 -0.10808137772E+02  0.14087266193E+04  0.14088053007E+04  0.10000000000E+02 0. -1.
</event>
<event>
 5    1  0.1247473E-008  0.3810748E+03  0.7957747E-01  0.3446492E+00
         13   -1    0    0    0    0  0.00000000000E+00  0.00000000000E+00  0.14999999963E+04  0.15000000000E+04  0.10566000000E+00 0.  1.
        994   -1    0    0    0    0 -0.00000000000E+00 -0.00000000000E+00  0.11368683772E-12  0.17120000000E+03  0.17120000000E+03 0.  0.
         13    1    1    2    0    0 -0.24231336666E+02 -0.33401289449E+01  0.83830379740E+02  0.87326157991E+02  0.10566000000E+00 0.  1.
        994    1    1    2    0    0  0.11365028635E+02 -0.17800866981E+01  0.40325027966E+01  0.17163342816E+03  0.17120000000E+03 0.  0.
        998    1    1    2    0    0  0.12866308032E+02  0.51202156430E+01  0.14121371137E+04  0.14122404138E+04  0.10000000000E+02 0.  1.
</event>
<event>
 5    1  0.1247473E-008  0.3790868E+03  0.7957747E-01  0.3455144E+00
         13   -1    0    0    0    0  0.00000000000E+00  0.00000000000E+00  0.14999999963E+04  0.15000000000E+04  0.10566000000E+00 0. -1.
        994   -1    0    0    0    0 -0.00000000000E+00 -0.00000000000E+00  0.11368683772E-12  0.17120000000E+03  0.17120000000E+03 0.  0.
         13    1    1    2    0    0  0.11807712665E+02  0.12758656898E+02  0.30876385006E+02  0.35433991015E+02  0.10566000000E+00 0. -1.
        994    1    1    2    0    0 -0.73572431412E+01 -0.11708426569E+02  0.52362483557E+01  0.17183734919E+03  0.17120000000E+03 0.  0.
        998    1    1    2    0    0 -0.44504695243E+01 -0.10502303290E+01  0.14638873629E+04  0.14639286598E+04  0.10000000000E+02 0. -1.
</event>
<event>
 5    1  0.1247473E-008  0.3708406E+03  0.7957747E-01  0.3492037E+00
         13   -1    0    0    0    0  0.00000000000E+00  0.00000000000E+00  0.14999999963E+04  0.15000000000E+04  0.10566000000E+00 0.  1.
        994   -1    0    0    0    0 -0.00000000000E+00 -0.00000000000E+00  0.11368683772E-12  0.17120000000E+03  0.17120000000E+03 0.  0.
         13    1    1    2    0    0  0.21777446999E+02 -0.12135510274E+02  0.31805665006E+02  0.40412118206E+02  0.10566000000E+00 0.  1.
        994    1    1    2    0    0 -0.19078863698E+01  0.25888230777E+02  0.11157008134E+02  0.17351587637E+03  0.17120000000E+03 0.  0.
        998    1    1    2    0    0 -0.19869560630E+02 -0.13752720503E+02  0.14570373231E+04  0.14572720054E+04  0.10000000000E+02 0.  1.
</event>
<event>
 5    1  0.1247473E-008  0.3849639E+03  0.7957747E-01  0.3429825E+00
         13   -1    0    0    0    0  0.00000000000E+00  0.00000000000E+00  0.14999999963E+04  0.15000000000E+04  0.10566000000E+00 0.  1.
        994   -1    0    0    0    0 -0.00000000000E+00 -0.00000000000E+00  0.11368683772E-12  0.17120000000E+03  0.17120000000E+03 0.  0.
         13    1    1    2    0    0 -0.82669983852E+01 -0.58249554378E+01  0.30464663512E+02  0.32099536680E+02  0.10566000000E+00 0.  1.
        994    1    1    2    0    0  0.71402079852E+01  0.59838145522E+01  0.19335659815E+01  0.17146418659E+03  0.17120000000E+03 0.  0.
        998    1    1    2    0    0  0.11267904000E+01 -0.15885911438E+00  0.14676017668E+04  0.14676362767E+04  0.10000000000E+02 0.  1.
</event>
<event>
 5    1  0.1247473E-008  0.3846413E+03  0.7957747E-01  0.3431195E+00
         13   -1    0    0    0    0  0.00000000000E+00  0.00000000000E+00  0.14999999963E+04  0.15000000000E+04  0.10566000000E+00 0.  1.
        994   -1    0    0    0    0 -0.00000000000E+00 -0.00000000000E+00  0.11368683772E-12  0.17120000000E+03  0.17120000000E+03 0.  0.
         13    1    1    2    0    0 -0.98568538418E+01 -0.10519493300E+02  0.58201706511E+02  0.59960546293E+02  0.10566000000E+00 0.  1.
        994    1    1    2    0    0  0.93625049349E+01  0.50844166604E+00  0.20978575198E+01  0.17146940257E+03  0.17120000000E+03 0.  0.
        998    1    1    2    0    0  0.49434890689E+00  0.10011051634E+02  0.14397004322E+04  0.14397700511E+04  0.10000000000E+02 0.  1.
</event>
<event>
 5    1  0.1247473E-008  0.3799976E+03  0.7957747E-01  0.3451169E+00
         13   -1    0    0    0    0  0.00000000000E+00  0.00000000000E+00  0.14999999963E+04  0.15000000000E+04  0.10566000000E+00 0.  1.
        994   -1    0    0    0    0 -0.00000000000E+00 -0.00000000000E+00  0.11368683772E-12  0.17120000000E+03  0.17120000000E+03 0.  0.
         13    1    1    2    0    0 -0.49021318714E+02 -0.31256626787E+01  0.26656292348E+03  0.27105103356E+03  0.10566000000E+00 0.  1.
        994    1    1    2    0    0  0.38891678800E+02  0.48985989873E+02  0.17325337996E+02  0.18308958796E+03  0.17120000000E+03 0.  0.
        998    1    1    2    0    0  0.10129639914E+02 -0.45860327194E+02  0.12161117348E+04  0.12170593785E+04  0.10000000000E+02 0.  1.
</event>
<event>
 5    1  0.1247473E-008  0.3732573E+03  0.7957747E-01  0.3481054E+00
         13   -1    0    0    0    0  0.00000000000E+00  0.00000000000E+00  0.14999999963E+04  0.15000000000E+04  0.10566000000E+00 0. -1.
        994   -1    0    0    0    0 -0.00000000000E+00 -0.00000000000E+00  0.11368683772E-12  0.17120000000E+03  0.17120000000E+03 0.  0.
         13    1    1    2    0    0 -0.28368955477E+02 -0.67189008681E+01  0.60691629730E+02  0.67330723649E+02  0.10566000000E+00 0. -1.
        994    1    1    2    0    0 -0.20714859640E+02 -0.58539356035E+01  0.91624111450E+01  0.17279109858E+03  0.17120000000E+03 0.  0.
        998    1    1    2    0    0  0.49083815117E+02  0.12572836472E+02  0.14301459554E+04  0.14310781778E+04  0.10000000000E+02 0. -1.
</event>
<event>
 5    1  0.1782925E-008  0.3861721E+03  0.7957747E-01  0.3424717E+00
         13   -1    0    0    0    0  0.00000000000E+00  0.00000000000E+00  0.14999999963E+04  0.15000000000E+04  0.10566000000E+00 0.  1.
        994   -1    0    0    0    0 -0.00000000000E+00 -0.00000000000E+00  0.11368683772E-12  0.17120000000E+03  0.17120000000E+03 0.  0.
         13    1    1    2    0    0 -0.83607827807E+01 -0.58648050842E+01  0.51354596562E+02  0.52360332117E+02  0.10566000000E+00 0.  1.
        994    1    1    2    0    0  0.97636353858E+00  0.61492910385E+01  0.11763610490E+01  0.17131722299E+03  0.17120000000E+03 0.  0.
        998    1    1    2    0    0  0.73844192421E+01 -0.28448595433E+00  0.14474690387E+04  0.14475224449E+04  0.10000000000E+02 0.  1.
</event>
<event>
 5    1  0.1247473E-008  0.3859244E+03  0.7957747E-01  0.3425761E+00
         13   -1    0    0    0    0  0.00000000000E+00  0.00000000000E+00  0.14999999963E+04  0.15000000000E+04  0.10566000000E+00 0.  1.
        994   -1    0    0    0    0 -0.00000000000E+00 -0.00000000000E+00  0.11368683772E-12  0.17120000000E+03  0.17120000000E+03 0.  0.
         13    1    1    2    0    0 -0.10965659085E+02 -0.33796242597E+01  0.57016559993E+02  0.58159838521E+02  0.10566000000E+00 0.  1.
        994    1    1    2    0    0  0.68161823435E+01  0.19025236662E+01  0.13360933404E+01  0.17135140817E+03  0.17120000000E+03 0.  0.
        998    1    1    2    0    0  0.41494767416E+01  0.14771005935E+01  0.14416473429E+04  0.14416887533E+04  0.10000000000E+02 0.  1.
</event>
<event>
 5    1  0.1247473E-008  0.3843464E+03  0.7957747E-01  0.3432449E+00
         13   -1    0    0    0    0  0.00000000000E+00  0.00000000000E+00  0.14999999963E+04  0.15000000000E+04  0.10566000000E+00 0. -1.
        994   -1    0    0    0    0 -0.00000000000E+00 -0.00000000000E+00  0.11368683772E-12  0.17120000000E+03  0.17120000000E+03 0.  0.
         13    1    1    2    0    0 -0.88911565459E+01  0.94620412232E+01  0.43885702086E+02  0.45766241931E+02  0.10566000000E+00 0. -1.
        994    1    1    2    0    0  0.54359110922E+01  0.61658798588E+00  0.20536541683E+01  0.17129969879E+03  0.17120000000E+03 0.  0.
        998    1    1    2    0    0  0.34552454537E+01 -0.10078629209E+02  0.14540606400E+04  0.14541340593E+04  0.10000000000E+02 0. -1.
</event>
<event>
 5    1  0.1247473E-008  0.3757729E+03  0.7957747E-01  0.3469773E+00
         13   -1    0    0    0    0  0.00000000000E+00  0.00000000000E+00  0.14999999963E+04  0.15000000000E+04  0.10566000000E+00 0. -1.
        994   -1    0    0    0    0 -0.00000000000E+00 -0.00000000000E+00  0.11368683772E-12  0.17120000000E+03  0.17120000000E+03 0.  0.
         13    1    1    2    0    0 -0.21930158683E+02  0.10860902483E+03  0.44377356366E+03  0.45739680706E+03  0.10566000000E+00 0. -1.
        994    1    1    2    0    0 -0.28085254111E+02 -0.70714974101E+02  0.34983098059E+02  0.19058501046E+03  0.17120000000E+03 0.  0.
        998    1    1    2    0    0  0.50015412794E+02 -0.37894050731E+02  0.10212433346E+04  0.10232181825E+04  0.10000000000E+02 0. -1.
</event>
<event>
 5    1  0.1247473E-008  0.3798384E+03  0.7957747E-01  0.3451862E+00
         13   -1    0    0    0    0  0.00000000000E+00  0.00000000000E+00  0.14999999963E+04  0.15000000000E+04  0.10566000000E+00 0.  1.
        994   -1    0    0    0    0 -0.00000000000E+00 -0.00000000000E+00  0.11368683772E-12  0.17120000000E+03  0.17120000000E+03 0.  0.
         13    1    1    2    0    0  0.18838055846E+02 -0.19075714714E+02  0.80447587622E+02  0.84797292163E+02  0.10566000000E+00 0.  1.
        994    1    1    2    0    0 -0.20925454415E+02  0.15167167098E+02  0.64519066984E+01  0.17325987620E+03  0.17120000000E+03 0.  0.
        998    1    1    2    0    0  0.20873985698E+01  0.39085476159E+01  0.14131005020E+04  0.14131428316E+04  0.10000000000E+02 0.  1.
</event>
<event>
 5    1  0.1247473E-008  0.3786582E+03  0.7957747E-01  0.3457022E+00
         13   -1    0    0    0    0  0.00000000000E+00  0.00000000000E+00  0.14999999963E+04  0.15000000000E+04  0.10566000000E+00 0.  1.
        994   -1    0    0    0    0 -0.00000000000E+00 -0.00000000000E+00  0.11368683772E-12  0.17120000000E+03  0.17120000000E+03 0.  0.
         13    1    1    2    0    0 -0.33626771619E+01 -0.10707222963E+02  0.10813169794E+02  0.15584865296E+02  0.10566000000E+00 0.  1.
        994    1    1    2    0    0  0.47380122926E+01  0.12663049121E+02  0.54260687113E+01  0.17181875275E+03  0.17120000000E+03 0.  0.
        998    1    1    2    0    0 -0.13753351307E+01 -0.19558261580E+01  0.14837607578E+04  0.14837963820E+04  0.10000000000E+02 0.  1.
</event>
<event>
 5    1  0.1247473E-008  0.3843519E+03  0.7957747E-01  0.3432426E+00
         13   -1    0    0    0    0  0.00000000000E+00  0.00000000000E+00  0.14999999963E+04  0.15000000000E+04  0.10566000000E+00 0. -1.
        994   -1    0    0    0    0 -0.00000000000E+00 -0.00000000000E+00  0.11368683772E-12  0.17120000000E+03  0.17120000000E+03 0.  0.
         13    1    1    2    0    0 -0.12201097452E+02 -0.96885552565E+01  0.65406254899E+02  0.67236331145E+02  0.10566000000E+00 0. -1.
        994    1    1    2    0    0 -0.20424282307E+01  0.38694120693E+01  0.20153569480E+01  0.17126775974E+03  0.17120000000E+03 0.  0.
        998    1    1    2    0    0  0.14243525682E+02  0.58191431872E+01  0.14325783844E+04  0.14326959091E+04  0.10000000000E+02 0. -1.
</event>
<event>
 5    1  0.1247473E-008  0.3723188E+03  0.7957747E-01  0.3485302E+00
         13   -1    0    0    0    0  0.00000000000E+00  0.00000000000E+00  0.14999999963E+04  0.15000000000E+04  0.10566000000E+00 0.  1.
        994   -1    0    0    0    0 -0.00000000000E+00 -0.00000000000E+00  0.11368683772E-12  0.17120000000E+03  0.17120000000E+03 0.  0.
         13    1    1    2    0    0 -0.21658203717E+03  0.22688645453E+03  0.94855799773E+03  0.99907333480E+03  0.10566000000E+00 0.  1.
        994    1    1    2    0    0  0.20043078219E+03 -0.21509090774E+03  0.42834411056E+03  0.54701436370E+03  0.17120000000E+03 0.  0.
        998    1    1    2    0    0  0.16151254981E+02 -0.11795546791E+02  0.12309788798E+03  0.12511230150E+03  0.10000000000E+02 0.  1.
</event>
<event>
 5    1  0.1247473E-008  0.3843587E+03  0.7957747E-01  0.3432397E+00
         13   -1    0    0    0    0  0.00000000000E+00  0.00000000000E+00  0.14999999963E+04  0.15000000000E+04  0.10566000000E+00 0. -1.
        994   -1    0    0    0    0 -0.00000000000E+00 -0.00000000000E+00  0.11368683772E-12  0.17120000000E+03  0.17120000000E+03 0.  0.
         13    1    1    2    0    0  0.62372590112E+00  0.10583874320E+02  0.28279162436E+02  0.30201483767E+02  0.10566000000E+00 0. -1.
        994    1    1    2    0    0  0.10760134623E+02 -0.85881466639E+01  0.25737535797E+01  0.17177194465E+03  0.17120000000E+03 0.  0.
        998    1    1    2    0    0 -0.11383860524E+02 -0.19957276564E+01  0.14691470803E+04  0.14692265716E+04  0.10000000000E+02 0. -1.
</event>
<event>
 5    1  0.1247473E-008  0.3818416E+03  0.7957747E-01  0.3443179E+00
         13   -1    0    0    0    0  0.00000000000E+00  0.00000000000E+00  0.14999999963E+04  0.15000000000E+04  0.10566000000E+00 0.  1.
        994   -1    0    0    0    0 -0.00000000000E+00 -0.00000000000E+00  0.11368683772E-12  0.17120000000E+03  0.17120000000E+03 0.  0.
         13    1    1    2    0    0  0.83263508289E+02  0.51706253083E+00  0.35364368349E+03  0.36331383845E+03  0.10566000000E+00 0.  1.
        994    1    1    2    0    0  0.47271279986E+02 -0.16127695951E+02  0.26499923210E+02  0.18029520908E+03  0.17120000000E+03 0.  0.
        998    1    1    2    0    0 -0.13053478827E+03  0.15610633421E+02  0.11198563896E+04  0.11275909525E+04  0.10000000000E+02 0.  1.
</event>
<event>
 5    1  0.1247473E-008  0.3762757E+03  0.7957747E-01  0.3467537E+00
         13   -1    0    0    0    0  0.00000000000E+00  0.00000000000E+00  0.14999999963E+04  0.15000000000E+04  0.10566000000E+00 0.  1.
        994   -1    0    0    0    0 -0.00000000000E+00 -0.00000000000E+00  0.11368683772E-12  0.17120000000E+03  0.17120000000E+03 0.  0.
         13    1    1    2    0    0 -0.41842549769E+02 -0.82693651625E+02  0.27434019493E+03  0.28957139484E+03  0.10566000000E+00 0.  1.
        994    1    1    2    0    0  0.10756360706E+03  0.28494877290E+02  0.60000211223E+02  0.21281765186E+03  0.17120000000E+03 0.  0.
        998    1    1    2    0    0 -0.65721057292E+02  0.54198774336E+02  0.11656595901E+04  0.11688109533E+04  0.10000000000E+02 0.  1.
</event>
<event>
 5    1  0.1247473E-008  0.3858347E+03  0.7957747E-01  0.3426140E+00
         13   -1    0    0    0    0  0.00000000000E+00  0.00000000000E+00  0.14999999963E+04  0.15000000000E+04  0.10566000000E+00 0. -1.
        994   -1    0    0    0    0 -0.00000000000E+00 -0.00000000000E+00  0.11368683772E-12  0.17120000000E+03  0.17120000000E+03 0.  0.
         13    1    1    2    0    0  0.24664871345E+01 -0.11408639437E+02  0.62905934214E+02  0.63979749421E+02  0.10566000000E+00 0. -1.
        994    1    1    2    0    0 -0.92633227564E+01 -0.87808273242E+01  0.17507805459E+01  0.17168406248E+03  0.17120000000E+03 0.  0.
        998    1    1    2    0    0  0.67968356219E+01  0.20189466761E+02  0.14353432815E+04  0.14355361881E+04  0.10000000000E+02 0. -1.
</event>
<event>
 5    1  0.1247473E-008  0.3813245E+03  0.7957747E-01  0.3445411E+00
         13   -1    0    0    0    0  0.00000000000E+00  0.00000000000E+00  0.14999999963E+04  0.15000000000E+04  0.10566000000E+00 0. -1.
        994   -1    0    0    0    0 -0.00000000000E+00 -0.00000000000E+00  0.11368683772E-12  0.17120000000E+03  0.17120000000E+03 0.  0.
         13    1    1    2    0    0  0.21322729109E+02 -0.98986211780E+01  0.80920278304E+02  0.84265912935E+02  0.10566000000E+00 0. -1.
        994    1    1    2    0    0 -0.34830977695E+01  0.13611407098E+02  0.41233302878E+01  0.17182503958E+03  0.17120000000E+03 0.  0.
        998    1    1    2    0    0 -0.17839631339E+02 -0.37127859196E+01  0.14149563877E+04  0.14151090475E+04  0.10000000000E+02 0. -1.
</event>
<event>
 5    1  0.1247473E-008  0.3757602E+03  0.7957747E-01  0.3469830E+00
         13   -1    0    0    0    0  0.00000000000E+00  0.00000000000E+00  0.14999999963E+04  0.15000000000E+04  0.10566000000E+00 0.  1.
        994   -1    0    0    0    0 -0.00000000000E+00 -0.00000000000E+00  0.11368683772E-12  0.17120000000E+03  0.17120000000E+03 0.  0.
         13    1    1    2    0    0  0.28167554245E+02 -0.50258262754E+01  0.58429250385E+02  0.65058884916E+02  0.10566000000E+00 0.  1.
        994    1    1    2    0    0 -0.38639432090E+02  0.51464582953E+01  0.11458100207E+02  0.17595516419E+03  0.17120000000E+03 0.  0.
        998    1    1    2    0    0  0.10471877845E+02 -0.12063201985E+00  0.14301126457E+04  0.14301859509E+04  0.10000000000E+02 0.  1.
</event>
<event>
 5    1  0.1247473E-008  0.3829434E+03  0.7957747E-01  0.3438442E+00
         13   -1    0    0    0    0  0.00000000000E+00  0.00000000000E+00  0.14999999963E+04  0.15000000000E+04  0.10566000000E+00 0. -1.
        994   -1    0    0    0    0 -0.00000000000E+00 -0.00000000000E+00  0.11368683772E-12  0.17120000000E+03  0.17120000000E+03 0.  0.
         13    1    1    2    0    0  0.11256104909E+02 -0.70494955138E+01  0.31318175965E+02  0.34018150958E+02  0.10566000000E+00 0. -1.
        994    1    1    2    0    0 -0.11721057019E+02  0.14721550156E+02  0.38278874272E+01  0.17227361939E+03  0.17120000000E+03 0.  0.
        998    1    1    2    0    0  0.46495210929E+00 -0.76720546418E+01  0.14648539329E+04  0.14649082296E+04  0.10000000000E+02 0. -1.
</event>
<event>
 5    1  0.1247473E-008  0.3840553E+03  0.7957747E-01  0.3433689E+00
         13   -1    0    0    0    0  0.00000000000E+00  0.00000000000E+00  0.14999999963E+04  0.15000000000E+04  0.10566000000E+00 0. -1.
        994   -1    0    0    0    0 -0.00000000000E+00 -0.00000000000E+00  0.11368683772E-12  0.17120000000E+03  0.17120000000E+03 0.  0.
         13    1    1    2    0    0 -0.74557640737E+02 -0.11973654099E+03  0.83787555866E+03  0.84966531294E+03  0.10566000000E+00 0. -1.
        994    1    1    2    0    0  0.10039138477E+03  0.14014158484E+03  0.10721708382E+03  0.26556173859E+03  0.17120000000E+03 0.  0.
        998    1    1    2    0    0 -0.25833744030E+02 -0.20405043850E+02  0.55490735379E+03  0.55597294848E+03  0.10000000000E+02 0. -1.
</event>
<event>
 5    1  0.1247473E-008  0.3799154E+03  0.7957747E-01  0.3451527E+00
         13   -1    0    0    0    0  0.00000000000E+00  0.00000000000E+00  0.14999999963E+04  0.15000000000E+04  0.10566000000E+00 0.  1.
        994   -1    0    0    0    0 -0.00000000000E+00 -0.00000000000E+00  0.11368683772E-12  0.17120000000E+03  0.17120000000E+03 0.  0.
         13    1    1    2    0    0 -0.39348190275E+01 -0.15595620204E+02  0.29464738554E+02  0.33569154777E+02  0.10566000000E+00 0.  1.
        994    1    1    2    0    0  0.63481069447E+01  0.79555457603E+01  0.45222967193E+01  0.17156188486E+03  0.17120000000E+03 0.  0.
        998    1    1    2    0    0 -0.24132879172E+01  0.76400744441E+01  0.14660129610E+04  0.14660689604E+04  0.10000000000E+02 0.  1.
</event>
<event>
 5    1  0.1247473E-008  0.3832653E+03  0.7957747E-01  0.3437063E+00
         13   -1    0    0    0    0  0.00000000000E+00  0.00000000000E+00  0.14999999963E+04  0.15000000000E+04  0.10566000000E+00 0. -1.
        994   -1    0    0    0    0 -0.00000000000E+00 -0.00000000000E+00  0.11368683772E-12  0.17120000000E+03  0.17120000000E+03 0.  0.
         13    1    1    2    0    0  0.62757777883E+01  0.11399486195E+02  0.31898790191E+02  0.34451090723E+02  0.10566000000E+00 0. -1.
        994    1    1    2    0    0 -0.82303352598E+01 -0.17234274126E+02  0.37011296542E+01  0.17230176141E+03  0.17120000000E+03 0.  0.
        998    1    1    2    0    0  0.19545574715E+01  0.58347879301E+01  0.14644000764E+04  0.14644471479E+04  0.10000000000E+02 0. -1.
</event>
<event>
 5    1  0.1247473E-008  0.3808532E+03  0.7957747E-01  0.3447452E+00
         13   -1    0    0    0    0  0.00000000000E+00  0.00000000000E+00  0.14999999963E+04  0.15000000000E+04  0.10566000000E+00 0.  1.
        994   -1    0    0    0    0 -0.00000000000E+00 -0.00000000000E+00  0.11368683772E-12  0.17120000000E+03  0.17120000000E+03 0.  0.
         13    1    1    2    0    0 -0.28694047653E+02 -0.16797471088E+02  0.15908010045E+03  0.16251766959E+03  0.10566000000E+00 0.  1.
        994    1    1    2    0    0  0.97162754810E+01  0.15894771422E+01  0.40262629065E+01  0.17153012342E+03  0.17120000000E+03 0.  0.
        998    1    1    2    0    0  0.18977772172E+02  0.15207993946E+02  0.13368936329E+04  0.13371522070E+04  0.10000000000E+02 0.  1.
</event>
<event>
 5    1  0.1247473E-008  0.3850792E+03  0.7957747E-01  0.3429336E+00
         13   -1    0    0    0    0  0.00000000000E+00  0.00000000000E+00  0.14999999963E+04  0.15000000000E+04  0.10566000000E+00 0. -1.
        994   -1    0    0    0    0 -0.00000000000E+00 -0.00000000000E+00  0.11368683772E-12  0.17120000000E+03  0.17120000000E+03 0.  0.
         13    1    1    2    0    0 -0.91225041195E+00 -0.12614441398E+02  0.45899777517E+02  0.47610472301E+02  0.10566000000E+00 0. -1.
        994    1    1    2    0    0  0.25234339807E+00  0.25477185216E+02  0.37279932501E+01  0.17312564390E+03  0.17120000000E+03 0.  0.
        998    1    1    2    0    0  0.65990701388E+00 -0.12862743818E+02  0.14503722255E+04  0.14504638838E+04  0.10000000000E+02 0. -1.
</event>
<event>
 5    1  0.1247473E-008  0.3721722E+03  0.7957747E-01  0.3485967E+00
         13   -1    0    0    0    0  0.00000000000E+00  0.00000000000E+00  0.14999999963E+04  0.15000000000E+04  0.10566000000E+00 0.  1.
        994   -1    0    0    0    0 -0.00000000000E+00 -0.00000000000E+00  0.11368683772E-12  0.17120000000E+03  0.17120000000E+03 0.  0.
         13    1    1    2    0    0  0.11591405660E+02 -0.69565392152E+01  0.74641971363E+01  0.15442782326E+02  0.10566000000E+00 0.  1.
        994    1    1    2    0    0 -0.11559276255E+02  0.76652770337E+01  0.87985776333E+01  0.17198612824E+03  0.17120000000E+03 0.  0.
        998    1    1    2    0    0 -0.32129405393E-01 -0.70873781853E+00  0.14837372215E+04  0.14837710894E+04  0.10000000000E+02 0.  1.
</event>
<event>
 5    1  0.1247473E-008  0.3834672E+03  0.7957747E-01  0.3436199E+00
         13   -1    0    0    0    0  0.00000000000E+00  0.00000000000E+00  0.14999999963E+04  0.15000000000E+04  0.10566000000E+00 0.  1.
        994   -1    0    0    0    0 -0.00000000000E+00 -0.00000000000E+00  0.11368683772E-12  0.17120000000E+03  0.17120000000E+03 0.  0.
         13    1    1    2    0    0 -0.91128537675E+01  0.96954315067E+01  0.38305858782E+02  0.40551146432E+02  0.10566000000E+00 0.  1.
        994    1    1    2    0    0 -0.66777375674E+00  0.47934739030E+01  0.24704638147E+01  0.17128621225E+03  0.17120000000E+03 0.  0.
        998    1    1    2    0    0  0.97806275242E+01 -0.14488905410E+02  0.14592236737E+04  0.14593626413E+04  0.10000000000E+02 0.  1.
</event>
<event>
 5    1  0.1247473E-008  0.3792216E+03  0.7957747E-01  0.3454555E+00
         13   -1    0    0    0    0  0.00000000000E+00  0.00000000000E+00  0.14999999963E+04  0.15000000000E+04  0.10566000000E+00 0. -1.
        994   -1    0    0    0    0 -0.00000000000E+00 -0.00000000000E+00  0.11368683772E-12  0.17120000000E+03  0.17120000000E+03 0.  0.
         13    1    1    2    0    0  0.55288924127E+01  0.14969837552E+02  0.26249101453E+02  0.30719556943E+02  0.10566000000E+00 0. -1.
        994    1    1    2    0    0 -0.30942089031E+00 -0.12052857610E+02  0.50139171856E+01  0.17169725240E+03  0.17120000000E+03 0.  0.
        998    1    1    2    0    0 -0.52194715224E+01 -0.29169799424E+01  0.14687369776E+04  0.14687831907E+04  0.10000000000E+02 0. -1.
</event>
<event>
 5    1  0.1247473E-008  0.3716886E+03  0.7957747E-01  0.3488166E+00
         13   -1    0    0    0    0  0.00000000000E+00  0.00000000000E+00  0.14999999963E+04  0.15000000000E+04  0.10566000000E+00 0.  1.
        994   -1    0    0    0    0 -0.00000000000E+00 -0.00000000000E+00  0.11368683772E-12  0.17120000000E+03  0.17120000000E+03 0.  0.
         13    1    1    2    0    0 -0.71426830360E+02  0.25934529421E+01  0.15809203583E+03  0.17349818745E+03  0.10566000000E+00 0.  1.
        994    1    1    2    0    0  0.11039124052E+03 -0.51549418153E+02  0.66037396229E+02  0.22025881639E+03  0.17120000000E+03 0.  0.
        998    1    1    2    0    0 -0.38964410161E+02  0.48955965211E+02  0.12758705642E+04  0.12774429962E+04  0.10000000000E+02 0.  1.
</event>
<event>
 5    1  0.1247473E-008  0.3852373E+03  0.7957747E-01  0.3428666E+00
         13   -1    0    0    0    0  0.00000000000E+00  0.00000000000E+00  0.14999999963E+04  0.15000000000E+04  0.10566000000E+00 0. -1.
        994   -1    0    0    0    0 -0.00000000000E+00 -0.00000000000E+00  0.11368683772E-12  0.17120000000E+03  0.17120000000E+03 0.  0.
         13    1    1    2    0    0 -0.38192907389E+01 -0.12408526654E+02  0.55413774995E+02  0.56914463352E+02  0.10566000000E+00 0. -1.
        994    1    1    2    0    0  0.78849651846E+01  0.79581481733E+01  0.19248858967E+01  0.17157695062E+03  0.17120000000E+03 0.  0.
        998    1    1    2    0    0 -0.40656744457E+01  0.44503784806E+01  0.14426613354E+04  0.14427085860E+04  0.10000000000E+02 0. -1.
</event>
<event>
 5    1  0.1247473E-008  0.3705749E+03  0.7957747E-01  0.3493253E+00
         13   -1    0    0    0    0  0.00000000000E+00  0.00000000000E+00  0.14999999963E+04  0.15000000000E+04  0.10566000000E+00 0.  1.
        994   -1    0    0    0    0 -0.00000000000E+00 -0.00000000000E+00  0.11368683772E-12  0.17120000000E+03  0.17120000000E+03 0.  0.
         13    1    1    2    0    0 -0.18405069696E+02  0.70957855198E+01  0.17834709673E+02  0.26592946354E+02  0.10566000000E+00 0.  1.
        994    1    1    2    0    0  0.13168015223E+02 -0.47424983391E+01  0.96451085498E+01  0.17204172760E+03  0.17120000000E+03 0.  0.
        998    1    1    2    0    0  0.52370544732E+01 -0.23532871807E+01  0.14725201781E+04  0.14725653260E+04  0.10000000000E+02 0.  1.
</event>
<event>
 5    1  0.1247473E-008  0.3711219E+03  0.7957747E-01  0.3490750E+00
         13   -1    0    0    0    0  0.00000000000E+00  0.00000000000E+00  0.14999999963E+04  0.15000000000E+04  0.10566000000E+00 0.  1.
        994   -1    0    0    0    0 -0.00000000000E+00 -0.00000000000E+00  0.11368683772E-12  0.17120000000E+03  0.17120000000E+03 0.  0.
         13    1    1    2    0    0 -0.50403231505E-01  0.12108227662E+02  0.42072772295E+01  0.12818894778E+02  0.10566000000E+00 0.  1.
        994    1    1    2    0    0  0.33357036129E+02 -0.24623145171E+02  0.14627864047E+02  0.17675521363E+03  0.17120000000E+03 0.  0.
        998    1    1    2    0    0 -0.33306632897E+02  0.12514917509E+02  0.14811648550E+04  0.14816258916E+04  0.10000000000E+02 0.  1.
</event>
<event>
 5    1  0.1247473E-008  0.3802503E+03  0.7957747E-01  0.3450069E+00
         13   -1    0    0    0    0  0.00000000000E+00  0.00000000000E+00  0.14999999963E+04  0.15000000000E+04  0.10566000000E+00 0.  1.
        994   -1    0    0    0    0 -0.00000000000E+00 -0.00000000000E+00  0.11368683772E-12  0.17120000000E+03  0.17120000000E+03 0.  0.
         13    1    1    2    0    0 -0.16136068694E+02  0.33108752720E+02  0.18222731740E+03  0.18591226047E+03  0.10566000000E+00 0.  1.
        994    1    1    2    0    0  0.40682358227E+01 -0.92572291104E+01  0.43484590307E+01  0.17155347834E+03  0.17120000000E+03 0.  0.
        998    1    1    2    0    0  0.12067832871E+02 -0.23851523609E+02  0.13134242198E+04  0.13137342612E+04  0.10000000000E+02 0.  1.
</event>
<event>
 5    1  0.1247473E-008  0.3444621E+03  0.7957747E-01  0.3622175E+00
         13   -1    0    0    0    0  0.00000000000E+00  0.00000000000E+00  0.14999999963E+04  0.15000000000E+04  0.10566000000E+00 0.  1.
        994   -1    0    0    0    0 -0.00000000000E+00 -0.00000000000E+00  0.11368683772E-12  0.17120000000E+03  0.17120000000E+03 0.  0.
         13    1    1    2    0    0  0.21239937980E+03 -0.12410373532E+01  0.10306252237E+04  0.10522848472E+04  0.10566000000E+00 0.  1.
        994    1    1    2    0    0 -0.17657534577E+03 -0.44833130752E+02  0.14463493194E+03  0.28882099280E+03  0.17120000000E+03 0.  0.
        998    1    1    2    0    0 -0.35824034037E+02  0.46074168105E+02  0.32473984062E+03  0.33009416000E+03  0.10000000000E+02 0. -1.
</event>
<event>
 5    1  0.1247473E-008  0.3841543E+03  0.7957747E-01  0.3433267E+00
         13   -1    0    0    0    0  0.00000000000E+00  0.00000000000E+00  0.14999999963E+04  0.15000000000E+04  0.10566000000E+00 0.  1.
        994   -1    0    0    0    0 -0.00000000000E+00 -0.00000000000E+00  0.11368683772E-12  0.17120000000E+03  0.17120000000E+03 0.  0.
         13    1    1    2    0    0  0.10853674663E+02  0.88820898990E+01  0.50257234171E+02  0.52177528930E+02  0.10566000000E+00 0.  1.
        994    1    1    2    0    0 -0.31374155918E+01  0.63056307761E+01  0.22141857957E+01  0.17135911699E+03  0.17120000000E+03 0.  0.
        998    1    1    2    0    0 -0.77162590715E+01 -0.15187720675E+02  0.14475285763E+04  0.14476633541E+04  0.10000000000E+02 0.  1.
</event>
<event>
 5    1  0.1247473E-008  0.3781279E+03  0.7957747E-01  0.3459351E+00
         13   -1    0    0    0    0  0.00000000000E+00  0.00000000000E+00  0.14999999963E+04  0.15000000000E+04  0.10566000000E+00 0. -1.
        994   -1    0    0    0    0 -0.00000000000E+00 -0.00000000000E+00  0.11368683772E-12  0.17120000000E+03  0.17120000000E+03 0.  0.
         13    1    1    2    0    0  0.10280808350E+02  0.22801346389E+02  0.57844730783E+02  0.63020793877E+02  0.10566000000E+00 0. -1.
        994    1    1    2    0    0 -0.59515039619E+01 -0.24074865366E+02  0.71526864102E+01  0.17313468880E+03  0.17120000000E+03 0.  0.
        998    1    1    2    0    0 -0.43293043884E+01  0.12735189774E+01  0.14350025791E+04  0.14350445173E+04  0.10000000000E+02 0. -1.
</event>
<event>
 5    1  0.1247473E-008  0.3813057E+03  0.7957747E-01  0.3445493E+00
         13   -1    0    0    0    0  0.00000000000E+00  0.00000000000E+00  0.14999999963E+04  0.15000000000E+04  0.10566000000E+00 0.  1.
        994   -1    0    0    0    0 -0.00000000000E+00 -0.00000000000E+00  0.11368683772E-12  0.17120000000E+03  0.17120000000E+03 0.  0.
         13    1    1    2    0    0 -0.16134948048E+02  0.13414585938E+01  0.37060655806E+02  0.40443039358E+02  0.10566000000E+00 0.  1.
        994    1    1    2    0    0  0.57838333361E+01 -0.25420643758E+01  0.36083754478E+01  0.17135453070E+03  0.17120000000E+03 0.  0.
        998    1    1    2    0    0  0.10351114712E+02  0.12006057821E+01  0.14593309650E+04  0.14594024299E+04  0.10000000000E+02 0.  1.
</event>
<event>
 5    1  0.1247473E-008  0.3845235E+03  0.7957747E-01  0.3431696E+00
         13   -1    0    0    0    0  0.00000000000E+00  0.00000000000E+00  0.14999999963E+04  0.15000000000E+04  0.10566000000E+00 0.  1.
        994   -1    0    0    0    0 -0.00000000000E+00 -0.00000000000E+00  0.11368683772E-12  0.17120000000E+03  0.17120000000E+03 0.  0.
         13    1    1    2    0    0 -0.11079894692E+02  0.13043823260E+02  0.79107382956E+02  0.80937596911E+02  0.10566000000E+00 0.  1.
        994    1    1    2    0    0  0.23993402622E+02  0.71779338404E+01  0.39354642352E+01  0.17306684831E+03  0.17120000000E+03 0.  0.
        998    1    1    2    0    0 -0.12913507929E+02 -0.20221757101E+02  0.14169571491E+04  0.14171955548E+04  0.10000000000E+02 0.  1.
</event>
<event>
 5    1  0.1247473E-008  0.3694561E+03  0.7957747E-01  0.3498394E+00
         13   -1    0    0    0    0  0.00000000000E+00  0.00000000000E+00  0.14999999963E+04  0.15000000000E+04  0.10566000000E+00 0.  1.
        994   -1    0    0    0    0 -0.00000000000E+00 -0.00000000000E+00  0.11368683772E-12  0.17120000000E+03  0.17120000000E+03 0.  0.
         13    1    1    2    0    0  0.40987521024E+02  0.99719371299E+02  0.49920589603E+03  0.51071564269E+03  0.10566000000E+00 0.  1.
        994    1    1    2    0    0 -0.48975846091E+02 -0.58964323999E+02  0.31444106367E+02  0.19019357726E+03  0.17120000000E+03 0.  0.
        998    1    1    2    0    0  0.79883250663E+01 -0.40755047300E+02  0.96934999388E+03  0.97029078005E+03  0.10000000000E+02 0.  1.
</event>
<event>
 5    1  0.1247473E-008  0.3745318E+03  0.7957747E-01  0.3475320E+00
         13   -1    0    0    0    0  0.00000000000E+00  0.00000000000E+00  0.14999999963E+04  0.15000000000E+04  0.10566000000E+00 0.  1.
        994   -1    0    0    0    0 -0.00000000000E+00 -0.00000000000E+00  0.11368683772E-12  0.17120000000E+03  0.17120000000E+03 0.  0.
         13    1    1    2    0    0  0.40503753788E+02 -0.41292710200E+02  0.13803990736E+03  0.14966853101E+03  0.10566000000E+00 0.  1.
        994    1    1    2    0    0 -0.30913323959E+02 -0.27481509379E+02  0.19457855911E+02  0.17719739025E+03  0.17120000000E+03 0.  0.
        998    1    1    2    0    0 -0.95904298296E+01  0.68774219580E+02  0.13425022330E+04  0.13443340787E+04  0.10000000000E+02 0.  1.
</event>
<event>
 5    1  0.1247473E-008  0.3820780E+03  0.7957747E-01  0.3442160E+00
         13   -1    0    0    0    0  0.00000000000E+00  0.00000000000E+00  0.14999999963E+04  0.15000000000E+04  0.10566000000E+00 0. -1.
        994   -1    0    0    0    0 -0.00000000000E+00 -0.00000000000E+00  0.11368683772E-12  0.17120000000E+03  0.17120000000E+03 0.  0.
         13    1    1    2    0    0  0.27639606348E+02  0.17749196823E+01  0.16025084099E+03  0.16262669332E+03  0.10566000000E+00 0. -1.
        994    1    1    2    0    0  0.14358851399E+02  0.25111799520E+02  0.58710370686E+01  0.17372589952E+03  0.17120000000E+03 0.  0.
        998    1    1    2    0    0 -0.41998457747E+02 -0.26886719202E+02  0.13338781182E+04  0.13348474072E+04  0.10000000000E+02 0. -1.
</event>
<event>
 5    1  0.1247473E-008  0.3842612E+03  0.7957747E-01  0.3432812E+00
         13   -1    0    0    0    0  0.00000000000E+00  0.00000000000E+00  0.14999999963E+04  0.15000000000E+04  0.10566000000E+00 0.  1.
        994   -1    0    0    0    0 -0.00000000000E+00 -0.00000000000E+00  0.11368683772E-12  0.17120000000E+03  0.17120000000E+03 0.  0.
         13    1    1    2    0    0 -0.11900764998E+02 -0.52040034473E+01  0.39482046527E+02  0.41563842717E+02  0.10566000000E+00 0.  1.
        994    1    1    2    0    0  0.17417182692E+02  0.13579562733E+02  0.36069722796E+01  0.17265634372E+03  0.17120000000E+03 0.  0.
        998    1    1    2    0    0 -0.55164176934E+01 -0.83755592857E+01  0.14569109775E+04  0.14569798136E+04  0.10000000000E+02 0.  1.
</event>
<event>
 5    1  0.1247473E-008  0.2743164E+03  0.7957747E-01  0.4098354E+00
         13   -1    0    0    0    0  0.00000000000E+00  0.00000000000E+00  0.14999999963E+04  0.15000000000E+04  0.10566000000E+00 0. -1.
        994   -1    0    0    0    0 -0.00000000000E+00 -0.00000000000E+00  0.11368683772E-12  0.17120000000E+03  0.17120000000E+03 0.  0.
         13    1    1    2    0    0 -0.14030567650E+03  0.10166788486E+03  0.44259526781E+03  0.47530266559E+03  0.10566000000E+00 0. -1.
        994    1    1    2    0    0  0.15181834882E+03 -0.11934171263E+03  0.17189135103E+03  0.31007633249E+03  0.17120000000E+03 0.  0.
        998    1    1    2    0    0 -0.11512672320E+02  0.17673827770E+02  0.88551337744E+03  0.88582100192E+03  0.10000000000E+02 0. -1.
</event>
<event>
 5    1  0.1247473E-008  0.3816996E+03  0.7957747E-01  0.3443791E+00
         13   -1    0    0    0    0  0.00000000000E+00  0.00000000000E+00  0.14999999963E+04  0.15000000000E+04  0.10566000000E+00 0. -1.
        994   -1    0    0    0    0 -0.00000000000E+00 -0.00000000000E+00  0.11368683772E-12  0.17120000000E+03  0.17120000000E+03 0.  0.
         13    1    1    2    0    0 -0.50756445356E+01 -0.19507897475E+02  0.69835239721E+02  0.72686258001E+02  0.10566000000E+00 0. -1.
        994    1    1    2    0    0 -0.10752907433E+02 -0.12918348926E+02  0.42173280657E+01  0.17207479366E+03  0.17120000000E+03 0.  0.
        998    1    1    2    0    0  0.15828551969E+02  0.32426246401E+02  0.14259474285E+04  0.14264389483E+04  0.10000000000E+02 0. -1.
</event>
<event>
 5    1  0.1247473E-008  0.3710701E+03  0.7957747E-01  0.3490987E+00
         13   -1    0    0    0    0  0.00000000000E+00  0.00000000000E+00  0.14999999963E+04  0.15000000000E+04  0.10566000000E+00 0. -1.
        994   -1    0    0    0    0 -0.00000000000E+00 -0.00000000000E+00  0.11368683772E-12  0.17120000000E+03  0.17120000000E+03 0.  0.
         13    1    1    2    0    0 -0.31617776714E+02  0.87704547127E+01  0.61773943648E+02  0.69947379923E+02  0.10566000000E+00 0. -1.
        994    1    1    2    0    0  0.79471540870E+01  0.13167785485E+02  0.95261263579E+01  0.17215323092E+03  0.17120000000E+03 0.  0.
        998    1    1    2    0    0  0.23670622627E+02 -0.21938240197E+02  0.14286999263E+04  0.14290993892E+04  0.10000000000E+02 0. -1.
</event>
<event>
 5    1  0.1247473E-008  0.3825613E+03  0.7957747E-01  0.3440081E+00
         13   -1    0    0    0    0  0.00000000000E+00  0.00000000000E+00  0.14999999963E+04  0.15000000000E+04  0.10566000000E+00 0. -1.
        994   -1    0    0    0    0 -0.00000000000E+00 -0.00000000000E+00  0.11368683772E-12  0.17120000000E+03  0.17120000000E+03 0.  0.
         13    1    1    2    0    0 -0.11699688078E+02  0.10293543186E+02  0.59537064347E+02  0.61542773155E+02  0.10566000000E+00 0. -1.
        994    1    1    2    0    0 -0.10518021617E+02  0.76977241298E+02  0.23119292882E+02  0.18942034252E+03  0.17120000000E+03 0.  0.
        998    1    1    2    0    0  0.22217709695E+02 -0.87270784484E+02  0.14173436390E+04  0.14202368843E+04  0.10000000000E+02 0. -1.
</event>
<event>
 5    1  0.1247473E-008  0.3837362E+03  0.7957747E-01  0.3435050E+00
         13   -1    0    0    0    0  0.00000000000E+00  0.00000000000E+00  0.14999999963E+04  0.15000000000E+04  0.10566000000E+00 0. -1.
        994   -1    0    0    0    0 -0.00000000000E+00 -0.00000000000E+00  0.11368683772E-12  0.17120000000E+03  0.17120000000E+03 0.  0.
         13    1    1    2    0    0  0.16784464652E+02  0.78884742485E+01  0.72056604992E+02  0.74405052024E+02  0.10566000000E+00 0. -1.
        994    1    1    2    0    0 -0.21303994859E+02 -0.27052487103E+01  0.37832695741E+01  0.17258311533E+03  0.17120000000E+03 0.  0.
        998    1    1    2    0    0  0.45195302076E+01 -0.51832255382E+01  0.14241601217E+04  0.14242118326E+04  0.10000000000E+02 0. -1.
</event>
<event>
 5    1  0.1247473E-008  0.3841423E+03  0.7957747E-01  0.3433318E+00
         13   -1    0    0    0    0  0.00000000000E+00  0.00000000000E+00  0.14999999963E+04  0.15000000000E+04  0.10566000000E+00 0.  1.
        994   -1    0    0    0    0 -0.00000000000E+00 -0.00000000000E+00  0.11368683772E-12  0.17120000000E+03  0.17120000000E+03 0.  0.
         13    1    1    2    0    0 -0.11670929972E+02 -0.22323062702E+01  0.33687664018E+02  0.35722033379E+02  0.10566000000E+00 0.  1.
        994    1    1    2    0    0  0.86553385448E+01  0.24920224567E+01  0.23241679049E+01  0.17145252059E+03  0.17120000000E+03 0.  0.
        998    1    1    2    0    0  0.30155914274E+01 -0.25971618649E+00  0.14639881644E+04  0.14640254460E+04  0.10000000000E+02 0.  1.
</event>
<event>
 5    1  0.1247473E-008  0.3775371E+03  0.7957747E-01  0.3461953E+00
         13   -1    0    0    0    0  0.00000000000E+00  0.00000000000E+00  0.14999999963E+04  0.15000000000E+04  0.10566000000E+00 0. -1.
        994   -1    0    0    0    0 -0.00000000000E+00 -0.00000000000E+00  0.11368683772E-12  0.17120000000E+03  0.17120000000E+03 0.  0.
         13    1    1    2    0    0 -0.11771047899E+02  0.15805541006E+02  0.33021598301E+02  0.38455296300E+02  0.10566000000E+00 0. -1.
        994    1    1    2    0    0  0.12239787340E+02 -0.18808520870E+02  0.70806806261E+01  0.17280957407E+03  0.17120000000E+03 0.  0.
        998    1    1    2    0    0 -0.46873944099E+00  0.30029798640E+01  0.14598977174E+04  0.14599351296E+04  0.10000000000E+02 0. -1.
</event>
<event>
 5    1  0.1247473E-008  0.3832475E+03  0.7957747E-01  0.3437139E+00
         13   -1    0    0    0    0  0.00000000000E+00  0.00000000000E+00  0.14999999963E+04  0.15000000000E+04  0.10566000000E+00 0. -1.
        994   -1    0    0    0    0 -0.00000000000E+00 -0.00000000000E+00  0.11368683772E-12  0.17120000000E+03  0.17120000000E+03 0.  0.
         13    1    1    2    0    0  0.14238362220E+02  0.27203868915E+01  0.41272139772E+02  0.43743938425E+02  0.10566000000E+00 0. -1.
        994    1    1    2    0    0 -0.11226538546E+02  0.80616308015E+01  0.31347907547E+01  0.17178559885E+03  0.17120000000E+03 0.  0.
        998    1    1    2    0    0 -0.30118236738E+01 -0.10782017693E+02  0.14555930658E+04  0.14556704627E+04  0.10000000000E+02 0. -1.
</event>
<event>
 5    1  0.1247473E-008  0.3818639E+03  0.7957747E-01  0.3443083E+00
         13   -1    0    0    0    0  0.00000000000E+00  0.00000000000E+00  0.14999999963E+04  0.15000000000E+04  0.10566000000E+00 0. -1.
        994   -1    0    0    0    0 -0.00000000000E+00 -0.00000000000E+00  0.11368683772E-12  0.17120000000E+03  0.17120000000E+03 0.  0.
         13    1    1    2    0    0 -0.19483609023E+02 -0.74269015073E+01  0.64372679201E+02  0.67665522078E+02  0.10566000000E+00 0. -1.
        994    1    1    2    0    0  0.26979951305E+02 -0.88859406477E+01  0.58806612348E+01  0.17364014481E+03  0.17120000000E+03 0.  0.
        998    1    1    2    0    0 -0.74963422816E+01  0.16312842155E+02  0.14297466558E+04  0.14298943331E+04  0.10000000000E+02 0. -1.
</event>
<event>
 5    1  0.1247473E-008  0.3758528E+03  0.7957747E-01  0.3469417E+00
         13   -1    0    0    0    0  0.00000000000E+00  0.00000000000E+00  0.14999999963E+04  0.15000000000E+04  0.10566000000E+00 0. -1.
        994   -1    0    0    0    0 -0.00000000000E+00 -0.00000000000E+00  0.11368683772E-12  0.17120000000E+03  0.17120000000E+03 0.  0.
         13    1    1    2    0    0 -0.78329507180E+01  0.11607697201E+02  0.12713885559E+02  0.18914222197E+02  0.10566000000E+00 0. -1.
        994    1    1    2    0    0  0.10943088173E+02 -0.14234518121E+02  0.73348490437E+01  0.17229513254E+03  0.17120000000E+03 0.  0.
        998    1    1    2    0    0 -0.31101374547E+01  0.26268209196E+01  0.14799512617E+04  0.14799906453E+04  0.10000000000E+02 0. -1.
</event>
<event>
 5    1  0.1247473E-008  0.3857668E+03  0.7957747E-01  0.3426427E+00
         13   -1    0    0    0    0  0.00000000000E+00  0.00000000000E+00  0.14999999963E+04  0.15000000000E+04  0.10566000000E+00 0.  1.
        994   -1    0    0    0    0 -0.00000000000E+00 -0.00000000000E+00  0.11368683772E-12  0.17120000000E+03  0.17120000000E+03 0.  0.
         13    1    1    2    0    0 -0.11216895610E+02 -0.61807040723E+01  0.74498523355E+02  0.75591408216E+02  0.10566000000E+00 0.  1.
        994    1    1    2    0    0 -0.40926226748E+01 -0.61600349739E+01  0.14293740855E+01  0.17136562871E+03  0.17120000000E+03 0.  0.
        998    1    1    2    0    0  0.15309518285E+02  0.12340739046E+02  0.14240720988E+04  0.14242429631E+04  0.10000000000E+02 0.  1.
</event>
<event>
 5    1  0.1247473E-008  0.3814790E+03  0.7957747E-01  0.3444744E+00
         13   -1    0    0    0    0  0.00000000000E+00  0.00000000000E+00  0.14999999963E+04  0.15000000000E+04  0.10566000000E+00 0.  1.
        994   -1    0    0    0    0 -0.00000000000E+00 -0.00000000000E+00  0.11368683772E-12  0.17120000000E+03  0.17120000000E+03 0.  0.
         13    1    1    2    0    0 -0.26067351760E+02  0.15508737309E+02  0.13079657571E+03  0.13426758038E+03  0.10566000000E+00 0.  1.
        994    1    1    2    0    0  0.18792467874E+02 -0.12659098448E+02  0.50982010425E+01  0.17276817206E+03  0.17120000000E+03 0.  0.
        998    1    1    2    0    0  0.72748838862E+01 -0.28496388610E+01  0.13641052195E+04  0.13641642476E+04  0.10000000000E+02 0.  1.
</event>
<event>
 5    1  0.1247473E-008  0.3750996E+03  0.7957747E-01  0.3472777E+00
         13   -1    0    0    0    0  0.00000000000E+00  0.00000000000E+00  0.14999999963E+04  0.15000000000E+04  0.10566000000E+00 0.  1.
        994   -1    0    0    0    0 -0.00000000000E+00 -0.00000000000E+00  0.11368683772E-12  0.17120000000E+03  0.17120000000E+03 0.  0.
         13    1    1    2    0    0  0.89980057881E+01 -0.66712843800E+02  0.31640901811E+03  0.32349071940E+03  0.10566000000E+00 0.  1.
        994    1    1    2    0    0  0.14968160170E+02  0.50740530696E+02  0.16197635197E+02  0.17991789978E+03  0.17120000000E+03 0.  0.
        998    1    1    2    0    0 -0.23966165958E+02  0.15972313104E+02  0.11673933430E+04  0.11677913808E+04  0.10000000000E+02 0.  1.
</event>
<event>
 5    1  0.1247473E-008  0.3778707E+03  0.7957747E-01  0.3460483E+00
         13   -1    0    0    0    0  0.00000000000E+00  0.00000000000E+00  0.14999999963E+04  0.15000000000E+04  0.10566000000E+00 0.  1.
        994   -1    0    0    0    0 -0.00000000000E+00 -0.00000000000E+00  0.11368683772E-12  0.17120000000E+03  0.17120000000E+03 0.  0.
         13    1    1    2    0    0  0.18797219710E+01 -0.13719673853E+02  0.15989818493E+02  0.21152972954E+02  0.10566000000E+00 0.  1.
        994    1    1    2    0    0  0.21922189265E+01  0.14078387834E+02  0.58956348465E+01  0.17189300549E+03  0.17120000000E+03 0.  0.
        998    1    1    2    0    0 -0.40719408976E+01 -0.35871398073E+00  0.14781145429E+04  0.14781540216E+04  0.10000000000E+02 0.  1.
</event>
<event>
 5    1  0.1247473E-008  0.3754231E+03  0.7957747E-01  0.3471333E+00
         13   -1    0    0    0    0  0.00000000000E+00  0.00000000000E+00  0.14999999963E+04  0.15000000000E+04  0.10566000000E+00 0.  1.
        994   -1    0    0    0    0 -0.00000000000E+00 -0.00000000000E+00  0.11368683772E-12  0.17120000000E+03  0.17120000000E+03 0.  0.
         13    1    1    2    0    0 -0.35120139434E+01  0.52018902111E+02  0.24944337429E+03  0.25483388425E+03  0.10566000000E+00 0.  1.
        994    1    1    2    0    0 -0.79965117798E+01 -0.50393922178E+01  0.67649242204E+01  0.17159412541E+03  0.17120000000E+03 0.  0.
        998    1    1    2    0    0  0.11508525723E+02 -0.46979509894E+02  0.12437916978E+04  0.12447719903E+04  0.10000000000E+02 0.  1.
</event>
<event>
 5    1  0.1247473E-008  0.3813538E+03  0.7957747E-01  0.3445285E+00
         13   -1    0    0    0    0  0.00000000000E+00  0.00000000000E+00  0.14999999963E+04  0.15000000000E+04  0.10566000000E+00 0. -1.
        994   -1    0    0    0    0 -0.00000000000E+00 -0.00000000000E+00  0.11368683772E-12  0.17120000000E+03  0.17120000000E+03 0.  0.
         13    1    1    2    0    0  0.13045116777E+02 -0.65092345846E+01  0.29382250517E+02  0.32800503290E+02  0.10566000000E+00 0. -1.
        994    1    1    2    0    0 -0.95226749251E+01  0.53088003832E+01  0.38469876325E+01  0.17158992981E+03  0.17120000000E+03 0.  0.
        998    1    1    2    0    0 -0.35224418518E+01  0.12004342015E+01  0.14667707581E+04  0.14668095669E+04  0.10000000000E+02 0. -1.
</event>
<event>
 5    1  0.1247473E-008  0.3833271E+03  0.7957747E-01  0.3436798E+00
         13   -1    0    0    0    0  0.00000000000E+00  0.00000000000E+00  0.14999999963E+04  0.15000000000E+04  0.10566000000E+00 0.  1.
        994   -1    0    0    0    0 -0.00000000000E+00 -0.00000000000E+00  0.11368683772E-12  0.17120000000E+03  0.17120000000E+03 0.  0.
         13    1    1    2    0    0 -0.18992905173E+02  0.15484361004E+02  0.12115466368E+03  0.12360808864E+03  0.10566000000E+00 0.  1.
        994    1    1    2    0    0  0.67432943926E+01 -0.15712211554E+02  0.34302236847E+01  0.17208588567E+03  0.17120000000E+03 0.  0.
        998    1    1    2    0    0  0.12249610780E+02  0.22785055059E+00  0.13754151089E+04  0.13755060257E+04  0.10000000000E+02 0.  1.
</event>
<event>
 5    1  0.1247473E-008  0.4206742E+03  0.7957747E-01  0.3291166E+00
         13   -1    0    0    0    0  0.00000000000E+00  0.00000000000E+00  0.14999999963E+04  0.15000000000E+04  0.10566000000E+00 0. -1.
        994   -1    0    0    0    0 -0.00000000000E+00 -0.00000000000E+00  0.11368683772E-12  0.17120000000E+03  0.17120000000E+03 0.  0.
         13    1    1    2    0    0  0.32562710844E+02  0.39637696584E+02  0.16606213742E+02  0.53918963518E+02  0.10566000000E+00 0. -1.
        994    1    1    2    0    0 -0.87028405648E+01 -0.61913248283E+02  0.57694286988E+02  0.19117285502E+03  0.17120000000E+03 0.  0.
        998    1    1    2    0    0 -0.23859870279E+02  0.22275551699E+02  0.14256994955E+04  0.14261081815E+04  0.10000000000E+02 0. -1.
</event>
<event>
 5    1  0.1247473E-008  0.3813856E+03  0.7957747E-01  0.3445147E+00
         13   -1    0    0    0    0  0.00000000000E+00  0.00000000000E+00  0.14999999963E+04  0.15000000000E+04  0.10566000000E+00 0.  1.
        994   -1    0    0    0    0 -0.00000000000E+00 -0.00000000000E+00  0.11368683772E-12  0.17120000000E+03  0.17120000000E+03 0.  0.
         13    1    1    2    0    0 -0.17108668793E+02 -0.92904185728E+01  0.53030566413E+02  0.56491331753E+02  0.10566000000E+00 0.  1.
        994    1    1    2    0    0  0.55202178967E+01  0.25486314473E+02  0.57015280824E+01  0.17326849816E+03  0.17120000000E+03 0.  0.
        998    1    1    2    0    0  0.11588450897E+02 -0.16195895900E+02  0.14412679018E+04  0.14414401701E+04  0.10000000000E+02 0.  1.
</event>
<event>
 5    1  0.1247473E-008  0.3742539E+03  0.7957747E-01  0.3476566E+00
         13   -1    0    0    0    0  0.00000000000E+00  0.00000000000E+00  0.14999999963E+04  0.15000000000E+04  0.10566000000E+00 0.  1.
        994   -1    0    0    0    0 -0.00000000000E+00 -0.00000000000E+00  0.11368683772E-12  0.17120000000E+03  0.17120000000E+03 0.  0.
         13    1    1    2    0    0  0.34793915754E+02 -0.26450384220E+02  0.72469421723E+02  0.84629000040E+02  0.10566000000E+00 0.  1.
        994    1    1    2    0    0  0.18896554353E+02  0.33395567144E+02  0.18449403744E+02  0.17641475043E+03  0.17120000000E+03 0.  0.
        998    1    1    2    0    0 -0.53690470108E+02 -0.69451829240E+01  0.14090811708E+04  0.14101562495E+04  0.10000000000E+02 0.  1.
</event>
<event>
 5    1  0.1247473E-008  0.3706017E+03  0.7957747E-01  0.3493130E+00
         13   -1    0    0    0    0  0.00000000000E+00  0.00000000000E+00  0.14999999963E+04  0.15000000000E+04  0.10566000000E+00 0.  1.
        994   -1    0    0    0    0 -0.00000000000E+00 -0.00000000000E+00  0.11368683772E-12  0.17120000000E+03  0.17120000000E+03 0.  0.
         13    1    1    2    0    0 -0.40115911545E+02 -0.43798183019E+01  0.64564104291E+02  0.76138058120E+02  0.10566000000E+00 0.  1.
        994    1    1    2    0    0  0.45051460515E+02  0.16326756366E+01  0.18411263163E+02  0.17799077037E+03  0.17120000000E+03 0.  0.
        998    1    1    2    0    0 -0.49355489697E+01  0.27471426653E+01  0.14170246288E+04  0.14170711715E+04  0.10000000000E+02 0.  1.
</event>
<event>
 5    1  0.1247473E-008  0.3804735E+03  0.7957747E-01  0.3449100E+00
         13   -1    0    0    0    0  0.00000000000E+00  0.00000000000E+00  0.14999999963E+04  0.15000000000E+04  0.10566000000E+00 0. -1.
        994   -1    0    0    0    0 -0.00000000000E+00 -0.00000000000E+00  0.11368683772E-12  0.17120000000E+03  0.17120000000E+03 0.  0.
         13    1    1    2    0    0  0.41273107492E+02  0.19943687467E+02  0.15062042511E+03  0.15744123887E+03  0.10566000000E+00 0. -1.
        994    1    1    2    0    0 -0.13472700984E+03 -0.61144532545E+01  0.67201705125E+02  0.22806635633E+03  0.17120000000E+03 0.  0.
        998    1    1    2    0    0  0.93453902351E+02 -0.13829234212E+02  0.12821778660E+04  0.12856924048E+04  0.10000000000E+02 0. -1.
</event>
<event>
 5    1  0.1247473E-008  0.3857454E+03  0.7957747E-01  0.3426517E+00
         13   -1    0    0    0    0  0.00000000000E+00  0.00000000000E+00  0.14999999963E+04  0.15000000000E+04  0.10566000000E+00 0. -1.
        994   -1    0    0    0    0 -0.00000000000E+00 -0.00000000000E+00  0.11368683772E-12  0.17120000000E+03  0.17120000000E+03 0.  0.
         13    1    1    2    0    0  0.14613455778E+02  0.50152747197E+00  0.84413285045E+02  0.85670406067E+02  0.10566000000E+00 0. -1.
        994    1    1    2    0    0 -0.10885038583E+02 -0.10311534448E+02  0.19983837895E+01  0.17186694082E+03  0.17120000000E+03 0.  0.
        998    1    1    2    0    0 -0.37284171947E+01  0.98100069759E+01  0.14135883274E+04  0.14136626531E+04  0.10000000000E+02 0. -1.
</event>
<event>
 5    1  0.1247473E-008  0.3843973E+03  0.7957747E-01  0.3432232E+00
         13   -1    0    0    0    0  0.00000000000E+00  0.00000000000E+00  0.14999999963E+04  0.15000000000E+04  0.10566000000E+00 0.  1.
        994   -1    0    0    0    0 -0.00000000000E+00 -0.00000000000E+00  0.11368683772E-12  0.17120000000E+03  0.17120000000E+03 0.  0.
         13    1    1    2    0    0 -0.10642137421E+02  0.94401846190E+00  0.28746906265E+02  0.30668257915E+02  0.10566000000E+00 0.  1.
        994    1    1    2    0    0  0.93247803786E+01 -0.13461263497E+02  0.28137374679E+01  0.17200440187E+03  0.17120000000E+03 0.  0.
        998    1    1    2    0    0  0.13173570419E+01  0.12517245035E+02  0.14684393525E+04  0.14685273402E+04  0.10000000000E+02 0.  1.
</event>
<event>
 5    1  0.1247473E-008  0.3794190E+03  0.7957747E-01  0.3453692E+00
         13   -1    0    0    0    0  0.00000000000E+00  0.00000000000E+00  0.14999999963E+04  0.15000000000E+04  0.10566000000E+00 0. -1.
        994   -1    0    0    0    0 -0.00000000000E+00 -0.00000000000E+00  0.11368683772E-12  0.17120000000E+03  0.17120000000E+03 0.  0.
         13    1    1    2    0    0 -0.27772658648E+02 -0.25213877522E+01  0.79738510336E+02  0.84474369836E+02  0.10566000000E+00 0. -1.
        994    1    1    2    0    0  0.34763488941E+02  0.31860067324E+01  0.85192025505E+01  0.17493046508E+03  0.17120000000E+03 0.  0.
        998    1    1    2    0    0 -0.69908302935E+01 -0.66461898026E+00  0.14117422834E+04  0.14117951651E+04  0.10000000000E+02 0. -1.
</event>
<event>
 5    1  0.1247473E-008  0.3717242E+03  0.7957747E-01  0.3488004E+00
         13   -1    0    0    0    0  0.00000000000E+00  0.00000000000E+00  0.14999999963E+04  0.15000000000E+04  0.10566000000E+00 0.  1.
        994   -1    0    0    0    0 -0.00000000000E+00 -0.00000000000E+00  0.11368683772E-12  0.17120000000E+03  0.17120000000E+03 0.  0.
         13    1    1    2    0    0 -0.26419201750E+03  0.84589212071E+01  0.10744227605E+04  0.11064597846E+04  0.10566000000E+00 0.  1.
        994    1    1    2    0    0  0.26074401841E+03 -0.11657406854E+02  0.28176738948E+03  0.42050640904E+03  0.17120000000E+03 0.  0.
        998    1    1    2    0    0  0.34479990871E+01  0.31984856469E+01  0.14380984633E+03  0.14423380640E+03  0.10000000000E+02 0.  0.
</event>
<event>
 5    1  0.1247473E-008  0.3838285E+03  0.7957747E-01  0.3434656E+00
         13   -1    0    0    0    0  0.00000000000E+00  0.00000000000E+00  0.14999999963E+04  0.15000000000E+04  0.10566000000E+00 0.  1.
        994   -1    0    0    0    0 -0.00000000000E+00 -0.00000000000E+00  0.11368683772E-12  0.17120000000E+03  0.17120000000E+03 0.  0.
         13    1    1    2    0    0  0.21798699454E+01  0.14937044947E+02  0.50590206693E+02  0.52794387220E+02  0.10566000000E+00 0.  1.
        994    1    1    2    0    0 -0.58641931827E+01 -0.10767649987E+02  0.27093083094E+01  0.17165987126E+03  0.17120000000E+03 0.  0.
        998    1    1    2    0    0  0.36843232373E+01 -0.41693949600E+01  0.14467004813E+04  0.14467457415E+04  0.10000000000E+02 0.  1.
</event>
<event>
 5    1  0.1247473E-008  0.3786520E+03  0.7957747E-01  0.3457049E+00
         13   -1    0    0    0    0  0.00000000000E+00  0.00000000000E+00  0.14999999963E+04  0.15000000000E+04  0.10566000000E+00 0.  1.
        994   -1    0    0    0    0 -0.00000000000E+00 -0.00000000000E+00  0.11368683772E-12  0.17120000000E+03  0.17120000000E+03 0.  0.
         13    1    1    2    0    0  0.20520272312E+02 -0.39587215376E+01  0.43532688011E+02  0.48289327407E+02  0.10566000000E+00 0.  1.
        994    1    1    2    0    0 -0.14944137656E+02 -0.62714981461E+01  0.56976468255E+01  0.17205976322E+03  0.17120000000E+03 0.  0.
        998    1    1    2    0    0 -0.55761346560E+01  0.10230219684E+02  0.14507696614E+04  0.14508509094E+04  0.10000000000E+02 0.  1.
</event>
<event>
 5    1  0.1247473E-008  0.3685153E+03  0.7957747E-01  0.3502742E+00
         13   -1    0    0    0    0  0.00000000000E+00  0.00000000000E+00  0.14999999963E+04  0.15000000000E+04  0.10566000000E+00 0.  1.
        994   -1    0    0    0    0 -0.00000000000E+00 -0.00000000000E+00  0.11368683772E-12  0.17120000000E+03  0.17120000000E+03 0.  0.
         13    1    1    2    0    0  0.34863132830E+02  0.52298587338E+02  0.18769534819E+03  0.19793972609E+03  0.10566000000E+00 0.  1.
        994    1    1    2    0    0 -0.12711301608E+02 -0.43891971743E+02  0.17339546241E+02  0.17803983328E+03  0.17120000000E+03 0.  0.
        998    1    1    2    0    0 -0.22151831222E+02 -0.84066155952E+01  0.12949651018E+04  0.12952204406E+04  0.10000000000E+02 0.  1.
</event>
<event>
 5    1  0.1247473E-008  0.3771613E+03  0.7957747E-01  0.3463613E+00
         13   -1    0    0    0    0  0.00000000000E+00  0.00000000000E+00  0.14999999963E+04  0.15000000000E+04  0.10566000000E+00 0. -1.
        994   -1    0    0    0    0 -0.00000000000E+00 -0.00000000000E+00  0.11368683772E-12  0.17120000000E+03  0.17120000000E+03 0.  0.
         13    1    1    2    0    0 -0.10268977281E+03  0.15287532323E+03  0.84083192393E+03  0.86076384064E+03  0.10566000000E+00 0. -1.
        994    1    1    2    0    0  0.12982201634E+03 -0.15172629709E+03  0.15472175695E+03  0.30516042868E+03  0.17120000000E+03 0.  0.
        998    1    1    2    0    0 -0.27132243525E+02 -0.11490261375E+01  0.50444631540E+03  0.50527573068E+03  0.10000000000E+02 0. -1.
</event>
<event>
 5    1  0.1247473E-008  0.3780908E+03  0.7957747E-01  0.3459514E+00
         13   -1    0    0    0    0  0.00000000000E+00  0.00000000000E+00  0.14999999963E+04  0.15000000000E+04  0.10566000000E+00 0.  1.
        994   -1    0    0    0    0 -0.00000000000E+00 -0.00000000000E+00  0.11368683772E-12  0.17120000000E+03  0.17120000000E+03 0.  0.
         13    1    1    2    0    0  0.53192737892E+01 -0.21523339046E+02  0.49330197114E+02  0.54083530845E+02  0.10566000000E+00 0.  1.
        994    1    1    2    0    0  0.21430453921E+02  0.90964339346E+00  0.66493605918E+01  0.17266657407E+03  0.17120000000E+03 0.  0.
        998    1    1    2    0    0 -0.26749727710E+02  0.20613695653E+02  0.14440204386E+04  0.14444498951E+04  0.10000000000E+02 0.  1.
</event>
<event>
 5    1  0.1247473E-008  0.3818373E+03  0.7957747E-01  0.3443197E+00
         13   -1    0    0    0    0  0.00000000000E+00  0.00000000000E+00  0.14999999963E+04  0.15000000000E+04  0.10566000000E+00 0. -1.
        994   -1    0    0    0    0 -0.00000000000E+00 -0.00000000000E+00  0.11368683772E-12  0.17120000000E+03  0.17120000000E+03 0.  0.
         13    1    1    2    0    0 -0.57244435714E+01  0.11416132216E+02  0.23519300335E+02  0.26763145952E+02  0.10566000000E+00 0. -1.
        994    1    1    2    0    0  0.57397533981E+01 -0.17031748321E+02  0.42826081812E+01  0.17219409384E+03  0.17120000000E+03 0.  0.
        998    1    1    2    0    0 -0.15309826697E-01  0.56156161048E+01  0.14721980878E+04  0.14722427602E+04  0.10000000000E+02 0. -1.
</event>
<event>
 5    1  0.1308482E-008  0.3860665E+03  0.7957747E-01  0.3425162E+00
         13   -1    0    0    0    0  0.00000000000E+00  0.00000000000E+00  0.14999999963E+04  0.15000000000E+04  0.10566000000E+00 0. -1.
        994   -1    0    0    0    0 -0.00000000000E+00 -0.00000000000E+00  0.11368683772E-12  0.17120000000E+03  0.17120000000E+03 0.  0.
         13    1    1    2    0    0 -0.11759328777E+02 -0.41535324695E+01  0.74155244235E+02  0.75196709082E+02  0.10566000000E+00 0. -1.
        994    1    1    2    0    0  0.17602622611E+01  0.66154486785E+01  0.12551839061E+01  0.17134140822E+03  0.17120000000E+03 0.  0.
        998    1    1    2    0    0  0.99990665154E+01 -0.24619162091E+01  0.14245895681E+04  0.14246618827E+04  0.10000000000E+02 0. -1.
</event>
<event>
 5    1  0.1247473E-008  0.3841947E+03  0.7957747E-01  0.3433095E+00
         13   -1    0    0    0    0  0.00000000000E+00  0.00000000000E+00  0.14999999963E+04  0.15000000000E+04  0.10566000000E+00 0.  1.
        994   -1    0    0    0    0 -0.00000000000E+00 -0.00000000000E+00  0.11368683772E-12  0.17120000000E+03  0.17120000000E+03 0.  0.
         13    1    1    2    0    0 -0.56395469979E+01  0.85433071290E+01  0.24869621316E+02  0.26894271053E+02  0.10566000000E+00 0.  1.
        994    1    1    2    0    0  0.41529675566E+01 -0.10347445078E+02  0.24405002442E+01  0.17158004779E+03  0.17120000000E+03 0.  0.
        998    1    1    2    0    0  0.14865794413E+01  0.18041379492E+01  0.14726898747E+04  0.14727256812E+04  0.10000000000E+02 0.  1.
</event>
<event>
 5    1  0.1247473E-008  0.3852427E+03  0.7957747E-01  0.3428644E+00
         13   -1    0    0    0    0  0.00000000000E+00  0.00000000000E+00  0.14999999963E+04  0.15000000000E+04  0.10566000000E+00 0.  1.
        994   -1    0    0    0    0 -0.00000000000E+00 -0.00000000000E+00  0.11368683772E-12  0.17120000000E+03  0.17120000000E+03 0.  0.
         13    1    1    2    0    0  0.10815379671E+02  0.10892968267E+02  0.76146877307E+02  0.77678744085E+02  0.10566000000E+00 0.  1.
        994    1    1    2    0    0 -0.12543806454E+02 -0.71174976034E+01  0.21935184161E+01  0.17182042188E+03  0.17120000000E+03 0.  0.
        998    1    1    2    0    0  0.17284267838E+01 -0.37754706635E+01  0.14216596006E+04  0.14217008340E+04  0.10000000000E+02 0.  1.
</event>
<event>
 5    1  0.1247473E-008  0.3843744E+03  0.7957747E-01  0.3432330E+00
         13   -1    0    0    0    0  0.00000000000E+00  0.00000000000E+00  0.14999999963E+04  0.15000000000E+04  0.10566000000E+00 0. -1.
        994   -1    0    0    0    0 -0.00000000000E+00 -0.00000000000E+00  0.11368683772E-12  0.17120000000E+03  0.17120000000E+03 0.  0.
         13    1    1    2    0    0 -0.47055392657E+01 -0.21190475248E+02  0.12771668681E+03  0.12954822112E+03  0.10566000000E+00 0. -1.
        994    1    1    2    0    0  0.41921703853E+01  0.62772491933E+01  0.21288239005E+01  0.17137954966E+03  0.17120000000E+03 0.  0.
        998    1    1    2    0    0  0.51336888034E+00  0.14913226055E+02  0.13701544856E+04  0.13702722292E+04  0.10000000000E+02 0. -1.
</event>
<event>
 5    1  0.1247473E-008  0.3703411E+03  0.7957747E-01  0.3494324E+00
         13   -1    0    0    0    0  0.00000000000E+00  0.00000000000E+00  0.14999999963E+04  0.15000000000E+04  0.10566000000E+00 0.  1.
        994   -1    0    0    0    0 -0.00000000000E+00 -0.00000000000E+00  0.11368683772E-12  0.17120000000E+03  0.17120000000E+03 0.  0.
         13    1    1    2    0    0 -0.14150143306E+02  0.15462505305E+02  0.15797827923E+02  0.26246869470E+02  0.10566000000E+00 0.  1.
        994    1    1    2    0    0 -0.31173040250E+02 -0.14392419925E+02  0.15256880921E+02  0.17527439233E+03  0.17120000000E+03 0.  0.
        998    1    1    2    0    0  0.45323183556E+02 -0.10700853796E+01  0.14689452874E+04  0.14696787382E+04  0.10000000000E+02 0.  1.
</event>
<event>
 5    1  0.1247473E-008  0.3857105E+03  0.7957747E-01  0.3426664E+00
         13   -1    0    0    0    0  0.00000000000E+00  0.00000000000E+00  0.14999999963E+04  0.15000000000E+04  0.10566000000E+00 0.  1.
        994   -1    0    0    0    0 -0.00000000000E+00 -0.00000000000E+00  0.11368683772E-12  0.17120000000E+03  0.17120000000E+03 0.  0.
         13    1    1    2    0    0 -0.67633859492E+01 -0.11341706441E+02  0.70879857290E+02  0.72099535560E+02  0.10566000000E+00 0.  1.
        994    1    1    2    0    0  0.80781529222E+01  0.68041084679E+00  0.14934464973E+01  0.17139833691E+03  0.17120000000E+03 0.  0.
        998    1    1    2    0    0 -0.13147669730E+01  0.10661295594E+02  0.14276266925E+04  0.14277021275E+04  0.10000000000E+02 0.  1.
</event>
<event>
 5    1  0.1247473E-008  0.3724014E+03  0.7957747E-01  0.3484927E+00
         13   -1    0    0    0    0  0.00000000000E+00  0.00000000000E+00  0.14999999963E+04  0.15000000000E+04  0.10566000000E+00 0.  1.
        994   -1    0    0    0    0 -0.00000000000E+00 -0.00000000000E+00  0.11368683772E-12  0.17120000000E+03  0.17120000000E+03 0.  0.
         13    1    1    2    0    0  0.16650437602E+02 -0.21839624671E+02  0.42311970987E+02  0.50443238704E+02  0.10566000000E+00 0.  1.
        994    1    1    2    0    0 -0.18931098184E+02  0.24567536003E+02  0.11325156036E+02  0.17435495250E+03  0.17120000000E+03 0.  0.
        998    1    1    2    0    0  0.22806605821E+01 -0.27279113317E+01  0.14463628693E+04  0.14464018088E+04  0.10000000000E+02 0.  1.
</event>
<event>
 5    1  0.1247473E-008  0.3701176E+03  0.7957747E-01  0.3495351E+00
         13   -1    0    0    0    0  0.00000000000E+00  0.00000000000E+00  0.14999999963E+04  0.15000000000E+04  0.10566000000E+00 0. -1.
        994   -1    0    0    0    0 -0.00000000000E+00 -0.00000000000E+00  0.11368683772E-12  0.17120000000E+03  0.17120000000E+03 0.  0.
         13    1    1    2    0    0 -0.22316616366E+02  0.30941853866E+02  0.73011975438E+02  0.82378330938E+02  0.10566000000E+00 0. -1.
        994    1    1    2    0    0  0.19165485783E+02 -0.29788383930E+02  0.13556446183E+02  0.17535073680E+03  0.17120000000E+03 0.  0.
        998    1    1    2    0    0  0.31511305824E+01 -0.11534699365E+01  0.14134315747E+04  0.14134709323E+04  0.10000000000E+02 0. -1.
</event>
<event>
 5    1  0.1518699E-008  0.3860633E+03  0.7957747E-01  0.3425175E+00
         13   -1    0    0    0    0  0.00000000000E+00  0.00000000000E+00  0.14999999963E+04  0.15000000000E+04  0.10566000000E+00 0. -1.
        994   -1    0    0    0    0 -0.00000000000E+00 -0.00000000000E+00  0.11368683772E-12  0.17120000000E+03  0.17120000000E+03 0.  0.
         13    1    1    2    0    0 -0.62971645380E+00 -0.10928749650E+02  0.56104212944E+02  0.57162295142E+02  0.10566000000E+00 0. -1.
        994    1    1    2    0    0  0.42324310349E+00  0.45805541070E+01  0.11725190029E+01  0.17126580339E+03  0.17120000000E+03 0.  0.
        998    1    1    2    0    0  0.20647335031E+00  0.63481955435E+01  0.14427232643E+04  0.14427719015E+04  0.10000000000E+02 0. -1.
</event>
<event>
 5    1  0.1247473E-008  0.3784359E+03  0.7957747E-01  0.3457997E+00
         13   -1    0    0    0    0  0.00000000000E+00  0.00000000000E+00  0.14999999963E+04  0.15000000000E+04  0.10566000000E+00 0.  1.
        994   -1    0    0    0    0 -0.00000000000E+00 -0.00000000000E+00  0.11368683772E-12  0.17120000000E+03  0.17120000000E+03 0.  0.
         13    1    1    2    0    0 -0.49248079623E+00 -0.21482373463E+02  0.44522776000E+02  0.49437067609E+02  0.10566000000E+00 0.  1.
        994    1    1    2    0    0  0.15481061824E+01  0.17119632050E+02  0.59182827599E+01  0.17216255256E+03  0.17120000000E+03 0.  0.
        998    1    1    2    0    0 -0.10556253862E+01  0.43627414134E+01  0.14495589375E+04  0.14496003798E+04  0.10000000000E+02 0.  1.
</event>
<event>
 5    1  0.1247473E-008  0.3797205E+03  0.7957747E-01  0.3452377E+00
         13   -1    0    0    0    0  0.00000000000E+00  0.00000000000E+00  0.14999999963E+04  0.15000000000E+04  0.10566000000E+00 0. -1.
        994   -1    0    0    0    0 -0.00000000000E+00 -0.00000000000E+00  0.11368683772E-12  0.17120000000E+03  0.17120000000E+03 0.  0.
         13    1    1    2    0    0 -0.20451884246E+02  0.27149549094E+02  0.12776859080E+03  0.13221271325E+03  0.10566000000E+00 0. -1.
        994    1    1    2    0    0  0.16369856453E+02 -0.22921760417E+02  0.69335127753E+01  0.17364012468E+03  0.17120000000E+03 0.  0.
        998    1    1    2    0    0  0.40820277929E+01 -0.42277886767E+01  0.13652978927E+04  0.13653471621E+04  0.10000000000E+02 0. -1.
</event>
<event>
 5    1  0.1247473E-008  0.3819524E+03  0.7957747E-01  0.3442701E+00
         13   -1    0    0    0    0  0.00000000000E+00  0.00000000000E+00  0.14999999963E+04  0.15000000000E+04  0.10566000000E+00 0.  1.
        994   -1    0    0    0    0 -0.00000000000E+00 -0.00000000000E+00  0.11368683772E-12  0.17120000000E+03  0.17120000000E+03 0.  0.
         13    1    1    2    0    0  0.15958839310E+02  0.16121362682E+02  0.75819201962E+02  0.79140036878E+02  0.10566000000E+00 0.  1.
        994    1    1    2    0    0 -0.20489578170E+02 -0.17018566528E+02  0.55108276454E+01  0.17334723431E+03  0.17120000000E+03 0.  0.
        998    1    1    2    0    0  0.45307388605E+01  0.89720384645E+00  0.14186699667E+04  0.14187127288E+04  0.10000000000E+02 0.  1.
</event>
<event>
 5    1  0.1400087E-008  0.3850751E+03  0.7957747E-01  0.3429354E+00
         13   -1    0    0    0    0  0.00000000000E+00  0.00000000000E+00  0.14999999963E+04  0.15000000000E+04  0.10566000000E+00 0.  1.
        994   -1    0    0    0    0 -0.00000000000E+00 -0.00000000000E+00  0.11368683772E-12  0.17120000000E+03  0.17120000000E+03 0.  0.
         13    1    1    2    0    0 -0.72422731667E+01 -0.98051995119E+01  0.46680118041E+02  0.48245590912E+02  0.10566000000E+00 0.  1.
        994    1    1    2    0    0  0.41371247758E+01  0.67331707839E+01  0.17982169516E+01  0.17139172960E+03  0.17120000000E+03 0.  0.
        998    1    1    2    0    0  0.31051483909E+01  0.30720287280E+01  0.14515216613E+04  0.14515626795E+04  0.10000000000E+02 0.  1.
</event>
<event>
 5    1  0.1247473E-008  0.3848536E+03  0.7957747E-01  0.3430293E+00
         13   -1    0    0    0    0  0.00000000000E+00  0.00000000000E+00  0.14999999963E+04  0.15000000000E+04  0.10566000000E+00 0. -1.
        994   -1    0    0    0    0 -0.00000000000E+00 -0.00000000000E+00  0.11368683772E-12  0.17120000000E+03  0.17120000000E+03 0.  0.
         13    1    1    2    0    0  0.89526082265E+01  0.98346375572E+01  0.53392792343E+02  0.55024273990E+02  0.10566000000E+00 0. -1.
        994    1    1    2    0    0  0.13630327473E+01 -0.61299342276E+01  0.18325919272E+01  0.17132493206E+03  0.17120000000E+03 0.  0.
        998    1    1    2    0    0 -0.10315640974E+02 -0.37047033296E+01  0.14447746120E+04  0.14448507940E+04  0.10000000000E+02 0. -1.
</event>
<event>
 5    1  0.1247473E-008  0.3794015E+03  0.7957747E-01  0.3453768E+00
         13   -1    0    0    0    0  0.00000000000E+00  0.00000000000E+00  0.14999999963E+04  0.15000000000E+04  0.10566000000E+00 0. -1.
        994   -1    0    0    0    0 -0.00000000000E+00 -0.00000000000E+00  0.11368683772E-12  0.17120000000E+03  0.17120000000E+03 0.  0.
         13    1    1    2    0    0 -0.40991344333E+01  0.24170270963E+02  0.65201065667E+02  0.69657698998E+02  0.10566000000E+00 0. -1.
        994    1    1    2    0    0  0.16300800027E+02 -0.16584678684E+02  0.62489734439E+01  0.17288509860E+03  0.17120000000E+03 0.  0.
        998    1    1    2    0    0 -0.12201665594E+02 -0.75855922795E+01  0.14285499572E+04  0.14286572024E+04  0.10000000000E+02 0. -1.
</event>
<event>
 5    1  0.1247473E-008  0.3790482E+03  0.7957747E-01  0.3455313E+00
         13   -1    0    0    0    0  0.00000000000E+00  0.00000000000E+00  0.14999999963E+04  0.15000000000E+04  0.10566000000E+00 0.  1.
        994   -1    0    0    0    0 -0.00000000000E+00 -0.00000000000E+00  0.11368683772E-12  0.17120000000E+03  0.17120000000E+03 0.  0.
         13    1    1    2    0    0 -0.77233246732E+01  0.19521308203E+02  0.48075634188E+02  0.52459593828E+02  0.10566000000E+00 0.  1.
        994    1    1    2    0    0  0.79983680719E+01  0.17771913512E+01  0.48395219174E+01  0.17146426238E+03  0.17120000000E+03 0.  0.
        998    1    1    2    0    0 -0.27504339868E+00 -0.21298499555E+02  0.14470848402E+04  0.14472761438E+04  0.10000000000E+02 0.  1.
</event>
<event>
 5    1  0.1247473E-008  0.3833315E+03  0.7957747E-01  0.3436779E+00
         13   -1    0    0    0    0  0.00000000000E+00  0.00000000000E+00  0.14999999963E+04  0.15000000000E+04  0.10566000000E+00 0. -1.
        994   -1    0    0    0    0 -0.00000000000E+00 -0.00000000000E+00  0.11368683772E-12  0.17120000000E+03  0.17120000000E+03 0.  0.
         13    1    1    2    0    0  0.12334204008E+02  0.57846301679E+01  0.37729851709E+02  0.40114179646E+02  0.10566000000E+00 0. -1.
        994    1    1    2    0    0 -0.56938792680E+01  0.22494991220E+01  0.25847174428E+01  0.17132892713E+03  0.17120000000E+03 0.  0.
        998    1    1    2    0    0 -0.66403247397E+01 -0.80341292898E+01  0.14596854271E+04  0.14597568932E+04  0.10000000000E+02 0. -1.
</event>
<event>
 5    1  0.1247473E-008  0.3728820E+03  0.7957747E-01  0.3482750E+00
         13   -1    0    0    0    0  0.00000000000E+00  0.00000000000E+00  0.14999999963E+04  0.15000000000E+04  0.10566000000E+00 0. -1.
        994   -1    0    0    0    0 -0.00000000000E+00 -0.00000000000E+00  0.11368683772E-12  0.17120000000E+03  0.17120000000E+03 0.  0.
         13    1    1    2    0    0 -0.67804190196E+02  0.39361890357E+00  0.29227621096E+03  0.30003826057E+03  0.10566000000E+00 0. -1.
        994    1    1    2    0    0  0.39435664784E+02 -0.67141384376E+01  0.13268976167E+02  0.17631153405E+03  0.17120000000E+03 0.  0.
        998    1    1    2    0    0  0.28368525412E+02  0.63205195340E+01  0.11944548091E+04  0.11948502054E+04  0.10000000000E+02 0. -1.
</event>
<event>
 5    1  0.1247473E-008  0.3766133E+03  0.7957747E-01  0.3466039E+00
         13   -1    0    0    0    0  0.00000000000E+00  0.00000000000E+00  0.14999999963E+04  0.15000000000E+04  0.10566000000E+00 0. -1.
        994   -1    0    0    0    0 -0.00000000000E+00 -0.00000000000E+00  0.11368683772E-12  0.17120000000E+03  0.17120000000E+03 0.  0.
         13    1    1    2    0    0  0.99870367885E+01  0.98288638135E+02  0.50888882815E+03  0.51839005379E+03  0.10566000000E+00 0. -1.
        994    1    1    2    0    0 -0.82044884081E+01 -0.10335975422E+03  0.43108978669E+02  0.20473977744E+03  0.17120000000E+03 0.  0.
        998    1    1    2    0    0 -0.17825483803E+01  0.50711160846E+01  0.94800218946E+03  0.94807016877E+03  0.10000000000E+02 0. -1.
</event>
<event>
 5    1  0.1388558E-008  0.3857038E+03  0.7957747E-01  0.3426693E+00
         13   -1    0    0    0    0  0.00000000000E+00  0.00000000000E+00  0.14999999963E+04  0.15000000000E+04  0.10566000000E+00 0.  1.
        994   -1    0    0    0    0 -0.00000000000E+00 -0.00000000000E+00  0.11368683772E-12  0.17120000000E+03  0.17120000000E+03 0.  0.
         13    1    1    2    0    0 -0.53423203597E+01 -0.10079101554E+02  0.52989449867E+02  0.54203520515E+02  0.10566000000E+00 0.  1.
        994    1    1    2    0    0  0.41817973966E+01  0.29560482935E+00  0.13387752805E+01  0.17125655354E+03  0.17120000000E+03 0.  0.
        998    1    1    2    0    0  0.11605229631E+01  0.97834967250E+01  0.14456717711E+04  0.14457399259E+04  0.10000000000E+02 0.  1.
</event>
<event>
 5    1  0.1247473E-008  0.3692593E+03  0.7957747E-01  0.3499302E+00
         13   -1    0    0    0    0  0.00000000000E+00  0.00000000000E+00  0.14999999963E+04  0.15000000000E+04  0.10566000000E+00 0.  1.
        994   -1    0    0    0    0 -0.00000000000E+00 -0.00000000000E+00  0.11368683772E-12  0.17120000000E+03  0.17120000000E+03 0.  0.
         13    1    1    2    0    0  0.89144464598E+02 -0.48709145560E+02  0.25616158464E+03  0.27556865758E+03  0.10566000000E+00 0.  1.
        994    1    1    2    0    0 -0.16074423594E+03  0.88863482404E+02  0.13762501730E+03  0.28633112524E+03  0.17120000000E+03 0.  0.
        998    1    1    2    0    0  0.71599771346E+02 -0.40154336844E+02  0.11062133943E+04  0.11093002172E+04  0.10000000000E+02 0.  1.
</event>
<event>
 5    1  0.1247473E-008  0.3838670E+03  0.7957747E-01  0.3434492E+00
         13   -1    0    0    0    0  0.00000000000E+00  0.00000000000E+00  0.14999999963E+04  0.15000000000E+04  0.10566000000E+00 0.  1.
        994   -1    0    0    0    0 -0.00000000000E+00 -0.00000000000E+00  0.11368683772E-12  0.17120000000E+03  0.17120000000E+03 0.  0.
         13    1    1    2    0    0  0.97955356645E+01 -0.49128500671E+01  0.26962914129E+02  0.29104956917E+02  0.10566000000E+00 0.  1.
        994    1    1    2    0    0 -0.50979609942E+01  0.98998366178E+00  0.22827263078E+01  0.17129395819E+03  0.17120000000E+03 0.  0.
        998    1    1    2    0    0 -0.46975746703E+01  0.39228664053E+01  0.14707543558E+04  0.14708010849E+04  0.10000000000E+02 0.  1.
</event>
<event>
 5    1  0.1247473E-008  0.3685552E+03  0.7957747E-01  0.3502558E+00
         13   -1    0    0    0    0  0.00000000000E+00  0.00000000000E+00  0.14999999963E+04  0.15000000000E+04  0.10566000000E+00 0. -1.
        994   -1    0    0    0    0 -0.00000000000E+00 -0.00000000000E+00  0.11368683772E-12  0.17120000000E+03  0.17120000000E+03 0.  0.
         13    1    1    2    0    0  0.10119288876E+02  0.42524689163E+01  0.11526699181E+01  0.11037359794E+02  0.10566000000E+00 0. -1.
        994    1    1    2    0    0 -0.99089137626E+01 -0.49767361178E+01  0.10604635802E+02  0.17188616226E+03  0.17120000000E+03 0.  0.
        998    1    1    2    0    0 -0.21037511354E+00  0.72426720148E+00  0.14882426906E+04  0.14882764780E+04  0.10000000000E+02 0. -1.
</event>
<event>
 5    1  0.1247473E-008  0.3853346E+03  0.7957747E-01  0.3428254E+00
         13   -1    0    0    0    0  0.00000000000E+00  0.00000000000E+00  0.14999999963E+04  0.15000000000E+04  0.10566000000E+00 0.  1.
        994   -1    0    0    0    0 -0.00000000000E+00 -0.00000000000E+00  0.11368683772E-12  0.17120000000E+03  0.17120000000E+03 0.  0.
         13    1    1    2    0    0 -0.87508363043E+01  0.10382174252E+02  0.64323139434E+02  0.65740734016E+02  0.10566000000E+00 0.  1.
        994    1    1    2    0    0  0.10483405535E+01 -0.73414006699E+01  0.16448012593E+01  0.17136843511E+03  0.17120000000E+03 0.  0.
        998    1    1    2    0    0  0.77024957508E+01 -0.30407735822E+01  0.14340320556E+04  0.14340908309E+04  0.10000000000E+02 0.  1.
</event>
<event>
 5    1  0.1247473E-008  0.3718345E+03  0.7957747E-01  0.3487502E+00
         13   -1    0    0    0    0  0.00000000000E+00  0.00000000000E+00  0.14999999963E+04  0.15000000000E+04  0.10566000000E+00 0.  1.
        994   -1    0    0    0    0 -0.00000000000E+00 -0.00000000000E+00  0.11368683772E-12  0.17120000000E+03  0.17120000000E+03 0.  0.
         13    1    1    2    0    0  0.10881566058E+02 -0.24540159052E+01  0.36131396452E+01  0.11725895108E+02  0.10566000000E+00 0.  1.
        994    1    1    2    0    0 -0.94397319319E+01  0.35762329122E+01  0.86635100020E+01  0.17171602833E+03  0.17120000000E+03 0.  0.
        998    1    1    2    0    0 -0.14418341263E+01 -0.11222170070E+01  0.14877233466E+04  0.14877580766E+04  0.10000000000E+02 0.  1.
</event>
<event>
 5    1  0.1247473E-008  0.3844580E+03  0.7957747E-01  0.3431974E+00
         13   -1    0    0    0    0  0.00000000000E+00  0.00000000000E+00  0.14999999963E+04  0.15000000000E+04  0.10566000000E+00 0.  1.
        994   -1    0    0    0    0 -0.00000000000E+00 -0.00000000000E+00  0.11368683772E-12  0.17120000000E+03  0.17120000000E+03 0.  0.
         13    1    1    2    0    0 -0.51960518435E+01  0.10518060313E+02  0.34915343347E+02  0.36833692628E+02  0.10566000000E+00 0.  1.
        994    1    1    2    0    0  0.62224466763E+01 -0.12423717293E+02  0.25357911078E+01  0.17178165743E+03  0.17120000000E+03 0.  0.
        998    1    1    2    0    0 -0.10263948328E+01  0.19056569797E+01  0.14625488618E+04  0.14625846499E+04  0.10000000000E+02 0.  1.
</event>
<event>
 5    1  0.1247473E-008  0.3828775E+03  0.7957747E-01  0.3438724E+00
         13   -1    0    0    0    0  0.00000000000E+00  0.00000000000E+00  0.14999999963E+04  0.15000000000E+04  0.10566000000E+00 0.  1.
        994   -1    0    0    0    0 -0.00000000000E+00 -0.00000000000E+00  0.11368683772E-12  0.17120000000E+03  0.17120000000E+03 0.  0.
         13    1    1    2    0    0 -0.14978400316E+02 -0.15632304014E+02  0.11682042012E+03  0.11880969290E+03  0.10566000000E+00 0.  1.
        994    1    1    2    0    0 -0.85577785581E+01 -0.31172247768E+02  0.61555733753E+01  0.17433380535E+03  0.17120000000E+03 0.  0.
        998    1    1    2    0    0  0.23536178874E+02  0.46804551782E+02  0.13770240028E+04  0.13780565018E+04  0.10000000000E+02 0.  1.
</event>
<event>
 5    1  0.1247473E-008  0.3824008E+03  0.7957747E-01  0.3440771E+00
         13   -1    0    0    0    0  0.00000000000E+00  0.00000000000E+00  0.14999999963E+04  0.15000000000E+04  0.10566000000E+00 0.  1.
        994   -1    0    0    0    0 -0.00000000000E+00 -0.00000000000E+00  0.11368683772E-12  0.17120000000E+03  0.17120000000E+03 0.  0.
         13    1    1    2    0    0 -0.16873560504E+03  0.49936628650E+02  0.78913406726E+03  0.80851589877E+03  0.10566000000E+00 0.  1.
        994    1    1    2    0    0  0.21106054755E+03 -0.55701216562E+02  0.18152134062E+03  0.33152468589E+03  0.17120000000E+03 0.  0.
        998    1    1    2    0    0 -0.42324942508E+02  0.57645879117E+01  0.52934458840E+03  0.53115941534E+03  0.10000000000E+02 0.  1.
</event>
<event>
 5    1  0.1247473E-008  0.3684828E+03  0.7957747E-01  0.3502893E+00
         13   -1    0    0    0    0  0.00000000000E+00  0.00000000000E+00  0.14999999963E+04  0.15000000000E+04  0.10566000000E+00 0.  1.
        994   -1    0    0    0    0 -0.00000000000E+00 -0.00000000000E+00  0.11368683772E-12  0.17120000000E+03  0.17120000000E+03 0.  0.
         13    1    1    2    0    0 -0.66240389472E+02  0.74749813374E+02  0.52387435163E+03  0.53331010796E+03  0.10566000000E+00 0.  1.
        994    1    1    2    0    0  0.29531854797E+02 -0.42602307183E+02  0.19463037491E+02  0.17993147822E+03  0.17120000000E+03 0.  0.
        998    1    1    2    0    0  0.36708534674E+02 -0.32147506191E+02  0.95666260716E+03  0.95795841382E+03  0.10000000000E+02 0.  1.
</event>
<event>
 5    1  0.1247473E-008  0.3813250E+03  0.7957747E-01  0.3445409E+00
         13   -1    0    0    0    0  0.00000000000E+00  0.00000000000E+00  0.14999999963E+04  0.15000000000E+04  0.10566000000E+00 0.  1.
        994   -1    0    0    0    0 -0.00000000000E+00 -0.00000000000E+00  0.11368683772E-12  0.17120000000E+03  0.17120000000E+03 0.  0.
         13    1    1    2    0    0  0.98684523926E+01  0.13155243529E+02  0.38498206875E+02  0.41863706018E+02  0.10566000000E+00 0.  1.
        994    1    1    2    0    0 -0.51944871946E+01 -0.29614328572E+01  0.35848099002E+01  0.17134189109E+03  0.17120000000E+03 0.  0.
        998    1    1    2    0    0 -0.46739651979E+01 -0.10193810672E+02  0.14579169795E+04  0.14579944029E+04  0.10000000000E+02 0.  1.
</event>
<event>
 5    1  0.1247473E-008  0.3798740E+03  0.7957747E-01  0.3451708E+00
         13   -1    0    0    0    0  0.00000000000E+00  0.00000000000E+00  0.14999999963E+04  0.15000000000E+04  0.10566000000E+00 0. -1.
        994   -1    0    0    0    0 -0.00000000000E+00 -0.00000000000E+00  0.11368683772E-12  0.17120000000E+03  0.17120000000E+03 0.  0.
         13    1    1    2    0    0 -0.33321980436E+02 -0.74683115069E+01  0.13914473947E+03  0.14327386274E+03  0.10566000000E+00 0. -1.
        994    1    1    2    0    0  0.14302016424E+02  0.21072048154E+02  0.63688531446E+01  0.17320098492E+03  0.17120000000E+03 0.  0.
        998    1    1    2    0    0  0.19019964012E+02 -0.13603736647E+02  0.13544864037E+04  0.13547251523E+04  0.10000000000E+02 0. -1.
</event>
<event>
 5    1  0.1247473E-008  0.3787917E+03  0.7957747E-01  0.3456437E+00
         13   -1    0    0    0    0  0.00000000000E+00  0.00000000000E+00  0.14999999963E+04  0.15000000000E+04  0.10566000000E+00 0.  1.
        994   -1    0    0    0    0 -0.00000000000E+00 -0.00000000000E+00  0.11368683772E-12  0.17120000000E+03  0.17120000000E+03 0.  0.
         13    1    1    2    0    0  0.26770385871E+02  0.20567852543E+01  0.82401134753E+02  0.86665114653E+02  0.10566000000E+00 0.  1.
        994    1    1    2    0    0  0.68642296667E+01 -0.45253256181E+01  0.49712638381E+01  0.17146938410E+03  0.17120000000E+03 0.  0.
        998    1    1    2    0    0 -0.33634615537E+02  0.24685403638E+01  0.14126275977E+04  0.14130655012E+04  0.10000000000E+02 0.  1.
</event>
<event>
 5    1  0.1247473E-008  0.3775381E+03  0.7957747E-01  0.3461949E+00
         13   -1    0    0    0    0  0.00000000000E+00  0.00000000000E+00  0.14999999963E+04  0.15000000000E+04  0.10566000000E+00 0. -1.
        994   -1    0    0    0    0 -0.00000000000E+00 -0.00000000000E+00  0.11368683772E-12  0.17120000000E+03  0.17120000000E+03 0.  0.
         13    1    1    2    0    0  0.24384078381E+02 -0.12954212099E+02  0.19199081202E+02  0.33630503603E+02  0.10566000000E+00 0. -1.
        994    1    1    2    0    0 -0.23414235956E+02 -0.69114918293E+00  0.16954358287E+02  0.17362486688E+03  0.17120000000E+03 0.  0.
        998    1    1    2    0    0 -0.96984242438E+00  0.13645361282E+02  0.14638465568E+04  0.14639446295E+04  0.10000000000E+02 0. -1.
</event>
<event>
 5    1  0.1247473E-008  0.3861711E+03  0.7957747E-01  0.3424721E+00
         13   -1    0    0    0    0  0.00000000000E+00  0.00000000000E+00  0.14999999963E+04  0.15000000000E+04  0.10566000000E+00 0.  1.
        994   -1    0    0    0    0 -0.00000000000E+00 -0.00000000000E+00  0.11368683772E-12  0.17120000000E+03  0.17120000000E+03 0.  0.
         13    1    1    2    0    0  0.98238685168E+01  0.31427650617E+01  0.54177437607E+02  0.55150623520E+02  0.10566000000E+00 0.  1.
        994    1    1    2    0    0  0.40163508433E+01 -0.12477809350E+02  0.16129573319E+01  0.17170867314E+03  0.17120000000E+03 0.  0.
        998    1    1    2    0    0 -0.13840219360E+02  0.93350442882E+01  0.14442096013E+04  0.14443407033E+04  0.10000000000E+02 0.  1.
</event>
<event>
 5    1  0.1247473E-008  0.3839675E+03  0.7957747E-01  0.3434063E+00
         13   -1    0    0    0    0  0.00000000000E+00  0.00000000000E+00  0.14999999963E+04  0.15000000000E+04  0.10566000000E+00 0. -1.
        994   -1    0    0    0    0 -0.00000000000E+00 -0.00000000000E+00  0.11368683772E-12  0.17120000000E+03  0.17120000000E+03 0.  0.
         13    1    1    2    0    0 -0.13079563125E+02  0.65962802170E+01  0.54902347302E+02  0.56823100827E+02  0.10566000000E+00 0. -1.
        994    1    1    2    0    0 -0.50775231355E+01  0.11593631245E+02  0.26723793523E+01  0.17168801687E+03  0.17120000000E+03 0.  0.
        998    1    1    2    0    0  0.18157086260E+02 -0.18189911462E+02  0.14424252696E+04  0.14426888823E+04  0.10000000000E+02 0. -1.
</event>
<event>
 5    1  0.1247473E-008  0.3763131E+03  0.7957747E-01  0.3467371E+00
         13   -1    0    0    0    0  0.00000000000E+00  0.00000000000E+00  0.14999999963E+04  0.15000000000E+04  0.10566000000E+00 0.  1.
        994   -1    0    0    0    0 -0.00000000000E+00 -0.00000000000E+00  0.11368683772E-12  0.17120000000E+03  0.17120000000E+03 0.  0.
         13    1    1    2    0    0 -0.21682045169E+02  0.13605724869E+02  0.50247729810E+02  0.56392130187E+02  0.10566000000E+00 0.  1.
        994    1    1    2    0    0  0.19629838143E+02 -0.22253337862E+02  0.89916602577E+01  0.17398514749E+03  0.17120000000E+03 0.  0.
        998    1    1    2    0    0  0.20522070267E+01  0.86476129928E+01  0.14407606062E+04  0.14408227223E+04  0.10000000000E+02 0.  1.
</event>
<event>
 5    1  0.1247473E-008  0.3843559E+03  0.7957747E-01  0.3432409E+00
         13   -1    0    0    0    0  0.00000000000E+00  0.00000000000E+00  0.14999999963E+04  0.15000000000E+04  0.10566000000E+00 0. -1.
        994   -1    0    0    0    0 -0.00000000000E+00 -0.00000000000E+00  0.11368683772E-12  0.17120000000E+03  0.17120000000E+03 0.  0.
         13    1    1    2    0    0 -0.15206525814E+01  0.11567846352E+02  0.33679822813E+02  0.35643640137E+02  0.10566000000E+00 0. -1.
        994    1    1    2    0    0 -0.19343853896E+01 -0.13671290046E+02  0.25788104527E+01  0.17177524933E+03  0.17120000000E+03 0.  0.
        998    1    1    2    0    0  0.34550379710E+01  0.21034436943E+01  0.14637413630E+04  0.14637811105E+04  0.10000000000E+02 0. -1.
</event>
<event>
 5    1  0.1247473E-008  0.3846714E+03  0.7957747E-01  0.3431067E+00
         13   -1    0    0    0    0  0.00000000000E+00  0.00000000000E+00  0.14999999963E+04  0.15000000000E+04  0.10566000000E+00 0. -1.
        994   -1    0    0    0    0 -0.00000000000E+00 -0.00000000000E+00  0.11368683772E-12  0.17120000000E+03  0.17120000000E+03 0.  0.
         13    1    1    2    0    0 -0.10724308771E+02 -0.66722435556E+01  0.42494428585E+02  0.44331898871E+02  0.10566000000E+00 0. -1.
        994    1    1    2    0    0  0.10831708175E+02  0.14132470765E+02  0.28378447736E+01  0.17214687332E+03  0.17120000000E+03 0.  0.
        998    1    1    2    0    0 -0.10739940340E+00 -0.74602272092E+01  0.14546677229E+04  0.14547212278E+04  0.10000000000E+02 0. -1.
</event>
<event>
 5    1  0.1247473E-008  0.3804773E+03  0.7957747E-01  0.3449083E+00
         13   -1    0    0    0    0  0.00000000000E+00  0.00000000000E+00  0.14999999963E+04  0.15000000000E+04  0.10566000000E+00 0. -1.
        994   -1    0    0    0    0 -0.00000000000E+00 -0.00000000000E+00  0.11368683772E-12  0.17120000000E+03  0.17120000000E+03 0.  0.
         13    1    1    2    0    0  0.22599078314E+01  0.14088105305E+02  0.24584081231E+02  0.28424815012E+02  0.10566000000E+00 0. -1.
        994    1    1    2    0    0  0.50529231915E+01 -0.10775978534E+02  0.43653452655E+01  0.17166872163E+03  0.17120000000E+03 0.  0.
        998    1    1    2    0    0 -0.73128310229E+01 -0.33121267708E+01  0.14710505698E+04  0.14711064634E+04  0.10000000000E+02 0. -1.
</event>
<event>
 5    1  0.1247473E-008  0.3916627E+03  0.7957747E-01  0.3401897E+00
         13   -1    0    0    0    0  0.00000000000E+00  0.00000000000E+00  0.14999999963E+04  0.15000000000E+04  0.10566000000E+00 0. -1.
        994   -1    0    0    0    0 -0.00000000000E+00 -0.00000000000E+00  0.11368683772E-12  0.17120000000E+03  0.17120000000E+03 0.  0.
         13    1    1    2    0    0  0.34121133791E+02 -0.13802039481E+03  0.33046267298E+03  0.35974917727E+03  0.10566000000E+00 0. -1.
        994    1    1    2    0    0 -0.44362960232E+02  0.13250584974E+03  0.10129208252E+03  0.24309545129E+03  0.17120000000E+03 0.  0.
        998    1    1    2    0    0  0.10241826441E+02  0.55145450636E+01  0.10682452408E+04  0.10683553714E+04  0.10000000000E+02 0. -1.
</event>
<event>
 5    1  0.1247473E-008  0.3772826E+03  0.7957747E-01  0.3463077E+00
         13   -1    0    0    0    0  0.00000000000E+00  0.00000000000E+00  0.14999999963E+04  0.15000000000E+04  0.10566000000E+00 0.  1.
        994   -1    0    0    0    0 -0.00000000000E+00 -0.00000000000E+00  0.11368683772E-12  0.17120000000E+03  0.17120000000E+03 0.  0.
         13    1    1    2    0    0  0.12812910281E+02 -0.20188526460E+02  0.12683066185E+02  0.27066928203E+02  0.10566000000E+00 0.  1.
        994    1    1    2    0    0 -0.16737386010E+02  0.18129618632E+02  0.17029832508E+02  0.17380528863E+03  0.17120000000E+03 0.  0.
        998    1    1    2    0    0  0.39244757290E+01  0.20589078279E+01  0.14702870976E+04  0.14703277832E+04  0.10000000000E+02 0.  1.
</event>
<event>
 5    1  0.1247473E-008  0.3852064E+03  0.7957747E-01  0.3428797E+00
         13   -1    0    0    0    0  0.00000000000E+00  0.00000000000E+00  0.14999999963E+04  0.15000000000E+04  0.10566000000E+00 0. -1.
        994   -1    0    0    0    0 -0.00000000000E+00 -0.00000000000E+00  0.11368683772E-12  0.17120000000E+03  0.17120000000E+03 0.  0.
         13    1    1    2    0    0 -0.49584411251E+01  0.15002853798E+02  0.77237056646E+02  0.78836830503E+02  0.10566000000E+00 0. -1.
        994    1    1    2    0    0  0.56079567403E+01 -0.17764695479E+02  0.26690450773E+01  0.17223123232E+03  0.17120000000E+03 0.  0.
        998    1    1    2    0    0 -0.64951561527E+00  0.27618416817E+01  0.14200938946E+04  0.14201319372E+04  0.10000000000E+02 0. -1.
</event>
<event>
 5    1  0.1247473E-008  0.3860534E+03  0.7957747E-01  0.3425217E+00
         13   -1    0    0    0    0  0.00000000000E+00  0.00000000000E+00  0.14999999963E+04  0.15000000000E+04  0.10566000000E+00 0. -1.
        994   -1    0    0    0    0 -0.00000000000E+00 -0.00000000000E+00  0.11368683772E-12  0.17120000000E+03  0.17120000000E+03 0.  0.
         13    1    1    2    0    0  0.84080690059E+01  0.83458885753E+01  0.68930934057E+02  0.69941649355E+02  0.10566000000E+00 0. -1.
        994    1    1    2    0    0  0.71840303992E+01 -0.57761500325E+01  0.13866120495E+01  0.17145359983E+03  0.17120000000E+03 0.  0.
        998    1    1    2    0    0 -0.15592099405E+02 -0.25697385428E+01  0.14296824502E+04  0.14298047508E+04  0.10000000000E+02 0. -1.
</event>
<event>
 5    1  0.1247473E-008  0.3776982E+03  0.7957747E-01  0.3461243E+00
         13   -1    0    0    0    0  0.00000000000E+00  0.00000000000E+00  0.14999999963E+04  0.15000000000E+04  0.10566000000E+00 0. -1.
        994   -1    0    0    0    0 -0.00000000000E+00 -0.00000000000E+00  0.11368683772E-12  0.17120000000E+03  0.17120000000E+03 0.  0.
         13    1    1    2    0    0 -0.37735828523E+02  0.53976994756E+02  0.30814564018E+03  0.31510514982E+03  0.10566000000E+00 0. -1.
        994    1    1    2    0    0  0.99158378494E+01 -0.83897686037E+02  0.29731615533E+02  0.19321116563E+03  0.17120000000E+03 0.  0.
        998    1    1    2    0    0  0.27819990673E+02  0.29920691281E+02  0.11621227406E+04  0.11628836845E+04  0.10000000000E+02 0. -1.
</event>
<event>
 5    1  0.1247473E-008  0.3858024E+03  0.7957747E-01  0.3426276E+00
         13   -1    0    0    0    0  0.00000000000E+00  0.00000000000E+00  0.14999999963E+04  0.15000000000E+04  0.10566000000E+00 0. -1.
        994   -1    0    0    0    0 -0.00000000000E+00 -0.00000000000E+00  0.11368683772E-12  0.17120000000E+03  0.17120000000E+03 0.  0.
         13    1    1    2    0    0 -0.11395261280E+02 -0.72532393386E+01  0.76671685520E+02  0.77852552849E+02  0.10566000000E+00 0. -1.
        994    1    1    2    0    0  0.67542519070E+01 -0.20950763052E+00  0.13820685093E+01  0.17133888620E+03  0.17120000000E+03 0.  0.
        998    1    1    2    0    0  0.46410093728E+01  0.74627469691E+01  0.14219462422E+04  0.14220085609E+04  0.10000000000E+02 0. -1.
</event>
<event>
 5    1  0.1247473E-008  0.3697141E+03  0.7957747E-01  0.3497206E+00
         13   -1    0    0    0    0  0.00000000000E+00  0.00000000000E+00  0.14999999963E+04  0.15000000000E+04  0.10566000000E+00 0. -1.
        994   -1    0    0    0    0 -0.00000000000E+00 -0.00000000000E+00  0.11368683772E-12  0.17120000000E+03  0.17120000000E+03 0.  0.
         13    1    1    2    0    0 -0.10793959383E+02 -0.61206346894E+01  0.35917805911E+01  0.12918350514E+02  0.10566000000E+00 0. -1.
        994    1    1    2    0    0  0.15492434073E+02  0.29041895021E+02  0.13177698728E+02  0.17483288856E+03  0.17120000000E+03 0.  0.
        998    1    1    2    0    0 -0.46984746903E+01 -0.22921260332E+02  0.14832305170E+04  0.14834487609E+04  0.10000000000E+02 0. -1.
</event>
<event>
 5    1  0.1247473E-008  0.3836313E+03  0.7957747E-01  0.3435498E+00
         13   -1    0    0    0    0  0.00000000000E+00  0.00000000000E+00  0.14999999963E+04  0.15000000000E+04  0.10566000000E+00 0.  1.
        994   -1    0    0    0    0 -0.00000000000E+00 -0.00000000000E+00  0.11368683772E-12  0.17120000000E+03  0.17120000000E+03 0.  0.
         13    1    1    2    0    0  0.34179227608E+01  0.12417396501E+02  0.33259634269E+02  0.35666347831E+02  0.10566000000E+00 0.  1.
        994    1    1    2    0    0 -0.66361972004E+01 -0.22162559676E+02  0.40811624090E+01  0.17280426514E+03  0.17120000000E+03 0.  0.
        998    1    1    2    0    0  0.32182744396E+01  0.97451631747E+01  0.14626591996E+04  0.14627293870E+04  0.10000000000E+02 0.  1.
</event>
<event>
 5    1  0.1247473E-008  0.3798083E+03  0.7957747E-01  0.3451993E+00
         13   -1    0    0    0    0  0.00000000000E+00  0.00000000000E+00  0.14999999963E+04  0.15000000000E+04  0.10566000000E+00 0.  1.
        994   -1    0    0    0    0 -0.00000000000E+00 -0.00000000000E+00  0.11368683772E-12  0.17120000000E+03  0.17120000000E+03 0.  0.
         13    1    1    2    0    0  0.34999043824E+02 -0.37021038228E+02  0.24970673987E+03  0.25485085333E+03  0.10566000000E+00 0.  1.
        994    1    1    2    0    0 -0.46843092271E+02  0.30607391821E+02  0.14775574979E+02  0.18071758449E+03  0.17120000000E+03 0.  0.
        998    1    1    2    0    0  0.11844048448E+02  0.64136464065E+01  0.12355176814E+04  0.12356315622E+04  0.10000000000E+02 0.  1.
</event>
<event>
 5    1  0.1247473E-008  0.3801289E+03  0.7957747E-01  0.3450598E+00
         13   -1    0    0    0    0  0.00000000000E+00  0.00000000000E+00  0.14999999963E+04  0.15000000000E+04  0.10566000000E+00 0.  1.
        994   -1    0    0    0    0 -0.00000000000E+00 -0.00000000000E+00  0.11368683772E-12  0.17120000000E+03  0.17120000000E+03 0.  0.
         13    1    1    2    0    0 -0.26599329604E+02  0.13474559240E+02  0.11448963972E+03  0.11830881983E+03  0.10566000000E+00 0.  1.
        994    1    1    2    0    0  0.37426791437E+01 -0.89380552908E+01  0.43819306903E+01  0.17152999095E+03  0.17120000000E+03 0.  0.
        998    1    1    2    0    0  0.22856650460E+02 -0.45365039489E+01  0.13811284259E+04  0.13813611892E+04  0.10000000000E+02 0.  1.
</event>
<event>
 5    1  0.1247473E-008  0.3820236E+03  0.7957747E-01  0.3442395E+00
         13   -1    0    0    0    0  0.00000000000E+00  0.00000000000E+00  0.14999999963E+04  0.15000000000E+04  0.10566000000E+00 0.  1.
        994   -1    0    0    0    0 -0.00000000000E+00 -0.00000000000E+00  0.11368683772E-12  0.17120000000E+03  0.17120000000E+03 0.  0.
         13    1    1    2    0    0  0.90848403082E+01  0.62262294695E+02  0.16580896812E+03  0.17734642014E+03  0.10566000000E+00 0.  1.
        994    1    1    2    0    0 -0.75797718085E+01  0.72762018907E+02  0.37251910705E+02  0.18986550289E+03  0.17120000000E+03 0.  0.
        998    1    1    2    0    0 -0.15050684996E+01 -0.13502431360E+03  0.12969391175E+04  0.13039880770E+04  0.10000000000E+02 0.  1.
</event>
<event>
 5    1  0.1247473E-008  0.3793787E+03  0.7957747E-01  0.3453868E+00
         13   -1    0    0    0    0  0.00000000000E+00  0.00000000000E+00  0.14999999963E+04  0.15000000000E+04  0.10566000000E+00 0.  1.
        994   -1    0    0    0    0 -0.00000000000E+00 -0.00000000000E+00  0.11368683772E-12  0.17120000000E+03  0.17120000000E+03 0.  0.
         13    1    1    2    0    0 -0.44986233672E+02  0.12373750859E+02  0.24264186440E+03  0.24708694108E+03  0.10566000000E+00 0.  1.
        994    1    1    2    0    0  0.28028965655E+02 -0.18860098666E+00  0.70833579180E+01  0.17362393972E+03  0.17120000000E+03 0.  0.
        998    1    1    2    0    0  0.16957268017E+02 -0.12185149873E+02  0.12502747740E+04  0.12504891192E+04  0.10000000000E+02 0.  1.
</event>
<event>
 5    1  0.1247473E-008  0.3800768E+03  0.7957747E-01  0.3450824E+00
         13   -1    0    0    0    0  0.00000000000E+00  0.00000000000E+00  0.14999999963E+04  0.15000000000E+04  0.10566000000E+00 0. -1.
        994   -1    0    0    0    0 -0.00000000000E+00 -0.00000000000E+00  0.11368683772E-12  0.17120000000E+03  0.17120000000E+03 0.  0.
         13    1    1    2    0    0 -0.23362383174E+02 -0.34306991369E+02  0.23700577106E+03  0.24061279534E+03  0.10566000000E+00 0. -1.
        994    1    1    2    0    0  0.57237742148E+01  0.67371659533E+01  0.43556228992E+01  0.17148341741E+03  0.17120000000E+03 0.  0.
        998    1    1    2    0    0  0.17638608959E+02  0.27569825416E+02  0.12586386023E+04  0.12591037872E+04  0.10000000000E+02 0. -1.
</event>
<event>
 5    1  0.1247473E-008  0.3819111E+03  0.7957747E-01  0.3442879E+00
         13   -1    0    0    0    0  0.00000000000E+00  0.00000000000E+00  0.14999999963E+04  0.15000000000E+04  0.10566000000E+00 0.  1.
        994   -1    0    0    0    0 -0.00000000000E+00 -0.00000000000E+00  0.11368683772E-12  0.17120000000E+03  0.17120000000E+03 0.  0.
         13    1    1    2    0    0  0.12721990715E+02  0.31829804242E+02  0.16696482597E+03  0.17044720520E+03  0.10566000000E+00 0.  1.
        994    1    1    2    0    0 -0.19411032344E+02 -0.28195393089E+02  0.70738673043E+01  0.17473193173E+03  0.17120000000E+03 0.  0.
        998    1    1    2    0    0  0.66890416286E+01 -0.36344111531E+01  0.13259613030E+04  0.13260208631E+04  0.10000000000E+02 0.  1.
</event>
<event>
 5    1  0.1247473E-008  0.3856579E+03  0.7957747E-01  0.3426887E+00
         13   -1    0    0    0    0  0.00000000000E+00  0.00000000000E+00  0.14999999963E+04  0.15000000000E+04  0.10566000000E+00 0. -1.
        994   -1    0    0    0    0 -0.00000000000E+00 -0.00000000000E+00  0.11368683772E-12  0.17120000000E+03  0.17120000000E+03 0.  0.
         13    1    1    2    0    0 -0.27879864641E+01  0.11834510858E+02  0.56670637168E+02  0.57960338136E+02  0.10566000000E+00 0. -1.
        994    1    1    2    0    0 -0.36047252625E+01 -0.10353615654E+02  0.16983878904E+01  0.17155907415E+03  0.17120000000E+03 0.  0.
        998    1    1    2    0    0  0.63927117266E+01 -0.14808952042E+01  0.14416309712E+04  0.14416805877E+04  0.10000000000E+02 0. -1.
</event>
<event>
 5    1  0.1247473E-008  0.3751369E+03  0.7957747E-01  0.3472611E+00
         13   -1    0    0    0    0  0.00000000000E+00  0.00000000000E+00  0.14999999963E+04  0.15000000000E+04  0.10566000000E+00 0.  1.
        994   -1    0    0    0    0 -0.00000000000E+00 -0.00000000000E+00  0.11368683772E-12  0.17120000000E+03  0.17120000000E+03 0.  0.
         13    1    1    2    0    0 -0.37683947705E+01  0.15990789194E+02  0.16896170556E+02  0.23566881034E+02  0.10566000000E+00 0.  1.
        994    1    1    2    0    0  0.83084111615E+01 -0.26431348334E+02  0.92210309585E+01  0.17367243098E+03  0.17120000000E+03 0.  0.
        998    1    1    2    0    0 -0.45400163910E+01  0.10440559141E+02  0.14738827948E+04  0.14739606880E+04  0.10000000000E+02 0.  1.
</event>
<event>
 5    1  0.1247473E-008  0.3688537E+03  0.7957747E-01  0.3501176E+00
         13   -1    0    0    0    0  0.00000000000E+00  0.00000000000E+00  0.14999999963E+04  0.15000000000E+04  0.10566000000E+00 0. -1.
        994   -1    0    0    0    0 -0.00000000000E+00 -0.00000000000E+00  0.11368683772E-12  0.17120000000E+03  0.17120000000E+03 0.  0.
         13    1    1    2    0    0  0.36616443678E+02 -0.84025014906E+02  0.41162584343E+03  0.42170702297E+03  0.10566000000E+00 0. -1.
        994    1    1    2    0    0  0.45829795143E+01  0.58024474371E+02  0.22225158713E+02  0.18218463439E+03  0.17120000000E+03 0.  0.
        998    1    1    2    0    0 -0.41199423193E+02  0.26000540534E+02  0.10661489941E+04  0.10673083426E+04  0.10000000000E+02 0. -1.
</event>
<event>
 5    1  0.1247473E-008  0.3798446E+03  0.7957747E-01  0.3451835E+00
         13   -1    0    0    0    0  0.00000000000E+00  0.00000000000E+00  0.14999999963E+04  0.15000000000E+04  0.10566000000E+00 0.  1.
        994   -1    0    0    0    0 -0.00000000000E+00 -0.00000000000E+00  0.11368683772E-12  0.17120000000E+03  0.17120000000E+03 0.  0.
         13    1    1    2    0    0 -0.23873681936E+02  0.21124486841E+02  0.11509541960E+03  0.11942848659E+03  0.10566000000E+00 0.  1.
        994    1    1    2    0    0  0.15041931350E+02 -0.21612224173E+02  0.65340421971E+01  0.17333632522E+03  0.17120000000E+03 0.  0.
        998    1    1    2    0    0  0.88317505861E+01  0.48773733249E+00  0.13783705345E+04  0.13784351882E+04  0.10000000000E+02 0.  1.
</event>
<event>
 5    1  0.1247473E-008  0.3756593E+03  0.7957747E-01  0.3470279E+00
         13   -1    0    0    0    0  0.00000000000E+00  0.00000000000E+00  0.14999999963E+04  0.15000000000E+04  0.10566000000E+00 0.  1.
        994   -1    0    0    0    0 -0.00000000000E+00 -0.00000000000E+00  0.11368683772E-12  0.17120000000E+03  0.17120000000E+03 0.  0.
         13    1    1    2    0    0  0.34938122556E+02  0.13469088864E+02  0.83084027028E+02  0.91132077085E+02  0.10566000000E+00 0.  1.
        994    1    1    2    0    0 -0.81613070481E+02 -0.37717727452E+02  0.34269505980E+02  0.19638523182E+03  0.17120000000E+03 0.  0.
        998    1    1    2    0    0  0.46674947926E+02  0.24248638588E+02  0.13826464633E+04  0.13836826911E+04  0.10000000000E+02 0.  1.
</event>
<event>
 5    1  0.1247473E-008  0.3762274E+03  0.7957747E-01  0.3467751E+00
         13   -1    0    0    0    0  0.00000000000E+00  0.00000000000E+00  0.14999999963E+04  0.15000000000E+04  0.10566000000E+00 0.  1.
        994   -1    0    0    0    0 -0.00000000000E+00 -0.00000000000E+00  0.11368683772E-12  0.17120000000E+03  0.17120000000E+03 0.  0.
         13    1    1    2    0    0  0.68762007411E+01  0.30181075610E+02  0.85270714444E+02  0.90715408655E+02  0.10566000000E+00 0.  1.
        994    1    1    2    0    0  0.81248992336E+01  0.38422282353E+01  0.63232637952E+01  0.17155232546E+03  0.17120000000E+03 0.  0.
        998    1    1    2    0    0 -0.15001099975E+02 -0.34023303845E+02  0.14084060180E+04  0.14089322659E+04  0.10000000000E+02 0.  1.
</event>
<event>
 5    1  0.1247473E-008  0.3839030E+03  0.7957747E-01  0.3434338E+00
         13   -1    0    0    0    0  0.00000000000E+00  0.00000000000E+00  0.14999999963E+04  0.15000000000E+04  0.10566000000E+00 0.  1.
        994   -1    0    0    0    0 -0.00000000000E+00 -0.00000000000E+00  0.11368683772E-12  0.17120000000E+03  0.17120000000E+03 0.  0.
         13    1    1    2    0    0 -0.93899318728E+02  0.87493704737E+02  0.32237406306E+03  0.34698310928E+03  0.10566000000E+00 0.  1.
        994    1    1    2    0    0  0.33747637035E+02 -0.16701960100E+03  0.13485193777E+03  0.27663863657E+03  0.17120000000E+03 0.  0.
        998    1    1    2    0    0  0.60151681693E+02  0.79525896262E+02  0.10427739955E+04  0.10475782542E+04  0.10000000000E+02 0.  1.
</event>
<event>
 5    1  0.1247473E-008  0.3697266E+03  0.7957747E-01  0.3497148E+00
         13   -1    0    0    0    0  0.00000000000E+00  0.00000000000E+00  0.14999999963E+04  0.15000000000E+04  0.10566000000E+00 0. -1.
        994   -1    0    0    0    0 -0.00000000000E+00 -0.00000000000E+00  0.11368683772E-12  0.17120000000E+03  0.17120000000E+03 0.  0.
         13    1    1    2    0    0 -0.42261471784E+02  0.43043203466E+02  0.17603869408E+03  0.18608702894E+03  0.10566000000E+00 0. -1.
        994    1    1    2    0    0  0.21882362656E+02 -0.99794343834E+01  0.12817139067E+02  0.17335554782E+03  0.17120000000E+03 0.  0.
        998    1    1    2    0    0  0.20379109128E+02 -0.33063769082E+02  0.13111441631E+04  0.13117574232E+04  0.10000000000E+02 0. -1.
</event>
<event>
 5    1  0.1249690E-008  0.3854969E+03  0.7957747E-01  0.3427568E+00
         13   -1    0    0    0    0  0.00000000000E+00  0.00000000000E+00  0.14999999963E+04  0.15000000000E+04  0.10566000000E+00 0. -1.
        994   -1    0    0    0    0 -0.00000000000E+00 -0.00000000000E+00  0.11368683772E-12  0.17120000000E+03  0.17120000000E+03 0.  0.
         13    1    1    2    0    0 -0.48216310691E+00  0.13487135715E+02  0.61939773416E+02  0.63393075379E+02  0.10566000000E+00 0. -1.
        994    1    1    2    0    0 -0.17903193737E+01 -0.18984362389E+02  0.25784253558E+01  0.17227797171E+03  0.17120000000E+03 0.  0.
        998    1    1    2    0    0  0.22724824806E+01  0.54972266741E+01  0.14354817975E+04  0.14355289529E+04  0.10000000000E+02 0. -1.
</event>
<event>
 5    1  0.1247473E-008  0.3855767E+03  0.7957747E-01  0.3427230E+00
         13   -1    0    0    0    0  0.00000000000E+00  0.00000000000E+00  0.14999999963E+04  0.15000000000E+04  0.10566000000E+00 0.  1.
        994   -1    0    0    0    0 -0.00000000000E+00 -0.00000000000E+00  0.11368683772E-12  0.17120000000E+03  0.17120000000E+03 0.  0.
         13    1    1    2    0    0 -0.13694711600E+02 -0.73944960730E+01  0.92457925398E+02  0.93758748023E+02  0.10566000000E+00 0.  1.
        994    1    1    2    0    0  0.42800930922E+01  0.83155286952E+01  0.16312279969E+01  0.17146302260E+03  0.17120000000E+03 0.  0.
        998    1    1    2    0    0  0.94146185078E+01 -0.92103262217E+00  0.14059108429E+04  0.14059782294E+04  0.10000000000E+02 0.  1.
</event>
<event>
 5    1  0.1247473E-008  0.3796214E+03  0.7957747E-01  0.3452809E+00
         13   -1    0    0    0    0  0.00000000000E+00  0.00000000000E+00  0.14999999963E+04  0.15000000000E+04  0.10566000000E+00 0. -1.
        994   -1    0    0    0    0 -0.00000000000E+00 -0.00000000000E+00  0.11368683772E-12  0.17120000000E+03  0.17120000000E+03 0.  0.
         13    1    1    2    0    0  0.10375106936E+03  0.12248582460E+03  0.84390010782E+03  0.85903111979E+03  0.10566000000E+00 0. -1.
        994    1    1    2    0    0 -0.91747362334E+02 -0.15552907057E+03  0.12255492508E+03  0.27737343050E+03  0.17120000000E+03 0.  0.
        998    1    1    2    0    0 -0.12003707023E+02  0.33043245963E+02  0.53354496338E+03  0.53479544971E+03  0.10000000000E+02 0.  1.
</event>
<event>
 5    1  0.1247473E-008  0.3758995E+03  0.7957747E-01  0.3469210E+00
         13   -1    0    0    0    0  0.00000000000E+00  0.00000000000E+00  0.14999999963E+04  0.15000000000E+04  0.10566000000E+00 0. -1.
        994   -1    0    0    0    0 -0.00000000000E+00 -0.00000000000E+00  0.11368683772E-12  0.17120000000E+03  0.17120000000E+03 0.  0.
         13    1    1    2    0    0  0.15298371217E+02 -0.45092874786E+01  0.17004777836E+02  0.23314104502E+02  0.10566000000E+00 0. -1.
        994    1    1    2    0    0 -0.23755051627E+02  0.22544520573E+02  0.98609644323E+01  0.17458303613E+03  0.17120000000E+03 0.  0.
        998    1    1    2    0    0  0.84566804102E+01 -0.18035233094E+02  0.14731342540E+04  0.14733028594E+04  0.10000000000E+02 0. -1.
</event>
<event>
 5    1  0.1247473E-008  0.3785453E+03  0.7957747E-01  0.3457517E+00
         13   -1    0    0    0    0  0.00000000000E+00  0.00000000000E+00  0.14999999963E+04  0.15000000000E+04  0.10566000000E+00 0.  1.
        994   -1    0    0    0    0 -0.00000000000E+00 -0.00000000000E+00  0.11368683772E-12  0.17120000000E+03  0.17120000000E+03 0.  0.
         13    1    1    2    0    0 -0.18883847984E+02  0.51716384167E+01  0.36645405875E+02  0.41548074497E+02  0.10566000000E+00 0.  1.
        994    1    1    2    0    0  0.19778072055E+02 -0.32822003792E+01  0.62205950455E+01  0.17248211727E+03  0.17120000000E+03 0.  0.
        998    1    1    2    0    0 -0.89422407114E+00 -0.18894380375E+01  0.14571339954E+04  0.14571698082E+04  0.10000000000E+02 0.  1.
</event>
<event>
 5    1  0.1247473E-008  0.3803078E+03  0.7957747E-01  0.3449819E+00
         13   -1    0    0    0    0  0.00000000000E+00  0.00000000000E+00  0.14999999963E+04  0.15000000000E+04  0.10566000000E+00 0. -1.
        994   -1    0    0    0    0 -0.00000000000E+00 -0.00000000000E+00  0.11368683772E-12  0.17120000000E+03  0.17120000000E+03 0.  0.
         13    1    1    2    0    0 -0.84159782637E+01 -0.55437916967E+01  0.10951672287E+02  0.14883299581E+02  0.10566000000E+00 0. -1.
        994    1    1    2    0    0  0.34360320236E+01  0.12709999865E+02  0.45569464385E+01  0.17176599248E+03  0.17120000000E+03 0.  0.
        998    1    1    2    0    0  0.49799462401E+01 -0.71662081683E+01  0.14844913776E+04  0.14845507079E+04  0.10000000000E+02 0. -1.
</event>
<event>
 5    1  0.1247473E-008  0.3722314E+03  0.7957747E-01  0.3485698E+00
         13   -1    0    0    0    0  0.00000000000E+00  0.00000000000E+00  0.14999999963E+04  0.15000000000E+04  0.10566000000E+00 0. -1.
        994   -1    0    0    0    0 -0.00000000000E+00 -0.00000000000E+00  0.11368683772E-12  0.17120000000E+03  0.17120000000E+03 0.  0.
         13    1    1    2    0    0 -0.98401545199E-01  0.23227460811E+02  0.29216847440E+02  0.37325058030E+02  0.10566000000E+00 0. -1.
        994    1    1    2    0    0  0.32977995114E+01 -0.25466560685E+02  0.10373347359E+02  0.17342568302E+03  0.17120000000E+03 0.  0.
        998    1    1    2    0    0 -0.31993979662E+01  0.22390998744E+01  0.14604098015E+04  0.14604492590E+04  0.10000000000E+02 0. -1.
</event>
<event>
 5    1  0.1247473E-008  0.2564691E+03  0.7957747E-01  0.4265952E+00
         13   -1    0    0    0    0  0.00000000000E+00  0.00000000000E+00  0.14999999963E+04  0.15000000000E+04  0.10566000000E+00 0. -1.
        994   -1    0    0    0    0 -0.00000000000E+00 -0.00000000000E+00  0.11368683772E-12  0.17120000000E+03  0.17120000000E+03 0.  0.
         13    1    1    2    0    0  0.12700083212E+03 -0.28402636048E+02  0.59007467911E+03  0.60425496206E+03  0.10566000000E+00 0. -1.
        994    1    1    2    0    0  0.22417095673E+02  0.22093659237E+02  0.32833735638E+02  0.17713878783E+03  0.17120000000E+03 0.  0.
        998    1    1    2    0    0 -0.14941792779E+03  0.63089768105E+01  0.87709158153E+03  0.88980625011E+03  0.10000000000E+02 0. -1.
</event>
<event>
 5    1  0.1247473E-008  0.3983206E+03  0.7957747E-01  0.3375071E+00
         13   -1    0    0    0    0  0.00000000000E+00  0.00000000000E+00  0.14999999963E+04  0.15000000000E+04  0.10566000000E+00 0.  1.
        994   -1    0    0    0    0 -0.00000000000E+00 -0.00000000000E+00  0.11368683772E-12  0.17120000000E+03  0.17120000000E+03 0.  0.
         13    1    1    2    0    0  0.51763188052E+02 -0.45931619651E+02  0.77114673087E+02  0.10361382770E+03  0.10566000000E+00 0.  1.
        994    1    1    2    0    0 -0.44682932914E+02  0.51249679329E+02  0.44985065423E+02  0.18962117560E+03  0.17120000000E+03 0.  0.
        998    1    1    2    0    0 -0.70802551380E+01 -0.53180596785E+01  0.13779002578E+04  0.13779649967E+04  0.10000000000E+02 0.  1.
</event>
<event>
 5    1  0.1247473E-008  0.3851553E+03  0.7957747E-01  0.3429014E+00
         13   -1    0    0    0    0  0.00000000000E+00  0.00000000000E+00  0.14999999963E+04  0.15000000000E+04  0.10566000000E+00 0. -1.
        994   -1    0    0    0    0 -0.00000000000E+00 -0.00000000000E+00  0.11368683772E-12  0.17120000000E+03  0.17120000000E+03 0.  0.
         13    1    1    2    0    0 -0.47934765670E+01 -0.18244256953E+02  0.94239572351E+02  0.96108992765E+02  0.10566000000E+00 0. -1.
        994    1    1    2    0    0  0.31676779706E+02  0.31981600532E+02  0.82418712441E+01  0.17721063621E+03  0.17120000000E+03 0.  0.
        998    1    1    2    0    0 -0.26883303139E+02 -0.13737343579E+02  0.13975185527E+04  0.13978803710E+04  0.10000000000E+02 0. -1.
</event>
<event>
 5    1  0.1247473E-008  0.3709451E+03  0.7957747E-01  0.3491559E+00
         13   -1    0    0    0    0  0.00000000000E+00  0.00000000000E+00  0.14999999963E+04  0.15000000000E+04  0.10566000000E+00 0. -1.
        994   -1    0    0    0    0 -0.00000000000E+00 -0.00000000000E+00  0.11368683772E-12  0.17120000000E+03  0.17120000000E+03 0.  0.
         13    1    1    2    0    0 -0.16793126962E+02 -0.32763367165E+01  0.12877808864E+02  0.21414775755E+02  0.10566000000E+00 0. -1.
        994    1    1    2    0    0  0.92982020996E+01  0.51229031770E+01  0.91644271644E+01  0.17177347707E+03  0.17120000000E+03 0.  0.
        998    1    1    2    0    0  0.74949248627E+01 -0.18465664606E+01  0.14779577602E+04  0.14780117472E+04  0.10000000000E+02 0. -1.
</event>
<event>
 5    1  0.1247473E-008  0.3700864E+03  0.7957747E-01  0.3495494E+00
         13   -1    0    0    0    0  0.00000000000E+00  0.00000000000E+00  0.14999999963E+04  0.15000000000E+04  0.10566000000E+00 0. -1.
        994   -1    0    0    0    0 -0.00000000000E+00 -0.00000000000E+00  0.11368683772E-12  0.17120000000E+03  0.17120000000E+03 0.  0.
         13    1    1    2    0    0  0.45879049618E+02 -0.55584640041E+02  0.30748075446E+03  0.31581476364E+03  0.10566000000E+00 0. -1.
        994    1    1    2    0    0 -0.37456178443E+02  0.51903928579E+01  0.14182696334E+02  0.17589910277E+03  0.17120000000E+03 0.  0.
        998    1    1    2    0    0 -0.84228711751E+01  0.50394247183E+02  0.11783365455E+04  0.11794861336E+04  0.10000000000E+02 0. -1.
</event>
<event>
 5    1  0.1247473E-008  0.3842299E+03  0.7957747E-01  0.3432945E+00
         13   -1    0    0    0    0  0.00000000000E+00  0.00000000000E+00  0.14999999963E+04  0.15000000000E+04  0.10566000000E+00 0. -1.
        994   -1    0    0    0    0 -0.00000000000E+00 -0.00000000000E+00  0.11368683772E-12  0.17120000000E+03  0.17120000000E+03 0.  0.
         13    1    1    2    0    0 -0.14668492965E+02 -0.14753148984E+02  0.11542274154E+03  0.11728273752E+03  0.10566000000E+00 0. -1.
        994    1    1    2    0    0  0.20150827409E+01  0.28553131513E+01  0.20532260466E+01  0.17124797549E+03  0.17120000000E+03 0.  0.
        998    1    1    2    0    0  0.12653410224E+02  0.11897835833E+02  0.13825240287E+04  0.13826692870E+04  0.10000000000E+02 0. -1.
</event>
<event>
 5    1  0.1247473E-008  0.3696075E+03  0.7957747E-01  0.3497697E+00
         13   -1    0    0    0    0  0.00000000000E+00  0.00000000000E+00  0.14999999963E+04  0.15000000000E+04  0.10566000000E+00 0. -1.
        994   -1    0    0    0    0 -0.00000000000E+00 -0.00000000000E+00  0.11368683772E-12  0.17120000000E+03  0.17120000000E+03 0.  0.
         13    1    1    2    0    0 -0.44001245297E+01  0.24262713935E+02  0.24897643481E+02  0.35042034734E+02  0.10566000000E+00 0. -1.
        994    1    1    2    0    0  0.88800655414E+02 -0.45249500121E+02  0.44698251928E+02  0.20307744185E+03  0.17120000000E+03 0.  0.
        998    1    1    2    0    0 -0.84400530884E+02  0.20986786185E+02  0.14304041009E+04  0.14330805234E+04  0.10000000000E+02 0. -1.
</event>
<event>
 5    1  0.1247473E-008  0.3764349E+03  0.7957747E-01  0.3466830E+00
         13   -1    0    0    0    0  0.00000000000E+00  0.00000000000E+00  0.14999999963E+04  0.15000000000E+04  0.10566000000E+00 0.  1.
        994   -1    0    0    0    0 -0.00000000000E+00 -0.00000000000E+00  0.11368683772E-12  0.17120000000E+03  0.17120000000E+03 0.  0.
         13    1    1    2    0    0 -0.21380432550E+03 -0.35487830827E+02  0.74106667858E+03  0.77210848267E+03  0.10566000000E+00 0.  1.
        994    1    1    2    0    0  0.24634626630E+03  0.71238092767E+02  0.27654408341E+03  0.41418283263E+03  0.17120000000E+03 0.  0.
        998    1    1    2    0    0 -0.32541940803E+02 -0.35750261940E+02  0.48238923429E+03  0.48490868470E+03  0.10000000000E+02 0. -1.
</event>
<event>
 5    1  0.1247473E-008  0.3851425E+03  0.7957747E-01  0.3429068E+00
         13   -1    0    0    0    0  0.00000000000E+00  0.00000000000E+00  0.14999999963E+04  0.15000000000E+04  0.10566000000E+00 0.  1.
        994   -1    0    0    0    0 -0.00000000000E+00 -0.00000000000E+00  0.11368683772E-12  0.17120000000E+03  0.17120000000E+03 0.  0.
         13    1    1    2    0    0  0.11473460581E+02  0.59209344242E+01  0.61181486296E+02  0.62529058777E+02  0.10566000000E+00 0.  1.
        994    1    1    2    0    0  0.86630258909E+01  0.99095412541E+01  0.21291108352E+01  0.17171843273E+03  0.17120000000E+03 0.  0.
        998    1    1    2    0    0 -0.20136486472E+02 -0.15830475678E+02  0.14366893991E+04  0.14369525085E+04  0.10000000000E+02 0.  1.
</event>
<event>
 5    1  0.1247473E-008  0.3775791E+03  0.7957747E-01  0.3461768E+00
         13   -1    0    0    0    0  0.00000000000E+00  0.00000000000E+00  0.14999999963E+04  0.15000000000E+04  0.10566000000E+00 0.  1.
        994   -1    0    0    0    0 -0.00000000000E+00 -0.00000000000E+00  0.11368683772E-12  0.17120000000E+03  0.17120000000E+03 0.  0.
         13    1    1    2    0    0 -0.21203580215E+02  0.26248300391E+01  0.42082099872E+02  0.47195294684E+02  0.10566000000E+00 0.  1.
        994    1    1    2    0    0  0.12637341586E+01 -0.55088328802E+01  0.54678571475E+01  0.17138051735E+03  0.17120000000E+03 0.  0.
        998    1    1    2    0    0  0.19939846056E+02  0.28840028411E+01  0.14524500393E+04  0.14526241880E+04  0.10000000000E+02 0.  1.
</event>
<event>
 5    1  0.1247473E-008  0.3741371E+03  0.7957747E-01  0.3477091E+00
         13   -1    0    0    0    0  0.00000000000E+00  0.00000000000E+00  0.14999999963E+04  0.15000000000E+04  0.10566000000E+00 0.  1.
        994   -1    0    0    0    0 -0.00000000000E+00 -0.00000000000E+00  0.11368683772E-12  0.17120000000E+03  0.17120000000E+03 0.  0.
         13    1    1    2    0    0  0.44759994282E+02 -0.28539987992E+02  0.10296849361E+03  0.11584692418E+03  0.10566000000E+00 0.  1.
        994    1    1    2    0    0 -0.86192494276E+00  0.60879475867E+02  0.26413069286E+02  0.18361411636E+03  0.17120000000E+03 0.  0.
        998    1    1    2    0    0 -0.43898069339E+02 -0.32339487875E+02  0.13706184334E+04  0.13717389595E+04  0.10000000000E+02 0.  1.
</event>
<event>
 5    1  0.1247473E-008  0.3815028E+03  0.7957747E-01  0.3444641E+00
         13   -1    0    0    0    0  0.00000000000E+00  0.00000000000E+00  0.14999999963E+04  0.15000000000E+04  0.10566000000E+00 0. -1.
        994   -1    0    0    0    0 -0.00000000000E+00 -0.00000000000E+00  0.11368683772E-12  0.17120000000E+03  0.17120000000E+03 0.  0.
         13    1    1    2    0    0  0.26963439305E+02  0.20391410501E+01  0.10711086086E+03  0.11047141184E+03  0.10566000000E+00 0. -1.
        994    1    1    2    0    0 -0.16653456587E+02  0.96120820592E+00  0.43026332100E+01  0.17206456402E+03  0.17120000000E+03 0.  0.
        998    1    1    2    0    0 -0.10309982718E+02 -0.30003492560E+01  0.13885865022E+04  0.13886640241E+04  0.10000000000E+02 0. -1.
</event>
<event>
 5    1  0.1247473E-008  0.3733087E+03  0.7957747E-01  0.3480821E+00
         13   -1    0    0    0    0  0.00000000000E+00  0.00000000000E+00  0.14999999963E+04  0.15000000000E+04  0.10566000000E+00 0.  1.
        994   -1    0    0    0    0 -0.00000000000E+00 -0.00000000000E+00  0.11368683772E-12  0.17120000000E+03  0.17120000000E+03 0.  0.
         13    1    1    2    0    0 -0.82583367502E+02 -0.59566809864E+01  0.29584127683E+03  0.30720932095E+03  0.10566000000E+00 0.  1.
        994    1    1    2    0    0  0.37680172293E+02 -0.55921545791E+02  0.28961280204E+02  0.18626650375E+03  0.17120000000E+03 0.  0.
        998    1    1    2    0    0  0.44903195209E+02  0.61878226777E+02  0.11751974392E+04  0.11777241753E+04  0.10000000000E+02 0.  1.
</event>
<event>
 5    1  0.1247473E-008  0.3686363E+03  0.7957747E-01  0.3502182E+00
         13   -1    0    0    0    0  0.00000000000E+00  0.00000000000E+00  0.14999999963E+04  0.15000000000E+04  0.10566000000E+00 0. -1.
        994   -1    0    0    0    0 -0.00000000000E+00 -0.00000000000E+00  0.11368683772E-12  0.17120000000E+03  0.17120000000E+03 0.  0.
         13    1    1    2    0    0 -0.78532923165E+02  0.10421837390E+03  0.55093174438E+03  0.56617549189E+03  0.10566000000E+00 0. -1.
        994    1    1    2    0    0  0.78433087913E+02 -0.95571470296E+02  0.65135076095E+02  0.22099247352E+03  0.17120000000E+03 0.  0.
        998    1    1    2    0    0  0.99835251766E-01 -0.86469036067E+01  0.88393317580E+03  0.88403203460E+03  0.10000000000E+02 0.  0.
</event>
<event>
 5    1  0.1247473E-008  0.3742954E+03  0.7957747E-01  0.3476380E+00
         13   -1    0    0    0    0  0.00000000000E+00  0.00000000000E+00  0.14999999963E+04  0.15000000000E+04  0.10566000000E+00 0. -1.
        994   -1    0    0    0    0 -0.00000000000E+00 -0.00000000000E+00  0.11368683772E-12  0.17120000000E+03  0.17120000000E+03 0.  0.
         13    1    1    2    0    0 -0.13528582725E+02 -0.14365274051E+02  0.25070161931E+02  0.31904667878E+02  0.10566000000E+00 0. -1.
        994    1    1    2    0    0  0.26502392813E+01  0.81644825801E+01  0.72920764397E+01  0.17157009332E+03  0.17120000000E+03 0.  0.
        998    1    1    2    0    0  0.10878343444E+02  0.62007914710E+01  0.14676377579E+04  0.14677252388E+04  0.10000000000E+02 0. -1.
</event>
<event>
 5    1  0.1247473E-008  0.3735233E+03  0.7957747E-01  0.3479854E+00
         13   -1    0    0    0    0  0.00000000000E+00  0.00000000000E+00  0.14999999963E+04  0.15000000000E+04  0.10566000000E+00 0.  1.
        994   -1    0    0    0    0 -0.00000000000E+00 -0.00000000000E+00  0.11368683772E-12  0.17120000000E+03  0.17120000000E+03 0.  0.
         13    1    1    2    0    0 -0.21221367477E+02  0.45147137605E+02  0.19007895195E+03  0.19651623243E+03  0.10566000000E+00 0.  1.
        994    1    1    2    0    0  0.25458283096E+02  0.68248727066E+01  0.98159278368E+01  0.17349494374E+03  0.17120000000E+03 0.  0.
        998    1    1    2    0    0 -0.42369156195E+01 -0.51972010312E+02  0.13001051165E+04  0.13011888238E+04  0.10000000000E+02 0.  1.
</event>
<event>
 5    1  0.1247473E-008  0.3805855E+03  0.7957747E-01  0.3448613E+00
         13   -1    0    0    0    0  0.00000000000E+00  0.00000000000E+00  0.14999999963E+04  0.15000000000E+04  0.10566000000E+00 0. -1.
        994   -1    0    0    0    0 -0.00000000000E+00 -0.00000000000E+00  0.11368683772E-12  0.17120000000E+03  0.17120000000E+03 0.  0.
         13    1    1    2    0    0 -0.55804621014E+02 -0.10772461684E+03  0.35900809285E+03  0.37895325660E+03  0.10566000000E+00 0. -1.
        994    1    1    2    0    0  0.56319614167E+02  0.89708762889E+02  0.58620622252E+02  0.20967922747E+03  0.17120000000E+03 0.  0.
        998    1    1    2    0    0 -0.51499315346E+00  0.18015853947E+02  0.10823712812E+04  0.10825675159E+04  0.10000000000E+02 0. -1.
</event>
<event>
 5    1  0.1247473E-008  0.3740739E+03  0.7957747E-01  0.3477375E+00
         13   -1    0    0    0    0  0.00000000000E+00  0.00000000000E+00  0.14999999963E+04  0.15000000000E+04  0.10566000000E+00 0.  1.
        994   -1    0    0    0    0 -0.00000000000E+00 -0.00000000000E+00  0.11368683772E-12  0.17120000000E+03  0.17120000000E+03 0.  0.
         13    1    1    2    0    0 -0.31946386784E+01 -0.24074127127E+02  0.37377936526E+02  0.44574551217E+02  0.10566000000E+00 0.  1.
        994    1    1    2    0    0  0.51578694686E+01  0.24944109894E+02  0.93705970909E+01  0.17333799447E+03  0.17120000000E+03 0.  0.
        998    1    1    2    0    0 -0.19632307902E+01 -0.86998276755E+00  0.14532514627E+04  0.14532874543E+04  0.10000000000E+02 0.  1.
</event>
<event>
 5    1  0.1247473E-008  0.3758117E+03  0.7957747E-01  0.3469600E+00
         13   -1    0    0    0    0  0.00000000000E+00  0.00000000000E+00  0.14999999963E+04  0.15000000000E+04  0.10566000000E+00 0. -1.
        994   -1    0    0    0    0 -0.00000000000E+00 -0.00000000000E+00  0.11368683772E-12  0.17120000000E+03  0.17120000000E+03 0.  0.
         13    1    1    2    0    0  0.33922271871E+02 -0.12559019202E+03  0.72180978676E+03  0.73343915650E+03  0.10566000000E+00 0. -1.
        994    1    1    2    0    0 -0.25597522819E+02  0.12211211788E+03  0.61004409540E+02  0.22044858922E+03  0.17120000000E+03 0.  0.
        998    1    1    2    0    0 -0.83247490517E+01  0.34780741449E+01  0.71718579998E+03  0.71731225428E+03  0.10000000000E+02 0. -1.
</event>
<event>
 5    1  0.1247473E-008  0.3838069E+03  0.7957747E-01  0.3434748E+00
         13   -1    0    0    0    0  0.00000000000E+00  0.00000000000E+00  0.14999999963E+04  0.15000000000E+04  0.10566000000E+00 0.  1.
        994   -1    0    0    0    0 -0.00000000000E+00 -0.00000000000E+00  0.11368683772E-12  0.17120000000E+03  0.17120000000E+03 0.  0.
         13    1    1    2    0    0 -0.13347054963E+02  0.13812619732E+02  0.90423310267E+02  0.92440892162E+02  0.10566000000E+00 0.  1.
        994    1    1    2    0    0  0.16997333531E+01  0.41581266378E+01  0.22902715913E+01  0.17127423757E+03  0.17120000000E+03 0.  0.
        998    1    1    2    0    0  0.11647321610E+02 -0.17970746370E+02  0.14072864144E+04  0.14074848703E+04  0.10000000000E+02 0.  1.
</event>
<event>
 5    1  0.1247473E-008  0.3849116E+03  0.7957747E-01  0.3430047E+00
         13   -1    0    0    0    0  0.00000000000E+00  0.00000000000E+00  0.14999999963E+04  0.15000000000E+04  0.10566000000E+00 0.  1.
        994   -1    0    0    0    0 -0.00000000000E+00 -0.00000000000E+00  0.11368683772E-12  0.17120000000E+03  0.17120000000E+03 0.  0.
         13    1    1    2    0    0 -0.68678888109E+01 -0.12072367224E+02  0.57938310944E+02  0.59579937783E+02  0.10566000000E+00 0.  1.
        994    1    1    2    0    0 -0.10199956153E+00  0.94046472765E+01  0.19650919902E+01  0.17146941238E+03  0.17120000000E+03 0.  0.
        998    1    1    2    0    0  0.69698883724E+01  0.26677199477E+01  0.14400965933E+04  0.14401506498E+04  0.10000000000E+02 0.  1.
</event>
<event>
 5    1  0.1247473E-008  0.2566872E+03  0.7957747E-01  0.4263743E+00
         13   -1    0    0    0    0  0.00000000000E+00  0.00000000000E+00  0.14999999963E+04  0.15000000000E+04  0.10566000000E+00 0. -1.
        994   -1    0    0    0    0 -0.00000000000E+00 -0.00000000000E+00  0.11368683772E-12  0.17120000000E+03  0.17120000000E+03 0.  0.
         13    1    1    2    0    0  0.79962001080E+02  0.11007491471E+03  0.57583595702E+03  0.59169034894E+03  0.10566000000E+00 0. -1.
        994    1    1    2    0    0  0.35433208310E+02 -0.25580772050E+02  0.36600332144E+02  0.18044088357E+03  0.17120000000E+03 0.  0.
        998    1    1    2    0    0 -0.11539520939E+03 -0.84494142664E+02  0.88756370711E+03  0.89906876749E+03  0.10000000000E+02 0. -1.
</event>
<event>
 5    1  0.1247473E-008  0.3748062E+03  0.7957747E-01  0.3474090E+00
         13   -1    0    0    0    0  0.00000000000E+00  0.00000000000E+00  0.14999999963E+04  0.15000000000E+04  0.10566000000E+00 0. -1.
        994   -1    0    0    0    0 -0.00000000000E+00 -0.00000000000E+00  0.11368683772E-12  0.17120000000E+03  0.17120000000E+03 0.  0.
         13    1    1    2    0    0 -0.17997064341E+02 -0.10129789487E+02  0.28914731606E+02  0.35532799324E+02  0.10566000000E+00 0. -1.
        994    1    1    2    0    0  0.10454923306E+02  0.35202494819E+01  0.71923254531E+01  0.17170575740E+03  0.17120000000E+03 0.  0.
        998    1    1    2    0    0  0.75421410347E+01  0.66095400049E+01  0.14638929392E+04  0.14639614433E+04  0.10000000000E+02 0. -1.
</event>
<event>
 5    1  0.1247473E-008  0.3806281E+03  0.7957747E-01  0.3448428E+00
         13   -1    0    0    0    0  0.00000000000E+00  0.00000000000E+00  0.14999999963E+04  0.15000000000E+04  0.10566000000E+00 0. -1.
        994   -1    0    0    0    0 -0.00000000000E+00 -0.00000000000E+00  0.11368683772E-12  0.17120000000E+03  0.17120000000E+03 0.  0.
         13    1    1    2    0    0 -0.27403799532E+02 -0.22533493913E+01  0.10714085086E+03  0.11061292374E+03  0.10566000000E+00 0. -1.
        994    1    1    2    0    0  0.52365742244E+00 -0.24226846620E+01  0.38369217443E+01  0.17126092837E+03  0.17120000000E+03 0.  0.
        998    1    1    2    0    0  0.26880142109E+02  0.46760340533E+01  0.13890222237E+04  0.13893261479E+04  0.10000000000E+02 0. -1.
</event>
<event>
 5    1  0.1247473E-008  0.3821476E+03  0.7957747E-01  0.3441860E+00
         13   -1    0    0    0    0  0.00000000000E+00  0.00000000000E+00  0.14999999963E+04  0.15000000000E+04  0.10566000000E+00 0. -1.
        994   -1    0    0    0    0 -0.00000000000E+00 -0.00000000000E+00  0.11368683772E-12  0.17120000000E+03  0.17120000000E+03 0.  0.
         13    1    1    2    0    0 -0.11531112008E+02  0.47942296213E+02  0.24934769642E+03  0.25417654334E+03  0.10566000000E+00 0. -1.
        994    1    1    2    0    0  0.13670674257E+02 -0.79754045078E+02  0.25100136026E+02  0.19101584193E+03  0.17120000000E+03 0.  0.
        998    1    1    2    0    0 -0.21395622483E+01  0.31811748864E+02  0.12255521638E+04  0.12260076147E+04  0.10000000000E+02 0. -1.
</event>
<event>
 5    1  0.1247473E-008  0.3764712E+03  0.7957747E-01  0.3466669E+00
         13   -1    0    0    0    0  0.00000000000E+00  0.00000000000E+00  0.14999999963E+04  0.15000000000E+04  0.10566000000E+00 0. -1.
        994   -1    0    0    0    0 -0.00000000000E+00 -0.00000000000E+00  0.11368683772E-12  0.17120000000E+03  0.17120000000E+03 0.  0.
         13    1    1    2    0    0  0.60274628335E+01  0.98685212851E+02  0.55414921269E+03  0.56290004675E+03  0.10566000000E+00 0. -1.
        994    1    1    2    0    0 -0.11098028539E+02 -0.91827494921E+02  0.35434767581E+02  0.19778907405E+03  0.17120000000E+03 0.  0.
        998    1    1    2    0    0  0.50705657051E+01 -0.68577179305E+01  0.91041601601E+03  0.91051087920E+03  0.10000000000E+02 0. -1.
</event>
<event>
 5    1  0.1247473E-008  0.3823594E+03  0.7957747E-01  0.3440949E+00
         13   -1    0    0    0    0  0.00000000000E+00  0.00000000000E+00  0.14999999963E+04  0.15000000000E+04  0.10566000000E+00 0.  1.
        994   -1    0    0    0    0 -0.00000000000E+00 -0.00000000000E+00  0.11368683772E-12  0.17120000000E+03  0.17120000000E+03 0.  0.
         13    1    1    2    0    0  0.64068637946E+00 -0.14612810289E+02  0.35701631966E+02  0.38581892031E+02  0.10566000000E+00 0.  1.
        994    1    1    2    0    0 -0.30465623490E+01  0.64973549840E+01  0.31176866163E+01  0.17137869510E+03  0.17120000000E+03 0.  0.
        998    1    1    2    0    0  0.24058759695E+01  0.81154553047E+01  0.14611806777E+04  0.14612394129E+04  0.10000000000E+02 0.  1.
</event>
<event>
 5    1  0.1247473E-008  0.3855571E+03  0.7957747E-01  0.3427313E+00
         13   -1    0    0    0    0  0.00000000000E+00  0.00000000000E+00  0.14999999963E+04  0.15000000000E+04  0.10566000000E+00 0.  1.
        994   -1    0    0    0    0 -0.00000000000E+00 -0.00000000000E+00  0.11368683772E-12  0.17120000000E+03  0.17120000000E+03 0.  0.
         13    1    1    2    0    0  0.87056125645E+01 -0.11546848465E+02  0.76807511115E+02  0.78157036326E+02  0.10566000000E+00 0.  1.
        994    1    1    2    0    0 -0.52265846282E+01  0.98131538319E+01  0.17596814836E+01  0.17156966997E+03  0.17120000000E+03 0.  0.
        998    1    1    2    0    0 -0.34790279363E+01  0.17336946333E+01  0.14214328037E+04  0.14214732937E+04  0.10000000000E+02 0.  1.
</event>
<event>
 5    1  0.1247473E-008  0.3825566E+03  0.7957747E-01  0.3440102E+00
         13   -1    0    0    0    0  0.00000000000E+00  0.00000000000E+00  0.14999999963E+04  0.15000000000E+04  0.10566000000E+00 0. -1.
        994   -1    0    0    0    0 -0.00000000000E+00 -0.00000000000E+00  0.11368683772E-12  0.17120000000E+03  0.17120000000E+03 0.  0.
         13    1    1    2    0    0 -0.17904317025E+02 -0.45700231595E+02  0.25186527660E+03  0.25660320430E+03  0.10566000000E+00 0. -1.
        994    1    1    2    0    0  0.17859212599E+02  0.84370298894E+02  0.27906495334E+02  0.19371502598E+03  0.17120000000E+03 0.  0.
        998    1    1    2    0    0  0.45104426122E-01 -0.38670067299E+02  0.12202282243E+04  0.12208817697E+04  0.10000000000E+02 0. -1.
</event>
<event>
 5    1  0.1247473E-008  0.3853280E+03  0.7957747E-01  0.3428282E+00
         13   -1    0    0    0    0  0.00000000000E+00  0.00000000000E+00  0.14999999963E+04  0.15000000000E+04  0.10566000000E+00 0. -1.
        994   -1    0    0    0    0 -0.00000000000E+00 -0.00000000000E+00  0.11368683772E-12  0.17120000000E+03  0.17120000000E+03 0.  0.
         13    1    1    2    0    0 -0.96857450450E+01 -0.71489113645E+01  0.50096472165E+02  0.51522696728E+02  0.10566000000E+00 0. -1.
        994    1    1    2    0    0  0.98214823121E+00  0.88800024665E+01  0.17296178344E+01  0.17144168290E+03  0.17120000000E+03 0.  0.
        998    1    1    2    0    0  0.87035968138E+01 -0.17310911020E+01  0.14481739063E+04  0.14482356204E+04  0.10000000000E+02 0. -1.
</event>
<event>
 5    1  0.1247473E-008  0.3827437E+03  0.7957747E-01  0.3439298E+00
         13   -1    0    0    0    0  0.00000000000E+00  0.00000000000E+00  0.14999999963E+04  0.15000000000E+04  0.10566000000E+00 0. -1.
        994   -1    0    0    0    0 -0.00000000000E+00 -0.00000000000E+00  0.11368683772E-12  0.17120000000E+03  0.17120000000E+03 0.  0.
         13    1    1    2    0    0 -0.44233585736E+01 -0.21675537534E+02  0.96856969054E+02  0.99351289105E+02  0.10566000000E+00 0. -1.
        994    1    1    2    0    0  0.50068847078E+01 -0.27680467749E+01  0.28629586517E+01  0.17131948958E+03  0.17120000000E+03 0.  0.
        998    1    1    2    0    0 -0.58352613417E+00  0.24443584309E+02  0.14002800686E+04  0.14005292213E+04  0.10000000000E+02 0. -1.
</event>
<event>
 5    1  0.1247473E-008  0.3767204E+03  0.7957747E-01  0.3465564E+00
         13   -1    0    0    0    0  0.00000000000E+00  0.00000000000E+00  0.14999999963E+04  0.15000000000E+04  0.10566000000E+00 0. -1.
        994   -1    0    0    0    0 -0.00000000000E+00 -0.00000000000E+00  0.11368683772E-12  0.17120000000E+03  0.17120000000E+03 0.  0.
         13    1    1    2    0    0 -0.16356371181E+02 -0.31211426396E+02  0.96430863336E+02  0.10266745630E+03  0.10566000000E+00 0. -1.
        994    1    1    2    0    0  0.17365161219E+02  0.37215370763E+02  0.11518978482E+02  0.17643315876E+03  0.17120000000E+03 0.  0.
        998    1    1    2    0    0 -0.10087900376E+01 -0.60039443672E+01  0.13920501545E+04  0.13920993849E+04  0.10000000000E+02 0. -1.
</event>
<event>
 5    1  0.1247473E-008  0.3828373E+03  0.7957747E-01  0.3438896E+00
         13   -1    0    0    0    0  0.00000000000E+00  0.00000000000E+00  0.14999999963E+04  0.15000000000E+04  0.10566000000E+00 0. -1.
        994   -1    0    0    0    0 -0.00000000000E+00 -0.00000000000E+00  0.11368683772E-12  0.17120000000E+03  0.17120000000E+03 0.  0.
         13    1    1    2    0    0  0.94970475551E+01 -0.21116677403E+02  0.10319944854E+03  0.10576504773E+03  0.10566000000E+00 0. -1.
        994    1    1    2    0    0 -0.27010018198E+01  0.59353035258E+01  0.28485196178E+01  0.17134782550E+03  0.17120000000E+03 0.  0.
        998    1    1    2    0    0 -0.67960457353E+01  0.15181373877E+02  0.13939520281E+04  0.13940871268E+04  0.10000000000E+02 0. -1.
</event>
<event>
 5    1  0.1247473E-008  0.3836252E+03  0.7957747E-01  0.3435524E+00
         13   -1    0    0    0    0  0.00000000000E+00  0.00000000000E+00  0.14999999963E+04  0.15000000000E+04  0.10566000000E+00 0.  1.
        994   -1    0    0    0    0 -0.00000000000E+00 -0.00000000000E+00  0.11368683772E-12  0.17120000000E+03  0.17120000000E+03 0.  0.
         13    1    1    2    0    0  0.10872294195E+02  0.20787157290E+02  0.11271481958E+03  0.11513016289E+03  0.10566000000E+00 0.  1.
        994    1    1    2    0    0 -0.71128261094E+01 -0.20394878996E+02  0.38569325607E+01  0.17260028770E+03  0.17120000000E+03 0.  0.
        998    1    1    2    0    0 -0.37594680860E+01 -0.39227829390E+00  0.13834282441E+04  0.13834695494E+04  0.10000000000E+02 0.  1.
</event>
<event>
 5    1  0.1247473E-008  0.3851046E+03  0.7957747E-01  0.3429229E+00
         13   -1    0    0    0    0  0.00000000000E+00  0.00000000000E+00  0.14999999963E+04  0.15000000000E+04  0.10566000000E+00 0. -1.
        994   -1    0    0    0    0 -0.00000000000E+00 -0.00000000000E+00  0.11368683772E-12  0.17120000000E+03  0.17120000000E+03 0.  0.
         13    1    1    2    0    0 -0.89312173070E+01  0.14922048611E+02  0.97388960259E+02  0.98929545241E+02  0.10566000000E+00 0. -1.
        994    1    1    2    0    0  0.51431073186E+01 -0.77170496382E+01  0.18610245247E+01  0.17146109710E+03  0.17120000000E+03 0.  0.
        998    1    1    2    0    0  0.37881099884E+01 -0.72049989731E+01  0.14007500115E+04  0.14008093577E+04  0.10000000000E+02 0. -1.
</event>
<event>
 5    1  0.1247473E-008  0.3820340E+03  0.7957747E-01  0.3442350E+00
         13   -1    0    0    0    0  0.00000000000E+00  0.00000000000E+00  0.14999999963E+04  0.15000000000E+04  0.10566000000E+00 0. -1.
        994   -1    0    0    0    0 -0.00000000000E+00 -0.00000000000E+00  0.11368683772E-12  0.17120000000E+03  0.17120000000E+03 0.  0.
         13    1    1    2    0    0 -0.19671523256E+02 -0.53208235638E+01  0.70734113964E+02  0.73611181440E+02  0.10566000000E+00 0. -1.
        994    1    1    2    0    0  0.10190028726E+00 -0.66751443748E+01  0.32579337176E+01  0.17136108680E+03  0.17120000000E+03 0.  0.
        998    1    1    2    0    0  0.19569622969E+02  0.11995967939E+02  0.14260079486E+04  0.14262277318E+04  0.10000000000E+02 0. -1.
</event>
<event>
 5    1  0.1247473E-008  0.3737056E+03  0.7957747E-01  0.3479032E+00
         13   -1    0    0    0    0  0.00000000000E+00  0.00000000000E+00  0.14999999963E+04  0.15000000000E+04  0.10566000000E+00 0. -1.
        994   -1    0    0    0    0 -0.00000000000E+00 -0.00000000000E+00  0.11368683772E-12  0.17120000000E+03  0.17120000000E+03 0.  0.
         13    1    1    2    0    0 -0.12172168440E+02  0.51998417760E+02  0.19898733500E+03  0.20602904598E+03  0.10566000000E+00 0. -1.
        994    1    1    2    0    0  0.10398600268E+02 -0.22910855763E+02  0.95091827969E+01  0.17330003681E+03  0.17120000000E+03 0.  0.
        998    1    1    2    0    0  0.17735681717E+01 -0.29087561997E+02  0.12915034785E+04  0.12918709172E+04  0.10000000000E+02 0.  0.
</event>
<event>
 5    1  0.1247473E-008  0.3830943E+03  0.7957747E-01  0.3437795E+00
         13   -1    0    0    0    0  0.00000000000E+00  0.00000000000E+00  0.14999999963E+04  0.15000000000E+04  0.10566000000E+00 0. -1.
        994   -1    0    0    0    0 -0.00000000000E+00 -0.00000000000E+00  0.11368683772E-12  0.17120000000E+03  0.17120000000E+03 0.  0.
         13    1    1    2    0    0 -0.16328836317E+01  0.18308397910E+02  0.63395368162E+02  0.66006420986E+02  0.10566000000E+00 0. -1.
        994    1    1    2    0    0  0.93107980210E+01 -0.15383418934E+02  0.36499316247E+01  0.17218043599E+03  0.17120000000E+03 0.  0.
        998    1    1    2    0    0 -0.76779143893E+01 -0.29249789759E+01  0.14329546965E+04  0.14330131430E+04  0.10000000000E+02 0. -1.
</event>
<event>
 5    1  0.1247473E-008  0.3693399E+03  0.7957747E-01  0.3498930E+00
         13   -1    0    0    0    0  0.00000000000E+00  0.00000000000E+00  0.14999999963E+04  0.15000000000E+04  0.10566000000E+00 0. -1.
        994   -1    0    0    0    0 -0.00000000000E+00 -0.00000000000E+00  0.11368683772E-12  0.17120000000E+03  0.17120000000E+03 0.  0.
         13    1    1    2    0    0 -0.68014943114E+02 -0.57181858916E+01  0.18667588953E+03  0.19876274559E+03  0.10566000000E+00 0. -1.
        994    1    1    2    0    0  0.69968918912E+02  0.28213812682E+02  0.30714973045E+02  0.18959039640E+03  0.17120000000E+03 0.  0.
        998    1    1    2    0    0 -0.19539757976E+01 -0.22495626790E+02  0.12826091337E+04  0.12828468580E+04  0.10000000000E+02 0. -1.
</event>
<event>
 5    1  0.1247473E-008  0.3746219E+03  0.7957747E-01  0.3474916E+00
         13   -1    0    0    0    0  0.00000000000E+00  0.00000000000E+00  0.14999999963E+04  0.15000000000E+04  0.10566000000E+00 0. -1.
        994   -1    0    0    0    0 -0.00000000000E+00 -0.00000000000E+00  0.11368683772E-12  0.17120000000E+03  0.17120000000E+03 0.  0.
         13    1    1    2    0    0 -0.37556378908E+02  0.51203000019E+02  0.33100290916E+03  0.33703881949E+03  0.10566000000E+00 0. -1.
        994    1    1    2    0    0 -0.26630947400E+02 -0.50163201177E+02  0.17931742965E+02  0.18126373470E+03  0.17120000000E+03 0.  0.
        998    1    1    2    0    0  0.64187326308E+02 -0.10397988428E+01  0.11510653442E+04  0.11528974458E+04  0.10000000000E+02 0. -1.
</event>
<event>
 5    1  0.1247473E-008  0.3846708E+03  0.7957747E-01  0.3431070E+00
         13   -1    0    0    0    0  0.00000000000E+00  0.00000000000E+00  0.14999999963E+04  0.15000000000E+04  0.10566000000E+00 0.  1.
        994   -1    0    0    0    0 -0.00000000000E+00 -0.00000000000E+00  0.11368683772E-12  0.17120000000E+03  0.17120000000E+03 0.  0.
         13    1    1    2    0    0  0.16724509750E+02  0.58850570823E+01  0.93214074325E+02  0.94885288320E+02  0.10566000000E+00 0.  1.
        994    1    1    2    0    0 -0.15395373766E+01 -0.39156536825E+01  0.18519432153E+01  0.17126170679E+03  0.17120000000E+03 0.  0.
        998    1    1    2    0    0 -0.15184972374E+02 -0.19694033998E+01  0.14049339787E+04  0.14050530049E+04  0.10000000000E+02 0.  1.
</event>
<event>
 5    1  0.3238823E-008  0.3859598E+03  0.7957747E-01  0.3425612E+00
         13   -1    0    0    0    0  0.00000000000E+00  0.00000000000E+00  0.14999999963E+04  0.15000000000E+04  0.10566000000E+00 0.  1.
        994   -1    0    0    0    0 -0.00000000000E+00 -0.00000000000E+00  0.11368683772E-12  0.17120000000E+03  0.17120000000E+03 0.  0.
         13    1    1    2    0    0 -0.67724515083E+01  0.73619586380E+01  0.44975950497E+02  0.46075067244E+02  0.10566000000E+00 0.  1.
        994    1    1    2    0    0  0.36131257102E+01 -0.14102951560E+00  0.11972354161E+01  0.17124236608E+03  0.17120000000E+03 0.  0.
        998    1    1    2    0    0  0.31593257982E+01 -0.72209291224E+01  0.14538268104E+04  0.14538825667E+04  0.10000000000E+02 0.  1.
</event>
<event>
 5    1  0.1247473E-008  0.3809244E+03  0.7957747E-01  0.3447143E+00
         13   -1    0    0    0    0  0.00000000000E+00  0.00000000000E+00  0.14999999963E+04  0.15000000000E+04  0.10566000000E+00 0. -1.
        994   -1    0    0    0    0 -0.00000000000E+00 -0.00000000000E+00  0.11368683772E-12  0.17120000000E+03  0.17120000000E+03 0.  0.
         13    1    1    2    0    0  0.10342917133E+02 -0.57568801708E+01  0.17443770635E+02  0.21081126681E+02  0.10566000000E+00 0. -1.
        994    1    1    2    0    0 -0.88218079585E+01  0.73015205332E+01  0.41044086687E+01  0.17163164821E+03  0.17120000000E+03 0.  0.
        998    1    1    2    0    0 -0.15211091744E+01 -0.15446403625E+01  0.14784518170E+04  0.14784872251E+04  0.10000000000E+02 0. -1.
</event>
<event>
 5    1  0.1247473E-008  0.3819505E+03  0.7957747E-01  0.3442709E+00
         13   -1    0    0    0    0  0.00000000000E+00  0.00000000000E+00  0.14999999963E+04  0.15000000000E+04  0.10566000000E+00 0. -1.
        994   -1    0    0    0    0 -0.00000000000E+00 -0.00000000000E+00  0.11368683772E-12  0.17120000000E+03  0.17120000000E+03 0.  0.
         13    1    1    2    0    0 -0.13461733188E+01 -0.12481809904E+02  0.23690628673E+02  0.26811654407E+02  0.10566000000E+00 0. -1.
        994    1    1    2    0    0 -0.13197216965E+01  0.10247255155E+02  0.35063974918E+01  0.17154731921E+03  0.17120000000E+03 0.  0.
        998    1    1    2    0    0  0.26658950153E+01  0.22345547490E+01  0.14728029701E+04  0.14728410264E+04  0.10000000000E+02 0. -1.
</event>
<event>
 5    1  0.1320760E-008  0.3861646E+03  0.7957747E-01  0.3424748E+00
         13   -1    0    0    0    0  0.00000000000E+00  0.00000000000E+00  0.14999999963E+04  0.15000000000E+04  0.10566000000E+00 0. -1.
        994   -1    0    0    0    0 -0.00000000000E+00 -0.00000000000E+00  0.11368683772E-12  0.17120000000E+03  0.17120000000E+03 0.  0.
         13    1    1    2    0    0 -0.84200578345E+01 -0.83519380549E+01  0.69161831980E+02  0.70171378852E+02  0.10566000000E+00 0. -1.
        994    1    1    2    0    0  0.68161654749E+01  0.76113280694E+00  0.12071468136E+01  0.17134157884E+03  0.17120000000E+03 0.  0.
        998    1    1    2    0    0  0.16038923596E+01  0.75908052480E+01  0.14296310175E+04  0.14296870423E+04  0.10000000000E+02 0. -1.
</event>
<event>
 5    1  0.1247473E-008  0.3729219E+03  0.7957747E-01  0.3482569E+00
         13   -1    0    0    0    0  0.00000000000E+00  0.00000000000E+00  0.14999999963E+04  0.15000000000E+04  0.10566000000E+00 0. -1.
        994   -1    0    0    0    0 -0.00000000000E+00 -0.00000000000E+00  0.11368683772E-12  0.17120000000E+03  0.17120000000E+03 0.  0.
         13    1    1    2    0    0  0.74804655308E+02  0.23526953327E+03  0.11445533960E+04  0.11708757309E+04  0.10566000000E+00 0. -1.
        994    1    1    2    0    0 -0.60891659862E+02 -0.23163211377E+03  0.22981556014E+03  0.37347806101E+03  0.17120000000E+03 0.  0.
        998    1    1    2    0    0 -0.13912995446E+02 -0.36374195000E+01  0.12563104017E+03  0.12684620813E+03  0.10000000000E+02 0.  0.
</event>
<event>
 5    1  0.1247473E-008  0.3846869E+03  0.7957747E-01  0.3431001E+00
         13   -1    0    0    0    0  0.00000000000E+00  0.00000000000E+00  0.14999999963E+04  0.15000000000E+04  0.10566000000E+00 0.  1.
        994   -1    0    0    0    0 -0.00000000000E+00 -0.00000000000E+00  0.11368683772E-12  0.17120000000E+03  0.17120000000E+03 0.  0.
         13    1    1    2    0    0 -0.77888992361E+00 -0.23856873722E+02  0.14006333418E+03  0.14208274293E+03  0.10566000000E+00 0.  1.
        994    1    1    2    0    0 -0.15335167100E+01  0.29425601035E+02  0.46490864423E+01  0.17377937644E+03  0.17120000000E+03 0.  0.
        998    1    1    2    0    0  0.23124066336E+01 -0.55687273130E+01  0.13552875757E+04  0.13553378806E+04  0.10000000000E+02 0.  1.
</event>
<event>
 5    1  0.1247473E-008  0.3388011E+03  0.7957747E-01  0.3652833E+00
         13   -1    0    0    0    0  0.00000000000E+00  0.00000000000E+00  0.14999999963E+04  0.15000000000E+04  0.10566000000E+00 0. -1.
        994   -1    0    0    0    0 -0.00000000000E+00 -0.00000000000E+00  0.11368683772E-12  0.17120000000E+03  0.17120000000E+03 0.  0.
         13    1    1    2    0    0  0.90047539436E+02  0.23050955654E+03  0.78795284598E+03  0.82590127356E+03  0.10566000000E+00 0. -1.
        994    1    1    2    0    0 -0.13561129323E+03 -0.22787668948E+03  0.31645838406E+03  0.44696035317E+03  0.17120000000E+03 0.  0.
        998    1    1    2    0    0  0.45563753796E+02 -0.26328670572E+01  0.39558876624E+03  0.39833837327E+03  0.10000000000E+02 0.  1.
</event>
<event>
 5    1  0.1247473E-008  0.3684178E+03  0.7957747E-01  0.3503194E+00
         13   -1    0    0    0    0  0.00000000000E+00  0.00000000000E+00  0.14999999963E+04  0.15000000000E+04  0.10566000000E+00 0.  1.
        994   -1    0    0    0    0 -0.00000000000E+00 -0.00000000000E+00  0.11368683772E-12  0.17120000000E+03  0.17120000000E+03 0.  0.
         13    1    1    2    0    0  0.35484918886E+02  0.46758573044E+02  0.16796005242E+03  0.17792170749E+03  0.10566000000E+00 0.  1.
        994    1    1    2    0    0 -0.53958420140E+00 -0.43027565976E+02  0.16570086148E+02  0.17730107259E+03  0.17120000000E+03 0.  0.
        998    1    1    2    0    0 -0.34945334685E+02 -0.37310070684E+01  0.13154698577E+04  0.13159772199E+04  0.10000000000E+02 0.  1.
</event>
<event>
 5    1  0.1247473E-008  0.3852724E+03  0.7957747E-01  0.3428518E+00
         13   -1    0    0    0    0  0.00000000000E+00  0.00000000000E+00  0.14999999963E+04  0.15000000000E+04  0.10566000000E+00 0. -1.
        994   -1    0    0    0    0 -0.00000000000E+00 -0.00000000000E+00  0.11368683772E-12  0.17120000000E+03  0.17120000000E+03 0.  0.
         13    1    1    2    0    0  0.51296002171E+01  0.10528437396E+02  0.46915900139E+02  0.48355699171E+02  0.10566000000E+00 0. -1.
        994    1    1    2    0    0 -0.14400810462E+00 -0.45097257284E+01  0.15618504229E+01  0.17126656925E+03  0.17120000000E+03 0.  0.
        998    1    1    2    0    0 -0.49855921125E+01 -0.60187116675E+01  0.14515222457E+04  0.14515777316E+04  0.10000000000E+02 0. -1.
</event>
<event>
 5    1  0.1247473E-008  0.3796746E+03  0.7957747E-01  0.3452577E+00
         13   -1    0    0    0    0  0.00000000000E+00  0.00000000000E+00  0.14999999963E+04  0.15000000000E+04  0.10566000000E+00 0. -1.
        994   -1    0    0    0    0 -0.00000000000E+00 -0.00000000000E+00  0.11368683772E-12  0.17120000000E+03  0.17120000000E+03 0.  0.
         13    1    1    2    0    0  0.46347725649E+01  0.44505098181E+02  0.54495379997E+02  0.70512002424E+02  0.10566000000E+00 0. -1.
        994    1    1    2    0    0 -0.66564491265E+01 -0.41792955963E+02  0.22658499716E+02  0.17780271959E+03  0.17120000000E+03 0.  0.
        998    1    1    2    0    0  0.20216765616E+01 -0.27121422178E+01  0.14228461166E+04  0.14228852780E+04  0.10000000000E+02 0. -1.
</event>
<event>
 5    1  0.1247473E-008  0.3821878E+03  0.7957747E-01  0.3441687E+00
         13   -1    0    0    0    0  0.00000000000E+00  0.00000000000E+00  0.14999999963E+04  0.15000000000E+04  0.10566000000E+00 0.  1.
        994   -1    0    0    0    0 -0.00000000000E+00 -0.00000000000E+00  0.11368683772E-12  0.17120000000E+03  0.17120000000E+03 0.  0.
         13    1    1    2    0    0  0.51090116283E+01 -0.28908368358E+02  0.16434787406E+03  0.16694918578E+03  0.10566000000E+00 0.  1.
        994    1    1    2    0    0 -0.90771108075E+01 -0.34675486814E+01  0.33462306194E+01  0.17150817792E+03  0.17120000000E+03 0.  0.
        998    1    1    2    0    0  0.39680991792E+01  0.32375917040E+02  0.13323058916E+04  0.13327426363E+04  0.10000000000E+02 0.  1.
</event>
<event>
 5    1  0.1247473E-008  0.3822090E+03  0.7957747E-01  0.3441596E+00
         13   -1    0    0    0    0  0.00000000000E+00  0.00000000000E+00  0.14999999963E+04  0.15000000000E+04  0.10566000000E+00 0.  1.
        994   -1    0    0    0    0 -0.00000000000E+00 -0.00000000000E+00  0.11368683772E-12  0.17120000000E+03  0.17120000000E+03 0.  0.
         13    1    1    2    0    0 -0.30197807828E+02  0.14381579269E+02  0.16411121794E+03  0.16748504542E+03  0.10566000000E+00 0.  1.
        994    1    1    2    0    0  0.38092010931E+02 -0.20848368857E+01  0.78671443172E+01  0.17557528243E+03  0.17120000000E+03 0.  0.
        998    1    1    2    0    0 -0.78942031037E+01 -0.12296742384E+02  0.13280216340E+04  0.13281396722E+04  0.10000000000E+02 0.  1.
</event>
<event>
 5    1  0.1247473E-008  0.3786353E+03  0.7957747E-01  0.3457122E+00
         13   -1    0    0    0    0  0.00000000000E+00  0.00000000000E+00  0.14999999963E+04  0.15000000000E+04  0.10566000000E+00 0.  1.
        994   -1    0    0    0    0 -0.00000000000E+00 -0.00000000000E+00  0.11368683772E-12  0.17120000000E+03  0.17120000000E+03 0.  0.
         13    1    1    2    0    0 -0.21379023284E+02 -0.21285336525E+02  0.10782507985E+03  0.11196600911E+03  0.10566000000E+00 0.  1.
        994    1    1    2    0    0 -0.20453766077E+01 -0.14063216385E+02  0.55021151975E+01  0.17187690622E+03  0.17120000000E+03 0.  0.
        998    1    1    2    0    0  0.23424399891E+02  0.35348552910E+02  0.13866728012E+04  0.13873570847E+04  0.10000000000E+02 0.  1.
</event>
<event>
 5    1  0.1247473E-008  0.3845996E+03  0.7957747E-01  0.3431372E+00
         13   -1    0    0    0    0  0.00000000000E+00  0.00000000000E+00  0.14999999963E+04  0.15000000000E+04  0.10566000000E+00 0. -1.
        994   -1    0    0    0    0 -0.00000000000E+00 -0.00000000000E+00  0.11368683772E-12  0.17120000000E+03  0.17120000000E+03 0.  0.
         13    1    1    2    0    0 -0.79582536716E+01 -0.88600724334E+01  0.39676667791E+02  0.41425642012E+02  0.10566000000E+00 0. -1.
        994    1    1    2    0    0 -0.15598234057E+01  0.34836395761E+01  0.18770507760E+01  0.17125283096E+03  0.17120000000E+03 0.  0.
        998    1    1    2    0    0  0.95180770774E+01  0.53764328572E+01  0.14584462777E+04  0.14585215270E+04  0.10000000000E+02 0. -1.
</event>
<event>
 5    1  0.1247473E-008  0.3774987E+03  0.7957747E-01  0.3462122E+00
         13   -1    0    0    0    0  0.00000000000E+00  0.00000000000E+00  0.14999999963E+04  0.15000000000E+04  0.10566000000E+00 0. -1.
        994   -1    0    0    0    0 -0.00000000000E+00 -0.00000000000E+00  0.11368683772E-12  0.17120000000E+03  0.17120000000E+03 0.  0.
         13    1    1    2    0    0 -0.76440760736E+02  0.10791906588E+01  0.36803950767E+03  0.37589552395E+03  0.10566000000E+00 0. -1.
        994    1    1    2    0    0  0.87055322133E+02  0.11775088903E+02  0.31872889263E+02  0.19504513042E+03  0.17120000000E+03 0.  0.
        998    1    1    2    0    0 -0.10614561397E+02 -0.12854279562E+02  0.11000875993E+04  0.11002593456E+04  0.10000000000E+02 0. -1.
</event>
<event>
 5    1  0.1247473E-008  0.3766485E+03  0.7957747E-01  0.3465883E+00
         13   -1    0    0    0    0  0.00000000000E+00  0.00000000000E+00  0.14999999963E+04  0.15000000000E+04  0.10566000000E+00 0. -1.
        994   -1    0    0    0    0 -0.00000000000E+00 -0.00000000000E+00  0.11368683772E-12  0.17120000000E+03  0.17120000000E+03 0.  0.
         13    1    1    2    0    0 -0.18623011818E+02  0.33305073730E+02  0.11772835503E+03  0.12375791387E+03  0.10566000000E+00 0. -1.
        994    1    1    2    0    0  0.19976090113E+02 -0.25047929997E+02  0.93122249861E+01  0.17442075710E+03  0.17120000000E+03 0.  0.
        998    1    1    2    0    0 -0.13530782941E+01 -0.82571437331E+01  0.13729594163E+04  0.13730213290E+04  0.10000000000E+02 0. -1.
</event>
<event>
 5    1  0.1247473E-008  0.3985630E+03  0.7957747E-01  0.3374111E+00
         13   -1    0    0    0    0  0.00000000000E+00  0.00000000000E+00  0.14999999963E+04  0.15000000000E+04  0.10566000000E+00 0.  1.
        994   -1    0    0    0    0 -0.00000000000E+00 -0.00000000000E+00  0.11368683772E-12  0.17120000000E+03  0.17120000000E+03 0.  0.
         13    1    1    2    0    0 -0.64937478846E+02 -0.75063650511E+02  0.14196478638E+03  0.17322078259E+03  0.10566000000E+00 0.  1.
        994    1    1    2    0    0  0.10007428669E+03  0.81292332477E+02  0.95050901470E+02  0.23445131701E+03  0.17120000000E+03 0.  0.
        998    1    1    2    0    0 -0.35136807845E+02 -0.62286819656E+01  0.12629843084E+04  0.12635279004E+04  0.10000000000E+02 0.  1.
</event>
<event>
 5    1  0.1247473E-008  0.3853419E+03  0.7957747E-01  0.3428224E+00
         13   -1    0    0    0    0  0.00000000000E+00  0.00000000000E+00  0.14999999963E+04  0.15000000000E+04  0.10566000000E+00 0.  1.
        994   -1    0    0    0    0 -0.00000000000E+00 -0.00000000000E+00  0.11368683772E-12  0.17120000000E+03  0.17120000000E+03 0.  0.
         13    1    1    2    0    0 -0.42993020006E+00 -0.12497727129E+02  0.53865634896E+02  0.55298244187E+02  0.10566000000E+00 0.  1.
        994    1    1    2    0    0 -0.24676619531E+01  0.79128840905E+01  0.16862313299E+01  0.17140882844E+03  0.17120000000E+03 0.  0.
        998    1    1    2    0    0  0.28975921532E+01  0.45848430386E+01  0.14444481301E+04  0.14444929274E+04  0.10000000000E+02 0.  1.
</event>
<event>
 5    1  0.1247473E-008  0.3804788E+03  0.7957747E-01  0.3449076E+00
         13   -1    0    0    0    0  0.00000000000E+00  0.00000000000E+00  0.14999999963E+04  0.15000000000E+04  0.10566000000E+00 0. -1.
        994   -1    0    0    0    0 -0.00000000000E+00 -0.00000000000E+00  0.11368683772E-12  0.17120000000E+03  0.17120000000E+03 0.  0.
         13    1    1    2    0    0 -0.32756173804E+02  0.11968196743E+02  0.13945343436E+03  0.14374796059E+03  0.10566000000E+00 0. -1.
        994    1    1    2    0    0  0.32928255314E+02 -0.19851350816E+02  0.88416190056E+01  0.17568710924E+03  0.17120000000E+03 0.  0.
        998    1    1    2    0    0 -0.17208150932E+00  0.78831540731E+01  0.13517049429E+04  0.13517649302E+04  0.10000000000E+02 0. -1.
</event>
<event>
 5    1  0.1247473E-008  0.3175708E+03  0.7957747E-01  0.3778051E+00
         13   -1    0    0    0    0  0.00000000000E+00  0.00000000000E+00  0.14999999963E+04  0.15000000000E+04  0.10566000000E+00 0. -1.
        994   -1    0    0    0    0 -0.00000000000E+00 -0.00000000000E+00  0.11368683772E-12  0.17120000000E+03  0.17120000000E+03 0.  0.
         13    1    1    2    0    0 -0.23922067824E+03  0.33251600112E+02  0.57000025088E+03  0.61905775092E+03  0.10566000000E+00 0. -1.
        994    1    1    2    0    0  0.26246037846E+03 -0.39163858664E+02  0.34941798569E+03  0.47097943354E+03  0.17120000000E+03 0.  0.
        998    1    1    2    0    0 -0.23239700222E+02  0.59122585513E+01  0.58058175970E+03  0.58116281554E+03  0.10000000000E+02 0. -1.
</event>
<event>
 5    1  0.1247473E-008  0.3797103E+03  0.7957747E-01  0.3452421E+00
         13   -1    0    0    0    0  0.00000000000E+00  0.00000000000E+00  0.14999999963E+04  0.15000000000E+04  0.10566000000E+00 0.  1.
        994   -1    0    0    0    0 -0.00000000000E+00 -0.00000000000E+00  0.11368683772E-12  0.17120000000E+03  0.17120000000E+03 0.  0.
         13    1    1    2    0    0 -0.23882736703E+02 -0.14343073320E+02  0.85259568466E+02  0.89695674610E+02  0.10566000000E+00 0.  1.
        994    1    1    2    0    0  0.30350277061E+02  0.16905096400E+01  0.73774498591E+01  0.17403408835E+03  0.17120000000E+03 0.  0.
        998    1    1    2    0    0 -0.64675403577E+01  0.12652563680E+02  0.14073629780E+04  0.14074702370E+04  0.10000000000E+02 0.  1.
</event>
<event>
 5    1  0.1247473E-008  0.3819510E+03  0.7957747E-01  0.3442707E+00
         13   -1    0    0    0    0  0.00000000000E+00  0.00000000000E+00  0.14999999963E+04  0.15000000000E+04  0.10566000000E+00 0. -1.
        994   -1    0    0    0    0 -0.00000000000E+00 -0.00000000000E+00  0.11368683772E-12  0.17120000000E+03  0.17120000000E+03 0.  0.
         13    1    1    2    0    0  0.68064670214E+01 -0.17391860315E+02  0.56354332915E+02  0.59368567448E+02  0.10566000000E+00 0. -1.
        994    1    1    2    0    0  0.18496981127E+00  0.40141550575E+01  0.32051720648E+01  0.17127714612E+03  0.17120000000E+03 0.  0.
        998    1    1    2    0    0 -0.69914368327E+01  0.13377705258E+02  0.14404404913E+04  0.14405542864E+04  0.10000000000E+02 0. -1.
</event>
<event>
 5    1  0.1247473E-008  0.3821700E+03  0.7957747E-01  0.3441764E+00
         13   -1    0    0    0    0  0.00000000000E+00  0.00000000000E+00  0.14999999963E+04  0.15000000000E+04  0.10566000000E+00 0. -1.
        994   -1    0    0    0    0 -0.00000000000E+00 -0.00000000000E+00  0.11368683772E-12  0.17120000000E+03  0.17120000000E+03 0.  0.
         13    1    1    2    0    0  0.11731484896E+02  0.10522810740E+02  0.43174840990E+02  0.45961237388E+02  0.10566000000E+00 0. -1.
        994    1    1    2    0    0  0.66192159990E+01  0.75543155320E+01  0.33766478961E+01  0.17152761718E+03  0.17120000000E+03 0.  0.
        998    1    1    2    0    0 -0.18350700895E+02 -0.18077126272E+02  0.14534485074E+04  0.14537111454E+04  0.10000000000E+02 0. -1.
</event>
<event>
 5    1  0.1247473E-008  0.3842540E+03  0.7957747E-01  0.3432842E+00
         13   -1    0    0    0    0  0.00000000000E+00  0.00000000000E+00  0.14999999963E+04  0.15000000000E+04  0.10566000000E+00 0.  1.
        994   -1    0    0    0    0 -0.00000000000E+00 -0.00000000000E+00  0.11368683772E-12  0.17120000000E+03  0.17120000000E+03 0.  0.
         13    1    1    2    0    0  0.13777477904E+02 -0.11855423920E+02  0.27356491952E+00  0.18178448105E+02  0.10566000000E+00 0.  1.
        994    1    1    2    0    0 -0.33370973601E+02  0.33759253642E+01  0.22836048583E+02  0.17594301312E+03  0.17120000000E+03 0.  0.
        998    1    1    2    0    0  0.19593495696E+02  0.84794985558E+01  0.14768903828E+04  0.14770785388E+04  0.10000000000E+02 0.  1.
</event>
<event>
 5    1  0.1247473E-008  0.3850892E+03  0.7957747E-01  0.3429294E+00
         13   -1    0    0    0    0  0.00000000000E+00  0.00000000000E+00  0.14999999963E+04  0.15000000000E+04  0.10566000000E+00 0. -1.
        994   -1    0    0    0    0 -0.00000000000E+00 -0.00000000000E+00  0.11368683772E-12  0.17120000000E+03  0.17120000000E+03 0.  0.
         13    1    1    2    0    0  0.74914531663E+01 -0.10258130431E+02  0.49693486080E+02  0.51291371919E+02  0.10566000000E+00 0. -1.
        994    1    1    2    0    0 -0.53012679346E+01  0.11796895462E+02  0.21359960091E+01  0.17170111433E+03  0.17120000000E+03 0.  0.
        998    1    1    2    0    0 -0.21901852317E+01 -0.15387650315E+01  0.14481705142E+04  0.14482075137E+04  0.10000000000E+02 0. -1.
</event>
<event>
 5    1  0.1247473E-008  0.3849522E+03  0.7957747E-01  0.3429875E+00
         13   -1    0    0    0    0  0.00000000000E+00  0.00000000000E+00  0.14999999963E+04  0.15000000000E+04  0.10566000000E+00 0.  1.
        994   -1    0    0    0    0 -0.00000000000E+00 -0.00000000000E+00  0.11368683772E-12  0.17120000000E+03  0.17120000000E+03 0.  0.
         13    1    1    2    0    0  0.76590064624E+01 -0.69582177450E+01  0.32127846185E+02  0.33753323373E+02  0.10566000000E+00 0.  1.
        994    1    1    2    0    0 -0.67576797766E+01  0.31914789537E+01  0.18375877719E+01  0.17137289314E+03  0.17120000000E+03 0.  0.
        998    1    1    2    0    0 -0.90132668575E+00  0.37667387913E+01  0.14660345623E+04  0.14660737835E+04  0.10000000000E+02 0.  1.
</event>
<event>
 5    1  0.1247473E-008  0.3922298E+03  0.7957747E-01  0.3399577E+00
         13   -1    0    0    0    0  0.00000000000E+00  0.00000000000E+00  0.14999999963E+04  0.15000000000E+04  0.10566000000E+00 0.  1.
        994   -1    0    0    0    0 -0.00000000000E+00 -0.00000000000E+00  0.11368683772E-12  0.17120000000E+03  0.17120000000E+03 0.  0.
         13    1    1    2    0    0  0.11432351115E+03  0.64093825798E+02  0.34269469002E+03  0.36690263755E+03  0.10566000000E+00 0.  1.
        994    1    1    2    0    0 -0.74270767241E+02 -0.54426446550E+02  0.56166440316E+02  0.20234251646E+03  0.17120000000E+03 0.  0.
        998    1    1    2    0    0 -0.40052743905E+02 -0.96673792484E+01  0.11011388659E+04  0.11019548460E+04  0.10000000000E+02 0.  1.
</event>
<event>
 5    1  0.1247473E-008  0.3832339E+03  0.7957747E-01  0.3437197E+00
         13   -1    0    0    0    0  0.00000000000E+00  0.00000000000E+00  0.14999999963E+04  0.15000000000E+04  0.10566000000E+00 0.  1.
        994   -1    0    0    0    0 -0.00000000000E+00 -0.00000000000E+00  0.11368683772E-12  0.17120000000E+03  0.17120000000E+03 0.  0.
         13    1    1    2    0    0 -0.20441264751E+02  0.56705657015E+01  0.95147520314E+02  0.97483651993E+02  0.10566000000E+00 0.  1.
        994    1    1    2    0    0  0.21596824653E+01 -0.24265268724E+01  0.25444124037E+01  0.17124971911E+03  0.17120000000E+03 0.  0.
        998    1    1    2    0    0  0.18281582286E+02 -0.32440388291E+01  0.14023080636E+04  0.14024666289E+04  0.10000000000E+02 0.  1.
</event>
<event>
 5    1  0.1247473E-008  0.3846207E+03  0.7957747E-01  0.3431282E+00
         13   -1    0    0    0    0  0.00000000000E+00  0.00000000000E+00  0.14999999963E+04  0.15000000000E+04  0.10566000000E+00 0. -1.
        994   -1    0    0    0    0 -0.00000000000E+00 -0.00000000000E+00  0.11368683772E-12  0.17120000000E+03  0.17120000000E+03 0.  0.
         13    1    1    2    0    0  0.10956052828E+02 -0.16572344698E+02  0.11710448203E+03  0.11877772762E+03  0.10566000000E+00 0. -1.
        994    1    1    2    0    0 -0.43036602038E+01  0.81392051805E+00  0.18817265372E+01  0.17126635645E+03  0.17120000000E+03 0.  0.
        998    1    1    2    0    0 -0.66523926243E+01  0.15758424180E+02  0.13810137877E+04  0.13811559159E+04  0.10000000000E+02 0. -1.
</event>
<event>
 5    1  0.1247473E-008  0.3814529E+03  0.7957747E-01  0.3444857E+00
         13   -1    0    0    0    0  0.00000000000E+00  0.00000000000E+00  0.14999999963E+04  0.15000000000E+04  0.10566000000E+00 0. -1.
        994   -1    0    0    0    0 -0.00000000000E+00 -0.00000000000E+00  0.11368683772E-12  0.17120000000E+03  0.17120000000E+03 0.  0.
         13    1    1    2    0    0  0.30914468656E+01  0.14306572031E+02  0.29142158585E+02  0.32611525846E+02  0.10566000000E+00 0. -1.
        994    1    1    2    0    0 -0.28963128427E+01 -0.20764726065E+02  0.48653056978E+01  0.17254759829E+03  0.17120000000E+03 0.  0.
        998    1    1    2    0    0 -0.19513402294E+00  0.64581540344E+01  0.14659925320E+04  0.14660408759E+04  0.10000000000E+02 0. -1.
</event>
<event>
 5    1  0.1247473E-008  0.3787491E+03  0.7957747E-01  0.3456623E+00
         13   -1    0    0    0    0  0.00000000000E+00  0.00000000000E+00  0.14999999963E+04  0.15000000000E+04  0.10566000000E+00 0. -1.
        994   -1    0    0    0    0 -0.00000000000E+00 -0.00000000000E+00  0.11368683772E-12  0.17120000000E+03  0.17120000000E+03 0.  0.
         13    1    1    2    0    0  0.66168508096E+02  0.16448437039E+02  0.15540287632E+03  0.16970235024E+03  0.10566000000E+00 0. -1.
        994    1    1    2    0    0 -0.18424535593E+02 -0.19862758377E+02  0.18293719378E+02  0.17429312336E+03  0.17120000000E+03 0.  0.
        998    1    1    2    0    0 -0.47743972503E+02  0.34143213373E+01  0.13263034006E+04  0.13272045264E+04  0.10000000000E+02 0. -1.
</event>
<event>
 5    1  0.1247473E-008  0.3819496E+03  0.7957747E-01  0.3442713E+00
         13   -1    0    0    0    0  0.00000000000E+00  0.00000000000E+00  0.14999999963E+04  0.15000000000E+04  0.10566000000E+00 0. -1.
        994   -1    0    0    0    0 -0.00000000000E+00 -0.00000000000E+00  0.11368683772E-12  0.17120000000E+03  0.17120000000E+03 0.  0.
         13    1    1    2    0    0  0.90865320165E+01 -0.24330547254E+02  0.10040027302E+03  0.10370519071E+03  0.10566000000E+00 0. -1.
        994    1    1    2    0    0 -0.25211574426E+01  0.26091422600E+02  0.54378389351E+01  0.17328049129E+03  0.17120000000E+03 0.  0.
        998    1    1    2    0    0 -0.65653745739E+01 -0.17608753463E+01  0.13941618843E+04  0.13942143180E+04  0.10000000000E+02 0. -1.
</event>
<event>
 5    1  0.1247473E-008  0.3764087E+03  0.7957747E-01  0.3466947E+00
         13   -1    0    0    0    0  0.00000000000E+00  0.00000000000E+00  0.14999999963E+04  0.15000000000E+04  0.10566000000E+00 0.  1.
        994   -1    0    0    0    0 -0.00000000000E+00 -0.00000000000E+00  0.11368683772E-12  0.17120000000E+03  0.17120000000E+03 0.  0.
         13    1    1    2    0    0  0.22906592321E+02 -0.10929317111E+02  0.15316279657E+02  0.29643912205E+02  0.10566000000E+00 0.  1.
        994    1    1    2    0    0 -0.39815991904E+02  0.18847930000E+02  0.21341129757E+02  0.17806021873E+03  0.17120000000E+03 0.  0.
        998    1    1    2    0    0  0.16909399583E+02 -0.79186128894E+01  0.14633425869E+04  0.14634958691E+04  0.10000000000E+02 0.  1.
</event>
<event>
 5    1  0.1247473E-008  0.3878480E+03  0.7957747E-01  0.3417683E+00
         13   -1    0    0    0    0  0.00000000000E+00  0.00000000000E+00  0.14999999963E+04  0.15000000000E+04  0.10566000000E+00 0.  1.
        994   -1    0    0    0    0 -0.00000000000E+00 -0.00000000000E+00  0.11368683772E-12  0.17120000000E+03  0.17120000000E+03 0.  0.
         13    1    1    2    0    0 -0.77690242067E+02 -0.41445856909E+02  0.26848735160E+03  0.28255796202E+03  0.10566000000E+00 0.  1.
        994    1    1    2    0    0 -0.37038390308E+02  0.83265577939E+01  0.26102909477E+02  0.17729065346E+03  0.17120000000E+03 0.  0.
        998    1    1    2    0    0  0.11472863237E+03  0.33119299115E+02  0.12054097352E+04  0.12113513845E+04  0.10000000000E+02 0.  1.
</event>
<event>
 5    1  0.1247473E-008  0.3823708E+03  0.7957747E-01  0.3440900E+00
         13   -1    0    0    0    0  0.00000000000E+00  0.00000000000E+00  0.14999999963E+04  0.15000000000E+04  0.10566000000E+00 0.  1.
        994   -1    0    0    0    0 -0.00000000000E+00 -0.00000000000E+00  0.11368683772E-12  0.17120000000E+03  0.17120000000E+03 0.  0.
         13    1    1    2    0    0  0.77821133428E+01  0.19596654015E+02  0.83344167875E+02  0.85970062345E+02  0.10566000000E+00 0.  1.
        994    1    1    2    0    0 -0.70970784205E+01  0.96956467071E+01  0.34201801202E+01  0.17165521175E+03  0.17120000000E+03 0.  0.
        998    1    1    2    0    0 -0.68503492230E+00 -0.29292300722E+02  0.14132356483E+04  0.14135747259E+04  0.10000000000E+02 0.  1.
</event>
<event>
 5    1  0.1247473E-008  0.3754260E+03  0.7957747E-01  0.3471320E+00
         13   -1    0    0    0    0  0.00000000000E+00  0.00000000000E+00  0.14999999963E+04  0.15000000000E+04  0.10566000000E+00 0.  1.
        994   -1    0    0    0    0 -0.00000000000E+00 -0.00000000000E+00  0.11368683772E-12  0.17120000000E+03  0.17120000000E+03 0.  0.
         13    1    1    2    0    0  0.26301510548E+02  0.63727284545E+02  0.26734048184E+03  0.27608672668E+03  0.10566000000E+00 0.  1.
        994    1    1    2    0    0 -0.12180103570E+03 -0.53274449770E+02  0.69030741834E+02  0.22748262047E+03  0.17120000000E+03 0.  0.
        998    1    1    2    0    0  0.95499525152E+02 -0.10452834775E+02  0.11636287726E+04  0.11676306529E+04  0.10000000000E+02 0.  1.
</event>
<event>
 5    1  0.1247473E-008  0.3814692E+03  0.7957747E-01  0.3444786E+00
         13   -1    0    0    0    0  0.00000000000E+00  0.00000000000E+00  0.14999999963E+04  0.15000000000E+04  0.10566000000E+00 0. -1.
        994   -1    0    0    0    0 -0.00000000000E+00 -0.00000000000E+00  0.11368683772E-12  0.17120000000E+03  0.17120000000E+03 0.  0.
         13    1    1    2    0    0  0.92863831391E+01 -0.69360730202E+01  0.18274833334E+02  0.21640857612E+02  0.10566000000E+00 0. -1.
        994    1    1    2    0    0 -0.11401714389E+02  0.28955882902E+01  0.38538401044E+01  0.17164695047E+03  0.17120000000E+03 0.  0.
        998    1    1    2    0    0  0.21153312498E+01  0.40404847300E+01  0.14778713228E+04  0.14779121919E+04  0.10000000000E+02 0. -1.
</event>
<event>
 5    1  0.1247473E-008  0.3831335E+03  0.7957747E-01  0.3437627E+00
         13   -1    0    0    0    0  0.00000000000E+00  0.00000000000E+00  0.14999999963E+04  0.15000000000E+04  0.10566000000E+00 0.  1.
        994   -1    0    0    0    0 -0.00000000000E+00 -0.00000000000E+00  0.11368683772E-12  0.17120000000E+03  0.17120000000E+03 0.  0.
         13    1    1    2    0    0  0.41542216203E+01 -0.16890590010E+02  0.55082594770E+02  0.57763768911E+02  0.10566000000E+00 0.  1.
        994    1    1    2    0    0  0.37772211969E+01  0.25267272138E+02  0.47222496461E+01  0.17316016309E+03  0.17120000000E+03 0.  0.
        998    1    1    2    0    0 -0.79314428172E+01 -0.83766821276E+01  0.14401951519E+04  0.14402760680E+04  0.10000000000E+02 0.  1.
</event>
<event>
 5    1  0.1247473E-008  0.3829567E+03  0.7957747E-01  0.3438385E+00
         13   -1    0    0    0    0  0.00000000000E+00  0.00000000000E+00  0.14999999963E+04  0.15000000000E+04  0.10566000000E+00 0. -1.
        994   -1    0    0    0    0 -0.00000000000E+00 -0.00000000000E+00  0.11368683772E-12  0.17120000000E+03  0.17120000000E+03 0.  0.
         13    1    1    2    0    0  0.23443639572E+02 -0.15736472625E+02  0.16499907873E+03  0.16739757451E+03  0.10566000000E+00 0. -1.
        994    1    1    2    0    0  0.10032544399E+02  0.26567879905E+02  0.53225810005E+01  0.17362106456E+03  0.17120000000E+03 0.  0.
        998    1    1    2    0    0 -0.33476183971E+02 -0.10831407281E+02  0.13296783366E+04  0.13301813609E+04  0.10000000000E+02 0. -1.
</event>
<event>
 5    1  0.1247473E-008  0.4430833E+03  0.7957747E-01  0.3215402E+00
         13   -1    0    0    0    0  0.00000000000E+00  0.00000000000E+00  0.14999999963E+04  0.15000000000E+04  0.10566000000E+00 0. -1.
        994   -1    0    0    0    0 -0.00000000000E+00 -0.00000000000E+00  0.11368683772E-12  0.17120000000E+03  0.17120000000E+03 0.  0.
         13    1    1    2    0    0 -0.31856851983E+02  0.96524197261E+02  0.56131027484E+02  0.11611409512E+03  0.10566000000E+00 0. -1.
        994    1    1    2    0    0  0.45523946456E+01 -0.16081308043E+03  0.19804864676E+03  0.30726906388E+03  0.17120000000E+03 0.  0.
        998    1    1    2    0    0  0.27304457338E+02  0.64288883171E+02  0.12458203220E+04  0.12478168410E+04  0.10000000000E+02 0. -1.
</event>
<event>
 5    1  0.1247473E-008  0.3666841E+03  0.7957747E-01  0.3511270E+00
         13   -1    0    0    0    0  0.00000000000E+00  0.00000000000E+00  0.14999999963E+04  0.15000000000E+04  0.10566000000E+00 0.  1.
        994   -1    0    0    0    0 -0.00000000000E+00 -0.00000000000E+00  0.11368683772E-12  0.17120000000E+03  0.17120000000E+03 0.  0.
         13    1    1    2    0    0 -0.19924710611E+03  0.79695400230E+02  0.12313897819E+04  0.12499486279E+04  0.10566000000E+00 0.  1.
        994    1    1    2    0    0  0.16090039325E+03 -0.74630603143E+02  0.13346175384E+03  0.28032149973E+03  0.17120000000E+03 0.  0.
        998    1    1    2    0    0  0.38346712855E+02 -0.50647970871E+01  0.13514846050E+03  0.14092987239E+03  0.10000000000E+02 0.  1.
</event>
<event>
 5    1  0.1247473E-008  0.3782908E+03  0.7957747E-01  0.3458635E+00
         13   -1    0    0    0    0  0.00000000000E+00  0.00000000000E+00  0.14999999963E+04  0.15000000000E+04  0.10566000000E+00 0.  1.
        994   -1    0    0    0    0 -0.00000000000E+00 -0.00000000000E+00  0.11368683772E-12  0.17120000000E+03  0.17120000000E+03 0.  0.
         13    1    1    2    0    0 -0.24795274552E+02 -0.45193469567E+01  0.61846533444E+02  0.66784990829E+02  0.10566000000E+00 0.  1.
        994    1    1    2    0    0  0.15500847557E+02  0.74669946027E+00  0.58085207606E+01  0.17200003706E+03  0.17120000000E+03 0.  0.
        998    1    1    2    0    0  0.92944269947E+01  0.37726474965E+01  0.14323449421E+04  0.14324149721E+04  0.10000000000E+02 0.  1.
</event>
<event>
 5    1  0.1247473E-008  0.3778142E+03  0.7957747E-01  0.3460731E+00
         13   -1    0    0    0    0  0.00000000000E+00  0.00000000000E+00  0.14999999963E+04  0.15000000000E+04  0.10566000000E+00 0. -1.
        994   -1    0    0    0    0 -0.00000000000E+00 -0.00000000000E+00  0.11368683772E-12  0.17120000000E+03  0.17120000000E+03 0.  0.
         13    1    1    2    0    0 -0.17821818157E+02  0.25983840835E+02  0.88123547489E+02  0.93587114354E+02  0.10566000000E+00 0. -1.
        994    1    1    2    0    0  0.19425344754E+02 -0.24640897359E+02  0.85628536606E+01  0.17426210232E+03  0.17120000000E+03 0.  0.
        998    1    1    2    0    0 -0.16035265971E+01 -0.13429434764E+01  0.14033135951E+04  0.14033507833E+04  0.10000000000E+02 0. -1.
</event>
<event>
 5    1  0.1247473E-008  0.3850850E+03  0.7957747E-01  0.3429312E+00
         13   -1    0    0    0    0  0.00000000000E+00  0.00000000000E+00  0.14999999963E+04  0.15000000000E+04  0.10566000000E+00 0. -1.
        994   -1    0    0    0    0 -0.00000000000E+00 -0.00000000000E+00  0.11368683772E-12  0.17120000000E+03  0.17120000000E+03 0.  0.
         13    1    1    2    0    0  0.91920077363E+01 -0.59209743600E+01  0.37698992929E+02  0.39252721887E+02  0.10566000000E+00 0. -1.
        994    1    1    2    0    0 -0.54109530983E+01  0.35773884257E+01  0.17262707064E+01  0.17133153864E+03  0.17120000000E+03 0.  0.
        998    1    1    2    0    0 -0.37810546380E+01  0.23435859343E+01  0.14605747326E+04  0.14606157395E+04  0.10000000000E+02 0. -1.
</event>
<event>
 5    1  0.1247473E-008  0.3817294E+03  0.7957747E-01  0.3443663E+00
         13   -1    0    0    0    0  0.00000000000E+00  0.00000000000E+00  0.14999999963E+04  0.15000000000E+04  0.10566000000E+00 0. -1.
        994   -1    0    0    0    0 -0.00000000000E+00 -0.00000000000E+00  0.11368683772E-12  0.17120000000E+03  0.17120000000E+03 0.  0.
         13    1    1    2    0    0  0.10867291103E+02 -0.41841429165E+01  0.19516761671E+02  0.22727081159E+02  0.10566000000E+00 0. -1.
        994    1    1    2    0    0 -0.55539363060E+01  0.61674752392E+01  0.34916797279E+01  0.17143662324E+03  0.17120000000E+03 0.  0.
        998    1    1    2    0    0 -0.53133547973E+01 -0.19833323227E+01  0.14769915549E+04  0.14770362956E+04  0.10000000000E+02 0. -1.
</event>
<event>
 5    1  0.1247473E-008  0.3946106E+03  0.7957747E-01  0.3389908E+00
         13   -1    0    0    0    0  0.00000000000E+00  0.00000000000E+00  0.14999999963E+04  0.15000000000E+04  0.10566000000E+00 0.  1.
        994   -1    0    0    0    0 -0.00000000000E+00 -0.00000000000E+00  0.11368683772E-12  0.17120000000E+03  0.17120000000E+03 0.  0.
         13    1    1    2    0    0 -0.36361473835E+01 -0.15754580104E+03  0.42546607713E+03  0.45371278904E+03  0.10566000000E+00 0.  1.
        994    1    1    2    0    0 -0.47950753324E+01  0.12210667608E+03  0.84411774569E+02  0.22664470163E+03  0.17120000000E+03 0.  0.
        998    1    1    2    0    0  0.84312227159E+01  0.35439124961E+02  0.99012214458E+03  0.99084250933E+03  0.10000000000E+02 0.  1.
</event>
<event>
 5    1  0.1247473E-008  0.3833473E+03  0.7957747E-01  0.3436712E+00
         13   -1    0    0    0    0  0.00000000000E+00  0.00000000000E+00  0.14999999963E+04  0.15000000000E+04  0.10566000000E+00 0.  1.
        994   -1    0    0    0    0 -0.00000000000E+00 -0.00000000000E+00  0.11368683772E-12  0.17120000000E+03  0.17120000000E+03 0.  0.
         13    1    1    2    0    0 -0.10491047789E+02  0.59825282812E+01  0.28085867007E+02  0.30572533718E+02  0.10566000000E+00 0.  1.
        994    1    1    2    0    0  0.14146489577E+02 -0.84471165874E+01  0.33510059636E+01  0.17202367915E+03  0.17120000000E+03 0.  0.
        998    1    1    2    0    0 -0.36554417876E+01  0.24645883062E+01  0.14685631233E+04  0.14686037871E+04  0.10000000000E+02 0.  1.
</event>
<event>
 5    1  0.1247473E-008  0.3709579E+03  0.7957747E-01  0.3491500E+00
         13   -1    0    0    0    0  0.00000000000E+00  0.00000000000E+00  0.14999999963E+04  0.15000000000E+04  0.10566000000E+00 0.  1.
        994   -1    0    0    0    0 -0.00000000000E+00 -0.00000000000E+00  0.11368683772E-12  0.17120000000E+03  0.17120000000E+03 0.  0.
         13    1    1    2    0    0  0.30246718384E+02 -0.41694424915E+02  0.12883001783E+03  0.13874607634E+03  0.10566000000E+00 0.  1.
        994    1    1    2    0    0 -0.71332936953E+01 -0.95598129149E+01  0.11945442178E+02  0.17203025167E+03  0.17120000000E+03 0.  0.
        998    1    1    2    0    0 -0.23113424689E+02  0.51254237830E+02  0.13592245363E+04  0.13604236720E+04  0.10000000000E+02 0.  1.
</event>
<event>
 5    1  0.1247473E-008  0.3790050E+03  0.7957747E-01  0.3455502E+00
         13   -1    0    0    0    0  0.00000000000E+00  0.00000000000E+00  0.14999999963E+04  0.15000000000E+04  0.10566000000E+00 0.  1.
        994   -1    0    0    0    0 -0.00000000000E+00 -0.00000000000E+00  0.11368683772E-12  0.17120000000E+03  0.17120000000E+03 0.  0.
         13    1    1    2    0    0 -0.23608744080E+02  0.11144480574E+03  0.68048636705E+03  0.68995581339E+03  0.10566000000E+00 0.  1.
        994    1    1    2    0    0  0.19538917985E+02 -0.11698932457E+03  0.53367412522E+02  0.21500184208E+03  0.17120000000E+03 0.  0.
        998    1    1    2    0    0  0.40698260955E+01  0.55445188370E+01  0.76614621671E+03  0.76624234453E+03  0.10000000000E+02 0.  1.
</event>
<event>
 5    1  0.1247473E-008  0.3815719E+03  0.7957747E-01  0.3444343E+00
         13   -1    0    0    0    0  0.00000000000E+00  0.00000000000E+00  0.14999999963E+04  0.15000000000E+04  0.10566000000E+00 0. -1.
        994   -1    0    0    0    0 -0.00000000000E+00 -0.00000000000E+00  0.11368683772E-12  0.17120000000E+03  0.17120000000E+03 0.  0.
         13    1    1    2    0    0 -0.25656254395E+02  0.19166946430E+02  0.13577157832E+03  0.13949748338E+03  0.10566000000E+00 0. -1.
        994    1    1    2    0    0  0.28053111571E+02 -0.23893569081E+02  0.78707751214E+01  0.17529765775E+03  0.17120000000E+03 0.  0.
        998    1    1    2    0    0 -0.23968571751E+01  0.47266226506E+01  0.13563576428E+04  0.13564048589E+04  0.10000000000E+02 0. -1.
</event>
<event>
 5    1  0.1247473E-008  0.3704953E+03  0.7957747E-01  0.3493618E+00
         13   -1    0    0    0    0  0.00000000000E+00  0.00000000000E+00  0.14999999963E+04  0.15000000000E+04  0.10566000000E+00 0. -1.
        994   -1    0    0    0    0 -0.00000000000E+00 -0.00000000000E+00  0.11368683772E-12  0.17120000000E+03  0.17120000000E+03 0.  0.
         13    1    1    2    0    0  0.91516934172E+01  0.22561072566E+02  0.23912884125E+02  0.34126128977E+02  0.10566000000E+00 0. -1.
        994    1    1    2    0    0  0.35772120146E+02 -0.10938400782E+03  0.56219232612E+02  0.21380960657E+03  0.17120000000E+03 0.  0.
        998    1    1    2    0    0 -0.44923813563E+02  0.86822935256E+02  0.14198678795E+04  0.14232642645E+04  0.10000000000E+02 0. -1.
</event>
<event>
 5    1  0.1247473E-008  0.3804666E+03  0.7957747E-01  0.3449129E+00
         13   -1    0    0    0    0  0.00000000000E+00  0.00000000000E+00  0.14999999963E+04  0.15000000000E+04  0.10566000000E+00 0.  1.
        994   -1    0    0    0    0 -0.00000000000E+00 -0.00000000000E+00  0.11368683772E-12  0.17120000000E+03  0.17120000000E+03 0.  0.
         13    1    1    2    0    0 -0.17000077711E+02  0.30889958439E+02  0.18073718021E+03  0.18414432288E+03  0.10566000000E+00 0.  1.
        994    1    1    2    0    0 -0.17735023988E+02 -0.13317717146E+02  0.55413177374E+01  0.17271953818E+03  0.17120000000E+03 0.  0.
        998    1    1    2    0    0  0.34735101699E+02 -0.17572241293E+02  0.13137214983E+04  0.13143361389E+04  0.10000000000E+02 0.  1.
</event>
<event>
 5    1  0.1247473E-008  0.3831633E+03  0.7957747E-01  0.3437500E+00
         13   -1    0    0    0    0  0.00000000000E+00  0.00000000000E+00  0.14999999963E+04  0.15000000000E+04  0.10566000000E+00 0.  1.
        994   -1    0    0    0    0 -0.00000000000E+00 -0.00000000000E+00  0.11368683772E-12  0.17120000000E+03  0.17120000000E+03 0.  0.
         13    1    1    2    0    0  0.15653170072E+01 -0.10989603580E+02  0.23197165072E+02  0.25716555671E+02  0.10566000000E+00 0.  1.
        994    1    1    2    0    0 -0.12688217478E+01  0.91060465562E+01  0.28245033895E+01  0.17146996184E+03  0.17120000000E+03 0.  0.
        998    1    1    2    0    0 -0.29649525939E+00  0.18835570239E+01  0.14739783278E+04  0.14740134825E+04  0.10000000000E+02 0.  1.
</event>
<event>
 5    1  0.1247473E-008  0.3814375E+03  0.7957747E-01  0.3444923E+00
         13   -1    0    0    0    0  0.00000000000E+00  0.00000000000E+00  0.14999999963E+04  0.15000000000E+04  0.10566000000E+00 0. -1.
        994   -1    0    0    0    0 -0.00000000000E+00 -0.00000000000E+00  0.11368683772E-12  0.17120000000E+03  0.17120000000E+03 0.  0.
         13    1    1    2    0    0  0.33754324818E+02 -0.37394016034E+01  0.19004440217E+03  0.19305497540E+03  0.10566000000E+00 0. -1.
        994    1    1    2    0    0 -0.41748560746E+01  0.28100183305E+01  0.34935458351E+01  0.17130957501E+03  0.17120000000E+03 0.  0.
        998    1    1    2    0    0 -0.29579468743E+02  0.92938327290E+00  0.13064620483E+04  0.13068354496E+04  0.10000000000E+02 0. -1.
</event>
<event>
 5    1  0.1247473E-008  0.3806860E+03  0.7957747E-01  0.3448177E+00
         13   -1    0    0    0    0  0.00000000000E+00  0.00000000000E+00  0.14999999963E+04  0.15000000000E+04  0.10566000000E+00 0. -1.
        994   -1    0    0    0    0 -0.00000000000E+00 -0.00000000000E+00  0.11368683772E-12  0.17120000000E+03  0.17120000000E+03 0.  0.
         13    1    1    2    0    0  0.32944470881E+02 -0.21844960824E+02  0.21806122824E+03  0.22161509628E+03  0.10566000000E+00 0. -1.
        994    1    1    2    0    0 -0.87868247076E+01  0.14431363966E+02  0.47399688419E+01  0.17209700712E+03  0.17120000000E+03 0.  0.
        998    1    1    2    0    0 -0.24157646173E+02  0.74135968579E+01  0.12771987992E+04  0.12774878966E+04  0.10000000000E+02 0. -1.
</event>
<event>
 5    1  0.1247473E-008  0.3847145E+03  0.7957747E-01  0.3430884E+00
         13   -1    0    0    0    0  0.00000000000E+00  0.00000000000E+00  0.14999999963E+04  0.15000000000E+04  0.10566000000E+00 0.  1.
        994   -1    0    0    0    0 -0.00000000000E+00 -0.00000000000E+00  0.11368683772E-12  0.17120000000E+03  0.17120000000E+03 0.  0.
         13    1    1    2    0    0 -0.53943481918E+01 -0.10139883128E+02  0.35074838931E+02  0.36907610494E+02  0.10566000000E+00 0.  1.
        994    1    1    2    0    0  0.10199824649E+02  0.16343833041E+02  0.29946319720E+01  0.17230660208E+03  0.17120000000E+03 0.  0.
        998    1    1    2    0    0 -0.48054764568E+01 -0.62039499130E+01  0.14619305254E+04  0.14619857874E+04  0.10000000000E+02 0.  1.
</event>
<event>
 5    1  0.1247473E-008  0.3706369E+03  0.7957747E-01  0.3492969E+00
         13   -1    0    0    0    0  0.00000000000E+00  0.00000000000E+00  0.14999999963E+04  0.15000000000E+04  0.10566000000E+00 0.  1.
        994   -1    0    0    0    0 -0.00000000000E+00 -0.00000000000E+00  0.11368683772E-12  0.17120000000E+03  0.17120000000E+03 0.  0.
         13    1    1    2    0    0  0.53386655330E+00 -0.65416445820E+02  0.17204736642E+03  0.18406494467E+03  0.10566000000E+00 0.  1.
        994    1    1    2    0    0  0.34471100648E+00  0.57061543104E+02  0.22773585812E+02  0.18189066699E+03  0.17120000000E+03 0.  0.
        998    1    1    2    0    0 -0.87857755978E+00  0.83549027166E+01  0.13051790440E+04  0.13052443883E+04  0.10000000000E+02 0.  1.
</event>
<event>
 5    1  0.1247473E-008  0.3829209E+03  0.7957747E-01  0.3438538E+00
         13   -1    0    0    0    0  0.00000000000E+00  0.00000000000E+00  0.14999999963E+04  0.15000000000E+04  0.10566000000E+00 0. -1.
        994   -1    0    0    0    0 -0.00000000000E+00 -0.00000000000E+00  0.11368683772E-12  0.17120000000E+03  0.17120000000E+03 0.  0.
         13    1    1    2    0    0 -0.86705304007E+01 -0.18399081114E+02  0.71613892454E+02  0.74446390374E+02  0.10566000000E+00 0. -1.
        994    1    1    2    0    0 -0.48996893043E+00  0.29456213873E+02  0.55448408137E+01  0.17380475789E+03  0.17120000000E+03 0.  0.
        998    1    1    2    0    0  0.91604993312E+01 -0.11057132759E+02  0.14228412630E+04  0.14229488517E+04  0.10000000000E+02 0. -1.
</event>
<event>
 5    1  0.1247473E-008  0.3820364E+03  0.7957747E-01  0.3442339E+00
         13   -1    0    0    0    0  0.00000000000E+00  0.00000000000E+00  0.14999999963E+04  0.15000000000E+04  0.10566000000E+00 0.  1.
        994   -1    0    0    0    0 -0.00000000000E+00 -0.00000000000E+00  0.11368683772E-12  0.17120000000E+03  0.17120000000E+03 0.  0.
         13    1    1    2    0    0  0.87879951436E+01  0.18757990766E+02  0.71407028627E+02  0.74350964873E+02  0.10566000000E+00 0.  1.
        994    1    1    2    0    0 -0.20210189730E+01 -0.27886290460E+01  0.31480906813E+01  0.17126357302E+03  0.17120000000E+03 0.  0.
        998    1    1    2    0    0 -0.67669761706E+01 -0.15969361720E+02  0.14254448770E+04  0.14255854621E+04  0.10000000000E+02 0.  1.
</event>
<event>
 5    1  0.1247473E-008  0.3836801E+03  0.7957747E-01  0.3435289E+00
         13   -1    0    0    0    0  0.00000000000E+00  0.00000000000E+00  0.14999999963E+04  0.15000000000E+04  0.10566000000E+00 0. -1.
        994   -1    0    0    0    0 -0.00000000000E+00 -0.00000000000E+00  0.11368683772E-12  0.17120000000E+03  0.17120000000E+03 0.  0.
         13    1    1    2    0    0 -0.14113747905E+02 -0.38289780543E+01  0.45587806214E+02  0.47876071187E+02  0.10566000000E+00 0. -1.
        994    1    1    2    0    0  0.11104229287E+02  0.67553414183E+01  0.28450323198E+01  0.17171625652E+03  0.17120000000E+03 0.  0.
        998    1    1    2    0    0  0.30095186178E+01 -0.29263633640E+01  0.14515671577E+04  0.14516076723E+04  0.10000000000E+02 0. -1.
</event>
<event>
 5    1  0.1247473E-008  0.3846793E+03  0.7957747E-01  0.3431034E+00
         13   -1    0    0    0    0  0.00000000000E+00  0.00000000000E+00  0.14999999963E+04  0.15000000000E+04  0.10566000000E+00 0.  1.
        994   -1    0    0    0    0 -0.00000000000E+00 -0.00000000000E+00  0.11368683772E-12  0.17120000000E+03  0.17120000000E+03 0.  0.
         13    1    1    2    0    0  0.20230200093E+02  0.82354368649E+02  0.16408100928E+03  0.18470000487E+03  0.10566000000E+00 0.  1.
        994    1    1    2    0    0 -0.18262065179E+02 -0.82986484278E+02  0.46058112854E+02  0.19659870131E+03  0.17120000000E+03 0.  0.
        998    1    1    2    0    0 -0.19681349145E+01  0.63211562930E+00  0.12898608741E+04  0.12899012938E+04  0.10000000000E+02 0.  0.
</event>
<event>
 5    1  0.1247473E-008  0.3832399E+03  0.7957747E-01  0.3437171E+00
         13   -1    0    0    0    0  0.00000000000E+00  0.00000000000E+00  0.14999999963E+04  0.15000000000E+04  0.10566000000E+00 0. -1.
        994   -1    0    0    0    0 -0.00000000000E+00 -0.00000000000E+00  0.11368683772E-12  0.17120000000E+03  0.17120000000E+03 0.  0.
         13    1    1    2    0    0 -0.74457377684E+01  0.76352533823E+01  0.21761397723E+02  0.24234390853E+02  0.10566000000E+00 0. -1.
        994    1    1    2    0    0  0.57107647035E+01 -0.54922749948E+01  0.27141909955E+01  0.17140473958E+03  0.17120000000E+03 0.  0.
        998    1    1    2    0    0  0.17349730650E+01 -0.21429783875E+01  0.14755244076E+04  0.14755608696E+04  0.10000000000E+02 0. -1.
</event>
<event>
 5    1  0.1247473E-008  0.3823869E+03  0.7957747E-01  0.3440831E+00
         13   -1    0    0    0    0  0.00000000000E+00  0.00000000000E+00  0.14999999963E+04  0.15000000000E+04  0.10566000000E+00 0. -1.
        994   -1    0    0    0    0 -0.00000000000E+00 -0.00000000000E+00  0.11368683772E-12  0.17120000000E+03  0.17120000000E+03 0.  0.
         13    1    1    2    0    0 -0.12846581123E+02 -0.10522602720E+02  0.47022020565E+02  0.49868240360E+02  0.10566000000E+00 0. -1.
        994    1    1    2    0    0  0.58821229729E+01  0.21911933260E+01  0.30637896722E+01  0.17134242763E+03  0.17120000000E+03 0.  0.
        998    1    1    2    0    0  0.69644581497E+01  0.83314093941E+01  0.14499141860E+04  0.14499893320E+04  0.10000000000E+02 0. -1.
</event>
<event>
 5    1  0.1247473E-008  0.3814666E+03  0.7957747E-01  0.3444797E+00
         13   -1    0    0    0    0  0.00000000000E+00  0.00000000000E+00  0.14999999963E+04  0.15000000000E+04  0.10566000000E+00 0. -1.
        994   -1    0    0    0    0 -0.00000000000E+00 -0.00000000000E+00  0.11368683772E-12  0.17120000000E+03  0.17120000000E+03 0.  0.
         13    1    1    2    0    0 -0.32173553798E+02 -0.93738688742E+01  0.15838101235E+03  0.16188750173E+03  0.10566000000E+00 0. -1.
        994    1    1    2    0    0  0.27993634882E+02 -0.62539188470E+01  0.61366101304E+01  0.17369471229E+03  0.17120000000E+03 0.  0.
        998    1    1    2    0    0  0.41799189156E+01  0.15627787721E+02  0.13354823738E+04  0.13356177860E+04  0.10000000000E+02 0. -1.
</event>
<event>
 5    1  0.1247473E-008  0.3744858E+03  0.7957747E-01  0.3475526E+00
         13   -1    0    0    0    0  0.00000000000E+00  0.00000000000E+00  0.14999999963E+04  0.15000000000E+04  0.10566000000E+00 0. -1.
        994   -1    0    0    0    0 -0.00000000000E+00 -0.00000000000E+00  0.11368683772E-12  0.17120000000E+03  0.17120000000E+03 0.  0.
         13    1    1    2    0    0  0.10076006753E+02 -0.16515633521E+03  0.85973604505E+03  0.87551368881E+03  0.10566000000E+00 0. -1.
        994    1    1    2    0    0  0.98114296647E+01  0.15930792471E+03  0.99334909566E+02  0.25426785736E+03  0.17120000000E+03 0.  0.
        998    1    1    2    0    0 -0.19887436418E+02  0.58484104960E+01  0.54092904166E+03  0.54141845383E+03  0.10000000000E+02 0. -1.
</event>
<event>
 5    1  0.1247473E-008  0.3844815E+03  0.7957747E-01  0.3431874E+00
         13   -1    0    0    0    0  0.00000000000E+00  0.00000000000E+00  0.14999999963E+04  0.15000000000E+04  0.10566000000E+00 0.  1.
        994   -1    0    0    0    0 -0.00000000000E+00 -0.00000000000E+00  0.11368683772E-12  0.17120000000E+03  0.17120000000E+03 0.  0.
         13    1    1    2    0    0  0.36738003908E+00 -0.19507516101E+02  0.10251850120E+03  0.10435867192E+03  0.10566000000E+00 0.  1.
        994    1    1    2    0    0 -0.47621402605E+01  0.97442259895E+01  0.22753691003E+01  0.17155828521E+03  0.17120000000E+03 0.  0.
        998    1    1    2    0    0  0.43947602215E+01  0.97632901110E+01  0.13952061260E+04  0.13952830429E+04  0.10000000000E+02 0.  1.
</event>
<event>
 5    1  0.1397106E-008  0.3858660E+03  0.7957747E-01  0.3426007E+00
         13   -1    0    0    0    0  0.00000000000E+00  0.00000000000E+00  0.14999999963E+04  0.15000000000E+04  0.10566000000E+00 0.  1.
        994   -1    0    0    0    0 -0.00000000000E+00 -0.00000000000E+00  0.11368683772E-12  0.17120000000E+03  0.17120000000E+03 0.  0.
         13    1    1    2    0    0 -0.53428684113E+01 -0.14025266482E+02  0.87308660173E+02  0.88589320169E+02  0.10566000000E+00 0.  1.
        994    1    1    2    0    0  0.65273793992E+01  0.18257730247E+02  0.24346500440E+01  0.17231169118E+03  0.17120000000E+03 0.  0.
        998    1    1    2    0    0 -0.11845109879E+01 -0.42324637656E+01  0.14102566861E+04  0.14102989887E+04  0.10000000000E+02 0.  1.
</event>
<event>
 5    1  0.1247473E-008  0.3799156E+03  0.7957747E-01  0.3451526E+00
         13   -1    0    0    0    0  0.00000000000E+00  0.00000000000E+00  0.14999999963E+04  0.15000000000E+04  0.10566000000E+00 0.  1.
        994   -1    0    0    0    0 -0.00000000000E+00 -0.00000000000E+00  0.11368683772E-12  0.17120000000E+03  0.17120000000E+03 0.  0.
         13    1    1    2    0    0 -0.18779641848E+03  0.10069675718E+03  0.10290684481E+04  0.10508992406E+04  0.10566000000E+00 0.  1.
        994    1    1    2    0    0  0.19147213925E+03 -0.98392754826E+02  0.17900126673E+03  0.32816704253E+03  0.17120000000E+03 0.  0.
        998    1    1    2    0    0 -0.36757207721E+01 -0.23040023580E+01  0.29193028141E+03  0.29213371691E+03  0.10000000000E+02 0.  0.
</event>
<event>
 5    1  0.1247473E-008  0.3745967E+03  0.7957747E-01  0.3475028E+00
         13   -1    0    0    0    0  0.00000000000E+00  0.00000000000E+00  0.14999999963E+04  0.15000000000E+04  0.10566000000E+00 0.  1.
        994   -1    0    0    0    0 -0.00000000000E+00 -0.00000000000E+00  0.11368683772E-12  0.17120000000E+03  0.17120000000E+03 0.  0.
         13    1    1    2    0    0 -0.31759791543E+02 -0.95022147556E+02  0.53048276867E+03  0.53986097461E+03  0.10566000000E+00 0.  1.
        994    1    1    2    0    0  0.49408898186E+02  0.59348593138E+01  0.22242450964E+02  0.17966810624E+03  0.17120000000E+03 0.  0.
        998    1    1    2    0    0 -0.17649106643E+02  0.89087288243E+02  0.94727477664E+03  0.95167091915E+03  0.10000000000E+02 0.  1.
</event>
<event>
 5    1  0.1247473E-008  0.3718718E+03  0.7957747E-01  0.3487332E+00
         13   -1    0    0    0    0  0.00000000000E+00  0.00000000000E+00  0.14999999963E+04  0.15000000000E+04  0.10566000000E+00 0. -1.
        994   -1    0    0    0    0 -0.00000000000E+00 -0.00000000000E+00  0.11368683772E-12  0.17120000000E+03  0.17120000000E+03 0.  0.
         13    1    1    2    0    0 -0.34911992476E+02  0.41809646321E+02  0.15627162663E+03  0.16549237504E+03  0.10566000000E+00 0. -1.
        994    1    1    2    0    0  0.62392283407E+02 -0.23429611376E+02  0.23711349167E+02  0.18523879668E+03  0.17120000000E+03 0.  0.
        998    1    1    2    0    0 -0.27480290931E+02 -0.18380034945E+02  0.13200170205E+04  0.13204688283E+04  0.10000000000E+02 0. -1.
</event>
<event>
 5    1  0.1247473E-008  0.3787202E+03  0.7957747E-01  0.3456750E+00
         13   -1    0    0    0    0  0.00000000000E+00  0.00000000000E+00  0.14999999963E+04  0.15000000000E+04  0.10566000000E+00 0. -1.
        994   -1    0    0    0    0 -0.00000000000E+00 -0.00000000000E+00  0.11368683772E-12  0.17120000000E+03  0.17120000000E+03 0.  0.
         13    1    1    2    0    0  0.64646592217E+01 -0.10878159226E+02  0.14534044075E+02  0.19271112272E+02  0.10566000000E+00 0. -1.
        994    1    1    2    0    0 -0.73004956182E+01  0.10634505222E+02  0.53393717613E+01  0.17176827073E+03  0.17120000000E+03 0.  0.
        998    1    1    2    0    0  0.83583639644E+00  0.24365400365E+00  0.14801265804E+04  0.14801606170E+04  0.10000000000E+02 0. -1.
</event>
<event>
 5    1  0.2017498E-008  0.3856843E+03  0.7957747E-01  0.3426775E+00
         13   -1    0    0    0    0  0.00000000000E+00  0.00000000000E+00  0.14999999963E+04  0.15000000000E+04  0.10566000000E+00 0. -1.
        994   -1    0    0    0    0 -0.00000000000E+00 -0.00000000000E+00  0.11368683772E-12  0.17120000000E+03  0.17120000000E+03 0.  0.
         13    1    1    2    0    0 -0.13680036247E+02  0.68373525130E+00  0.76738282635E+02  0.77951177485E+02  0.10566000000E+00 0. -1.
        994    1    1    2    0    0  0.30656281498E+01  0.24286099394E+01  0.13409945184E+01  0.17124991821E+03  0.17120000000E+03 0.  0.
        998    1    1    2    0    0  0.10614408097E+02 -0.31123451907E+01  0.14219207191E+04  0.14219989043E+04  0.10000000000E+02 0. -1.
</event>
<event>
 5    1  0.1247473E-008  0.3773865E+03  0.7957747E-01  0.3462618E+00
         13   -1    0    0    0    0  0.00000000000E+00  0.00000000000E+00  0.14999999963E+04  0.15000000000E+04  0.10566000000E+00 0. -1.
        994   -1    0    0    0    0 -0.00000000000E+00 -0.00000000000E+00  0.11368683772E-12  0.17120000000E+03  0.17120000000E+03 0.  0.
         13    1    1    2    0    0  0.17116150431E+02 -0.80266651913E+01  0.30775401757E+02  0.36118229151E+02  0.10566000000E+00 0. -1.
        994    1    1    2    0    0 -0.10474502915E+02  0.88955453820E+00  0.58309874881E+01  0.17162152235E+03  0.17120000000E+03 0.  0.
        998    1    1    2    0    0 -0.66416475164E+01  0.71371106531E+01  0.14633936070E+04  0.14634602485E+04  0.10000000000E+02 0. -1.
</event>
<event>
 5    1  0.1247473E-008  0.4333883E+03  0.7957747E-01  0.3247244E+00
         13   -1    0    0    0    0  0.00000000000E+00  0.00000000000E+00  0.14999999963E+04  0.15000000000E+04  0.10566000000E+00 0.  1.
        994   -1    0    0    0    0 -0.00000000000E+00 -0.00000000000E+00  0.11368683772E-12  0.17120000000E+03  0.17120000000E+03 0.  0.
         13    1    1    2    0    0  0.48417993507E+02  0.76305913809E+02  0.73550175943E+02  0.11651838534E+03  0.10566000000E+00 0.  1.
        994    1    1    2    0    0 -0.58797654157E+02 -0.18433672558E+02  0.66955853559E+02  0.19388009373E+03  0.17120000000E+03 0.  0.
        998    1    1    2    0    0  0.10379660650E+02 -0.57872241251E+02  0.13594939668E+04  0.13608015209E+04  0.10000000000E+02 0.  1.
</event>
<event>
 5    1  0.1247473E-008  0.3792681E+03  0.7957747E-01  0.3454352E+00
         13   -1    0    0    0    0  0.00000000000E+00  0.00000000000E+00  0.14999999963E+04  0.15000000000E+04  0.10566000000E+00 0.  1.
        994   -1    0    0    0    0 -0.00000000000E+00 -0.00000000000E+00  0.11368683772E-12  0.17120000000E+03  0.17120000000E+03 0.  0.
         13    1    1    2    0    0  0.16777391358E+02  0.18647465385E+02  0.76930056525E+02  0.80916336960E+02  0.10566000000E+00 0.  1.
        994    1    1    2    0    0  0.26427895038E+02 -0.91198661022E+01  0.71266682805E+01  0.17361404032E+03  0.17120000000E+03 0.  0.
        998    1    1    2    0    0 -0.43205286396E+02 -0.95275992826E+01  0.14159432715E+04  0.14166696227E+04  0.10000000000E+02 0.  1.
</event>
<event>
 5    1  0.1247473E-008  0.3848801E+03  0.7957747E-01  0.3430181E+00
         13   -1    0    0    0    0  0.00000000000E+00  0.00000000000E+00  0.14999999963E+04  0.15000000000E+04  0.10566000000E+00 0.  1.
        994   -1    0    0    0    0 -0.00000000000E+00 -0.00000000000E+00  0.11368683772E-12  0.17120000000E+03  0.17120000000E+03 0.  0.
         13    1    1    2    0    0  0.14950655338E+03  0.47015558543E+02  0.40299683497E+03  0.43239927429E+03  0.10566000000E+00 0.  1.
        994    1    1    2    0    0 -0.16191248508E+03 -0.43669612682E+02  0.13188071771E+03  0.27354095050E+03  0.17120000000E+03 0.  0.
        998    1    1    2    0    0  0.12405931709E+02 -0.33459458616E+01  0.96512244360E+03  0.96525977520E+03  0.10000000000E+02 0.  0.
</event>
<event>
 5    1  0.1247473E-008  0.3810233E+03  0.7957747E-01  0.3446715E+00
         13   -1    0    0    0    0  0.00000000000E+00  0.00000000000E+00  0.14999999963E+04  0.15000000000E+04  0.10566000000E+00 0.  1.
        994   -1    0    0    0    0 -0.00000000000E+00 -0.00000000000E+00  0.11368683772E-12  0.17120000000E+03  0.17120000000E+03 0.  0.
         13    1    1    2    0    0 -0.11762066477E+02  0.20101986350E+02  0.71330640030E+02  0.75036707245E+02  0.10566000000E+00 0.  1.
        994    1    1    2    0    0  0.12394577822E+02 -0.18029488469E+02  0.52139511838E+01  0.17267111310E+03  0.17120000000E+03 0.  0.
        998    1    1    2    0    0 -0.63251134483E+00 -0.20724978810E+01  0.14234554051E+04  0.14234921797E+04  0.10000000000E+02 0.  0.
</event>
<event>
 5    1  0.1247473E-008  0.3805307E+03  0.7957747E-01  0.3448851E+00
         13   -1    0    0    0    0  0.00000000000E+00  0.00000000000E+00  0.14999999963E+04  0.15000000000E+04  0.10566000000E+00 0.  1.
        994   -1    0    0    0    0 -0.00000000000E+00 -0.00000000000E+00  0.11368683772E-12  0.17120000000E+03  0.17120000000E+03 0.  0.
         13    1    1    2    0    0 -0.23468883742E+02  0.31193173806E+01  0.75137080725E+02  0.78778872224E+02  0.10566000000E+00 0.  1.
        994    1    1    2    0    0  0.27286866476E+01 -0.34025745189E+01  0.39289687083E+01  0.17130061307E+03  0.17120000000E+03 0.  0.
        998    1    1    2    0    0  0.20740197095E+02  0.28325713834E+00  0.14209339468E+04  0.14211205147E+04  0.10000000000E+02 0.  1.
</event>
<event>
 5    1  0.1526950E-008  0.3854428E+03  0.7957747E-01  0.3427797E+00
         13   -1    0    0    0    0  0.00000000000E+00  0.00000000000E+00  0.14999999963E+04  0.15000000000E+04  0.10566000000E+00 0.  1.
        994   -1    0    0    0    0 -0.00000000000E+00 -0.00000000000E+00  0.11368683772E-12  0.17120000000E+03  0.17120000000E+03 0.  0.
         13    1    1    2    0    0  0.69704375699E+01  0.88697457300E+01  0.43619585905E+02  0.45054842445E+02  0.10566000000E+00 0.  1.
        994    1    1    2    0    0 -0.45488936915E+01 -0.14526790698E+02  0.21717954244E+01  0.17188914095E+03  0.17120000000E+03 0.  0.
        998    1    1    2    0    0 -0.24215438784E+01  0.56570449677E+01  0.14542086149E+04  0.14542560166E+04  0.10000000000E+02 0.  1.
</event>
<event>
 5    1  0.1247473E-008  0.3790948E+03  0.7957747E-01  0.3455109E+00
         13   -1    0    0    0    0  0.00000000000E+00  0.00000000000E+00  0.14999999963E+04  0.15000000000E+04  0.10566000000E+00 0.  1.
        994   -1    0    0    0    0 -0.00000000000E+00 -0.00000000000E+00  0.11368683772E-12  0.17120000000E+03  0.17120000000E+03 0.  0.
         13    1    1    2    0    0 -0.28160644622E+02 -0.24349505067E+02  0.15647755804E+03  0.16084513557E+03  0.10566000000E+00 0.  1.
        994    1    1    2    0    0  0.63721118102E+01  0.14680522721E+02  0.54499899358E+01  0.17203274091E+03  0.17120000000E+03 0.  0.
        998    1    1    2    0    0  0.21788532812E+02  0.96689823463E+01  0.13380724483E+04  0.13383221235E+04  0.10000000000E+02 0.  1.
</event>
<event>
 5    1  0.1247473E-008  0.3824689E+03  0.7957747E-01  0.3440478E+00
         13   -1    0    0    0    0  0.00000000000E+00  0.00000000000E+00  0.14999999963E+04  0.15000000000E+04  0.10566000000E+00 0.  1.
        994   -1    0    0    0    0 -0.00000000000E+00 -0.00000000000E+00  0.11368683772E-12  0.17120000000E+03  0.17120000000E+03 0.  0.
         13    1    1    2    0    0  0.12443107242E+02  0.88551485106E+01  0.38064017844E+02  0.41013719551E+02  0.10566000000E+00 0.  1.
        994    1    1    2    0    0 -0.14798486960E+02 -0.11717392917E+02  0.40743201794E+01  0.17228561344E+03  0.17120000000E+03 0.  0.
        998    1    1    2    0    0  0.23553797182E+01  0.28622444060E+01  0.14578616583E+04  0.14579006670E+04  0.10000000000E+02 0.  1.
</event>
<event>
 5    1  0.1247473E-008  0.3852582E+03  0.7957747E-01  0.3428578E+00
         13   -1    0    0    0    0  0.00000000000E+00  0.00000000000E+00  0.14999999963E+04  0.15000000000E+04  0.10566000000E+00 0.  1.
        994   -1    0    0    0    0 -0.00000000000E+00 -0.00000000000E+00  0.11368683772E-12  0.17120000000E+03  0.17120000000E+03 0.  0.
         13    1    1    2    0    0 -0.97493009667E+01 -0.13897652888E+02  0.96347129591E+02  0.97831355759E+02  0.10566000000E+00 0.  1.
        994    1    1    2    0    0  0.66073377502E+01  0.84349955989E+01  0.18793206701E+01  0.17154526490E+03  0.17120000000E+03 0.  0.
        998    1    1    2    0    0  0.31419632164E+01  0.54626572890E+01  0.14017735460E+04  0.14018233793E+04  0.10000000000E+02 0.  1.
</event>
<event>
 5    1  0.1283585E-008  0.3859850E+03  0.7957747E-01  0.3425505E+00
         13   -1    0    0    0    0  0.00000000000E+00  0.00000000000E+00  0.14999999963E+04  0.15000000000E+04  0.10566000000E+00 0. -1.
        994   -1    0    0    0    0 -0.00000000000E+00 -0.00000000000E+00  0.11368683772E-12  0.17120000000E+03  0.17120000000E+03 0.  0.
         13    1    1    2    0    0  0.12112122299E+02  0.19691524789E+01  0.66785056629E+02  0.67903137049E+02  0.10566000000E+00 0. -1.
        994    1    1    2    0    0 -0.75394869557E+01 -0.33680343977E+01  0.13654495952E+01  0.17140446894E+03  0.17120000000E+03 0.  0.
        998    1    1    2    0    0 -0.45726353431E+01  0.13988819188E+01  0.14318494901E+04  0.14318923940E+04  0.10000000000E+02 0. -1.
</event>
<event>
 5    1  0.1247473E-008  0.3765722E+03  0.7957747E-01  0.3466221E+00
         13   -1    0    0    0    0  0.00000000000E+00  0.00000000000E+00  0.14999999963E+04  0.15000000000E+04  0.10566000000E+00 0. -1.
        994   -1    0    0    0    0 -0.00000000000E+00 -0.00000000000E+00  0.11368683772E-12  0.17120000000E+03  0.17120000000E+03 0.  0.
         13    1    1    2    0    0 -0.14223421970E+02  0.90141930811E+01  0.21418134578E+02  0.27245349370E+02  0.10566000000E+00 0. -1.
        994    1    1    2    0    0  0.55735867048E+01 -0.20832493940E+02  0.74476288030E+01  0.17271353406E+03  0.17120000000E+03 0.  0.
        998    1    1    2    0    0  0.86498352654E+01  0.11818300859E+02  0.14711342329E+04  0.14712411166E+04  0.10000000000E+02 0. -1.
</event>
<event>
 5    1  0.1247473E-008  0.3795759E+03  0.7957747E-01  0.3453007E+00
         13   -1    0    0    0    0  0.00000000000E+00  0.00000000000E+00  0.14999999963E+04  0.15000000000E+04  0.10566000000E+00 0.  1.
        994   -1    0    0    0    0 -0.00000000000E+00 -0.00000000000E+00  0.11368683772E-12  0.17120000000E+03  0.17120000000E+03 0.  0.
         13    1    1    2    0    0  0.13840819012E+02  0.52503095938E+02  0.27499999280E+03  0.28030902689E+03  0.10566000000E+00 0.  1.
        994    1    1    2    0    0 -0.12658750485E+02 -0.53933270780E+02  0.14690672181E+02  0.18053890858E+03  0.17120000000E+03 0.  0.
        998    1    1    2    0    0 -0.11820685275E+01  0.14301748412E+01  0.12103093313E+04  0.12103520645E+04  0.10000000000E+02 0.  1.
</event>
<event>
 5    1  0.1247473E-008  0.3894522E+03  0.7957747E-01  0.3411007E+00
         13   -1    0    0    0    0  0.00000000000E+00  0.00000000000E+00  0.14999999963E+04  0.15000000000E+04  0.10566000000E+00 0.  1.
        994   -1    0    0    0    0 -0.00000000000E+00 -0.00000000000E+00  0.11368683772E-12  0.17120000000E+03  0.17120000000E+03 0.  0.
         13    1    1    2    0    0 -0.28976732843E+02 -0.18635220218E+02  0.18245494910E+02  0.38985019269E+02  0.10566000000E+00 0.  1.
        994    1    1    2    0    0  0.31270509802E+02  0.18926631906E+02  0.26651408438E+02  0.17707568933E+03  0.17120000000E+03 0.  0.
        998    1    1    2    0    0 -0.22937769585E+01 -0.29141168813E+00  0.14551030929E+04  0.14551392914E+04  0.10000000000E+02 0.  1.
</event>
<event>
 5    1  0.1247473E-008  0.3844450E+03  0.7957747E-01  0.3432029E+00
         13   -1    0    0    0    0  0.00000000000E+00  0.00000000000E+00  0.14999999963E+04  0.15000000000E+04  0.10566000000E+00 0.  1.
        994   -1    0    0    0    0 -0.00000000000E+00 -0.00000000000E+00  0.11368683772E-12  0.17120000000E+03  0.17120000000E+03 0.  0.
         13    1    1    2    0    0  0.10022684271E+02 -0.30242106705E+01  0.29348006017E+02  0.31159535802E+02  0.10566000000E+00 0.  1.
        994    1    1    2    0    0  0.31713048845E+01  0.45130507397E+01  0.20061709953E+01  0.17130058238E+03  0.17120000000E+03 0.  0.
        998    1    1    2    0    0 -0.13193989156E+02 -0.14888400692E+01  0.14686458193E+04  0.14687398818E+04  0.10000000000E+02 0.  1.
</event>
<event>
 5    1  0.1247473E-008  0.3809398E+03  0.7957747E-01  0.3447077E+00
         13   -1    0    0    0    0  0.00000000000E+00  0.00000000000E+00  0.14999999963E+04  0.15000000000E+04  0.10566000000E+00 0.  1.
        994   -1    0    0    0    0 -0.00000000000E+00 -0.00000000000E+00  0.11368683772E-12  0.17120000000E+03  0.17120000000E+03 0.  0.
         13    1    1    2    0    0 -0.10670577034E+02  0.82500171129E+02  0.39493417822E+03  0.40360024249E+03  0.10566000000E+00 0.  1.
        994    1    1    2    0    0  0.13405827428E+02 -0.13234497377E+03  0.65070831310E+02  0.22635936336E+03  0.17120000000E+03 0.  0.
        998    1    1    2    0    0 -0.27352503946E+01  0.49844802644E+02  0.10399949868E+04  0.10412403942E+04  0.10000000000E+02 0.  1.
</event>
<event>
 5    1  0.1247473E-008  0.3783089E+03  0.7957747E-01  0.3458555E+00
         13   -1    0    0    0    0  0.00000000000E+00  0.00000000000E+00  0.14999999963E+04  0.15000000000E+04  0.10566000000E+00 0.  1.
        994   -1    0    0    0    0 -0.00000000000E+00 -0.00000000000E+00  0.11368683772E-12  0.17120000000E+03  0.17120000000E+03 0.  0.
         13    1    1    2    0    0  0.34487260594E+02  0.43563070920E+01  0.11773032723E+03  0.12275499854E+03  0.10566000000E+00 0.  1.
        994    1    1    2    0    0 -0.22254323844E+02 -0.11879910912E+02  0.71315288627E+01  0.17319551356E+03  0.17120000000E+03 0.  0.
        998    1    1    2    0    0 -0.12232936750E+02  0.75236038204E+01  0.13751381402E+04  0.13752494879E+04  0.10000000000E+02 0.  1.
</event>
<event>
 5    1  0.1247473E-008  0.3845828E+03  0.7957747E-01  0.3431443E+00
         13   -1    0    0    0    0  0.00000000000E+00  0.00000000000E+00  0.14999999963E+04  0.15000000000E+04  0.10566000000E+00 0.  1.
        994   -1    0    0    0    0 -0.00000000000E+00 -0.00000000000E+00  0.11368683772E-12  0.17120000000E+03  0.17120000000E+03 0.  0.
         13    1    1    2    0    0 -0.50825146710E+00 -0.14980778624E+02  0.63470253670E+02  0.65216304041E+02  0.10566000000E+00 0.  1.
        994    1    1    2    0    0  0.25436228118E+01  0.29619170175E+01  0.18875996379E+01  0.17125491526E+03  0.17120000000E+03 0.  0.
        998    1    1    2    0    0 -0.20353713447E+01  0.12018861606E+02  0.14346421430E+04  0.14347287807E+04  0.10000000000E+02 0.  1.
</event>
<event>
 5    1  0.1247473E-008  0.3695466E+03  0.7957747E-01  0.3497977E+00
         13   -1    0    0    0    0  0.00000000000E+00  0.00000000000E+00  0.14999999963E+04  0.15000000000E+04  0.10566000000E+00 0. -1.
        994   -1    0    0    0    0 -0.00000000000E+00 -0.00000000000E+00  0.11368683772E-12  0.17120000000E+03  0.17120000000E+03 0.  0.
         13    1    1    2    0    0 -0.46016469494E+00 -0.14837686114E+02  0.72188363593E+01  0.16507314839E+02  0.10566000000E+00 0. -1.
        994    1    1    2    0    0 -0.41997630123E+01  0.15083861891E+02  0.10355680643E+02  0.17222613338E+03  0.17120000000E+03 0.  0.
        998    1    1    2    0    0  0.46599277073E+01 -0.24617577682E+00  0.14824254793E+04  0.14824665518E+04  0.10000000000E+02 0. -1.
</event>
<event>
 5    1  0.1247473E-008  0.3751186E+03  0.7957747E-01  0.3472692E+00
         13   -1    0    0    0    0  0.00000000000E+00  0.00000000000E+00  0.14999999963E+04  0.15000000000E+04  0.10566000000E+00 0.  1.
        994   -1    0    0    0    0 -0.00000000000E+00 -0.00000000000E+00  0.11368683772E-12  0.17120000000E+03  0.17120000000E+03 0.  0.
         13    1    1    2    0    0 -0.31665928383E+02  0.48654678843E+02  0.30287661332E+03  0.30838979045E+03  0.10566000000E+00 0.  1.
        994    1    1    2    0    0  0.17413003149E+02 -0.97022896814E+00  0.76519644630E+01  0.17225604948E+03  0.17120000000E+03 0.  0.
        998    1    1    2    0    0  0.14252925234E+02 -0.47684449875E+02  0.11894714185E+04  0.11905541601E+04  0.10000000000E+02 0.  1.
</event>
<event>
 5    1  0.1247473E-008  0.3853635E+03  0.7957747E-01  0.3428132E+00
         13   -1    0    0    0    0  0.00000000000E+00  0.00000000000E+00  0.14999999963E+04  0.15000000000E+04  0.10566000000E+00 0.  1.
        994   -1    0    0    0    0 -0.00000000000E+00 -0.00000000000E+00  0.11368683772E-12  0.17120000000E+03  0.17120000000E+03 0.  0.
         13    1    1    2    0    0 -0.15849431271E+01 -0.13580964660E+02  0.66726221396E+02  0.68112806664E+02  0.10566000000E+00 0.  1.
        994    1    1    2    0    0  0.19979218611E+01  0.43472232552E+01  0.15249651811E+01  0.17127362774E+03  0.17120000000E+03 0.  0.
        998    1    1    2    0    0 -0.41297873399E+00  0.92337414046E+01  0.14317488097E+04  0.14318135656E+04  0.10000000000E+02 0.  1.
</event>
<event>
 5    1  0.1247473E-008  0.3796210E+03  0.7957747E-01  0.3452810E+00
         13   -1    0    0    0    0  0.00000000000E+00  0.00000000000E+00  0.14999999963E+04  0.15000000000E+04  0.10566000000E+00 0. -1.
        994   -1    0    0    0    0 -0.00000000000E+00 -0.00000000000E+00  0.11368683772E-12  0.17120000000E+03  0.17120000000E+03 0.  0.
         13    1    1    2    0    0 -0.46413716397E+02  0.18466964049E+02  0.21612897483E+03  0.22182652402E+03  0.10566000000E+00 0. -1.
        994    1    1    2    0    0  0.57910529635E+02 -0.38714300468E+02  0.20741111364E+02  0.18598940885E+03  0.17120000000E+03 0.  0.
        998    1    1    2    0    0 -0.11496813237E+02  0.20247336419E+02  0.12631299101E+04  0.12633840671E+04  0.10000000000E+02 0. -1.
</event>
<event>
 5    1  0.1247473E-008  0.3775421E+03  0.7957747E-01  0.3461931E+00
         13   -1    0    0    0    0  0.00000000000E+00  0.00000000000E+00  0.14999999963E+04  0.15000000000E+04  0.10566000000E+00 0. -1.
        994   -1    0    0    0    0 -0.00000000000E+00 -0.00000000000E+00  0.11368683772E-12  0.17120000000E+03  0.17120000000E+03 0.  0.
         13    1    1    2    0    0 -0.58169630156E+01  0.10461774276E+02  0.10814136497E+02  0.16132033100E+02  0.10566000000E+00 0. -1.
        994    1    1    2    0    0  0.59605305883E+01 -0.11422775888E+02  0.59387551976E+01  0.17178683462E+03  0.17120000000E+03 0.  0.
        998    1    1    2    0    0 -0.14356757266E+00  0.96100161213E+00  0.14832471046E+04  0.14832811323E+04  0.10000000000E+02 0. -1.
</event>
<event>
 5    1  0.1247473E-008  0.3853101E+03  0.7957747E-01  0.3428358E+00
         13   -1    0    0    0    0  0.00000000000E+00  0.00000000000E+00  0.14999999963E+04  0.15000000000E+04  0.10566000000E+00 0. -1.
        994   -1    0    0    0    0 -0.00000000000E+00 -0.00000000000E+00  0.11368683772E-12  0.17120000000E+03  0.17120000000E+03 0.  0.
         13    1    1    2    0    0 -0.10481101841E+02 -0.23996797347E+01  0.39456820232E+02  0.40895767329E+02  0.10566000000E+00 0. -1.
        994    1    1    2    0    0  0.55222346472E+01  0.21042823028E+01  0.15910242697E+01  0.17130935304E+03  0.17120000000E+03 0.  0.
        998    1    1    2    0    0  0.49588671937E+01  0.29539743191E+00  0.14589521518E+04  0.14589948796E+04  0.10000000000E+02 0. -1.
</event>
<event>
 5    1  0.1247473E-008  0.3882859E+03  0.7957747E-01  0.3415855E+00
         13   -1    0    0    0    0  0.00000000000E+00  0.00000000000E+00  0.14999999963E+04  0.15000000000E+04  0.10566000000E+00 0.  1.
        994   -1    0    0    0    0 -0.00000000000E+00 -0.00000000000E+00  0.11368683772E-12  0.17120000000E+03  0.17120000000E+03 0.  0.
         13    1    1    2    0    0 -0.34556733415E+02 -0.10957538485E+03  0.62726241843E+03  0.63769827154E+03  0.10566000000E+00 0.  1.
        994    1    1    2    0    0  0.19834947903E+02 -0.16545353988E+02  0.23452549067E+02  0.17471873384E+03  0.17120000000E+03 0.  0.
        998    1    1    2    0    0  0.14721785512E+02  0.12612073884E+03  0.84928502878E+03  0.85878299462E+03  0.10000000000E+02 0.  1.
</event>
<event>
 5    1  0.1247473E-008  0.3856540E+03  0.7957747E-01  0.3426903E+00
         13   -1    0    0    0    0  0.00000000000E+00  0.00000000000E+00  0.14999999963E+04  0.15000000000E+04  0.10566000000E+00 0.  1.
        994   -1    0    0    0    0 -0.00000000000E+00 -0.00000000000E+00  0.11368683772E-12  0.17120000000E+03  0.17120000000E+03 0.  0.
         13    1    1    2    0    0  0.21754355919E+02  0.19471206348E+01  0.13028352643E+03  0.13210167184E+03  0.10566000000E+00 0.  1.
        994    1    1    2    0    0 -0.49042869793E+02 -0.32185414900E+02  0.12680955118E+02  0.18141485781E+03  0.17120000000E+03 0.  0.
        998    1    1    2    0    0  0.27288513874E+02  0.30238294265E+02  0.13570355147E+04  0.13576834704E+04  0.10000000000E+02 0.  1.
</event>
<event>
 5    1  0.1247473E-008  0.3780708E+03  0.7957747E-01  0.3459602E+00
         13   -1    0    0    0    0  0.00000000000E+00  0.00000000000E+00  0.14999999963E+04  0.15000000000E+04  0.10566000000E+00 0. -1.
        994   -1    0    0    0    0 -0.00000000000E+00 -0.00000000000E+00  0.11368683772E-12  0.17120000000E+03  0.17120000000E+03 0.  0.
         13    1    1    2    0    0  0.25364487452E+02  0.41211281354E+02  0.21348825875E+03  0.21890403086E+03  0.10566000000E+00 0. -1.
        994    1    1    2    0    0 -0.21810915061E+02 -0.29986797006E+02  0.97498675214E+01  0.17544065643E+03  0.17120000000E+03 0.  0.
        998    1    1    2    0    0 -0.35535723915E+01 -0.11224484348E+02  0.12767618700E+04  0.12768553127E+04  0.10000000000E+02 0. -1.
</event>
<event>
 5    1  0.1247473E-008  0.3781765E+03  0.7957747E-01  0.3459137E+00
         13   -1    0    0    0    0  0.00000000000E+00  0.00000000000E+00  0.14999999963E+04  0.15000000000E+04  0.10566000000E+00 0. -1.
        994   -1    0    0    0    0 -0.00000000000E+00 -0.00000000000E+00  0.11368683772E-12  0.17120000000E+03  0.17120000000E+03 0.  0.
         13    1    1    2    0    0  0.63037809239E+01  0.10665295543E+02  0.12987625035E+02  0.17949254888E+02  0.10566000000E+00 0. -1.
        994    1    1    2    0    0 -0.56501380376E+01 -0.56725966400E+01  0.52721074791E+01  0.17146818227E+03  0.17120000000E+03 0.  0.
        998    1    1    2    0    0 -0.65364288627E+00 -0.49926989030E+01  0.14817402638E+04  0.14817825628E+04  0.10000000000E+02 0. -1.
</event>
<event>
 5    1  0.1247473E-008  0.3812527E+03  0.7957747E-01  0.3445722E+00
         13   -1    0    0    0    0  0.00000000000E+00  0.00000000000E+00  0.14999999963E+04  0.15000000000E+04  0.10566000000E+00 0.  1.
        994   -1    0    0    0    0 -0.00000000000E+00 -0.00000000000E+00  0.11368683772E-12  0.17120000000E+03  0.17120000000E+03 0.  0.
         13    1    1    2    0    0 -0.35708530369E+01 -0.11191583015E+02  0.17976587990E+02  0.21474901666E+02  0.10566000000E+00 0.  1.
        994    1    1    2    0    0  0.95445222125E+00  0.14474108309E+02  0.42029217433E+01  0.17186481706E+03  0.17120000000E+03 0.  0.
        998    1    1    2    0    0  0.26164008157E+01 -0.32825252937E+01  0.14778204865E+04  0.14778602813E+04  0.10000000000E+02 0.  1.
</event>
<event>
 5    1  0.1247473E-008  0.3804815E+03  0.7957747E-01  0.3449064E+00
         13   -1    0    0    0    0  0.00000000000E+00  0.00000000000E+00  0.14999999963E+04  0.15000000000E+04  0.10566000000E+00 0.  1.
        994   -1    0    0    0    0 -0.00000000000E+00 -0.00000000000E+00  0.11368683772E-12  0.17120000000E+03  0.17120000000E+03 0.  0.
         13    1    1    2    0    0 -0.44788316702E+01 -0.16481952335E+02  0.38020997630E+02  0.41681196128E+02  0.10566000000E+00 0.  1.
        994    1    1    2    0    0 -0.45548022328E+01 -0.33202334684E+01  0.39963100941E+01  0.17133937279E+03  0.17120000000E+03 0.  0.
        998    1    1    2    0    0  0.90336339031E+01  0.19802185803E+02  0.14579826886E+04  0.14581794311E+04  0.10000000000E+02 0.  1.
</event>
<event>
 5    1  0.1247473E-008  0.3760804E+03  0.7957747E-01  0.3468405E+00
         13   -1    0    0    0    0  0.00000000000E+00  0.00000000000E+00  0.14999999963E+04  0.15000000000E+04  0.10566000000E+00 0.  1.
        994   -1    0    0    0    0 -0.00000000000E+00 -0.00000000000E+00  0.11368683772E-12  0.17120000000E+03  0.17120000000E+03 0.  0.
         13    1    1    2    0    0  0.16641067679E+01 -0.28893126454E+02  0.62026403203E+02  0.68446094600E+02  0.10566000000E+00 0.  1.
        994    1    1    2    0    0  0.13848383799E+01  0.36426263121E+02  0.10638655858E+02  0.17536080355E+03  0.17120000000E+03 0.  0.
        998    1    1    2    0    0 -0.30489451477E+01 -0.75331366666E+01  0.14273349372E+04  0.14273931019E+04  0.10000000000E+02 0.  1.
</event>
<event>
 5    1  0.1247473E-008  0.3729890E+03  0.7957747E-01  0.3482266E+00
         13   -1    0    0    0    0  0.00000000000E+00  0.00000000000E+00  0.14999999963E+04  0.15000000000E+04  0.10566000000E+00 0. -1.
        994   -1    0    0    0    0 -0.00000000000E+00 -0.00000000000E+00  0.11368683772E-12  0.17120000000E+03  0.17120000000E+03 0.  0.
         13    1    1    2    0    0  0.12667046694E+03  0.53021635734E+02  0.54397520469E+03  0.56103986982E+03  0.10566000000E+00 0. -1.
        994    1    1    2    0    0 -0.10009087155E+03 -0.70017955285E+02  0.67294332436E+02  0.22081364045E+03  0.17120000000E+03 0.  0.
        998    1    1    2    0    0 -0.26579595395E+02  0.16996319551E+02  0.88873045915E+03  0.88934648973E+03  0.10000000000E+02 0. -1.
</event>
<event>
 5    1  0.1247473E-008  0.3794515E+03  0.7957747E-01  0.3453550E+00
         13   -1    0    0    0    0  0.00000000000E+00  0.00000000000E+00  0.14999999963E+04  0.15000000000E+04  0.10566000000E+00 0.  1.
        994   -1    0    0    0    0 -0.00000000000E+00 -0.00000000000E+00  0.11368683772E-12  0.17120000000E+03  0.17120000000E+03 0.  0.
         13    1    1    2    0    0  0.44842978632E+01 -0.21649105842E+02  0.51956291407E+02  0.56464680039E+02  0.10566000000E+00 0.  1.
        994    1    1    2    0    0  0.35345932676E+01  0.24781797318E+02  0.65117032869E+01  0.17314292682E+03  0.17120000000E+03 0.  0.
        998    1    1    2    0    0 -0.80188911308E+01 -0.31326914755E+01  0.14415320016E+04  0.14415923931E+04  0.10000000000E+02 0.  1.
</event>
<event>
 5    1  0.1247473E-008  0.3848277E+03  0.7957747E-01  0.3430403E+00
         13   -1    0    0    0    0  0.00000000000E+00  0.00000000000E+00  0.14999999963E+04  0.15000000000E+04  0.10566000000E+00 0. -1.
        994   -1    0    0    0    0 -0.00000000000E+00 -0.00000000000E+00  0.11368683772E-12  0.17120000000E+03  0.17120000000E+03 0.  0.
         13    1    1    2    0    0  0.14164180704E+02  0.95841679570E+01  0.88612116173E+02  0.90247429809E+02  0.10566000000E+00 0. -1.
        994    1    1    2    0    0 -0.51719130173E+01 -0.23584060334E+01  0.18220121818E+01  0.17130402941E+03  0.17120000000E+03 0.  0.
        998    1    1    2    0    0 -0.89922676866E+01 -0.72257619236E+01  0.14095658679E+04  0.14096485408E+04  0.10000000000E+02 0. -1.
</event>
<event>
 5    1  0.1247473E-008  0.3838401E+03  0.7957747E-01  0.3434606E+00
         13   -1    0    0    0    0  0.00000000000E+00  0.00000000000E+00  0.14999999963E+04  0.15000000000E+04  0.10566000000E+00 0.  1.
        994   -1    0    0    0    0 -0.00000000000E+00 -0.00000000000E+00  0.11368683772E-12  0.17120000000E+03  0.17120000000E+03 0.  0.
         13    1    1    2    0    0 -0.11152836425E+00  0.17108085627E+02  0.69545973088E+02  0.71619498527E+02  0.10566000000E+00 0.  1.
        994    1    1    2    0    0 -0.21286633334E+02 -0.21173329696E+01  0.37191235303E+01  0.17257136419E+03  0.17120000000E+03 0.  0.
        998    1    1    2    0    0  0.21398161699E+02 -0.14990752658E+02  0.14267348997E+04  0.14270091373E+04  0.10000000000E+02 0.  1.
</event>
<event>
 5    1  0.1247473E-008  0.3851829E+03  0.7957747E-01  0.3428897E+00
         13   -1    0    0    0    0  0.00000000000E+00  0.00000000000E+00  0.14999999963E+04  0.15000000000E+04  0.10566000000E+00 0. -1.
        994   -1    0    0    0    0 -0.00000000000E+00 -0.00000000000E+00  0.11368683772E-12  0.17120000000E+03  0.17120000000E+03 0.  0.
         13    1    1    2    0    0 -0.54816619818E+01  0.12738626069E+02  0.60916140141E+02  0.62474862992E+02  0.10566000000E+00 0. -1.
        994    1    1    2    0    0  0.74553578860E+01 -0.11462963888E+02  0.21541697725E+01  0.17175873296E+03  0.17120000000E+03 0.  0.
        998    1    1    2    0    0 -0.19736959042E+01 -0.12756621819E+01  0.14369296864E+04  0.14369664040E+04  0.10000000000E+02 0. -1.
</event>
<event>
 5    1  0.1247473E-008  0.3769527E+03  0.7957747E-01  0.3464535E+00
         13   -1    0    0    0    0  0.00000000000E+00  0.00000000000E+00  0.14999999963E+04  0.15000000000E+04  0.10566000000E+00 0.  1.
        994   -1    0    0    0    0 -0.00000000000E+00 -0.00000000000E+00  0.11368683772E-12  0.17120000000E+03  0.17120000000E+03 0.  0.
         13    1    1    2    0    0  0.29009902772E+02  0.12569027166E+02  0.28939642707E+02  0.42861042764E+02  0.10566000000E+00 0.  1.
        994    1    1    2    0    0 -0.12946597474E+01 -0.25603197207E+02  0.17021926084E+02  0.17394362828E+03  0.17120000000E+03 0.  0.
        998    1    1    2    0    0 -0.27715243024E+02  0.13034170040E+02  0.14540384275E+04  0.14543953290E+04  0.10000000000E+02 0.  1.
</event>
<event>
 5    1  0.1247473E-008  0.3844909E+03  0.7957747E-01  0.3431834E+00
         13   -1    0    0    0    0  0.00000000000E+00  0.00000000000E+00  0.14999999963E+04  0.15000000000E+04  0.10566000000E+00 0. -1.
        994   -1    0    0    0    0 -0.00000000000E+00 -0.00000000000E+00  0.11368683772E-12  0.17120000000E+03  0.17120000000E+03 0.  0.
         13    1    1    2    0    0 -0.13651404291E+02  0.10805859050E+02  0.80974519834E+02  0.82825186117E+02  0.10566000000E+00 0. -1.
        994    1    1    2    0    0  0.93159773436E+01 -0.42007366691E+01  0.22271761157E+01  0.17151919407E+03  0.17120000000E+03 0.  0.
        998    1    1    2    0    0  0.43354269477E+01 -0.66051223811E+01  0.14167983003E+04  0.14168556198E+04  0.10000000000E+02 0. -1.
</event>
<event>
 5    1  0.1247473E-008  0.3841066E+03  0.7957747E-01  0.3433470E+00
         13   -1    0    0    0    0  0.00000000000E+00  0.00000000000E+00  0.14999999963E+04  0.15000000000E+04  0.10566000000E+00 0.  1.
        994   -1    0    0    0    0 -0.00000000000E+00 -0.00000000000E+00  0.11368683772E-12  0.17120000000E+03  0.17120000000E+03 0.  0.
         13    1    1    2    0    0 -0.11702846212E+01 -0.21452702421E+02  0.11652089321E+03  0.11848509495E+03  0.10566000000E+00 0.  1.
        994    1    1    2    0    0  0.97469944994E+01  0.64878737317E+01  0.25266466066E+01  0.17161853149E+03  0.17120000000E+03 0.  0.
        998    1    1    2    0    0 -0.85767098782E+01  0.14964828689E+02  0.13809524565E+04  0.13810963736E+04  0.10000000000E+02 0.  1.
</event>
<event>
 5    1  0.1247473E-008  0.3777568E+03  0.7957747E-01  0.3460984E+00
         13   -1    0    0    0    0  0.00000000000E+00  0.00000000000E+00  0.14999999963E+04  0.15000000000E+04  0.10566000000E+00 0.  1.
        994   -1    0    0    0    0 -0.00000000000E+00 -0.00000000000E+00  0.11368683772E-12  0.17120000000E+03  0.17120000000E+03 0.  0.
         13    1    1    2    0    0 -0.16578755905E+02  0.70573024145E+01  0.27990112612E+02  0.33288409887E+02  0.10566000000E+00 0.  1.
        994    1    1    2    0    0  0.20146674068E+02 -0.51415020489E+01  0.67271730848E+01  0.17258916066E+03  0.17120000000E+03 0.  0.
        998    1    1    2    0    0 -0.35679181626E+01 -0.19158003657E+01  0.14652827106E+04  0.14653224295E+04  0.10000000000E+02 0.  1.
</event>
<event>
 5    1  0.1247473E-008  0.3855961E+03  0.7957747E-01  0.3427148E+00
         13   -1    0    0    0    0  0.00000000000E+00  0.00000000000E+00  0.14999999963E+04  0.15000000000E+04  0.10566000000E+00 0. -1.
        994   -1    0    0    0    0 -0.00000000000E+00 -0.00000000000E+00  0.11368683772E-12  0.17120000000E+03  0.17120000000E+03 0.  0.
         13    1    1    2    0    0 -0.89714039037E+01  0.11861687042E+02  0.88654223678E+02  0.89893093436E+02  0.10566000000E+00 0. -1.
        994    1    1    2    0    0  0.95475994570E+01  0.41911385399E+01  0.16914267423E+01  0.17152557600E+03  0.17120000000E+03 0.  0.
        998    1    1    2    0    0 -0.57619555336E+00 -0.16052825582E+02  0.14096543459E+04  0.14097813306E+04  0.10000000000E+02 0. -1.
</event>
<event>
 5    1  0.1247473E-008  0.3821642E+03  0.7957747E-01  0.3441789E+00
         13   -1    0    0    0    0  0.00000000000E+00  0.00000000000E+00  0.14999999963E+04  0.15000000000E+04  0.10566000000E+00 0.  1.
        994   -1    0    0    0    0 -0.00000000000E+00 -0.00000000000E+00  0.11368683772E-12  0.17120000000E+03  0.17120000000E+03 0.  0.
         13    1    1    2    0    0 -0.74191658872E+01 -0.10390057025E+02  0.25537641470E+02  0.28551350289E+02  0.10566000000E+00 0.  1.
        994    1    1    2    0    0  0.43871127723E+01  0.89750959766E+01  0.33759458431E+01  0.17152444758E+03  0.17120000000E+03 0.  0.
        998    1    1    2    0    0  0.30320531149E+01  0.14149610484E+01  0.14710864090E+04  0.14711242021E+04  0.10000000000E+02 0.  1.
</event>
<event>
 5    1  0.1247473E-008  0.3814987E+03  0.7957747E-01  0.3444659E+00
         13   -1    0    0    0    0  0.00000000000E+00  0.00000000000E+00  0.14999999963E+04  0.15000000000E+04  0.10566000000E+00 0. -1.
        994   -1    0    0    0    0 -0.00000000000E+00 -0.00000000000E+00  0.11368683772E-12  0.17120000000E+03  0.17120000000E+03 0.  0.
         13    1    1    2    0    0  0.13860855265E+02 -0.18922787187E+02  0.76234915246E+02  0.79761949889E+02  0.10566000000E+00 0. -1.
        994    1    1    2    0    0 -0.12204125813E+02  0.22421331865E+02  0.55492389109E+01  0.17318167011E+03  0.17120000000E+03 0.  0.
        998    1    1    2    0    0 -0.16567294527E+01 -0.34985446778E+01  0.14182158421E+04  0.14182563800E+04  0.10000000000E+02 0. -1.
</event>
<event>
 5    1  0.1441031E-008  0.3860070E+03  0.7957747E-01  0.3425413E+00
         13   -1    0    0    0    0  0.00000000000E+00  0.00000000000E+00  0.14999999963E+04  0.15000000000E+04  0.10566000000E+00 0. -1.
        994   -1    0    0    0    0 -0.00000000000E+00 -0.00000000000E+00  0.11368683772E-12  0.17120000000E+03  0.17120000000E+03 0.  0.
         13    1    1    2    0    0  0.10025876877E+02 -0.38076504363E+01  0.51949869712E+02  0.53045419558E+02  0.10566000000E+00 0. -1.
        994    1    1    2    0    0 -0.47769422415E+01  0.37318433248E+01  0.12514840850E+01  0.17131185611E+03  0.17120000000E+03 0.  0.
        998    1    1    2    0    0 -0.52489346359E+01  0.75807111529E-01  0.14467986425E+04  0.14468427243E+04  0.10000000000E+02 0. -1.
</event>
<event>
 5    1  0.1247473E-008  0.3827924E+03  0.7957747E-01  0.3439089E+00
         13   -1    0    0    0    0  0.00000000000E+00  0.00000000000E+00  0.14999999963E+04  0.15000000000E+04  0.10566000000E+00 0.  1.
        994   -1    0    0    0    0 -0.00000000000E+00 -0.00000000000E+00  0.11368683772E-12  0.17120000000E+03  0.17120000000E+03 0.  0.
         13    1    1    2    0    0 -0.14228718345E+02 -0.13227602675E+02  0.68730129083E+02  0.71423159451E+02  0.10566000000E+00 0.  1.
        994    1    1    2    0    0  0.91616786049E+01  0.66839763043E+01  0.31562532577E+01  0.17160423605E+03  0.17120000000E+03 0.  0.
        998    1    1    2    0    0  0.50670397399E+01  0.65436263703E+01  0.14281136139E+04  0.14281726045E+04  0.10000000000E+02 0.  1.
</event>
<event>
 5    1  0.1247473E-008  0.3799444E+03  0.7957747E-01  0.3451401E+00
         13   -1    0    0    0    0  0.00000000000E+00  0.00000000000E+00  0.14999999963E+04  0.15000000000E+04  0.10566000000E+00 0. -1.
        994   -1    0    0    0    0 -0.00000000000E+00 -0.00000000000E+00  0.11368683772E-12  0.17120000000E+03  0.17120000000E+03 0.  0.
         13    1    1    2    0    0  0.10824981393E+02  0.34355877840E+02  0.14363028904E+03  0.14807828220E+03  0.10566000000E+00 0. -1.
        994    1    1    2    0    0  0.45797126193E+01 -0.36471137262E+02  0.86919492659E+01  0.17531716289E+03  0.17120000000E+03 0.  0.
        998    1    1    2    0    0 -0.15404694013E+02  0.21152594214E+01  0.13476777580E+04  0.13478045549E+04  0.10000000000E+02 0. -1.
</event>
<event>
 5    1  0.1247473E-008  0.3779639E+03  0.7957747E-01  0.3460072E+00
         13   -1    0    0    0    0  0.00000000000E+00  0.00000000000E+00  0.14999999963E+04  0.15000000000E+04  0.10566000000E+00 0.  1.
        994   -1    0    0    0    0 -0.00000000000E+00 -0.00000000000E+00  0.11368683772E-12  0.17120000000E+03  0.17120000000E+03 0.  0.
         13    1    1    2    0    0 -0.25912888500E+02  0.93985863725E+02  0.55992232620E+03  0.56834658696E+03  0.10566000000E+00 0.  1.
        994    1    1    2    0    0  0.35343149173E+02 -0.92306945879E+02  0.38783651844E+02  0.20145302703E+03  0.17120000000E+03 0.  0.
        998    1    1    2    0    0 -0.94302606723E+01 -0.16789178461E+01  0.90129401824E+03  0.90140038600E+03  0.10000000000E+02 0. -1.
</event>
<event>
 5    1  0.1247473E-008  0.3716227E+03  0.7957747E-01  0.3488466E+00
         13   -1    0    0    0    0  0.00000000000E+00  0.00000000000E+00  0.14999999963E+04  0.15000000000E+04  0.10566000000E+00 0. -1.
        994   -1    0    0    0    0 -0.00000000000E+00 -0.00000000000E+00  0.11368683772E-12  0.17120000000E+03  0.17120000000E+03 0.  0.
         13    1    1    2    0    0  0.33308385141E+02  0.10247114841E+02  0.65542363007E+02  0.74231155156E+02  0.10566000000E+00 0. -1.
        994    1    1    2    0    0 -0.38970347691E+02 -0.26532808298E+01  0.13687664610E+02  0.17613210968E+03  0.17120000000E+03 0.  0.
        998    1    1    2    0    0  0.56619625506E+01 -0.75938340117E+01  0.14207699687E+04  0.14208367352E+04  0.10000000000E+02 0. -1.
</event>
<event>
 5    1  0.1247473E-008  0.3808844E+03  0.7957747E-01  0.3447317E+00
         13   -1    0    0    0    0  0.00000000000E+00  0.00000000000E+00  0.14999999963E+04  0.15000000000E+04  0.10566000000E+00 0.  1.
        994   -1    0    0    0    0 -0.00000000000E+00 -0.00000000000E+00  0.11368683772E-12  0.17120000000E+03  0.17120000000E+03 0.  0.
         13    1    1    2    0    0 -0.25354378020E+02 -0.47160212851E+01  0.87138527624E+02  0.90874746228E+02  0.10566000000E+00 0.  1.
        994    1    1    2    0    0  0.19093199854E+02  0.65238705120E+01  0.50455293121E+01  0.17245871545E+03  0.17120000000E+03 0.  0.
        998    1    1    2    0    0  0.62611781660E+01 -0.18078492269E+01  0.14078159393E+04  0.14078665383E+04  0.10000000000E+02 0.  1.
</event>
<event>
 5    1  0.1247473E-008  0.3842923E+03  0.7957747E-01  0.3432679E+00
         13   -1    0    0    0    0  0.00000000000E+00  0.00000000000E+00  0.14999999963E+04  0.15000000000E+04  0.10566000000E+00 0. -1.
        994   -1    0    0    0    0 -0.00000000000E+00 -0.00000000000E+00  0.11368683772E-12  0.17120000000E+03  0.17120000000E+03 0.  0.
         13    1    1    2    0    0 -0.57197802862E+01  0.93674113949E+01  0.29691904888E+02  0.31655720852E+02  0.10566000000E+00 0. -1.
        994    1    1    2    0    0  0.61898096761E+01 -0.69902585966E+01  0.22693059208E+01  0.17146943520E+03  0.17120000000E+03 0.  0.
        998    1    1    2    0    0 -0.47002938995E+00 -0.23771527983E+01  0.14680387855E+04  0.14680748439E+04  0.10000000000E+02 0. -1.
</event>
<event>
 5    1  0.1247473E-008  0.3769024E+03  0.7957747E-01  0.3464758E+00
         13   -1    0    0    0    0  0.00000000000E+00  0.00000000000E+00  0.14999999963E+04  0.15000000000E+04  0.10566000000E+00 0. -1.
        994   -1    0    0    0    0 -0.00000000000E+00 -0.00000000000E+00  0.11368683772E-12  0.17120000000E+03  0.17120000000E+03 0.  0.
         13    1    1    2    0    0 -0.42492194844E+02  0.14754224434E+02  0.61616434971E+02  0.76288072357E+02  0.10566000000E+00 0. -1.
        994    1    1    2    0    0  0.40222668376E+02 -0.16610798395E+02  0.21452122824E+02  0.17794216827E+03  0.17120000000E+03 0.  0.
        998    1    1    2    0    0  0.22695264688E+01  0.18565739606E+01  0.14169314385E+04  0.14169697594E+04  0.10000000000E+02 0. -1.
</event>
<event>
 5    1  0.1459545E-008  0.3860974E+03  0.7957747E-01  0.3425031E+00
         13   -1    0    0    0    0  0.00000000000E+00  0.00000000000E+00  0.14999999963E+04  0.15000000000E+04  0.10566000000E+00 0.  1.
        994   -1    0    0    0    0 -0.00000000000E+00 -0.00000000000E+00  0.11368683772E-12  0.17120000000E+03  0.17120000000E+03 0.  0.
         13    1    1    2    0    0  0.56042302818E+01  0.88331674399E+01  0.54781820076E+02  0.55771777979E+02  0.10566000000E+00 0.  1.
        994    1    1    2    0    0  0.41881451538E+01  0.63895150815E+00  0.11450826512E+01  0.17125624086E+03  0.17120000000E+03 0.  0.
        998    1    1    2    0    0 -0.97923754355E+01 -0.94721189481E+01  0.14440730936E+04  0.14441719812E+04  0.10000000000E+02 0.  1.
</event>
<event>
 5    1  0.1247473E-008  0.3818653E+03  0.7957747E-01  0.3443077E+00
         13   -1    0    0    0    0  0.00000000000E+00  0.00000000000E+00  0.14999999963E+04  0.15000000000E+04  0.10566000000E+00 0.  1.
        994   -1    0    0    0    0 -0.00000000000E+00 -0.00000000000E+00  0.11368683772E-12  0.17120000000E+03  0.17120000000E+03 0.  0.
         13    1    1    2    0    0  0.27020906913E+02  0.20301380430E+01  0.10951693785E+03  0.11281942081E+03  0.10566000000E+00 0.  1.
        994    1    1    2    0    0 -0.22822771197E+02 -0.29875201024E+01  0.49567540992E+01  0.17281149722E+03  0.17120000000E+03 0.  0.
        998    1    1    2    0    0 -0.41981357163E+01  0.95738205943E+00  0.13855263043E+04  0.13855690820E+04  0.10000000000E+02 0.  1.
</event>
<event>
 5    1  0.1247473E-008  0.3850553E+03  0.7957747E-01  0.3429438E+00
         13   -1    0    0    0    0  0.00000000000E+00  0.00000000000E+00  0.14999999963E+04  0.15000000000E+04  0.10566000000E+00 0. -1.
        994   -1    0    0    0    0 -0.00000000000E+00 -0.00000000000E+00  0.11368683772E-12  0.17120000000E+03  0.17120000000E+03 0.  0.
         13    1    1    2    0    0  0.87197875451E+01 -0.70969786867E+01  0.44415966963E+02  0.45816930131E+02  0.10566000000E+00 0. -1.
        994    1    1    2    0    0  0.27301357280E+02  0.11023190002E+02  0.44582312818E+01  0.17377051146E+03  0.17120000000E+03 0.  0.
        998    1    1    2    0    0 -0.36021144825E+02 -0.39262113154E+01  0.14511257980E+04  0.14516125584E+04  0.10000000000E+02 0. -1.
</event>
<event>
 5    1  0.1661548E-008  0.3856528E+03  0.7957747E-01  0.3426908E+00
         13   -1    0    0    0    0  0.00000000000E+00  0.00000000000E+00  0.14999999963E+04  0.15000000000E+04  0.10566000000E+00 0.  1.
        994   -1    0    0    0    0 -0.00000000000E+00 -0.00000000000E+00  0.11368683772E-12  0.17120000000E+03  0.17120000000E+03 0.  0.
         13    1    1    2    0    0  0.29753866417E+01  0.14112996935E+02  0.83825581604E+02  0.85057444726E+02  0.10566000000E+00 0.  1.
        994    1    1    2    0    0 -0.39247978741E-01 -0.39589129620E+01  0.13578375658E+01  0.17125115549E+03  0.17120000000E+03 0.  0.
        998    1    1    2    0    0 -0.29361386630E+01 -0.10154083973E+02  0.14148165771E+04  0.14148913998E+04  0.10000000000E+02 0.  1.
</event>
<event>
 5    1  0.1247473E-008  0.3747390E+03  0.7957747E-01  0.3474391E+00
         13   -1    0    0    0    0  0.00000000000E+00  0.00000000000E+00  0.14999999963E+04  0.15000000000E+04  0.10566000000E+00 0.  1.
        994   -1    0    0    0    0 -0.00000000000E+00 -0.00000000000E+00  0.11368683772E-12  0.17120000000E+03  0.17120000000E+03 0.  0.
         13    1    1    2    0    0 -0.34128545304E+01  0.29151673099E+02  0.58218676824E+02  0.65198873577E+02  0.10566000000E+00 0.  1.
        994    1    1    2    0    0  0.74321689851E+01 -0.30492482149E+02  0.10171398122E+02  0.17435000987E+03  0.17120000000E+03 0.  0.
        998    1    1    2    0    0 -0.40193144547E+01  0.13408090501E+01  0.14316099213E+04  0.14316511165E+04  0.10000000000E+02 0.  1.
</event>
<event>
 5    1  0.1247473E-008  0.3841087E+03  0.7957747E-01  0.3433461E+00
         13   -1    0    0    0    0  0.00000000000E+00  0.00000000000E+00  0.14999999963E+04  0.15000000000E+04  0.10566000000E+00 0.  1.
        994   -1    0    0    0    0 -0.00000000000E+00 -0.00000000000E+00  0.11368683772E-12  0.17120000000E+03  0.17120000000E+03 0.  0.
         13    1    1    2    0    0 -0.52891086626E+01 -0.11859002470E+02  0.40003702820E+02  0.42058507027E+02  0.10566000000E+00 0.  1.
        994    1    1    2    0    0  0.50069546019E+01  0.84209081766E+01  0.23899284103E+01  0.17149674355E+03  0.17120000000E+03 0.  0.
        998    1    1    2    0    0  0.28215406064E+00  0.34380942931E+01  0.14576063650E+04  0.14576447494E+04  0.10000000000E+02 0.  1.
</event>
<event>
 5    1  0.1247473E-008  0.3769296E+03  0.7957747E-01  0.3464638E+00
         13   -1    0    0    0    0  0.00000000000E+00  0.00000000000E+00  0.14999999963E+04  0.15000000000E+04  0.10566000000E+00 0.  1.
        994   -1    0    0    0    0 -0.00000000000E+00 -0.00000000000E+00  0.11368683772E-12  0.17120000000E+03  0.17120000000E+03 0.  0.
         13    1    1    2    0    0  0.29271353919E+01 -0.46976062180E+02  0.17869003748E+03  0.18478489981E+03  0.10566000000E+00 0.  1.
        994    1    1    2    0    0  0.73293359841E+01  0.40630339654E+02  0.11469527713E+02  0.17648097272E+03  0.17120000000E+03 0.  0.
        998    1    1    2    0    0 -0.10256471376E+02  0.63457225266E+01  0.13098404311E+04  0.13099341275E+04  0.10000000000E+02 0.  1.
</event>
<event>
 5    1  0.1247473E-008  0.3791730E+03  0.7957747E-01  0.3454767E+00
         13   -1    0    0    0    0  0.00000000000E+00  0.00000000000E+00  0.14999999963E+04  0.15000000000E+04  0.10566000000E+00 0.  1.
        994   -1    0    0    0    0 -0.00000000000E+00 -0.00000000000E+00  0.11368683772E-12  0.17120000000E+03  0.17120000000E+03 0.  0.
         13    1    1    2    0    0 -0.13620268863E+02  0.74581887894E+01  0.24502487287E+02  0.29008952949E+02  0.10566000000E+00 0.  1.
        994    1    1    2    0    0  0.19702355768E+01 -0.22043217574E+02  0.61946938808E+01  0.17273563472E+03  0.17120000000E+03 0.  0.
        998    1    1    2    0    0  0.11650033287E+02  0.14585028785E+02  0.14693028151E+04  0.14694554123E+04  0.10000000000E+02 0.  1.
</event>
<event>
 5    1  0.1247473E-008  0.3849160E+03  0.7957747E-01  0.3430029E+00
         13   -1    0    0    0    0  0.00000000000E+00  0.00000000000E+00  0.14999999963E+04  0.15000000000E+04  0.10566000000E+00 0. -1.
        994   -1    0    0    0    0 -0.00000000000E+00 -0.00000000000E+00  0.11368683772E-12  0.17120000000E+03  0.17120000000E+03 0.  0.
         13    1    1    2    0    0 -0.14976181917E+02 -0.24904966253E+01  0.70289648500E+02  0.71910600391E+02  0.10566000000E+00 0. -1.
        994    1    1    2    0    0  0.62183242730E+01  0.49237373698E+01  0.18788315307E+01  0.17139393442E+03  0.17120000000E+03 0.  0.
        998    1    1    2    0    0  0.87578576437E+01 -0.24332407445E+01  0.14278315162E+04  0.14278954652E+04  0.10000000000E+02 0. -1.
</event>
<event>
 5    1  0.1247473E-008  0.3834902E+03  0.7957747E-01  0.3436101E+00
         13   -1    0    0    0    0  0.00000000000E+00  0.00000000000E+00  0.14999999963E+04  0.15000000000E+04  0.10566000000E+00 0.  1.
        994   -1    0    0    0    0 -0.00000000000E+00 -0.00000000000E+00  0.11368683772E-12  0.17120000000E+03  0.17120000000E+03 0.  0.
         13    1    1    2    0    0  0.21544455675E+02  0.47910913151E+01  0.11880806610E+03  0.12084074586E+03  0.10566000000E+00 0.  1.
        994    1    1    2    0    0  0.73064475687E+01  0.11319765887E+01  0.25622423238E+01  0.17137873448E+03  0.17120000000E+03 0.  0.
        998    1    1    2    0    0 -0.28850903244E+02 -0.59230679038E+01  0.13786296879E+04  0.13789805197E+04  0.10000000000E+02 0.  1.
</event>
<event>
 5    1  0.1247473E-008  0.3839055E+03  0.7957747E-01  0.3434328E+00
         13   -1    0    0    0    0  0.00000000000E+00  0.00000000000E+00  0.14999999963E+04  0.15000000000E+04  0.10566000000E+00 0. -1.
        994   -1    0    0    0    0 -0.00000000000E+00 -0.00000000000E+00  0.11368683772E-12  0.17120000000E+03  0.17120000000E+03 0.  0.
         13    1    1    2    0    0 -0.69700494632E+01 -0.15661640331E+02  0.65488214692E+02  0.67694800354E+02  0.10566000000E+00 0. -1.
        994    1    1    2    0    0  0.22467494765E+01  0.16029742800E+02  0.30396997057E+01  0.17199034947E+03  0.17120000000E+03 0.  0.
        998    1    1    2    0    0  0.47232999868E+01 -0.36810246971E+00  0.14314720819E+04  0.14315148502E+04  0.10000000000E+02 0. -1.
</event>
<event>
 5    1  0.1247473E-008  0.3812359E+03  0.7957747E-01  0.3445795E+00
         13   -1    0    0    0    0  0.00000000000E+00  0.00000000000E+00  0.14999999963E+04  0.15000000000E+04  0.10566000000E+00 0.  1.
        994   -1    0    0    0    0 -0.00000000000E+00 -0.00000000000E+00  0.11368683772E-12  0.17120000000E+03  0.17120000000E+03 0.  0.
         13    1    1    2    0    0 -0.17451673521E+02  0.54467063950E+01  0.49453457522E+02  0.52724597145E+02  0.10566000000E+00 0.  1.
        994    1    1    2    0    0 -0.40920013943E+01  0.10604262067E+01  0.35700741363E+01  0.17128938790E+03  0.17120000000E+03 0.  0.
        998    1    1    2    0    0  0.21543674915E+02 -0.65071326016E+01  0.14469764646E+04  0.14471860150E+04  0.10000000000E+02 0.  1.
</event>
<event>
 5    1  0.1247473E-008  0.3759302E+03  0.7957747E-01  0.3469073E+00
         13   -1    0    0    0    0  0.00000000000E+00  0.00000000000E+00  0.14999999963E+04  0.15000000000E+04  0.10566000000E+00 0. -1.
        994   -1    0    0    0    0 -0.00000000000E+00 -0.00000000000E+00  0.11368683772E-12  0.17120000000E+03  0.17120000000E+03 0.  0.
         13    1    1    2    0    0 -0.34118960889E+02  0.20233279971E+02  0.50028049815E+02  0.63845955572E+02  0.10566000000E+00 0. -1.
        994    1    1    2    0    0  0.30967303209E+02 -0.83030924616E+01  0.17788160154E+02  0.17508219171E+03  0.17120000000E+03 0.  0.
        998    1    1    2    0    0  0.31516576798E+01 -0.11930187509E+02  0.14321837863E+04  0.14322718527E+04  0.10000000000E+02 0. -1.
</event>
<event>
 5    1  0.1247473E-008  0.3834483E+03  0.7957747E-01  0.3436280E+00
         13   -1    0    0    0    0  0.00000000000E+00  0.00000000000E+00  0.14999999963E+04  0.15000000000E+04  0.10566000000E+00 0. -1.
        994   -1    0    0    0    0 -0.00000000000E+00 -0.00000000000E+00  0.11368683772E-12  0.17120000000E+03  0.17120000000E+03 0.  0.
         13    1    1    2    0    0 -0.10152909144E+02 -0.43090696408E+01  0.24838216973E+02  0.27177156431E+02  0.10566000000E+00 0. -1.
        994    1    1    2    0    0  0.50246196775E+01 -0.20670487334E+01  0.25000550921E+01  0.17130443593E+03  0.17120000000E+03 0.  0.
        998    1    1    2    0    0  0.51282894663E+01  0.63761183741E+01  0.14726617242E+04  0.14727184076E+04  0.10000000000E+02 0. -1.
</event>
<event>
 5    1  0.1247473E-008  0.3821763E+03  0.7957747E-01  0.3441737E+00
         13   -1    0    0    0    0  0.00000000000E+00  0.00000000000E+00  0.14999999963E+04  0.15000000000E+04  0.10566000000E+00 0. -1.
        994   -1    0    0    0    0 -0.00000000000E+00 -0.00000000000E+00  0.11368683772E-12  0.17120000000E+03  0.17120000000E+03 0.  0.
         13    1    1    2    0    0  0.19339747324E+02 -0.17070626871E+02  0.10578643051E+03  0.10888623500E+03  0.10566000000E+00 0. -1.
        994    1    1    2    0    0 -0.10669992448E+02  0.18215119330E+02  0.45190855831E+01  0.17255579227E+03  0.17120000000E+03 0.  0.
        998    1    1    2    0    0 -0.86697548760E+01 -0.11444924595E+01  0.13896944802E+04  0.13897579727E+04  0.10000000000E+02 0. -1.
</event>
<event>
 5    1  0.1247473E-008  0.3696460E+03  0.7957747E-01  0.3497520E+00
         13   -1    0    0    0    0  0.00000000000E+00  0.00000000000E+00  0.14999999963E+04  0.15000000000E+04  0.10566000000E+00 0. -1.
        994   -1    0    0    0    0 -0.00000000000E+00 -0.00000000000E+00  0.11368683772E-12  0.17120000000E+03  0.17120000000E+03 0.  0.
         13    1    1    2    0    0 -0.27281105110E+00  0.46048984388E+02  0.87863300631E+02  0.99199567292E+02  0.10566000000E+00 0. -1.
        994    1    1    2    0    0 -0.87081693896E+00 -0.51917912320E+02  0.20226021838E+02  0.18004099506E+03  0.17120000000E+03 0.  0.
        998    1    1    2    0    0  0.11436279901E+01  0.58689279322E+01  0.13919106738E+04  0.13919594377E+04  0.10000000000E+02 0. -1.
</event>
<event>
 5    1  0.1247473E-008  0.3723682E+03  0.7957747E-01  0.3485078E+00
         13   -1    0    0    0    0  0.00000000000E+00  0.00000000000E+00  0.14999999963E+04  0.15000000000E+04  0.10566000000E+00 0. -1.
        994   -1    0    0    0    0 -0.00000000000E+00 -0.00000000000E+00  0.11368683772E-12  0.17120000000E+03  0.17120000000E+03 0.  0.
         13    1    1    2    0    0  0.27708771419E+01  0.17566517360E+02  0.15939559846E+02  0.23881813675E+02  0.10566000000E+00 0. -1.
        994    1    1    2    0    0 -0.69906795373E+01 -0.18256550885E+02  0.93482877343E+01  0.17256593445E+03  0.17120000000E+03 0.  0.
        998    1    1    2    0    0  0.42198023955E+01  0.69003352531E+00  0.14747121487E+04  0.14747522519E+04  0.10000000000E+02 0. -1.
</event>
<event>
 5    1  0.1247473E-008  0.3817182E+03  0.7957747E-01  0.3443711E+00
         13   -1    0    0    0    0  0.00000000000E+00  0.00000000000E+00  0.14999999963E+04  0.15000000000E+04  0.10566000000E+00 0.  1.
        994   -1    0    0    0    0 -0.00000000000E+00 -0.00000000000E+00  0.11368683772E-12  0.17120000000E+03  0.17120000000E+03 0.  0.
         13    1    1    2    0    0 -0.34046173242E+02 -0.20351226970E+02  0.22025182795E+03  0.22379498035E+03  0.10566000000E+00 0.  1.
        994    1    1    2    0    0  0.28581424910E+02  0.15881812221E+02  0.68302770913E+01  0.17442827321E+03  0.17120000000E+03 0.  0.
        998    1    1    2    0    0  0.54647483322E+01  0.44694147486E+01  0.12729178912E+04  0.12729767464E+04  0.10000000000E+02 0.  0.
</event>
<event>
 5    1  0.1314590E-008  0.3857821E+03  0.7957747E-01  0.3426362E+00
         13   -1    0    0    0    0  0.00000000000E+00  0.00000000000E+00  0.14999999963E+04  0.15000000000E+04  0.10566000000E+00 0.  1.
        994   -1    0    0    0    0 -0.00000000000E+00 -0.00000000000E+00  0.11368683772E-12  0.17120000000E+03  0.17120000000E+03 0.  0.
         13    1    1    2    0    0  0.10340595071E+02 -0.60314318583E+00  0.42739682077E+02  0.43977076713E+02  0.10566000000E+00 0.  1.
        994    1    1    2    0    0 -0.99919066235E+01  0.13376900117E+01  0.15757575608E+01  0.17150379187E+03  0.17120000000E+03 0.  0.
        998    1    1    2    0    0 -0.34868844792E+00 -0.73454682582E+00  0.14556845566E+04  0.14557191314E+04  0.10000000000E+02 0.  1.
</event>
<event>
 5    1  0.1247473E-008  0.3788722E+03  0.7957747E-01  0.3456084E+00
         13   -1    0    0    0    0  0.00000000000E+00  0.00000000000E+00  0.14999999963E+04  0.15000000000E+04  0.10566000000E+00 0. -1.
        994   -1    0    0    0    0 -0.00000000000E+00 -0.00000000000E+00  0.11368683772E-12  0.17120000000E+03  0.17120000000E+03 0.  0.
         13    1    1    2    0    0 -0.69429788069E+01 -0.48317581096E+02  0.21986248545E+03  0.22521615677E+03  0.10566000000E+00 0. -1.
        994    1    1    2    0    0 -0.19257725718E+02  0.51002556584E+02  0.14741693202E+02  0.18027445270E+03  0.17120000000E+03 0.  0.
        998    1    1    2    0    0  0.26200704524E+02 -0.26849754877E+01  0.12653958176E+04  0.12657093905E+04  0.10000000000E+02 0. -1.
</event>
<event>
 5    1  0.1247473E-008  0.3855458E+03  0.7957747E-01  0.3427361E+00
         13   -1    0    0    0    0  0.00000000000E+00  0.00000000000E+00  0.14999999963E+04  0.15000000000E+04  0.10566000000E+00 0. -1.
        994   -1    0    0    0    0 -0.00000000000E+00 -0.00000000000E+00  0.11368683772E-12  0.17120000000E+03  0.17120000000E+03 0.  0.
         13    1    1    2    0    0 -0.17196140141E+03  0.15269286000E+03  0.11145854613E+04  0.11380626497E+04  0.10566000000E+00 0. -1.
        994    1    1    2    0    0  0.18419524940E+03 -0.15672696693E+03  0.22541045278E+03  0.37230437049E+03  0.17120000000E+03 0.  0.
        998    1    1    2    0    0 -0.12233847989E+02  0.40341069326E+01  0.16000408221E+03  0.16083297976E+03  0.10000000000E+02 0. -1.
</event>
<event>
 5    1  0.1247473E-008  0.3834090E+03  0.7957747E-01  0.3436448E+00
         13   -1    0    0    0    0  0.00000000000E+00  0.00000000000E+00  0.14999999963E+04  0.15000000000E+04  0.10566000000E+00 0. -1.
        994   -1    0    0    0    0 -0.00000000000E+00 -0.00000000000E+00  0.11368683772E-12  0.17120000000E+03  0.17120000000E+03 0.  0.
         13    1    1    2    0    0  0.18492554062E+02  0.10752667729E+02  0.10359231080E+03  0.10577793928E+03  0.10566000000E+00 0. -1.
        994    1    1    2    0    0 -0.80182167987E+00  0.38496269689E+01  0.24732311539E+01  0.17126301241E+03  0.17120000000E+03 0.  0.
        998    1    1    2    0    0 -0.17690732382E+02 -0.14602294697E+02  0.13939344543E+04  0.13941590483E+04  0.10000000000E+02 0. -1.
</event>
<event>
 5    1  0.1247473E-008  0.3704685E+03  0.7957747E-01  0.3493741E+00
         13   -1    0    0    0    0  0.00000000000E+00  0.00000000000E+00  0.14999999963E+04  0.15000000000E+04  0.10566000000E+00 0. -1.
        994   -1    0    0    0    0 -0.00000000000E+00 -0.00000000000E+00  0.11368683772E-12  0.17120000000E+03  0.17120000000E+03 0.  0.
         13    1    1    2    0    0  0.12597811297E+02  0.45824049586E+02  0.88956158768E+02  0.10085513233E+03  0.10566000000E+00 0. -1.
        994    1    1    2    0    0 -0.23236171107E+02 -0.51854195915E+02  0.22580136375E+02  0.18179130848E+03  0.17120000000E+03 0.  0.
        998    1    1    2    0    0  0.10638359810E+02  0.60301463290E+01  0.13884637011E+04  0.13885535592E+04  0.10000000000E+02 0. -1.
</event>
<event>
 5    1  0.1247473E-008  0.3853684E+03  0.7957747E-01  0.3428111E+00
         13   -1    0    0    0    0  0.00000000000E+00  0.00000000000E+00  0.14999999963E+04  0.15000000000E+04  0.10566000000E+00 0. -1.
        994   -1    0    0    0    0 -0.00000000000E+00 -0.00000000000E+00  0.11368683772E-12  0.17120000000E+03  0.17120000000E+03 0.  0.
         13    1    1    2    0    0  0.11464341030E+02  0.12013748150E+02  0.89424566017E+02  0.90953424517E+02  0.10566000000E+00 0. -1.
        994    1    1    2    0    0 -0.13505017927E+02 -0.13822042706E+02  0.26749587604E+01  0.17230795042E+03  0.17120000000E+03 0.  0.
        998    1    1    2    0    0  0.20406768969E+01  0.18082945552E+01  0.14079004715E+04  0.14079386251E+04  0.10000000000E+02 0. -1.
</event>
<event>
 5    1  0.1247473E-008  0.3756931E+03  0.7957747E-01  0.3470129E+00
         13   -1    0    0    0    0  0.00000000000E+00  0.00000000000E+00  0.14999999963E+04  0.15000000000E+04  0.10566000000E+00 0. -1.
        994   -1    0    0    0    0 -0.00000000000E+00 -0.00000000000E+00  0.11368683772E-12  0.17120000000E+03  0.17120000000E+03 0.  0.
         13    1    1    2    0    0  0.18152935301E+02  0.32123176663E+02  0.10373359931E+03  0.11010040113E+03  0.10566000000E+00 0. -1.
        994    1    1    2    0    0 -0.19268353215E+02 -0.19177775300E+02  0.88336299013E+01  0.17356995569E+03  0.17120000000E+03 0.  0.
        998    1    1    2    0    0  0.11154179141E+01 -0.12945401363E+02  0.13874327671E+04  0.13875296432E+04  0.10000000000E+02 0. -1.
</event>
<event>
 5    1  0.1247473E-008  0.3806872E+03  0.7957747E-01  0.3448172E+00
         13   -1    0    0    0    0  0.00000000000E+00  0.00000000000E+00  0.14999999963E+04  0.15000000000E+04  0.10566000000E+00 0.  1.
        994   -1    0    0    0    0 -0.00000000000E+00 -0.00000000000E+00  0.11368683772E-12  0.17120000000E+03  0.17120000000E+03 0.  0.
         13    1    1    2    0    0  0.37610030715E+01  0.24900650740E+02  0.89559881109E+02  0.93033171609E+02  0.10566000000E+00 0.  1.
        994    1    1    2    0    0  0.78137300131E+01 -0.63394229287E+00  0.39916550482E+01  0.17142587194E+03  0.17120000000E+03 0.  0.
        998    1    1    2    0    0 -0.11574733085E+02 -0.24266708447E+02  0.14064484601E+04  0.14067409565E+04  0.10000000000E+02 0.  1.
</event>
<event>
 5    1  0.1247473E-008  0.3837051E+03  0.7957747E-01  0.3435183E+00
         13   -1    0    0    0    0  0.00000000000E+00  0.00000000000E+00  0.14999999963E+04  0.15000000000E+04  0.10566000000E+00 0. -1.
        994   -1    0    0    0    0 -0.00000000000E+00 -0.00000000000E+00  0.11368683772E-12  0.17120000000E+03  0.17120000000E+03 0.  0.
         13    1    1    2    0    0 -0.16479945105E+02 -0.51964514906E+01  0.64649397456E+02  0.66918961843E+02  0.10566000000E+00 0. -1.
        994    1    1    2    0    0  0.10920589189E+02  0.70427024582E+01  0.28322541053E+01  0.17171581345E+03  0.17120000000E+03 0.  0.
        998    1    1    2    0    0  0.55593559159E+01 -0.18462509676E+01  0.14325183447E+04  0.14325652247E+04  0.10000000000E+02 0. -1.
</event>
<event>
 5    1  0.1247473E-008  0.3809936E+03  0.7957747E-01  0.3446844E+00
         13   -1    0    0    0    0  0.00000000000E+00  0.00000000000E+00  0.14999999963E+04  0.15000000000E+04  0.10566000000E+00 0. -1.
        994   -1    0    0    0    0 -0.00000000000E+00 -0.00000000000E+00  0.11368683772E-12  0.17120000000E+03  0.17120000000E+03 0.  0.
         13    1    1    2    0    0 -0.22251271027E+02  0.41945745616E+02  0.26689944149E+03  0.27109018365E+03  0.10566000000E+00 0. -1.
        994    1    1    2    0    0  0.21143619628E+02 -0.37879332994E+02  0.99284174686E+01  0.17688954178E+03  0.17120000000E+03 0.  0.
        998    1    1    2    0    0  0.11076513989E+01 -0.40664126216E+01  0.12231721373E+04  0.12232202746E+04  0.10000000000E+02 0.  0.
</event>
<event>
 5    1  0.1247473E-008  0.3809107E+03  0.7957747E-01  0.3447203E+00
         13   -1    0    0    0    0  0.00000000000E+00  0.00000000000E+00  0.14999999963E+04  0.15000000000E+04  0.10566000000E+00 0.  1.
        994   -1    0    0    0    0 -0.00000000000E+00 -0.00000000000E+00  0.11368683772E-12  0.17120000000E+03  0.17120000000E+03 0.  0.
         13    1    1    2    0    0  0.10835405592E+02  0.16299289340E+02  0.49069902400E+02  0.52829341591E+02  0.10566000000E+00 0.  1.
        994    1    1    2    0    0 -0.15643895390E+02 -0.15657728692E+02  0.53086097581E+01  0.17270644825E+03  0.17120000000E+03 0.  0.
        998    1    1    2    0    0  0.48084897981E+01 -0.64156064790E+00  0.14456214841E+04  0.14456642102E+04  0.10000000000E+02 0.  1.
</event>
<event>
 5    1  0.1247473E-008  0.3815239E+03  0.7957747E-01  0.3444550E+00
         13   -1    0    0    0    0  0.00000000000E+00  0.00000000000E+00  0.14999999963E+04  0.15000000000E+04  0.10566000000E+00 0.  1.
        994   -1    0    0    0    0 -0.00000000000E+00 -0.00000000000E+00  0.11368683772E-12  0.17120000000E+03  0.17120000000E+03 0.  0.
         13    1    1    2    0    0 -0.44330146239E+01 -0.17770303062E+02  0.51501149220E+02  0.54660907645E+02  0.10566000000E+00 0.  1.
        994    1    1    2    0    0 -0.45148711162E+01 -0.68404474033E+00  0.34352212239E+01  0.17129533772E+03  0.17120000000E+03 0.  0.
        998    1    1    2    0    0  0.89478857401E+01  0.18454347802E+02  0.14450636258E+04  0.14452437546E+04  0.10000000000E+02 0.  1.
</event>
<event>
 5    1  0.1356668E-008  0.3853009E+03  0.7957747E-01  0.3428397E+00
         13   -1    0    0    0    0  0.00000000000E+00  0.00000000000E+00  0.14999999963E+04  0.15000000000E+04  0.10566000000E+00 0.  1.
        994   -1    0    0    0    0 -0.00000000000E+00 -0.00000000000E+00  0.11368683772E-12  0.17120000000E+03  0.17120000000E+03 0.  0.
         13    1    1    2    0    0 -0.10377217458E+00 -0.10197935979E+02  0.35008025759E+02  0.36463429604E+02  0.10566000000E+00 0.  1.
        994    1    1    2    0    0  0.29026405621E+01  0.72895920853E+01  0.16831057730E+01  0.17138797017E+03  0.17120000000E+03 0.  0.
        998    1    1    2    0    0 -0.27988683875E+01  0.29083438939E+01  0.14633088647E+04  0.14633486002E+04  0.10000000000E+02 0.  1.
</event>
<event>
 5    1  0.1247473E-008  0.3184193E+03  0.7957747E-01  0.3772707E+00
         13   -1    0    0    0    0  0.00000000000E+00  0.00000000000E+00  0.14999999963E+04  0.15000000000E+04  0.10566000000E+00 0. -1.
        994   -1    0    0    0    0 -0.00000000000E+00 -0.00000000000E+00  0.11368683772E-12  0.17120000000E+03  0.17120000000E+03 0.  0.
         13    1    1    2    0    0  0.75382183149E+02  0.14001384692E+03  0.89763128925E+03  0.91160753259E+03  0.10566000000E+00 0. -1.
        994    1    1    2    0    0 -0.93702244320E+02 -0.73813321710E+02  0.66139027386E+02  0.21888884850E+03  0.17120000000E+03 0.  0.
        998    1    1    2    0    0  0.18320061172E+02 -0.66200525210E+02  0.53622967964E+03  0.54070361892E+03  0.10000000000E+02 0. -1.
</event>
<event>
 5    1  0.1247473E-008  0.3961158E+03  0.7957747E-01  0.3383855E+00
         13   -1    0    0    0    0  0.00000000000E+00  0.00000000000E+00  0.14999999963E+04  0.15000000000E+04  0.10566000000E+00 0.  1.
        994   -1    0    0    0    0 -0.00000000000E+00 -0.00000000000E+00  0.11368683772E-12  0.17120000000E+03  0.17120000000E+03 0.  0.
         13    1    1    2    0    0 -0.10780470517E+02 -0.15636907172E+02 -0.42061578608E+01  0.19453388868E+02  0.10566000000E+00 0.  1.
        994    1    1    2    0    0  0.98177167299E+01  0.12811255106E+02  0.26482884371E+02  0.17398649081E+03  0.17120000000E+03 0.  0.
        998    1    1    2    0    0  0.96275378687E+00  0.28256520656E+01  0.14777232698E+04  0.14777601203E+04  0.10000000000E+02 0.  1.
</event>
<event>
 5    1  0.1247473E-008  0.3799432E+03  0.7957747E-01  0.3451406E+00
         13   -1    0    0    0    0  0.00000000000E+00  0.00000000000E+00  0.14999999963E+04  0.15000000000E+04  0.10566000000E+00 0. -1.
        994   -1    0    0    0    0 -0.00000000000E+00 -0.00000000000E+00  0.11368683772E-12  0.17120000000E+03  0.17120000000E+03 0.  0.
         13    1    1    2    0    0 -0.42374327689E+02 -0.18971905852E+01  0.16676839961E+03  0.17207816030E+03  0.10566000000E+00 0. -1.
        994    1    1    2    0    0  0.65296299297E+02 -0.18032254138E+02  0.19660325039E+02  0.18516138170E+03  0.17120000000E+03 0.  0.
        998    1    1    2    0    0 -0.22921971608E+02  0.19929444724E+02  0.13135712716E+04  0.13139604580E+04  0.10000000000E+02 0. -1.
</event>
<event>
 5    1  0.1247473E-008  0.3752407E+03  0.7957747E-01  0.3472147E+00
         13   -1    0    0    0    0  0.00000000000E+00  0.00000000000E+00  0.14999999963E+04  0.15000000000E+04  0.10566000000E+00 0.  1.
        994   -1    0    0    0    0 -0.00000000000E+00 -0.00000000000E+00  0.11368683772E-12  0.17120000000E+03  0.17120000000E+03 0.  0.
         13    1    1    2    0    0 -0.44752500658E+02  0.37717455196E+01  0.15815563494E+03  0.16440872364E+03  0.10566000000E+00 0.  1.
        994    1    1    2    0    0  0.17506903571E+02 -0.15623530868E+02  0.84274774193E+01  0.17300592119E+03  0.17120000000E+03 0.  0.
        998    1    1    2    0    0  0.27245597086E+02  0.11851785348E+02  0.13334168839E+04  0.13337853552E+04  0.10000000000E+02 0.  1.
</event>
<event>
 5    1  0.1247473E-008  0.3852696E+03  0.7957747E-01  0.3428530E+00
         13   -1    0    0    0    0  0.00000000000E+00  0.00000000000E+00  0.14999999963E+04  0.15000000000E+04  0.10566000000E+00 0. -1.
        994   -1    0    0    0    0 -0.00000000000E+00 -0.00000000000E+00  0.11368683772E-12  0.17120000000E+03  0.17120000000E+03 0.  0.
         13    1    1    2    0    0  0.65287265963E+01 -0.87141747111E+01  0.41433456555E+02  0.42840443485E+02  0.10566000000E+00 0. -1.
        994    1    1    2    0    0  0.45191340770E+01  0.21060479918E+01  0.15780226838E+01  0.17127985336E+03  0.17120000000E+03 0.  0.
        998    1    1    2    0    0 -0.11047860673E+02  0.66081267193E+01  0.14569885170E+04  0.14570797032E+04  0.10000000000E+02 0. -1.
</event>
<event>
 5    1  0.1247473E-008  0.3898323E+03  0.7957747E-01  0.3409433E+00
         13   -1    0    0    0    0  0.00000000000E+00  0.00000000000E+00  0.14999999963E+04  0.15000000000E+04  0.10566000000E+00 0.  1.
        994   -1    0    0    0    0 -0.00000000000E+00 -0.00000000000E+00  0.11368683772E-12  0.17120000000E+03  0.17120000000E+03 0.  0.
         13    1    1    2    0    0  0.36032607136E+02  0.11548860793E+03  0.26108958279E+03  0.28775640522E+03  0.10566000000E+00 0.  1.
        994    1    1    2    0    0 -0.31794809793E+02 -0.12071755847E+03  0.83136119291E+02  0.22760644363E+03  0.17120000000E+03 0.  0.
        998    1    1    2    0    0 -0.42377973426E+01  0.52289505364E+01  0.11557742942E+04  0.11558371511E+04  0.10000000000E+02 0.  1.
</event>
<event>
 5    1  0.1247473E-008  0.3820573E+03  0.7957747E-01  0.3442249E+00
         13   -1    0    0    0    0  0.00000000000E+00  0.00000000000E+00  0.14999999963E+04  0.15000000000E+04  0.10566000000E+00 0. -1.
        994   -1    0    0    0    0 -0.00000000000E+00 -0.00000000000E+00  0.11368683772E-12  0.17120000000E+03  0.17120000000E+03 0.  0.
         13    1    1    2    0    0  0.71782080476E+01  0.26705721848E+02  0.11293558861E+03  0.11627201120E+03  0.10566000000E+00 0. -1.
        994    1    1    2    0    0 -0.83642104843E+01 -0.28691882944E+02  0.60695399599E+01  0.17389497830E+03  0.17120000000E+03 0.  0.
        998    1    1    2    0    0  0.11860024367E+01  0.19861610959E+01  0.13809948677E+04  0.13810330105E+04  0.10000000000E+02 0. -1.
</event>
<event>
 5    1  0.1247473E-008  0.3781856E+03  0.7957747E-01  0.3459097E+00
         13   -1    0    0    0    0  0.00000000000E+00  0.00000000000E+00  0.14999999963E+04  0.15000000000E+04  0.10566000000E+00 0. -1.
        994   -1    0    0    0    0 -0.00000000000E+00 -0.00000000000E+00  0.11368683772E-12  0.17120000000E+03  0.17120000000E+03 0.  0.
         13    1    1    2    0    0 -0.42554079270E+01 -0.13736494757E+02  0.18235415811E+02  0.23223723617E+02  0.10566000000E+00 0. -1.
        994    1    1    2    0    0  0.24243570447E+01  0.11505216305E+02  0.55169405649E+01  0.17169194548E+03  0.17120000000E+03 0.  0.
        998    1    1    2    0    0  0.18310508823E+01  0.22312784526E+01  0.14762476399E+04  0.14762843309E+04  0.10000000000E+02 0. -1.
</event>
<event>
 5    1  0.1247473E-008  0.3834408E+03  0.7957747E-01  0.3436312E+00
         13   -1    0    0    0    0  0.00000000000E+00  0.00000000000E+00  0.14999999963E+04  0.15000000000E+04  0.10566000000E+00 0.  1.
        994   -1    0    0    0    0 -0.00000000000E+00 -0.00000000000E+00  0.11368683772E-12  0.17120000000E+03  0.17120000000E+03 0.  0.
         13    1    1    2    0    0  0.44220128717E+00  0.23623559033E+02  0.12480508602E+03  0.12702200103E+03  0.10566000000E+00 0.  1.
        994    1    1    2    0    0 -0.53955600299E+01 -0.38792168126E+01  0.25521979916E+01  0.17134793289E+03  0.17120000000E+03 0.  0.
        998    1    1    2    0    0  0.49533587427E+01 -0.19744342221E+02  0.13726427123E+04  0.13728300661E+04  0.10000000000E+02 0.  1.
</event>
<event>
 5    1  0.1247473E-008  0.3846756E+03  0.7957747E-01  0.3431049E+00
         13   -1    0    0    0    0  0.00000000000E+00  0.00000000000E+00  0.14999999963E+04  0.15000000000E+04  0.10566000000E+00 0.  1.
        994   -1    0    0    0    0 -0.00000000000E+00 -0.00000000000E+00  0.11368683772E-12  0.17120000000E+03  0.17120000000E+03 0.  0.
         13    1    1    2    0    0  0.98143978404E+01 -0.56822161109E+01  0.34583115886E+02  0.36395233937E+02  0.10566000000E+00 0.  1.
        994    1    1    2    0    0 -0.11141907902E+02  0.88735163768E+01  0.24594847886E+01  0.17180911056E+03  0.17120000000E+03 0.  0.
        998    1    1    2    0    0  0.13275100620E+01 -0.31913002659E+01  0.14629573956E+04  0.14629956555E+04  0.10000000000E+02 0.  1.
</event>
<event>
 5    1  0.1247473E-008  0.3761095E+03  0.7957747E-01  0.3468275E+00
         13   -1    0    0    0    0  0.00000000000E+00  0.00000000000E+00  0.14999999963E+04  0.15000000000E+04  0.10566000000E+00 0. -1.
        994   -1    0    0    0    0 -0.00000000000E+00 -0.00000000000E+00  0.11368683772E-12  0.17120000000E+03  0.17120000000E+03 0.  0.
         13    1    1    2    0    0  0.19421164156E+02  0.15416097097E+02  0.15335039979E+02  0.29154970109E+02  0.10566000000E+00 0. -1.
        994    1    1    2    0    0 -0.16304289590E+02 -0.20196205417E+02  0.16617029406E+02  0.17395195382E+03  0.17120000000E+03 0.  0.
        998    1    1    2    0    0 -0.31168745665E+01  0.47801083202E+01  0.14680479269E+04  0.14680930761E+04  0.10000000000E+02 0. -1.
</event>
<event>
 5    1  0.1247473E-008  0.3884411E+03  0.7957747E-01  0.3415208E+00
         13   -1    0    0    0    0  0.00000000000E+00  0.00000000000E+00  0.14999999963E+04  0.15000000000E+04  0.10566000000E+00 0. -1.
        994   -1    0    0    0    0 -0.00000000000E+00 -0.00000000000E+00  0.11368683772E-12  0.17120000000E+03  0.17120000000E+03 0.  0.
         13    1    1    2    0    0  0.87392778273E+02 -0.28390878926E+02  0.19493423960E+03  0.21550616843E+03  0.10566000000E+00 0. -1.
        994    1    1    2    0    0 -0.53979919500E+02  0.21892780690E+02  0.33845339023E+02  0.18397845670E+03  0.17120000000E+03 0.  0.
        998    1    1    2    0    0 -0.33412858773E+02  0.64980982362E+01  0.12712204177E+04  0.12717153749E+04  0.10000000000E+02 0. -1.
</event>
<event>
 5    1  0.1247473E-008  0.3834881E+03  0.7957747E-01  0.3436110E+00
         13   -1    0    0    0    0  0.00000000000E+00  0.00000000000E+00  0.14999999963E+04  0.15000000000E+04  0.10566000000E+00 0. -1.
        994   -1    0    0    0    0 -0.00000000000E+00 -0.00000000000E+00  0.11368683772E-12  0.17120000000E+03  0.17120000000E+03 0.  0.
         13    1    1    2    0    0  0.15293880403E+02 -0.90598852296E+01  0.70660463199E+02  0.72862174835E+02  0.10566000000E+00 0. -1.
        994    1    1    2    0    0  0.66098701243E+01  0.84507900842E+01  0.27631265711E+01  0.17155809834E+03  0.17120000000E+03 0.  0.
        998    1    1    2    0    0 -0.21903750528E+02  0.60909514538E+00  0.14265764065E+04  0.14267797268E+04  0.10000000000E+02 0. -1.
</event>
<event>
 5    1  0.1247473E-008  0.3726855E+03  0.7957747E-01  0.3483639E+00
         13   -1    0    0    0    0  0.00000000000E+00  0.00000000000E+00  0.14999999963E+04  0.15000000000E+04  0.10566000000E+00 0.  1.
        994   -1    0    0    0    0 -0.00000000000E+00 -0.00000000000E+00  0.11368683772E-12  0.17120000000E+03  0.17120000000E+03 0.  0.
         13    1    1    2    0    0  0.93034256157E+02  0.10876237772E+03  0.76161526015E+03  0.77494673577E+03  0.10566000000E+00 0.  1.
        994    1    1    2    0    0 -0.76312682740E+02 -0.10238263609E+03  0.65980830315E+02  0.22353688664E+03  0.17120000000E+03 0.  0.
        998    1    1    2    0    0 -0.16721573416E+02 -0.63797416294E+01  0.67240390581E+03  0.67271637758E+03  0.10000000000E+02 0.  1.
</event>
<event>
 5    1  0.1247473E-008  0.3783612E+03  0.7957747E-01  0.3458325E+00
         13   -1    0    0    0    0  0.00000000000E+00  0.00000000000E+00  0.14999999963E+04  0.15000000000E+04  0.10566000000E+00 0. -1.
        994   -1    0    0    0    0 -0.00000000000E+00 -0.00000000000E+00  0.11368683772E-12  0.17120000000E+03  0.17120000000E+03 0.  0.
         13    1    1    2    0    0  0.80599020717E+01 -0.57492330853E+02  0.25161204358E+03  0.25822269800E+03  0.10566000000E+00 0. -1.
        994    1    1    2    0    0 -0.25829651944E+02  0.70323163557E+02  0.24064958470E+02  0.18841730408E+03  0.17120000000E+03 0.  0.
        998    1    1    2    0    0  0.17769749872E+02 -0.12830832704E+02  0.12243229942E+04  0.12245599979E+04  0.10000000000E+02 0. -1.
</event>
<event>
 5    1  0.1247473E-008  0.3844479E+03  0.7957747E-01  0.3432017E+00
         13   -1    0    0    0    0  0.00000000000E+00  0.00000000000E+00  0.14999999963E+04  0.15000000000E+04  0.10566000000E+00 0. -1.
        994   -1    0    0    0    0 -0.00000000000E+00 -0.00000000000E+00  0.11368683772E-12  0.17120000000E+03  0.17120000000E+03 0.  0.
         13    1    1    2    0    0  0.33522698485E+01 -0.12508553145E+02  0.46468766611E+02  0.48239600426E+02  0.10566000000E+00 0. -1.
        994    1    1    2    0    0 -0.28565154933E+01 -0.43246016062E+01  0.19929885648E+01  0.17129002850E+03  0.17120000000E+03 0.  0.
        998    1    1    2    0    0 -0.49575435523E+00  0.16833154751E+02  0.14515382411E+04  0.14516703711E+04  0.10000000000E+02 0. -1.
</event>
<event>
 5    1  0.1247473E-008  0.3841246E+03  0.7957747E-01  0.3433393E+00
         13   -1    0    0    0    0  0.00000000000E+00  0.00000000000E+00  0.14999999963E+04  0.15000000000E+04  0.10566000000E+00 0. -1.
        994   -1    0    0    0    0 -0.00000000000E+00 -0.00000000000E+00  0.11368683772E-12  0.17120000000E+03  0.17120000000E+03 0.  0.
         13    1    1    2    0    0 -0.92182512682E+01 -0.53168042383E+01  0.26838488686E+02  0.28871442686E+02  0.10566000000E+00 0. -1.
        994    1    1    2    0    0  0.34235339835E+01  0.86415734914E+01  0.23503696675E+01  0.17146825250E+03  0.17120000000E+03 0.  0.
        998    1    1    2    0    0  0.57947172847E+01 -0.33247692531E+01  0.14708111379E+04  0.14708603048E+04  0.10000000000E+02 0. -1.
</event>
<event>
 5    1  0.1247473E-008  0.3852360E+03  0.7957747E-01  0.3428672E+00
         13   -1    0    0    0    0  0.00000000000E+00  0.00000000000E+00  0.14999999963E+04  0.15000000000E+04  0.10566000000E+00 0.  1.
        994   -1    0    0    0    0 -0.00000000000E+00 -0.00000000000E+00  0.11368683772E-12  0.17120000000E+03  0.17120000000E+03 0.  0.
         13    1    1    2    0    0 -0.91125111113E+01  0.77504237293E+01  0.50591064529E+02  0.51986285701E+02  0.10566000000E+00 0.  1.
        994    1    1    2    0    0 -0.47566632543E+00  0.44836245616E+01  0.15798330089E+01  0.17126664888E+03  0.17120000000E+03 0.  0.
        998    1    1    2    0    0  0.95881774368E+01 -0.12234048291E+02  0.14478290987E+04  0.14479470654E+04  0.10000000000E+02 0.  1.
</event>
<event>
 5    1  0.1247473E-008  0.3849794E+03  0.7957747E-01  0.3429760E+00
         13   -1    0    0    0    0  0.00000000000E+00  0.00000000000E+00  0.14999999963E+04  0.15000000000E+04  0.10566000000E+00 0. -1.
        994   -1    0    0    0    0 -0.00000000000E+00 -0.00000000000E+00  0.11368683772E-12  0.17120000000E+03  0.17120000000E+03 0.  0.
         13    1    1    2    0    0  0.83439630631E+01 -0.20511747575E+02  0.12934340722E+03  0.13122530878E+03  0.10566000000E+00 0. -1.
        994    1    1    2    0    0 -0.12891717654E+02  0.27503003011E+02  0.46806161879E+01  0.17393665435E+03  0.17120000000E+03 0.  0.
        998    1    1    2    0    0  0.45477545905E+01 -0.69912554360E+01  0.13659759729E+04  0.13660380369E+04  0.10000000000E+02 0. -1.
</event>
<event>
 5    1  0.1320689E-008  0.3819771E+03  0.7957747E-01  0.3442595E+00
         13   -1    0    0    0    0  0.00000000000E+00  0.00000000000E+00  0.14999999963E+04  0.15000000000E+04  0.10566000000E+00 0. -1.
        994   -1    0    0    0    0 -0.00000000000E+00 -0.00000000000E+00  0.11368683772E-12  0.17120000000E+03  0.17120000000E+03 0.  0.
         13    1    1    2    0    0 -0.10708369771E+02  0.12149102354E+01  0.17097337945E+02  0.20210772347E+02  0.10566000000E+00 0. -1.
        994    1    1    2    0    0  0.10575839783E+02  0.21655099678E-01  0.35100105952E+01  0.17156225992E+03  0.17120000000E+03 0.  0.
        998    1    1    2    0    0  0.13252998801E+00 -0.12365653351E+01  0.14793926477E+04  0.14794269677E+04  0.10000000000E+02 0. -1.
</event>
<event>
 5    1  0.1247473E-008  0.3847205E+03  0.7957747E-01  0.3430858E+00
         13   -1    0    0    0    0  0.00000000000E+00  0.00000000000E+00  0.14999999963E+04  0.15000000000E+04  0.10566000000E+00 0.  1.
        994   -1    0    0    0    0 -0.00000000000E+00 -0.00000000000E+00  0.11368683772E-12  0.17120000000E+03  0.17120000000E+03 0.  0.
         13    1    1    2    0    0  0.48373202028E+01  0.93102924386E+01  0.31833680978E+02  0.33518287854E+02  0.10566000000E+00 0.  1.
        994    1    1    2    0    0 -0.70725892687E+01  0.41970152075E+01  0.19916183032E+01  0.17140899334E+03  0.17120000000E+03 0.  0.
        998    1    1    2    0    0  0.22352690659E+01 -0.13507307646E+02  0.14661746970E+04  0.14662727188E+04  0.10000000000E+02 0.  1.
</event>
<event>
 5    1  0.1247473E-008  0.3856587E+03  0.7957747E-01  0.3426884E+00
         13   -1    0    0    0    0  0.00000000000E+00  0.00000000000E+00  0.14999999963E+04  0.15000000000E+04  0.10566000000E+00 0.  1.
        994   -1    0    0    0    0 -0.00000000000E+00 -0.00000000000E+00  0.11368683772E-12  0.17120000000E+03  0.17120000000E+03 0.  0.
         13    1    1    2    0    0  0.13120396688E+02 -0.41067402149E+00  0.63962194254E+02  0.65295382074E+02  0.10566000000E+00 0.  1.
        994    1    1    2    0    0 -0.14517283240E+02 -0.19618623051E+01  0.20080368885E+01  0.17183734352E+03  0.17120000000E+03 0.  0.
        998    1    1    2    0    0  0.13968865517E+01  0.23725363266E+01  0.14340297651E+04  0.14340672744E+04  0.10000000000E+02 0.  1.
</event>
<event>
 5    1  0.1247473E-008  0.3856356E+03  0.7957747E-01  0.3426981E+00
         13   -1    0    0    0    0  0.00000000000E+00  0.00000000000E+00  0.14999999963E+04  0.15000000000E+04  0.10566000000E+00 0.  1.
        994   -1    0    0    0    0 -0.00000000000E+00 -0.00000000000E+00  0.11368683772E-12  0.17120000000E+03  0.17120000000E+03 0.  0.
         13    1    1    2    0    0  0.36095617158E+01 -0.12389923231E+02  0.61961508421E+02  0.63291222325E+02  0.10566000000E+00 0.  1.
        994    1    1    2    0    0  0.23217318953E+00  0.13370325017E+02  0.19019902659E+01  0.17173199196E+03  0.17120000000E+03 0.  0.
        998    1    1    2    0    0 -0.38417349054E+01 -0.98040178600E+00  0.14361364976E+04  0.14361767857E+04  0.10000000000E+02 0.  1.
</event>
<event>
 5    1  0.1247473E-008  0.3859183E+03  0.7957747E-01  0.3425787E+00
         13   -1    0    0    0    0  0.00000000000E+00  0.00000000000E+00  0.14999999963E+04  0.15000000000E+04  0.10566000000E+00 0.  1.
        994   -1    0    0    0    0 -0.00000000000E+00 -0.00000000000E+00  0.11368683772E-12  0.17120000000E+03  0.17120000000E+03 0.  0.
         13    1    1    2    0    0 -0.20236725236E+03 -0.26339948063E+01  0.11990145202E+04  0.12159750300E+04  0.10566000000E+00 0.  1.
        994    1    1    2    0    0  0.20873126890E+03  0.28159066295E+01  0.16017062050E+03  0.31391199343E+03  0.17120000000E+03 0.  0.
        998    1    1    2    0    0 -0.63640165332E+01 -0.18191182314E+00  0.14081485560E+03  0.14131297660E+03  0.10000000000E+02 0. -1.
</event>
<event>
 5    1  0.1247473E-008  0.3839033E+03  0.7957747E-01  0.3434337E+00
         13   -1    0    0    0    0  0.00000000000E+00  0.00000000000E+00  0.14999999963E+04  0.15000000000E+04  0.10566000000E+00 0.  1.
        994   -1    0    0    0    0 -0.00000000000E+00 -0.00000000000E+00  0.11368683772E-12  0.17120000000E+03  0.17120000000E+03 0.  0.
         13    1    1    2    0    0  0.33373412715E+01  0.16865779164E+02  0.68091145946E+02  0.70228254099E+02  0.10566000000E+00 0.  1.
        994    1    1    2    0    0 -0.89325943372E+01 -0.80122505122E+01  0.26509409328E+01  0.17164048149E+03  0.17120000000E+03 0.  0.
        998    1    1    2    0    0  0.55952530657E+01 -0.88535286520E+01  0.14292579094E+04  0.14293312644E+04  0.10000000000E+02 0.  1.
</event>
<event>
 5    1  0.1247473E-008  0.3832649E+03  0.7957747E-01  0.3437064E+00
         13   -1    0    0    0    0  0.00000000000E+00  0.00000000000E+00  0.14999999963E+04  0.15000000000E+04  0.10566000000E+00 0. -1.
        994   -1    0    0    0    0 -0.00000000000E+00 -0.00000000000E+00  0.11368683772E-12  0.17120000000E+03  0.17120000000E+03 0.  0.
         13    1    1    2    0    0 -0.50554181393E+01 -0.25993781863E+02  0.14850241472E+03  0.15084499425E+03  0.10566000000E+00 0. -1.
        994    1    1    2    0    0  0.46137156483E+00  0.85256793671E+01  0.27351756365E+01  0.17143459761E+03  0.17120000000E+03 0.  0.
        998    1    1    2    0    0  0.45940465745E+01  0.17468102496E+02  0.13487624059E+04  0.13489204081E+04  0.10000000000E+02 0. -1.
</event>
<event>
 5    1  0.1247473E-008  0.3737667E+03  0.7957747E-01  0.3478757E+00
         13   -1    0    0    0    0  0.00000000000E+00  0.00000000000E+00  0.14999999963E+04  0.15000000000E+04  0.10566000000E+00 0. -1.
        994   -1    0    0    0    0 -0.00000000000E+00 -0.00000000000E+00  0.11368683772E-12  0.17120000000E+03  0.17120000000E+03 0.  0.
         13    1    1    2    0    0  0.13092018722E+02  0.32638854568E+02  0.96520742524E+02  0.10272760429E+03  0.10566000000E+00 0. -1.
        994    1    1    2    0    0 -0.14142410753E+02  0.25480982734E+02  0.10217835595E+02  0.17396302029E+03  0.17120000000E+03 0.  0.
        998    1    1    2    0    0  0.10503920309E+01 -0.58119837302E+02  0.13932614182E+04  0.13945093754E+04  0.10000000000E+02 0. -1.
</event>
<event>
 5    1  0.1247473E-008  0.3787079E+03  0.7957747E-01  0.3456804E+00
         13   -1    0    0    0    0  0.00000000000E+00  0.00000000000E+00  0.14999999963E+04  0.15000000000E+04  0.10566000000E+00 0. -1.
        994   -1    0    0    0    0 -0.00000000000E+00 -0.00000000000E+00  0.11368683772E-12  0.17120000000E+03  0.17120000000E+03 0.  0.
         13    1    1    2    0    0  0.36897743640E+02 -0.12376230371E+02  0.19770949345E+03  0.20150352237E+03  0.10566000000E+00 0. -1.
        994    1    1    2    0    0  0.91595945000E+01 -0.41055523541E+01  0.51251544255E+01  0.17157057131E+03  0.17120000000E+03 0.  0.
        998    1    1    2    0    0 -0.46057338140E+02  0.16481782726E+02  0.12971653484E+04  0.12981259063E+04  0.10000000000E+02 0. -1.
</event>
<event>
 5    1  0.1247473E-008  0.3763034E+03  0.7957747E-01  0.3467414E+00
         13   -1    0    0    0    0  0.00000000000E+00  0.00000000000E+00  0.14999999963E+04  0.15000000000E+04  0.10566000000E+00 0. -1.
        994   -1    0    0    0    0 -0.00000000000E+00 -0.00000000000E+00  0.11368683772E-12  0.17120000000E+03  0.17120000000E+03 0.  0.
         13    1    1    2    0    0 -0.96404422360E+01  0.81123157510E+01  0.10470873836E+02  0.16382861663E+02  0.10566000000E+00 0. -1.
        994    1    1    2    0    0  0.16070849516E+02  0.24166906811E+01  0.69052442217E+01  0.17210820723E+03  0.17120000000E+03 0.  0.
        998    1    1    2    0    0 -0.64304072798E+01 -0.10529006432E+02  0.14826238782E+04  0.14827089311E+04  0.10000000000E+02 0. -1.
</event>
<event>
 5    1  0.1247473E-008  0.3765534E+03  0.7957747E-01  0.3466304E+00
         13   -1    0    0    0    0  0.00000000000E+00  0.00000000000E+00  0.14999999963E+04  0.15000000000E+04  0.10566000000E+00 0.  1.
        994   -1    0    0    0    0 -0.00000000000E+00 -0.00000000000E+00  0.11368683772E-12  0.17120000000E+03  0.17120000000E+03 0.  0.
         13    1    1    2    0    0  0.16256988267E+02 -0.10202274041E+02  0.28298574050E+02  0.34193515766E+02  0.10566000000E+00 0.  1.
        994    1    1    2    0    0 -0.16641529397E+02  0.12305484681E+02  0.73330140536E+01  0.17260237121E+03  0.17120000000E+03 0.  0.
        998    1    1    2    0    0  0.38454113059E+00 -0.21032106394E+01  0.14643684082E+04  0.14644041130E+04  0.10000000000E+02 0.  0.
</event>
<event>
 5    1  0.1247473E-008  0.3772589E+03  0.7957747E-01  0.3463181E+00
         13   -1    0    0    0    0  0.00000000000E+00  0.00000000000E+00  0.14999999963E+04  0.15000000000E+04  0.10566000000E+00 0.  1.
        994   -1    0    0    0    0 -0.00000000000E+00 -0.00000000000E+00  0.11368683772E-12  0.17120000000E+03  0.17120000000E+03 0.  0.
         13    1    1    2    0    0 -0.43985784358E+02 -0.23441016441E+02  0.76740554718E+02  0.91506034664E+02  0.10566000000E+00 0.  1.
        994    1    1    2    0    0  0.37521289929E+02  0.17926446740E+02  0.21058898975E+02  0.17743202055E+03  0.17120000000E+03 0.  0.
        998    1    1    2    0    0  0.64644944295E+01  0.55145697012E+01  0.14022005426E+04  0.14022619448E+04  0.10000000000E+02 0.  1.
</event>
<event>
 5    1  0.1247473E-008  0.3820674E+03  0.7957747E-01  0.3442206E+00
         13   -1    0    0    0    0  0.00000000000E+00  0.00000000000E+00  0.14999999963E+04  0.15000000000E+04  0.10566000000E+00 0.  1.
        994   -1    0    0    0    0 -0.00000000000E+00 -0.00000000000E+00  0.11368683772E-12  0.17120000000E+03  0.17120000000E+03 0.  0.
         13    1    1    2    0    0 -0.95787244329E+01  0.58021538439E+01  0.19117076520E+02  0.22156054019E+02  0.10566000000E+00 0.  1.
        994    1    1    2    0    0 -0.14539369353E+00 -0.12906354290E+02  0.36464878875E+01  0.17172458180E+03  0.17120000000E+03 0.  0.
        998    1    1    2    0    0  0.97241181264E+01  0.71042004460E+01  0.14772364319E+04  0.14773193642E+04  0.10000000000E+02 0.  1.
</event>
<event>
 5    1  0.1247473E-008  0.3782462E+03  0.7957747E-01  0.3458830E+00
         13   -1    0    0    0    0  0.00000000000E+00  0.00000000000E+00  0.14999999963E+04  0.15000000000E+04  0.10566000000E+00 0. -1.
        994   -1    0    0    0    0 -0.00000000000E+00 -0.00000000000E+00  0.11368683772E-12  0.17120000000E+03  0.17120000000E+03 0.  0.
         13    1    1    2    0    0 -0.26015584526E+02  0.69221977872E+01  0.69206144003E+02  0.74257854752E+02  0.10566000000E+00 0. -1.
        994    1    1    2    0    0  0.20040976122E+02 -0.62721618705E+01  0.65052227884E+01  0.17260573183E+03  0.17120000000E+03 0.  0.
        998    1    1    2    0    0  0.59746084043E+01 -0.65003591669E+00  0.14242886295E+04  0.14243364134E+04  0.10000000000E+02 0. -1.
</event>
<event>
 5    1  0.1247473E-008  0.3830552E+03  0.7957747E-01  0.3437963E+00
         13   -1    0    0    0    0  0.00000000000E+00  0.00000000000E+00  0.14999999963E+04  0.15000000000E+04  0.10566000000E+00 0. -1.
        994   -1    0    0    0    0 -0.00000000000E+00 -0.00000000000E+00  0.11368683772E-12  0.17120000000E+03  0.17120000000E+03 0.  0.
         13    1    1    2    0    0 -0.28889060378E+02  0.89650372007E+01  0.15685250786E+03  0.15974251184E+03  0.10566000000E+00 0. -1.
        994    1    1    2    0    0  0.30482758130E+02 -0.99939542253E+01  0.60120197044E+01  0.17428328103E+03  0.17120000000E+03 0.  0.
        998    1    1    2    0    0 -0.15936977522E+01  0.10289170246E+01  0.13371354687E+04  0.13371742071E+04  0.10000000000E+02 0.  0.
</event>
<event>
 5    1  0.1247473E-008  0.3816585E+03  0.7957747E-01  0.3443969E+00
         13   -1    0    0    0    0  0.00000000000E+00  0.00000000000E+00  0.14999999963E+04  0.15000000000E+04  0.10566000000E+00 0. -1.
        994   -1    0    0    0    0 -0.00000000000E+00 -0.00000000000E+00  0.11368683772E-12  0.17120000000E+03  0.17120000000E+03 0.  0.
         13    1    1    2    0    0 -0.52118749634E+01  0.11377733388E+02  0.22390268674E+02  0.25650570228E+02  0.10566000000E+00 0. -1.
        994    1    1    2    0    0  0.37884191681E+01 -0.87159322742E+01  0.35986498423E+01  0.17150134074E+03  0.17120000000E+03 0.  0.
        998    1    1    2    0    0  0.14234557953E+01 -0.26618011134E+01  0.14740110778E+04  0.14740480890E+04  0.10000000000E+02 0. -1.
</event>
<event>
 5    1  0.1247473E-008  0.3719848E+03  0.7957747E-01  0.3486818E+00
         13   -1    0    0    0    0  0.00000000000E+00  0.00000000000E+00  0.14999999963E+04  0.15000000000E+04  0.10566000000E+00 0. -1.
        994   -1    0    0    0    0 -0.00000000000E+00 -0.00000000000E+00  0.11368683772E-12  0.17120000000E+03  0.17120000000E+03 0.  0.
         13    1    1    2    0    0  0.10959167692E+01 -0.91303394006E+02  0.28021266491E+03  0.29471453906E+03  0.10566000000E+00 0. -1.
        994    1    1    2    0    0  0.89015553658E+01  0.90069979793E+02  0.41419893652E+02  0.19803253909E+03  0.17120000000E+03 0.  0.
        998    1    1    2    0    0 -0.99974721350E+01  0.12334142128E+01  0.11783674377E+04  0.11784529219E+04  0.10000000000E+02 0. -1.
</event>
<event>
 5    1  0.1247473E-008  0.3809602E+03  0.7957747E-01  0.3446988E+00
         13   -1    0    0    0    0  0.00000000000E+00  0.00000000000E+00  0.14999999963E+04  0.15000000000E+04  0.10566000000E+00 0.  1.
        994   -1    0    0    0    0 -0.00000000000E+00 -0.00000000000E+00  0.11368683772E-12  0.17120000000E+03  0.17120000000E+03 0.  0.
         13    1    1    2    0    0  0.34862790455E+02 -0.17809754906E+02  0.23605033611E+03  0.23927468288E+03  0.10566000000E+00 0.  1.
        994    1    1    2    0    0 -0.61331523935E+01  0.68448428597E+01  0.39307670243E+01  0.17149156936E+03  0.17120000000E+03 0.  0.
        998    1    1    2    0    0 -0.28729638061E+02  0.10964912046E+02  0.12600188931E+04  0.12604337478E+04  0.10000000000E+02 0.  1.
</event>
<event>
 5    1  0.1247473E-008  0.3847496E+03  0.7957747E-01  0.3430735E+00
         13   -1    0    0    0    0  0.00000000000E+00  0.00000000000E+00  0.14999999963E+04  0.15000000000E+04  0.10566000000E+00 0. -1.
        994   -1    0    0    0    0 -0.00000000000E+00 -0.00000000000E+00  0.11368683772E-12  0.17120000000E+03  0.17120000000E+03 0.  0.
         13    1    1    2    0    0  0.99511684900E+01  0.10076353772E+02  0.65100709555E+02  0.66623360829E+02  0.10566000000E+00 0. -1.
        994    1    1    2    0    0  0.15888257588E+02  0.65555240886E+00  0.25871948113E+01  0.17195638998E+03  0.17120000000E+03 0.  0.
        998    1    1    2    0    0 -0.25839426078E+02 -0.10731906180E+02  0.14323120919E+04  0.14326202492E+04  0.10000000000E+02 0. -1.
</event>
<event>
 5    1  0.1247473E-008  0.3804953E+03  0.7957747E-01  0.3449005E+00
         13   -1    0    0    0    0  0.00000000000E+00  0.00000000000E+00  0.14999999963E+04  0.15000000000E+04  0.10566000000E+00 0.  1.
        994   -1    0    0    0    0 -0.00000000000E+00 -0.00000000000E+00  0.11368683772E-12  0.17120000000E+03  0.17120000000E+03 0.  0.
         13    1    1    2    0    0 -0.12908775566E+02  0.25756421448E+01  0.21249662698E+02  0.24996594726E+02  0.10566000000E+00 0.  1.
        994    1    1    2    0    0 -0.96878979966E+00 -0.49622189371E+01  0.39686656570E+01  0.17132061311E+03  0.17120000000E+03 0.  0.
        998    1    1    2    0    0  0.13877565365E+02  0.23865767923E+01  0.14747816679E+04  0.14748827922E+04  0.10000000000E+02 0.  1.
</event>
<event>
 5    1  0.1247473E-008  0.3787178E+03  0.7957747E-01  0.3456760E+00
         13   -1    0    0    0    0  0.00000000000E+00  0.00000000000E+00  0.14999999963E+04  0.15000000000E+04  0.10566000000E+00 0.  1.
        994   -1    0    0    0    0 -0.00000000000E+00 -0.00000000000E+00  0.11368683772E-12  0.17120000000E+03  0.17120000000E+03 0.  0.
         13    1    1    2    0    0 -0.13384462616E+02  0.68349177736E+01  0.21799753657E+02  0.26478299871E+02  0.10566000000E+00 0.  1.
        994    1    1    2    0    0  0.86051012072E+01  0.94898713153E+00  0.50334335295E+01  0.17149263482E+03  0.17120000000E+03 0.  0.
        998    1    1    2    0    0  0.47793614088E+01 -0.77839049052E+01  0.14731668091E+04  0.14732290653E+04  0.10000000000E+02 0.  1.
</event>
<event>
 5    1  0.1247473E-008  0.3809890E+03  0.7957747E-01  0.3446863E+00
         13   -1    0    0    0    0  0.00000000000E+00  0.00000000000E+00  0.14999999963E+04  0.15000000000E+04  0.10566000000E+00 0.  1.
        994   -1    0    0    0    0 -0.00000000000E+00 -0.00000000000E+00  0.11368683772E-12  0.17120000000E+03  0.17120000000E+03 0.  0.
         13    1    1    2    0    0  0.10432763717E+02 -0.25787623738E+02  0.11775169432E+03  0.12099304432E+03  0.10566000000E+00 0.  1.
        994    1    1    2    0    0  0.38390597009E+01 -0.45728908434E+00  0.36845524106E+01  0.17128328412E+03  0.17120000000E+03 0.  0.
        998    1    1    2    0    0 -0.14271823418E+02  0.26244912822E+02  0.13785637496E+04  0.13789236716E+04  0.10000000000E+02 0.  1.
</event>
<event>
 5    1  0.1247473E-008  0.3848615E+03  0.7957747E-01  0.3430260E+00
         13   -1    0    0    0    0  0.00000000000E+00  0.00000000000E+00  0.14999999963E+04  0.15000000000E+04  0.10566000000E+00 0. -1.
        994   -1    0    0    0    0 -0.00000000000E+00 -0.00000000000E+00  0.11368683772E-12  0.17120000000E+03  0.17120000000E+03 0.  0.
         13    1    1    2    0    0  0.97765280233E+01  0.26403151747E+01  0.30707983376E+02  0.32334860004E+02  0.10566000000E+00 0. -1.
        994    1    1    2    0    0  0.22805687358E+01 -0.11729570673E+02  0.21688544064E+01  0.17163020641E+03  0.17120000000E+03 0.  0.
        998    1    1    2    0    0 -0.12057096759E+02  0.90892554986E+01  0.14671231585E+04  0.14672349336E+04  0.10000000000E+02 0. -1.
</event>
<event>
 5    1  0.1247473E-008  0.3856288E+03  0.7957747E-01  0.3427010E+00
         13   -1    0    0    0    0  0.00000000000E+00  0.00000000000E+00  0.14999999963E+04  0.15000000000E+04  0.10566000000E+00 0.  1.
        994   -1    0    0    0    0 -0.00000000000E+00 -0.00000000000E+00  0.11368683772E-12  0.17120000000E+03  0.17120000000E+03 0.  0.
         13    1    1    2    0    0 -0.46262527252E+01 -0.92432160781E+01  0.42715170269E+02  0.43948107956E+02  0.10566000000E+00 0.  1.
        994    1    1    2    0    0 -0.49431559358E+01  0.10465215359E+01  0.14020825152E+01  0.17128028443E+03  0.17120000000E+03 0.  0.
        998    1    1    2    0    0  0.95694086610E+01  0.81966945422E+01  0.14558827435E+04  0.14559716076E+04  0.10000000000E+02 0.  1.
</event>
<event>
 5    1  0.1247473E-008  0.3839855E+03  0.7957747E-01  0.3433986E+00
         13   -1    0    0    0    0  0.00000000000E+00  0.00000000000E+00  0.14999999963E+04  0.15000000000E+04  0.10566000000E+00 0. -1.
        994   -1    0    0    0    0 -0.00000000000E+00 -0.00000000000E+00  0.11368683772E-12  0.17120000000E+03  0.17120000000E+03 0.  0.
         13    1    1    2    0    0 -0.21926561871E+01  0.11537753935E+02  0.31552909125E+02  0.33667859233E+02  0.10566000000E+00 0. -1.
        994    1    1    2    0    0 -0.94791110117E+01 -0.11382967741E+02  0.28589765817E+01  0.17186343197E+03  0.17120000000E+03 0.  0.
        998    1    1    2    0    0  0.11671767199E+02 -0.15478619497E+00  0.14655881106E+04  0.14656687088E+04  0.10000000000E+02 0. -1.
</event>
<event>
 5    1  0.1247473E-008  0.3707503E+03  0.7957747E-01  0.3492450E+00
         13   -1    0    0    0    0  0.00000000000E+00  0.00000000000E+00  0.14999999963E+04  0.15000000000E+04  0.10566000000E+00 0. -1.
        994   -1    0    0    0    0 -0.00000000000E+00 -0.00000000000E+00  0.11368683772E-12  0.17120000000E+03  0.17120000000E+03 0.  0.
         13    1    1    2    0    0 -0.24869357436E+02 -0.23114485270E+02  0.53427125282E+02  0.63302711225E+02  0.10566000000E+00 0. -1.
        994    1    1    2    0    0 -0.15591582866E+02 -0.23983624195E+02  0.14209768219E+02  0.17415415355E+03  0.17120000000E+03 0.  0.
        998    1    1    2    0    0  0.40460940302E+02  0.47098109465E+02  0.14323631028E+04  0.14337431352E+04  0.10000000000E+02 0. -1.
</event>
<event>
 5    1  0.1247473E-008  0.3851540E+03  0.7957747E-01  0.3429019E+00
         13   -1    0    0    0    0  0.00000000000E+00  0.00000000000E+00  0.14999999963E+04  0.15000000000E+04  0.10566000000E+00 0.  1.
        994   -1    0    0    0    0 -0.00000000000E+00 -0.00000000000E+00  0.11368683772E-12  0.17120000000E+03  0.17120000000E+03 0.  0.
         13    1    1    2    0    0  0.95990511309E+01  0.18928851796E+02  0.12188053433E+03  0.12371466779E+03  0.10566000000E+00 0.  1.
        994    1    1    2    0    0 -0.43060243348E+01 -0.35700892188E+02  0.58157051377E+01  0.17503244835E+03  0.17120000000E+03 0.  0.
        998    1    1    2    0    0 -0.52930267960E+01  0.16772040392E+02  0.13723037568E+04  0.13724528839E+04  0.10000000000E+02 0.  1.
</event>
<event>
 5    1  0.1247473E-008  0.3835877E+03  0.7957747E-01  0.3435684E+00
         13   -1    0    0    0    0  0.00000000000E+00  0.00000000000E+00  0.14999999963E+04  0.15000000000E+04  0.10566000000E+00 0.  1.
        994   -1    0    0    0    0 -0.00000000000E+00 -0.00000000000E+00  0.11368683772E-12  0.17120000000E+03  0.17120000000E+03 0.  0.
         13    1    1    2    0    0 -0.10062001376E+02 -0.64638369625E+01  0.30086794410E+02  0.32376711103E+02  0.10566000000E+00 0.  1.
        994    1    1    2    0    0  0.33700110393E+01  0.74271007759E+01  0.25527338874E+01  0.17141317117E+03  0.17120000000E+03 0.  0.
        998    1    1    2    0    0  0.66919903363E+01 -0.96326381339E+00  0.14673604680E+04  0.14674101177E+04  0.10000000000E+02 0.  1.
</event>
<event>
 5    1  0.1247473E-008  0.3766062E+03  0.7957747E-01  0.3466070E+00
         13   -1    0    0    0    0  0.00000000000E+00  0.00000000000E+00  0.14999999963E+04  0.15000000000E+04  0.10566000000E+00 0.  1.
        994   -1    0    0    0    0 -0.00000000000E+00 -0.00000000000E+00  0.11368683772E-12  0.17120000000E+03  0.17120000000E+03 0.  0.
         13    1    1    2    0    0 -0.38641985484E+02  0.15682646728E+02  0.16575565423E+03  0.17092131677E+03  0.10566000000E+00 0.  1.
        994    1    1    2    0    0 -0.84041704532E+01 -0.32293105109E+02  0.96299517155E+01  0.17468729401E+03  0.17120000000E+03 0.  0.
        998    1    1    2    0    0  0.47046155937E+02  0.16610458382E+02  0.13246143903E+04  0.13255913892E+04  0.10000000000E+02 0.  1.
</event>
<event>
 5    1  0.1247473E-008  0.3823076E+03  0.7957747E-01  0.3441172E+00
         13   -1    0    0    0    0  0.00000000000E+00  0.00000000000E+00  0.14999999963E+04  0.15000000000E+04  0.10566000000E+00 0.  1.
        994   -1    0    0    0    0 -0.00000000000E+00 -0.00000000000E+00  0.11368683772E-12  0.17120000000E+03  0.17120000000E+03 0.  0.
         13    1    1    2    0    0 -0.23919643295E+02 -0.13763511971E+02  0.10226464167E+03  0.10592285729E+03  0.10566000000E+00 0.  1.
        994    1    1    2    0    0  0.52351510239E+02  0.17702839313E+02  0.13172000391E+02  0.18038018943E+03  0.17120000000E+03 0.  0.
        998    1    1    2    0    0 -0.28431866944E+02 -0.39393273418E+01  0.13845633542E+04  0.13848969533E+04  0.10000000000E+02 0.  1.
</event>
<event>
 5    1  0.1247473E-008  0.3722378E+03  0.7957747E-01  0.3485669E+00
         13   -1    0    0    0    0  0.00000000000E+00  0.00000000000E+00  0.14999999963E+04  0.15000000000E+04  0.10566000000E+00 0.  1.
        994   -1    0    0    0    0 -0.00000000000E+00 -0.00000000000E+00  0.11368683772E-12  0.17120000000E+03  0.17120000000E+03 0.  0.
         13    1    1    2    0    0  0.16460623717E+02  0.10794369524E+02  0.20235137267E+02  0.28230169869E+02  0.10566000000E+00 0.  1.
        994    1    1    2    0    0 -0.16618926535E+02 -0.79565308171E+01  0.92697774959E+01  0.17243800009E+03  0.17120000000E+03 0.  0.
        998    1    1    2    0    0  0.15830281737E+00 -0.28378387072E+01  0.14704950815E+04  0.14705318300E+04  0.10000000000E+02 0.  1.
</event>
<event>
 5    1  0.1247473E-008  0.3824732E+03  0.7957747E-01  0.3440460E+00
         13   -1    0    0    0    0  0.00000000000E+00  0.00000000000E+00  0.14999999963E+04  0.15000000000E+04  0.10566000000E+00 0.  1.
        994   -1    0    0    0    0 -0.00000000000E+00 -0.00000000000E+00  0.11368683772E-12  0.17120000000E+03  0.17120000000E+03 0.  0.
         13    1    1    2    0    0  0.23757195702E+02  0.10436964540E+02  0.10748160637E+03  0.11056962263E+03  0.10566000000E+00 0.  1.
        994    1    1    2    0    0 -0.24688293055E+02 -0.12482221132E+02  0.54316736978E+01  0.17350579454E+03  0.17120000000E+03 0.  0.
        998    1    1    2    0    0  0.93109735356E+00  0.20452565917E+01  0.13870867162E+04  0.13871245828E+04  0.10000000000E+02 0.  1.
</event>
<event>
 5    1  0.1247473E-008  0.3814676E+03  0.7957747E-01  0.3444793E+00
         13   -1    0    0    0    0  0.00000000000E+00  0.00000000000E+00  0.14999999963E+04  0.15000000000E+04  0.10566000000E+00 0. -1.
        994   -1    0    0    0    0 -0.00000000000E+00 -0.00000000000E+00  0.11368683772E-12  0.17120000000E+03  0.17120000000E+03 0.  0.
         13    1    1    2    0    0  0.25541333754E+02  0.73192965119E+01  0.11285262274E+03  0.11593816220E+03  0.10566000000E+00 0. -1.
        994    1    1    2    0    0  0.87533723403E+00 -0.62826512803E+01  0.35280104560E+01  0.17135380002E+03  0.17120000000E+03 0.  0.
        998    1    1    2    0    0 -0.26416670988E+02 -0.10366452316E+01  0.13836193631E+04  0.13839080378E+04  0.10000000000E+02 0. -1.
</event>
<event>
 5    1  0.1247473E-008  0.3801776E+03  0.7957747E-01  0.3450385E+00
         13   -1    0    0    0    0  0.00000000000E+00  0.00000000000E+00  0.14999999963E+04  0.15000000000E+04  0.10566000000E+00 0. -1.
        994   -1    0    0    0    0 -0.00000000000E+00 -0.00000000000E+00  0.11368683772E-12  0.17120000000E+03  0.17120000000E+03 0.  0.
         13    1    1    2    0    0 -0.91187053236E+01  0.75243797153E+01  0.15619104458E+02  0.19589146612E+02  0.10566000000E+00 0. -1.
        994    1    1    2    0    0  0.95251268167E+00 -0.96351726284E+01  0.43567594632E+01  0.17152890481E+03  0.17120000000E+03 0.  0.
        998    1    1    2    0    0  0.81661926419E+01  0.21107929131E+01  0.14800241324E+04  0.14800819486E+04  0.10000000000E+02 0. -1.
</event>
<event>
 5    1  0.1599618E-008  0.3861636E+03  0.7957747E-01  0.3424752E+00
         13   -1    0    0    0    0  0.00000000000E+00  0.00000000000E+00  0.14999999963E+04  0.15000000000E+04  0.10566000000E+00 0. -1.
        994   -1    0    0    0    0 -0.00000000000E+00 -0.00000000000E+00  0.11368683772E-12  0.17120000000E+03  0.17120000000E+03 0.  0.
         13    1    1    2    0    0 -0.75078724312E+01  0.92374309874E+01  0.69502480772E+02  0.70514567837E+02  0.10566000000E+00 0. -1.
        994    1    1    2    0    0  0.15114413598E+01 -0.60297295550E+01  0.11801261398E+01  0.17131688414E+03  0.17120000000E+03 0.  0.
        998    1    1    2    0    0  0.59964310713E+01 -0.32077014324E+01  0.14293173894E+04  0.14293685480E+04  0.10000000000E+02 0. -1.
</event>
<event>
 5    1  0.1247473E-008  0.3689494E+03  0.7957747E-01  0.3500733E+00
         13   -1    0    0    0    0  0.00000000000E+00  0.00000000000E+00  0.14999999963E+04  0.15000000000E+04  0.10566000000E+00 0. -1.
        994   -1    0    0    0    0 -0.00000000000E+00 -0.00000000000E+00  0.11368683772E-12  0.17120000000E+03  0.17120000000E+03 0.  0.
         13    1    1    2    0    0 -0.91431499742E+02 -0.39414744983E+02  0.37409513588E+03  0.38711809971E+03  0.10566000000E+00 0. -1.
        994    1    1    2    0    0  0.73102055467E+02  0.63494851230E+02  0.43793673184E+02  0.20150144530E+03  0.17120000000E+03 0.  0.
        998    1    1    2    0    0  0.18329444275E+02 -0.24080106247E+02  0.10821111872E+04  0.10825804550E+04  0.10000000000E+02 0. -1.
</event>
<event>
 5    1  0.1660416E-008  0.3862574E+03  0.7957747E-01  0.3424357E+00
         13   -1    0    0    0    0  0.00000000000E+00  0.00000000000E+00  0.14999999963E+04  0.15000000000E+04  0.10566000000E+00 0. -1.
        994   -1    0    0    0    0 -0.00000000000E+00 -0.00000000000E+00  0.11368683772E-12  0.17120000000E+03  0.17120000000E+03 0.  0.
         13    1    1    2    0    0  0.68235210926E+01  0.76601113479E+01  0.50163205412E+02  0.51201524267E+02  0.10566000000E+00 0. -1.
        994    1    1    2    0    0 -0.12229870802E+02 -0.93845069232E+01  0.17858768095E+01  0.17190191408E+03  0.17120000000E+03 0.  0.
        998    1    1    2    0    0  0.54063497094E+01  0.17243955753E+01  0.14480509141E+04  0.14480965616E+04  0.10000000000E+02 0. -1.
</event>
<event>
 5    1  0.1247473E-008  0.3783253E+03  0.7957747E-01  0.3458483E+00
         13   -1    0    0    0    0  0.00000000000E+00  0.00000000000E+00  0.14999999963E+04  0.15000000000E+04  0.10566000000E+00 0. -1.
        994   -1    0    0    0    0 -0.00000000000E+00 -0.00000000000E+00  0.11368683772E-12  0.17120000000E+03  0.17120000000E+03 0.  0.
         13    1    1    2    0    0 -0.20391154794E+02  0.78774187114E+01  0.47121606656E+02  0.51945258660E+02  0.10566000000E+00 0. -1.
        994    1    1    2    0    0  0.97142411978E+01  0.40409946924E+01  0.53531308698E+01  0.17160650375E+03  0.17120000000E+03 0.  0.
        998    1    1    2    0    0  0.10676913596E+02 -0.11918413404E+02  0.14475252588E+04  0.14476482376E+04  0.10000000000E+02 0. -1.
</event>
<event>
 5    1  0.1247473E-008  0.3820192E+03  0.7957747E-01  0.3442413E+00
         13   -1    0    0    0    0  0.00000000000E+00  0.00000000000E+00  0.14999999963E+04  0.15000000000E+04  0.10566000000E+00 0.  1.
        994   -1    0    0    0    0 -0.00000000000E+00 -0.00000000000E+00  0.11368683772E-12  0.17120000000E+03  0.17120000000E+03 0.  0.
         13    1    1    2    0    0  0.26619171107E+02  0.11295462576E+02  0.12464461845E+03  0.12795491322E+03  0.10566000000E+00 0.  1.
        994    1    1    2    0    0 -0.21040591475E+02 -0.21334442818E+02  0.61046351933E+01  0.17390966480E+03  0.17120000000E+03 0.  0.
        998    1    1    2    0    0 -0.55785796320E+01  0.10038980242E+02  0.13692507426E+04  0.13693354220E+04  0.10000000000E+02 0.  1.
</event>
<event>
 5    1  0.1247473E-008  0.3761199E+03  0.7957747E-01  0.3468229E+00
         13   -1    0    0    0    0  0.00000000000E+00  0.00000000000E+00  0.14999999963E+04  0.15000000000E+04  0.10566000000E+00 0. -1.
        994   -1    0    0    0    0 -0.00000000000E+00 -0.00000000000E+00  0.11368683772E-12  0.17120000000E+03  0.17120000000E+03 0.  0.
         13    1    1    2    0    0 -0.23606571713E+01 -0.10065573074E+02  0.58699468682E+01  0.11889318898E+02  0.10566000000E+00 0. -1.
        994    1    1    2    0    0 -0.40169876661E+01  0.14322491722E+02  0.68544167992E+01  0.17198166469E+03  0.17120000000E+03 0.  0.
        998    1    1    2    0    0  0.63776448374E+01 -0.42569186479E+01  0.14872756326E+04  0.14873290164E+04  0.10000000000E+02 0. -1.
</event>
<event>
 5    1  0.1247473E-008  0.3827321E+03  0.7957747E-01  0.3439348E+00
         13   -1    0    0    0    0  0.00000000000E+00  0.00000000000E+00  0.14999999963E+04  0.15000000000E+04  0.10566000000E+00 0.  1.
        994   -1    0    0    0    0 -0.00000000000E+00 -0.00000000000E+00  0.11368683772E-12  0.17120000000E+03  0.17120000000E+03 0.  0.
         13    1    1    2    0    0  0.10034603566E+02  0.11621710883E+02  0.46153143219E+02  0.48640325098E+02  0.10566000000E+00 0.  1.
        994    1    1    2    0    0 -0.86725976174E+01  0.23911415430E+02  0.49066861568E+01  0.17314873752E+03  0.17120000000E+03 0.  0.
        998    1    1    2    0    0 -0.13620059486E+01 -0.35533126313E+02  0.14489401669E+04  0.14494109374E+04  0.10000000000E+02 0.  1.
</event>
<event>
 5    1  0.1247473E-008  0.3838417E+03  0.7957747E-01  0.3434600E+00
         13   -1    0    0    0    0  0.00000000000E+00  0.00000000000E+00  0.14999999963E+04  0.15000000000E+04  0.10566000000E+00 0.  1.
        994   -1    0    0    0    0 -0.00000000000E+00 -0.00000000000E+00  0.11368683772E-12  0.17120000000E+03  0.17120000000E+03 0.  0.
         13    1    1    2    0    0  0.10920781150E+02 -0.77434138615E+00  0.27408184404E+02  0.29514111911E+02  0.10566000000E+00 0.  1.
        994    1    1    2    0    0  0.21195528627E+01  0.85042694810E+01  0.24599324790E+01  0.17144184545E+03  0.17120000000E+03 0.  0.
        998    1    1    2    0    0 -0.13040334013E+02 -0.77299280949E+01  0.14701318794E+04  0.14702440426E+04  0.10000000000E+02 0.  1.
</event>
<event>
 5    1  0.1247473E-008  0.3811382E+03  0.7957747E-01  0.3446218E+00
         13   -1    0    0    0    0  0.00000000000E+00  0.00000000000E+00  0.14999999963E+04  0.15000000000E+04  0.10566000000E+00 0.  1.
        994   -1    0    0    0    0 -0.00000000000E+00 -0.00000000000E+00  0.11368683772E-12  0.17120000000E+03  0.17120000000E+03 0.  0.
         13    1    1    2    0    0 -0.22711777736E+01  0.13062657363E+02  0.24705600106E+02  0.28038707290E+02  0.10566000000E+00 0.  1.
        994    1    1    2    0    0  0.28407894155E+02  0.15871638794E+02  0.70943435918E+01  0.17440953838E+03  0.17120000000E+03 0.  0.
        998    1    1    2    0    0 -0.26136716382E+02 -0.28934296157E+02  0.14682000526E+04  0.14687517543E+04  0.10000000000E+02 0.  1.
</event>
<event>
 5    1  0.1247473E-008  0.3839304E+03  0.7957747E-01  0.3434221E+00
         13   -1    0    0    0    0  0.00000000000E+00  0.00000000000E+00  0.14999999963E+04  0.15000000000E+04  0.10566000000E+00 0. -1.
        994   -1    0    0    0    0 -0.00000000000E+00 -0.00000000000E+00  0.11368683772E-12  0.17120000000E+03  0.17120000000E+03 0.  0.
         13    1    1    2    0    0 -0.20914038615E+01  0.17679424650E+02  0.74062050910E+02  0.76171743941E+02  0.10566000000E+00 0. -1.
        994    1    1    2    0    0  0.13747754604E+01 -0.85867392441E+01  0.24117127360E+01  0.17143768097E+03  0.17120000000E+03 0.  0.
        998    1    1    2    0    0  0.71662840114E+00 -0.90926854059E+01  0.14235262326E+04  0.14235905751E+04  0.10000000000E+02 0. -1.
</event>
<event>
 5    1  0.1247473E-008  0.3744543E+03  0.7957747E-01  0.3475667E+00
         13   -1    0    0    0    0  0.00000000000E+00  0.00000000000E+00  0.14999999963E+04  0.15000000000E+04  0.10566000000E+00 0.  1.
        994   -1    0    0    0    0 -0.00000000000E+00 -0.00000000000E+00  0.11368683772E-12  0.17120000000E+03  0.17120000000E+03 0.  0.
         13    1    1    2    0    0 -0.27119055316E+02 -0.41472541356E+02  0.18721949963E+03  0.19366612263E+03  0.10566000000E+00 0.  1.
        994    1    1    2    0    0  0.24968175797E+02  0.34910707997E+01  0.91267582597E+01  0.17328685782E+03  0.17120000000E+03 0.  0.
        998    1    1    2    0    0  0.21508795184E+01  0.37981470556E+02  0.13036537384E+04  0.13042470195E+04  0.10000000000E+02 0.  1.
</event>
<event>
 5    1  0.1247473E-008  0.3708844E+03  0.7957747E-01  0.3491836E+00
         13   -1    0    0    0    0  0.00000000000E+00  0.00000000000E+00  0.14999999963E+04  0.15000000000E+04  0.10566000000E+00 0. -1.
        994   -1    0    0    0    0 -0.00000000000E+00 -0.00000000000E+00  0.11368683772E-12  0.17120000000E+03  0.17120000000E+03 0.  0.
         13    1    1    2    0    0 -0.87787754837E+02  0.57614109944E+02  0.37279205232E+03  0.38729833592E+03  0.10566000000E+00 0. -1.
        994    1    1    2    0    0  0.77189645953E+02 -0.61489644992E+02  0.46391265183E+02  0.20297982010E+03  0.17120000000E+03 0.  0.
        998    1    1    2    0    0  0.10598108884E+02  0.38755350480E+01  0.10808166788E+04  0.10809218440E+04  0.10000000000E+02 0. -1.
</event>
<event>
 5    1  0.1247473E-008  0.3846132E+03  0.7957747E-01  0.3431314E+00
         13   -1    0    0    0    0  0.00000000000E+00  0.00000000000E+00  0.14999999963E+04  0.15000000000E+04  0.10566000000E+00 0. -1.
        994   -1    0    0    0    0 -0.00000000000E+00 -0.00000000000E+00  0.11368683772E-12  0.17120000000E+03  0.17120000000E+03 0.  0.
         13    1    1    2    0    0  0.10780723060E+02 -0.22497495332E+01  0.33645453991E+02  0.35402162376E+02  0.10566000000E+00 0. -1.
        994    1    1    2    0    0 -0.34429147526E+01 -0.36244714971E+01  0.19045703999E+01  0.17128355976E+03  0.17120000000E+03 0.  0.
        998    1    1    2    0    0 -0.73378083071E+01  0.58742210303E+01  0.14644499719E+04  0.14645142779E+04  0.10000000000E+02 0. -1.
</event>
<event>
 5    1  0.1247473E-008  0.3781748E+03  0.7957747E-01  0.3459144E+00
         13   -1    0    0    0    0  0.00000000000E+00  0.00000000000E+00  0.14999999963E+04  0.15000000000E+04  0.10566000000E+00 0.  1.
        994   -1    0    0    0    0 -0.00000000000E+00 -0.00000000000E+00  0.11368683772E-12  0.17120000000E+03  0.17120000000E+03 0.  0.
         13    1    1    2    0    0  0.43391452129E+02 -0.68000805410E+02  0.44123912155E+03  0.44855200502E+03  0.10566000000E+00 0.  1.
        994    1    1    2    0    0 -0.51639398718E+02  0.65096207866E+02  0.28640346737E+02  0.19244181780E+03  0.17120000000E+03 0.  0.
        998    1    1    2    0    0  0.82479465891E+01  0.29045975440E+01  0.10301205280E+04  0.10302061772E+04  0.10000000000E+02 0.  1.
</event>
<event>
 5    1  0.1247473E-008  0.3753267E+03  0.7957747E-01  0.3471763E+00
         13   -1    0    0    0    0  0.00000000000E+00  0.00000000000E+00  0.14999999963E+04  0.15000000000E+04  0.10566000000E+00 0. -1.
        994   -1    0    0    0    0 -0.00000000000E+00 -0.00000000000E+00  0.11368683772E-12  0.17120000000E+03  0.17120000000E+03 0.  0.
         13    1    1    2    0    0  0.23948750763E+02 -0.71389531033E+01  0.42573752216E+02  0.49366414254E+02  0.10566000000E+00 0. -1.
        994    1    1    2    0    0 -0.38715837136E+02  0.19949815991E+01  0.11631157455E+02  0.17591935601E+03  0.17120000000E+03 0.  0.
        998    1    1    2    0    0  0.14767086372E+02  0.51439715042E+01  0.14457950866E+04  0.14459142297E+04  0.10000000000E+02 0. -1.
</event>
<event>
 5    1  0.1247473E-008  0.3846959E+03  0.7957747E-01  0.3430963E+00
         13   -1    0    0    0    0  0.00000000000E+00  0.00000000000E+00  0.14999999963E+04  0.15000000000E+04  0.10566000000E+00 0. -1.
        994   -1    0    0    0    0 -0.00000000000E+00 -0.00000000000E+00  0.11368683772E-12  0.17120000000E+03  0.17120000000E+03 0.  0.
         13    1    1    2    0    0 -0.11387344059E+02  0.10819722517E+02  0.68105269940E+02  0.69893325559E+02  0.10566000000E+00 0. -1.
        994    1    1    2    0    0  0.99547478764E+01 -0.79427717682E+01  0.23152676766E+01  0.17168862832E+03  0.17120000000E+03 0.  0.
        998    1    1    2    0    0  0.14325961828E+01 -0.28769507490E+01  0.14295794587E+04  0.14296180461E+04  0.10000000000E+02 0. -1.
</event>
<event>
 5    1  0.1247473E-008  0.3750828E+03  0.7957747E-01  0.3472853E+00
         13   -1    0    0    0    0  0.00000000000E+00  0.00000000000E+00  0.14999999963E+04  0.15000000000E+04  0.10566000000E+00 0.  1.
        994   -1    0    0    0    0 -0.00000000000E+00 -0.00000000000E+00  0.11368683772E-12  0.17120000000E+03  0.17120000000E+03 0.  0.
         13    1    1    2    0    0  0.17524794317E+02  0.13259447287E+02  0.33371151071E+02  0.39957180157E+02  0.10566000000E+00 0.  1.
        994    1    1    2    0    0 -0.15122427096E+02 -0.10405821316E+02  0.77821709462E+01  0.17235710343E+03  0.17120000000E+03 0.  0.
        998    1    1    2    0    0 -0.24023672207E+01 -0.28536259716E+01  0.14588466743E+04  0.14588857164E+04  0.10000000000E+02 0.  1.
</event>
<event>
 5    1  0.1247473E-008  0.3743788E+03  0.7957747E-01  0.3476006E+00
         13   -1    0    0    0    0  0.00000000000E+00  0.00000000000E+00  0.14999999963E+04  0.15000000000E+04  0.10566000000E+00 0. -1.
        994   -1    0    0    0    0 -0.00000000000E+00 -0.00000000000E+00  0.11368683772E-12  0.17120000000E+03  0.17120000000E+03 0.  0.
         13    1    1    2    0    0 -0.49390257450E+02  0.28982316585E+02  0.32843191628E+03  0.33338702285E+03  0.10566000000E+00 0. -1.
        994    1    1    2    0    0 -0.85221488020E+01  0.32979312520E+01  0.72825496719E+01  0.17159830681E+03  0.17120000000E+03 0.  0.
        998    1    1    2    0    0  0.57912406252E+02 -0.32280247837E+02  0.11642855303E+04  0.11662146703E+04  0.10000000000E+02 0.  1.
</event>
<event>
 5    1  0.1247473E-008  0.3812138E+03  0.7957747E-01  0.3445890E+00
         13   -1    0    0    0    0  0.00000000000E+00  0.00000000000E+00  0.14999999963E+04  0.15000000000E+04  0.10566000000E+00 0.  1.
        994   -1    0    0    0    0 -0.00000000000E+00 -0.00000000000E+00  0.11368683772E-12  0.17120000000E+03  0.17120000000E+03 0.  0.
         13    1    1    2    0    0 -0.14469665351E+03  0.80144658227E+02  0.93702729197E+03  0.95151481588E+03  0.10566000000E+00 0.  1.
        994    1    1    2    0    0  0.15150673561E+03 -0.87241823426E+02  0.11305403498E+03  0.26954792063E+03  0.17120000000E+03 0.  0.
        998    1    1    2    0    0 -0.68100820984E+01  0.70971651985E+01  0.44991866933E+03  0.45013726349E+03  0.10000000000E+02 0.  1.
</event>
<event>
 5    1  0.1247473E-008  0.3843528E+03  0.7957747E-01  0.3432422E+00
         13   -1    0    0    0    0  0.00000000000E+00  0.00000000000E+00  0.14999999963E+04  0.15000000000E+04  0.10566000000E+00 0. -1.
        994   -1    0    0    0    0 -0.00000000000E+00 -0.00000000000E+00  0.11368683772E-12  0.17120000000E+03  0.17120000000E+03 0.  0.
         13    1    1    2    0    0 -0.23509506663E+01  0.12581052236E+02  0.41978605717E+02  0.43886493895E+02  0.10566000000E+00 0. -1.
        994    1    1    2    0    0  0.14882662459E+00 -0.66903780261E+01  0.20994130330E+01  0.17134360462E+03  0.17120000000E+03 0.  0.
        998    1    1    2    0    0  0.22021240417E+01 -0.58906742103E+01  0.14559219775E+04  0.14559699015E+04  0.10000000000E+02 0. -1.
</event>
<event>
 5    1  0.1247473E-008  0.3817752E+03  0.7957747E-01  0.3443465E+00
         13   -1    0    0    0    0  0.00000000000E+00  0.00000000000E+00  0.14999999963E+04  0.15000000000E+04  0.10566000000E+00 0. -1.
        994   -1    0    0    0    0 -0.00000000000E+00 -0.00000000000E+00  0.11368683772E-12  0.17120000000E+03  0.17120000000E+03 0.  0.
         13    1    1    2    0    0  0.10279586734E+02  0.20712081060E+02  0.84413692247E+02  0.87523384350E+02  0.10566000000E+00 0. -1.
        994    1    1    2    0    0 -0.17894346714E+01 -0.77165867496E+01  0.34482569089E+01  0.17141784698E+03  0.17120000000E+03 0.  0.
        998    1    1    2    0    0 -0.84901520622E+01 -0.12995494310E+02  0.14121380471E+04  0.14122587687E+04  0.10000000000E+02 0. -1.
</event>
<event>
 5    1  0.1247473E-008  0.3703694E+03  0.7957747E-01  0.3494195E+00
         13   -1    0    0    0    0  0.00000000000E+00  0.00000000000E+00  0.14999999963E+04  0.15000000000E+04  0.10566000000E+00 0.  1.
        994   -1    0    0    0    0 -0.00000000000E+00 -0.00000000000E+00  0.11368683772E-12  0.17120000000E+03  0.17120000000E+03 0.  0.
         13    1    1    2    0    0  0.16196267825E+02 -0.16392531297E+02  0.18843792106E+02  0.29768000247E+02  0.10566000000E+00 0.  1.
        994    1    1    2    0    0 -0.12982465211E+02  0.19114428274E+02  0.13005424392E+02  0.17324112339E+03  0.17120000000E+03 0.  0.
        998    1    1    2    0    0 -0.32138026140E+01 -0.27218969768E+01  0.14681507798E+04  0.14681908764E+04  0.10000000000E+02 0.  1.
</event>
<event>
 5    1  0.1247473E-008  0.3819469E+03  0.7957747E-01  0.3442725E+00
         13   -1    0    0    0    0  0.00000000000E+00  0.00000000000E+00  0.14999999963E+04  0.15000000000E+04  0.10566000000E+00 0.  1.
        994   -1    0    0    0    0 -0.00000000000E+00 -0.00000000000E+00  0.11368683772E-12  0.17120000000E+03  0.17120000000E+03 0.  0.
         13    1    1    2    0    0  0.59834197268E+01 -0.24217779918E+02  0.98969214803E+02  0.10206477756E+03  0.10566000000E+00 0.  1.
        994    1    1    2    0    0 -0.31407542501E+01  0.12636449701E+02  0.37169033064E+01  0.17173467783E+03  0.17120000000E+03 0.  0.
        998    1    1    2    0    0 -0.28426654768E+01  0.11581330217E+02  0.13973138782E+04  0.13974005446E+04  0.10000000000E+02 0.  1.
</event>
<event>
 5    1  0.1247473E-008  0.3800151E+03  0.7957747E-01  0.3451093E+00
         13   -1    0    0    0    0  0.00000000000E+00  0.00000000000E+00  0.14999999963E+04  0.15000000000E+04  0.10566000000E+00 0.  1.
        994   -1    0    0    0    0 -0.00000000000E+00 -0.00000000000E+00  0.11368683772E-12  0.17120000000E+03  0.17120000000E+03 0.  0.
         13    1    1    2    0    0 -0.39642647872E+02  0.12061982400E+02  0.44877672570E+02  0.61082301930E+02  0.10566000000E+00 0.  1.
        994    1    1    2    0    0  0.40836776014E+02 -0.12705848675E+02  0.22992977611E+02  0.17795279679E+03  0.17120000000E+03 0.  0.
        998    1    1    2    0    0 -0.11941281426E+01  0.64386627539E+00  0.14321293461E+04  0.14321649013E+04  0.10000000000E+02 0.  1.
</event>
<event>
 5    1  0.1247473E-008  0.3996206E+03  0.7957747E-01  0.3369936E+00
         13   -1    0    0    0    0  0.00000000000E+00  0.00000000000E+00  0.14999999963E+04  0.15000000000E+04  0.10566000000E+00 0.  1.
        994   -1    0    0    0    0 -0.00000000000E+00 -0.00000000000E+00  0.11368683772E-12  0.17120000000E+03  0.17120000000E+03 0.  0.
         13    1    1    2    0    0 -0.11782716641E+03 -0.11559976132E+02  0.28008911629E+03  0.30408353856E+03  0.10566000000E+00 0.  1.
        994    1    1    2    0    0  0.44609634411E+02  0.21856022985E+02  0.37259319493E+02  0.18211370655E+03  0.17120000000E+03 0.  0.
        998    1    1    2    0    0  0.73217531999E+02 -0.10296046853E+02  0.11826515605E+04  0.11850027549E+04  0.10000000000E+02 0.  1.
</event>
<event>
 5    1  0.1247473E-008  0.3772178E+03  0.7957747E-01  0.3463363E+00
         13   -1    0    0    0    0  0.00000000000E+00  0.00000000000E+00  0.14999999963E+04  0.15000000000E+04  0.10566000000E+00 0.  1.
        994   -1    0    0    0    0 -0.00000000000E+00 -0.00000000000E+00  0.11368683772E-12  0.17120000000E+03  0.17120000000E+03 0.  0.
         13    1    1    2    0    0 -0.20505113042E+02 -0.43423048198E+02  0.18823171468E+03  0.19426067628E+03  0.10566000000E+00 0.  1.
        994    1    1    2    0    0  0.14841048824E+02  0.39938189243E+02  0.11693635151E+02  0.17680921015E+03  0.17120000000E+03 0.  0.
        998    1    1    2    0    0  0.56640642177E+01  0.34848589550E+01  0.13000746465E+04  0.13001301136E+04  0.10000000000E+02 0.  1.
</event>
<event>
 5    1  0.1247473E-008  0.3840394E+03  0.7957747E-01  0.3433756E+00
         13   -1    0    0    0    0  0.00000000000E+00  0.00000000000E+00  0.14999999963E+04  0.15000000000E+04  0.10566000000E+00 0. -1.
        994   -1    0    0    0    0 -0.00000000000E+00 -0.00000000000E+00  0.11368683772E-12  0.17120000000E+03  0.17120000000E+03 0.  0.
         13    1    1    2    0    0  0.92374768812E+00  0.10317567525E+02  0.24755704046E+02  0.26835825985E+02  0.10566000000E+00 0. -1.
        994    1    1    2    0    0  0.26926421991E+01 -0.82024489216E+01  0.23537140287E+01  0.17143369115E+03  0.17120000000E+03 0.  0.
        998    1    1    2    0    0 -0.36163898872E+01 -0.21151186038E+01  0.14728905782E+04  0.14729304829E+04  0.10000000000E+02 0. -1.
</event>
<event>
 5    1  0.1247473E-008  0.3833066E+03  0.7957747E-01  0.3436886E+00
         13   -1    0    0    0    0  0.00000000000E+00  0.00000000000E+00  0.14999999963E+04  0.15000000000E+04  0.10566000000E+00 0. -1.
        994   -1    0    0    0    0 -0.00000000000E+00 -0.00000000000E+00  0.11368683772E-12  0.17120000000E+03  0.17120000000E+03 0.  0.
         13    1    1    2    0    0 -0.12695033164E+02  0.81031005232E+01  0.46111397411E+02  0.48508723343E+02  0.10566000000E+00 0. -1.
        994    1    1    2    0    0  0.49762864808E+01 -0.20039467920E+01  0.25683999686E+01  0.17130328633E+03  0.17120000000E+03 0.  0.
        998    1    1    2    0    0  0.77187466829E+01 -0.60991537312E+01  0.14513201989E+04  0.14513879903E+04  0.10000000000E+02 0. -1.
</event>
<event>
 5    1  0.1247473E-008  0.3837696E+03  0.7957747E-01  0.3434907E+00
         13   -1    0    0    0    0  0.00000000000E+00  0.00000000000E+00  0.14999999963E+04  0.15000000000E+04  0.10566000000E+00 0. -1.
        994   -1    0    0    0    0 -0.00000000000E+00 -0.00000000000E+00  0.11368683772E-12  0.17120000000E+03  0.17120000000E+03 0.  0.
         13    1    1    2    0    0  0.13888761624E+02 -0.27125134980E+01  0.43228783186E+02  0.45486198882E+02  0.10566000000E+00 0. -1.
        994    1    1    2    0    0 -0.14251204339E+02 -0.10201559878E+01  0.29165565451E+01  0.17181991691E+03  0.17120000000E+03 0.  0.
        998    1    1    2    0    0  0.36244271454E+00  0.37326694858E+01  0.14538546565E+04  0.14538938842E+04  0.10000000000E+02 0. -1.
</event>
<event>
 5    1  0.1247473E-008  0.3838075E+03  0.7957747E-01  0.3434746E+00
         13   -1    0    0    0    0  0.00000000000E+00  0.00000000000E+00  0.14999999963E+04  0.15000000000E+04  0.10566000000E+00 0. -1.
        994   -1    0    0    0    0 -0.00000000000E+00 -0.00000000000E+00  0.11368683772E-12  0.17120000000E+03  0.17120000000E+03 0.  0.
         13    1    1    2    0    0 -0.11564766657E+02 -0.38330197559E+01  0.32446879801E+02  0.34659010966E+02  0.10566000000E+00 0. -1.
        994    1    1    2    0    0  0.12156150535E+02 -0.28675513058E+01  0.27385367382E+01  0.17167683137E+03  0.17120000000E+03 0.  0.
        998    1    1    2    0    0 -0.59138387810E+00  0.67005710617E+01  0.14648145797E+04  0.14648641577E+04  0.10000000000E+02 0. -1.
</event>
<event>
 5    1  0.1247473E-008  0.3845018E+03  0.7957747E-01  0.3431788E+00
         13   -1    0    0    0    0  0.00000000000E+00  0.00000000000E+00  0.14999999963E+04  0.15000000000E+04  0.10566000000E+00 0.  1.
        994   -1    0    0    0    0 -0.00000000000E+00 -0.00000000000E+00  0.11368683772E-12  0.17120000000E+03  0.17120000000E+03 0.  0.
         13    1    1    2    0    0  0.90024253200E+01  0.13538000622E+02  0.77854626636E+02  0.79534113280E+02  0.10566000000E+00 0.  1.
        994    1    1    2    0    0 -0.44434368931E+01  0.90524079599E+01  0.22127074881E+01  0.17151100926E+03  0.17120000000E+03 0.  0.
        998    1    1    2    0    0 -0.45589884270E+01 -0.22590408582E+02  0.14199326622E+04  0.14201548775E+04  0.10000000000E+02 0.  1.
</event>
<event>
 5    1  0.1247473E-008  0.3859783E+03  0.7957747E-01  0.3425534E+00
         13   -1    0    0    0    0  0.00000000000E+00  0.00000000000E+00  0.14999999963E+04  0.15000000000E+04  0.10566000000E+00 0.  1.
        994   -1    0    0    0    0 -0.00000000000E+00 -0.00000000000E+00  0.11368683772E-12  0.17120000000E+03  0.17120000000E+03 0.  0.
         13    1    1    2    0    0 -0.90461618681E+01 -0.66485027946E+01  0.51773888554E+02  0.52977186921E+02  0.10566000000E+00 0.  1.
        994    1    1    2    0    0  0.18348898529E+02  0.62977509239E+01  0.23799099142E+01  0.17231206491E+03  0.17120000000E+03 0.  0.
        998    1    1    2    0    0 -0.93027366614E+01  0.35075187065E+00  0.14458461978E+04  0.14459107482E+04  0.10000000000E+02 0.  1.
</event>
<event>
 5    1  0.1247473E-008  0.3843936E+03  0.7957747E-01  0.3432248E+00
         13   -1    0    0    0    0  0.00000000000E+00  0.00000000000E+00  0.14999999963E+04  0.15000000000E+04  0.10566000000E+00 0. -1.
        994   -1    0    0    0    0 -0.00000000000E+00 -0.00000000000E+00  0.11368683772E-12  0.17120000000E+03  0.17120000000E+03 0.  0.
         13    1    1    2    0    0 -0.96951062211E+01  0.24505057806E+02  0.15767805700E+03  0.15986517371E+03  0.10566000000E+00 0. -1.
        994    1    1    2    0    0  0.14431760671E+02 -0.26853373741E+02  0.49999435839E+01  0.17396499313E+03  0.17120000000E+03 0.  0.
        998    1    1    2    0    0 -0.47366544501E+01  0.23483159346E+01  0.13373219957E+04  0.13373698332E+04  0.10000000000E+02 0.  1.
</event>
<event>
 5    1  0.1247473E-008  0.3802749E+03  0.7957747E-01  0.3449962E+00
         13   -1    0    0    0    0  0.00000000000E+00  0.00000000000E+00  0.14999999963E+04  0.15000000000E+04  0.10566000000E+00 0.  1.
        994   -1    0    0    0    0 -0.00000000000E+00 -0.00000000000E+00  0.11368683772E-12  0.17120000000E+03  0.17120000000E+03 0.  0.
         13    1    1    2    0    0  0.15465590065E+01  0.25308518333E+02  0.84215042772E+02  0.87949403285E+02  0.10566000000E+00 0.  1.
        994    1    1    2    0    0  0.14325682534E+02 -0.37955076346E+01  0.47283128669E+01  0.17190528788E+03  0.17120000000E+03 0.  0.
        998    1    1    2    0    0 -0.15872241540E+02 -0.21513010698E+02  0.14110566406E+04  0.14113453088E+04  0.10000000000E+02 0.  1.
</event>
<event>
 5    1  0.1247473E-008  0.3845642E+03  0.7957747E-01  0.3431522E+00
         13   -1    0    0    0    0  0.00000000000E+00  0.00000000000E+00  0.14999999963E+04  0.15000000000E+04  0.10566000000E+00 0.  1.
        994   -1    0    0    0    0 -0.00000000000E+00 -0.00000000000E+00  0.11368683772E-12  0.17120000000E+03  0.17120000000E+03 0.  0.
         13    1    1    2    0    0  0.12540475798E+01 -0.21930852732E+02  0.10757685490E+03  0.10979674773E+03  0.10566000000E+00 0.  1.
        994    1    1    2    0    0 -0.11699039455E+02  0.39181535542E+02  0.73727572533E+01  0.17616996850E+03  0.17120000000E+03 0.  0.
        998    1    1    2    0    0  0.10444991876E+02 -0.17250682810E+02  0.13850503841E+04  0.13852332838E+04  0.10000000000E+02 0.  1.
</event>
<event>
 5    1  0.1247473E-008  0.3848025E+03  0.7957747E-01  0.3430510E+00
         13   -1    0    0    0    0  0.00000000000E+00  0.00000000000E+00  0.14999999963E+04  0.15000000000E+04  0.10566000000E+00 0.  1.
        994   -1    0    0    0    0 -0.00000000000E+00 -0.00000000000E+00  0.11368683772E-12  0.17120000000E+03  0.17120000000E+03 0.  0.
         13    1    1    2    0    0 -0.11300400021E+02 -0.24285505041E+01  0.46296079236E+02  0.47717240227E+02  0.10566000000E+00 0.  1.
        994    1    1    2    0    0 -0.27414973519E+02  0.81994052932E+00  0.42076029028E+01  0.17343412870E+03  0.17120000000E+03 0.  0.
        998    1    1    2    0    0  0.38715373540E+02  0.16086099748E+01  0.14494963141E+04  0.14500486311E+04  0.10000000000E+02 0.  1.
</event>
<event>
 5    1  0.1247473E-008  0.3694722E+03  0.7957747E-01  0.3498320E+00
         13   -1    0    0    0    0  0.00000000000E+00  0.00000000000E+00  0.14999999963E+04  0.15000000000E+04  0.10566000000E+00 0.  1.
        994   -1    0    0    0    0 -0.00000000000E+00 -0.00000000000E+00  0.11368683772E-12  0.17120000000E+03  0.17120000000E+03 0.  0.
         13    1    1    2    0    0  0.13432044519E+01 -0.38218823884E+02  0.70238345602E+02  0.79974490022E+02  0.10566000000E+00 0.  1.
        994    1    1    2    0    0 -0.27620495253E+01  0.37120919792E+02  0.14360099762E+02  0.17578749691E+03  0.17120000000E+03 0.  0.
        998    1    1    2    0    0  0.14188450734E+01  0.10979040922E+01  0.14154015509E+04  0.14154380131E+04  0.10000000000E+02 0.  0.
</event>
<event>
 5    1  0.1247473E-008  0.3837042E+03  0.7957747E-01  0.3435187E+00
         13   -1    0    0    0    0  0.00000000000E+00  0.00000000000E+00  0.14999999963E+04  0.15000000000E+04  0.10566000000E+00 0. -1.
        994   -1    0    0    0    0 -0.00000000000E+00 -0.00000000000E+00  0.11368683772E-12  0.17120000000E+03  0.17120000000E+03 0.  0.
         13    1    1    2    0    0  0.49318669336E+01  0.10379052043E+02  0.27955646816E+02  0.30225442688E+02  0.10566000000E+00 0. -1.
        994    1    1    2    0    0 -0.21466105281E+01 -0.11617391291E+02  0.27359347173E+01  0.17162895168E+03  0.17120000000E+03 0.  0.
        998    1    1    2    0    0 -0.27852564055E+01  0.12383392479E+01  0.14693084147E+04  0.14693456056E+04  0.10000000000E+02 0. -1.
</event>
<event>
 5    1  0.1247473E-008  0.3807800E+03  0.7957747E-01  0.3447769E+00
         13   -1    0    0    0    0  0.00000000000E+00  0.00000000000E+00  0.14999999963E+04  0.15000000000E+04  0.10566000000E+00 0.  1.
        994   -1    0    0    0    0 -0.00000000000E+00 -0.00000000000E+00  0.11368683772E-12  0.17120000000E+03  0.17120000000E+03 0.  0.
         13    1    1    2    0    0  0.40189359180E+02  0.25456804164E+02  0.25402599780E+03  0.25844235758E+03  0.10566000000E+00 0.  1.
        994    1    1    2    0    0 -0.41096523742E+02 -0.22960409888E+02  0.11164722896E+02  0.17790501883E+03  0.17120000000E+03 0.  0.
        998    1    1    2    0    0  0.90716456190E+00 -0.24963942765E+01  0.12348092756E+04  0.12348526236E+04  0.10000000000E+02 0.  0.
</event>
<event>
 5    1  0.1247473E-008  0.3794610E+03  0.7957747E-01  0.3453509E+00
         13   -1    0    0    0    0  0.00000000000E+00  0.00000000000E+00  0.14999999963E+04  0.15000000000E+04  0.10566000000E+00 0. -1.
        994   -1    0    0    0    0 -0.00000000000E+00 -0.00000000000E+00  0.11368683772E-12  0.17120000000E+03  0.17120000000E+03 0.  0.
         13    1    1    2    0    0 -0.35957005211E+02  0.42944391297E+02  0.30210981968E+03  0.30725800442E+03  0.10566000000E+00 0. -1.
        994    1    1    2    0    0  0.30756362348E+02 -0.39284455585E+02  0.12787108138E+02  0.17877967561E+03  0.17120000000E+03 0.  0.
        998    1    1    2    0    0  0.52006428629E+01 -0.36599357118E+01  0.11851030685E+04  0.11851623200E+04  0.10000000000E+02 0. -1.
</event>
<event>
 5    1  0.1247473E-008  0.3822598E+03  0.7957747E-01  0.3441377E+00
         13   -1    0    0    0    0  0.00000000000E+00  0.00000000000E+00  0.14999999963E+04  0.15000000000E+04  0.10566000000E+00 0. -1.
        994   -1    0    0    0    0 -0.00000000000E+00 -0.00000000000E+00  0.11368683772E-12  0.17120000000E+03  0.17120000000E+03 0.  0.
         13    1    1    2    0    0  0.56752737358E+01 -0.12736187467E+02  0.31099449536E+02  0.34082343356E+02  0.10566000000E+00 0. -1.
        994    1    1    2    0    0 -0.72939663800E+01  0.97537772255E+01  0.34890830664E+01  0.17166814444E+03  0.17120000000E+03 0.  0.
        998    1    1    2    0    0  0.16186926442E+01  0.29824102418E+01  0.14654114637E+04  0.14654495122E+04  0.10000000000E+02 0. -1.
</event>
<event>
 5    1  0.1247473E-008  0.3843804E+03  0.7957747E-01  0.3432304E+00
         13   -1    0    0    0    0  0.00000000000E+00  0.00000000000E+00  0.14999999963E+04  0.15000000000E+04  0.10566000000E+00 0. -1.
        994   -1    0    0    0    0 -0.00000000000E+00 -0.00000000000E+00  0.11368683772E-12  0.17120000000E+03  0.17120000000E+03 0.  0.
         13    1    1    2    0    0  0.11568157323E+01 -0.15300928806E+02  0.62697247213E+02  0.64547754547E+02  0.10566000000E+00 0. -1.
        994    1    1    2    0    0  0.89329289491E+01  0.45548560059E+01  0.22694566971E+01  0.17150840903E+03  0.17120000000E+03 0.  0.
        998    1    1    2    0    0 -0.10089744681E+02  0.10746072800E+02  0.14350332924E+04  0.14351438364E+04  0.10000000000E+02 0. -1.
</event>
<event>
 5    1  0.1247473E-008  0.3804959E+03  0.7957747E-01  0.3449002E+00
         13   -1    0    0    0    0  0.00000000000E+00  0.00000000000E+00  0.14999999963E+04  0.15000000000E+04  0.10566000000E+00 0.  1.
        994   -1    0    0    0    0 -0.00000000000E+00 -0.00000000000E+00  0.11368683772E-12  0.17120000000E+03  0.17120000000E+03 0.  0.
         13    1    1    2    0    0  0.24369605806E+02  0.18252849952E+02  0.10784039644E+03  0.11205626483E+03  0.10566000000E+00 0.  1.
        994    1    1    2    0    0 -0.21742359507E+02 -0.29557442898E+02  0.83895621765E+01  0.17528889691E+03  0.17120000000E+03 0.  0.
        998    1    1    2    0    0 -0.26272462990E+01  0.11304592946E+02  0.13837700377E+04  0.13838548383E+04  0.10000000000E+02 0.  1.
</event>
<event>
 5    1  0.1247473E-008  0.3847963E+03  0.7957747E-01  0.3430537E+00
         13   -1    0    0    0    0  0.00000000000E+00  0.00000000000E+00  0.14999999963E+04  0.15000000000E+04  0.10566000000E+00 0.  1.
        994   -1    0    0    0    0 -0.00000000000E+00 -0.00000000000E+00  0.11368683772E-12  0.17120000000E+03  0.17120000000E+03 0.  0.
         13    1    1    2    0    0  0.15273733926E+02 -0.19543880381E+01  0.69964131419E+02  0.71638658766E+02  0.10566000000E+00 0.  1.
        994    1    1    2    0    0 -0.71162023612E+01 -0.38635900211E+01  0.19471310004E+01  0.17140244742E+03  0.17120000000E+03 0.  0.
        998    1    1    2    0    0 -0.81575315650E+01  0.58179780592E+01  0.14280887339E+04  0.14281588938E+04  0.10000000000E+02 0.  1.
</event>
<event>
 5    1  0.1247473E-008  0.3772607E+03  0.7957747E-01  0.3463173E+00
         13   -1    0    0    0    0  0.00000000000E+00  0.00000000000E+00  0.14999999963E+04  0.15000000000E+04  0.10566000000E+00 0.  1.
        994   -1    0    0    0    0 -0.00000000000E+00 -0.00000000000E+00  0.11368683772E-12  0.17120000000E+03  0.17120000000E+03 0.  0.
         13    1    1    2    0    0 -0.11845967911E+02  0.52175850397E+01  0.12654361654E+02  0.18102325328E+02  0.10566000000E+00 0.  1.
        994    1    1    2    0    0  0.10311902181E+02 -0.60518971242E+01  0.60047795289E+01  0.17172203750E+03  0.17120000000E+03 0.  0.
        998    1    1    2    0    0  0.15340657295E+01  0.83431208452E+00  0.14813408551E+04  0.14813756372E+04  0.10000000000E+02 0.  1.
</event>
<event>
 5    1  0.1247473E-008  0.3846758E+03  0.7957747E-01  0.3431048E+00
         13   -1    0    0    0    0  0.00000000000E+00  0.00000000000E+00  0.14999999963E+04  0.15000000000E+04  0.10566000000E+00 0. -1.
        994   -1    0    0    0    0 -0.00000000000E+00 -0.00000000000E+00  0.11368683772E-12  0.17120000000E+03  0.17120000000E+03 0.  0.
         13    1    1    2    0    0  0.38658269649E+01 -0.11538025548E+02  0.42464730158E+02  0.44173919037E+02  0.10566000000E+00 0. -1.
        994    1    1    2    0    0 -0.47641786852E+01  0.70059113927E-02  0.18659204418E+01  0.17127644061E+03  0.17120000000E+03 0.  0.
        998    1    1    2    0    0  0.89835172028E+00  0.11531019636E+02  0.14556693457E+04  0.14557496404E+04  0.10000000000E+02 0. -1.
</event>
<event>
 5    1  0.1247473E-008  0.3817285E+03  0.7957747E-01  0.3443667E+00
         13   -1    0    0    0    0  0.00000000000E+00  0.00000000000E+00  0.14999999963E+04  0.15000000000E+04  0.10566000000E+00 0.  1.
        994   -1    0    0    0    0 -0.00000000000E+00 -0.00000000000E+00  0.11368683772E-12  0.17120000000E+03  0.17120000000E+03 0.  0.
         13    1    1    2    0    0  0.48059741579E+01 -0.91676603334E+01  0.14905254821E+02  0.18147208295E+02  0.10566000000E+00 0.  1.
        994    1    1    2    0    0 -0.81375149519E+01  0.85590088396E+01  0.37269022438E+01  0.17164732909E+03  0.17120000000E+03 0.  0.
        998    1    1    2    0    0  0.33315407940E+01  0.60865149378E+00  0.14813678392E+04  0.14814054626E+04  0.10000000000E+02 0.  1.
</event>
<event>
 5    1  0.1247473E-008  0.2876999E+03  0.7957747E-01  0.3987942E+00
         13   -1    0    0    0    0  0.00000000000E+00  0.00000000000E+00  0.14999999963E+04  0.15000000000E+04  0.10566000000E+00 0. -1.
        994   -1    0    0    0    0 -0.00000000000E+00 -0.00000000000E+00  0.11368683772E-12  0.17120000000E+03  0.17120000000E+03 0.  0.
         13    1    1    2    0    0  0.34837408339E+02 -0.14939570812E+03  0.84475647967E+03  0.85857221230E+03  0.10566000000E+00 0. -1.
        994    1    1    2    0    0  0.30986820475E+02  0.10867891568E+02  0.40502252111E+02  0.17896414875E+03  0.17120000000E+03 0.  0.
        998    1    1    2    0    0 -0.65824228814E+02  0.13852781655E+03  0.61474126450E+03  0.63366363896E+03  0.10000000000E+02 0. -1.
</event>
<event>
 5    1  0.1247473E-008  0.3853761E+03  0.7957747E-01  0.3428079E+00
         13   -1    0    0    0    0  0.00000000000E+00  0.00000000000E+00  0.14999999963E+04  0.15000000000E+04  0.10566000000E+00 0. -1.
        994   -1    0    0    0    0 -0.00000000000E+00 -0.00000000000E+00  0.11368683772E-12  0.17120000000E+03  0.17120000000E+03 0.  0.
         13    1    1    2    0    0  0.10175186163E+02  0.63801896548E+00  0.35970000938E+02  0.37387078158E+02  0.10566000000E+00 0. -1.
        994    1    1    2    0    0 -0.70072709836E+01 -0.20769115753E+01  0.16189820854E+01  0.17136357989E+03  0.17120000000E+03 0.  0.
        998    1    1    2    0    0 -0.31679151794E+01  0.14388926098E+01  0.14624110133E+04  0.14624493420E+04  0.10000000000E+02 0. -1.
</event>
<event>
 5    1  0.1247473E-008  0.3833790E+03  0.7957747E-01  0.3436576E+00
         13   -1    0    0    0    0  0.00000000000E+00  0.00000000000E+00  0.14999999963E+04  0.15000000000E+04  0.10566000000E+00 0. -1.
        994   -1    0    0    0    0 -0.00000000000E+00 -0.00000000000E+00  0.11368683772E-12  0.17120000000E+03  0.17120000000E+03 0.  0.
         13    1    1    2    0    0 -0.16110761701E+02  0.60303686751E+00  0.51337145745E+02  0.53809237063E+02  0.10566000000E+00 0. -1.
        994    1    1    2    0    0  0.16156235206E+02  0.31554095656E+01  0.33334642043E+01  0.17202189549E+03  0.17120000000E+03 0.  0.
        998    1    1    2    0    0 -0.45473505463E-01 -0.37584464331E+01  0.14453293863E+04  0.14453688674E+04  0.10000000000E+02 0. -1.
</event>
<event>
 5    1  0.1247473E-008  0.3847322E+03  0.7957747E-01  0.3430809E+00
         13   -1    0    0    0    0  0.00000000000E+00  0.00000000000E+00  0.14999999963E+04  0.15000000000E+04  0.10566000000E+00 0.  1.
        994   -1    0    0    0    0 -0.00000000000E+00 -0.00000000000E+00  0.11368683772E-12  0.17120000000E+03  0.17120000000E+03 0.  0.
         13    1    1    2    0    0 -0.13759289556E+02  0.10555702262E+02  0.98461730804E+02  0.99977319909E+02  0.10566000000E+00 0.  1.
        994    1    1    2    0    0 -0.71528922620E+01  0.31549240898E+01  0.19643376009E+01  0.17138966140E+03  0.17120000000E+03 0.  0.
        998    1    1    2    0    0  0.20912181818E+02 -0.13710626351E+02  0.13995739279E+04  0.13998330187E+04  0.10000000000E+02 0.  1.
</event>
<event>
 5    1  0.1247473E-008  0.3835833E+03  0.7957747E-01  0.3435703E+00
         13   -1    0    0    0    0  0.00000000000E+00  0.00000000000E+00  0.14999999963E+04  0.15000000000E+04  0.10566000000E+00 0. -1.
        994   -1    0    0    0    0 -0.00000000000E+00 -0.00000000000E+00  0.11368683772E-12  0.17120000000E+03  0.17120000000E+03 0.  0.
         13    1    1    2    0    0  0.19634303501E+02  0.17990311116E+00  0.80159771361E+02  0.82529621033E+02  0.10566000000E+00 0. -1.
        994    1    1    2    0    0 -0.16442507315E+02 -0.17260433148E+02  0.42149075051E+01  0.17290310594E+03  0.17120000000E+03 0.  0.
        998    1    1    2    0    0 -0.31917961855E+01  0.17080530037E+02  0.14156253174E+04  0.14157672730E+04  0.10000000000E+02 0. -1.
</event>
<event>
 5    1  0.1247473E-008  0.3848611E+03  0.7957747E-01  0.3430262E+00
         13   -1    0    0    0    0  0.00000000000E+00  0.00000000000E+00  0.14999999963E+04  0.15000000000E+04  0.10566000000E+00 0. -1.
        994   -1    0    0    0    0 -0.00000000000E+00 -0.00000000000E+00  0.11368683772E-12  0.17120000000E+03  0.17120000000E+03 0.  0.
         13    1    1    2    0    0  0.15102014481E+02 -0.15394719496E+02  0.11813721055E+03  0.12008946628E+03  0.10566000000E+00 0. -1.
        994    1    1    2    0    0 -0.33951484284E+02  0.11333720879E+02  0.59257163746E+01  0.17500203036E+03  0.17120000000E+03 0.  0.
        998    1    1    2    0    0  0.18849469803E+02  0.40609986173E+01  0.13759370694E+04  0.13761085034E+04  0.10000000000E+02 0. -1.
</event>
<event>
 5    1  0.1247473E-008  0.4040862E+03  0.7957747E-01  0.3352550E+00
         13   -1    0    0    0    0  0.00000000000E+00  0.00000000000E+00  0.14999999963E+04  0.15000000000E+04  0.10566000000E+00 0.  1.
        994   -1    0    0    0    0 -0.00000000000E+00 -0.00000000000E+00  0.11368683772E-12  0.17120000000E+03  0.17120000000E+03 0.  0.
         13    1    1    2    0    0 -0.26360464787E+02  0.10774845879E+03  0.18666139977E+03  0.21713381543E+03  0.10566000000E+00 0.  1.
        994    1    1    2    0    0  0.43575929645E+02 -0.78598335354E+02  0.63188437642E+02  0.20341774410E+03  0.17120000000E+03 0.  0.
        998    1    1    2    0    0 -0.17215464858E+02 -0.29150123433E+02  0.12501501589E+04  0.12506484405E+04  0.10000000000E+02 0.  1.
</event>
<event>
 5    1  0.1247473E-008  0.3749607E+03  0.7957747E-01  0.3473398E+00
         13   -1    0    0    0    0  0.00000000000E+00  0.00000000000E+00  0.14999999963E+04  0.15000000000E+04  0.10566000000E+00 0. -1.
        994   -1    0    0    0    0 -0.00000000000E+00 -0.00000000000E+00  0.11368683772E-12  0.17120000000E+03  0.17120000000E+03 0.  0.
         13    1    1    2    0    0 -0.11597277304E+02  0.19291543100E+02  0.37337753615E+02  0.43597929826E+02  0.10566000000E+00 0. -1.
        994    1    1    2    0    0 -0.14243276125E+02 -0.99477085305E+00  0.73922453887E+01  0.17195332441E+03  0.17120000000E+03 0.  0.
        998    1    1    2    0    0  0.25840553429E+02 -0.18296772246E+02  0.14552699973E+04  0.14556487458E+04  0.10000000000E+02 0. -1.
</event>
<event>
 5    1  0.1247473E-008  0.3841439E+03  0.7957747E-01  0.3433311E+00
         13   -1    0    0    0    0  0.00000000000E+00  0.00000000000E+00  0.14999999963E+04  0.15000000000E+04  0.10566000000E+00 0. -1.
        994   -1    0    0    0    0 -0.00000000000E+00 -0.00000000000E+00  0.11368683772E-12  0.17120000000E+03  0.17120000000E+03 0.  0.
         13    1    1    2    0    0 -0.62024175283E+01 -0.78817364067E+01  0.23787948309E+02  0.25816068655E+02  0.10566000000E+00 0. -1.
        994    1    1    2    0    0  0.79134806106E+01  0.36546636051E+01  0.23063686837E+01  0.17143727447E+03  0.17120000000E+03 0.  0.
        998    1    1    2    0    0 -0.17110630823E+01  0.42270728016E+01  0.14739056793E+04  0.14739466569E+04  0.10000000000E+02 0. -1.
</event>
<event>
 5    1  0.1247473E-008  0.3847971E+03  0.7957747E-01  0.3430533E+00
         13   -1    0    0    0    0  0.00000000000E+00  0.00000000000E+00  0.14999999963E+04  0.15000000000E+04  0.10566000000E+00 0.  1.
        994   -1    0    0    0    0 -0.00000000000E+00 -0.00000000000E+00  0.11368683772E-12  0.17120000000E+03  0.17120000000E+03 0.  0.
         13    1    1    2    0    0 -0.84975542096E+01 -0.75370312065E+01  0.35909746493E+02  0.37663461394E+02  0.10566000000E+00 0.  1.
        994    1    1    2    0    0  0.92600726137E+01  0.11063287853E+02  0.24161849321E+01  0.17182381451E+03  0.17120000000E+03 0.  0.
        998    1    1    2    0    0 -0.76251840409E+00 -0.35262566467E+01  0.14616740649E+04  0.14617127241E+04  0.10000000000E+02 0.  1.
</event>
<event>
 5    1  0.1247473E-008  0.3712702E+03  0.7957747E-01  0.3490074E+00
         13   -1    0    0    0    0  0.00000000000E+00  0.00000000000E+00  0.14999999963E+04  0.15000000000E+04  0.10566000000E+00 0. -1.
        994   -1    0    0    0    0 -0.00000000000E+00 -0.00000000000E+00  0.11368683772E-12  0.17120000000E+03  0.17120000000E+03 0.  0.
         13    1    1    2    0    0 -0.37308363575E+01 -0.21805285953E+02  0.25201473786E+02  0.33533790129E+02  0.10566000000E+00 0. -1.
        994    1    1    2    0    0  0.21614921412E+02  0.55213451141E+01  0.10321858777E+02  0.17295569042E+03  0.17120000000E+03 0.  0.
        998    1    1    2    0    0 -0.17884085054E+02  0.16283940838E+02  0.14644766637E+04  0.14647105195E+04  0.10000000000E+02 0. -1.
</event>
<event>
 5    1  0.1247473E-008  0.3850882E+03  0.7957747E-01  0.3429298E+00
         13   -1    0    0    0    0  0.00000000000E+00  0.00000000000E+00  0.14999999963E+04  0.15000000000E+04  0.10566000000E+00 0.  1.
        994   -1    0    0    0    0 -0.00000000000E+00 -0.00000000000E+00  0.11368683772E-12  0.17120000000E+03  0.17120000000E+03 0.  0.
         13    1    1    2    0    0 -0.13158582587E+02 -0.84545925755E+01  0.80048571715E+02  0.81562328491E+02  0.10566000000E+00 0.  1.
        994    1    1    2    0    0 -0.35269241730E+01  0.15600385036E+02  0.24278592574E+01  0.17196262881E+03  0.17120000000E+03 0.  0.
        998    1    1    2    0    0  0.16685506760E+02 -0.71457924600E+01  0.14175235653E+04  0.14176750427E+04  0.10000000000E+02 0.  1.
</event>
<event>
 5    1  0.1247473E-008  0.3770007E+03  0.7957747E-01  0.3464323E+00
         13   -1    0    0    0    0  0.00000000000E+00  0.00000000000E+00  0.14999999963E+04  0.15000000000E+04  0.10566000000E+00 0.  1.
        994   -1    0    0    0    0 -0.00000000000E+00 -0.00000000000E+00  0.11368683772E-12  0.17120000000E+03  0.17120000000E+03 0.  0.
         13    1    1    2    0    0 -0.76161495687E+02  0.38512741560E+01  0.41889699994E+03  0.42578176741E+03  0.10566000000E+00 0.  1.
        994    1    1    2    0    0  0.66079285175E+02  0.17469837886E+02  0.21594609956E+02  0.18560020028E+03  0.17120000000E+03 0.  0.
        998    1    1    2    0    0  0.10082210512E+02 -0.21321112042E+02  0.10595083864E+04  0.10598180323E+04  0.10000000000E+02 0.  1.
</event>
<event>
 5    1  0.1247473E-008  0.3716242E+03  0.7957747E-01  0.3488460E+00
         13   -1    0    0    0    0  0.00000000000E+00  0.00000000000E+00  0.14999999963E+04  0.15000000000E+04  0.10566000000E+00 0.  1.
        994   -1    0    0    0    0 -0.00000000000E+00 -0.00000000000E+00  0.11368683772E-12  0.17120000000E+03  0.17120000000E+03 0.  0.
         13    1    1    2    0    0  0.32652498667E+00 -0.16895709255E+02  0.13043481709E+02  0.21347486712E+02  0.10566000000E+00 0.  1.
        994    1    1    2    0    0  0.34513860687E+01  0.18764537296E+02  0.96752182956E+01  0.17253135882E+03  0.17120000000E+03 0.  0.
        998    1    1    2    0    0 -0.37779110554E+01 -0.18688280410E+01  0.14772812963E+04  0.14773211545E+04  0.10000000000E+02 0.  1.
</event>
<event>
 5    1  0.1247473E-008  0.3788168E+03  0.7957747E-01  0.3456327E+00
         13   -1    0    0    0    0  0.00000000000E+00  0.00000000000E+00  0.14999999963E+04  0.15000000000E+04  0.10566000000E+00 0. -1.
        994   -1    0    0    0    0 -0.00000000000E+00 -0.00000000000E+00  0.11368683772E-12  0.17120000000E+03  0.17120000000E+03 0.  0.
         13    1    1    2    0    0  0.10341293152E+02  0.28343893261E+02  0.10862912739E+03  0.11274137266E+03  0.10566000000E+00 0. -1.
        994    1    1    2    0    0  0.68906839216E+02 -0.20456133673E+02  0.22271201957E+02  0.18700816114E+03  0.17120000000E+03 0.  0.
        998    1    1    2    0    0 -0.79248132368E+02 -0.78877595880E+01  0.13690996669E+04  0.13714504662E+04  0.10000000000E+02 0. -1.
</event>
<event>
 5    1  0.1247473E-008  0.3829027E+03  0.7957747E-01  0.3438616E+00
         13   -1    0    0    0    0  0.00000000000E+00  0.00000000000E+00  0.14999999963E+04  0.15000000000E+04  0.10566000000E+00 0. -1.
        994   -1    0    0    0    0 -0.00000000000E+00 -0.00000000000E+00  0.11368683772E-12  0.17120000000E+03  0.17120000000E+03 0.  0.
         13    1    1    2    0    0  0.71019505352E+01  0.21538670280E+02  0.98805626187E+02  0.10137511997E+03  0.10566000000E+00 0. -1.
        994    1    1    2    0    0 -0.76642328621E+01 -0.63583248515E+01  0.30034489917E+01  0.17151568286E+03  0.17120000000E+03 0.  0.
        998    1    1    2    0    0  0.56228232696E+00 -0.15180345428E+02  0.13981909211E+04  0.13983091972E+04  0.10000000000E+02 0. -1.
</event>
<event>
 5    1  0.1247473E-008  0.3838005E+03  0.7957747E-01  0.3434775E+00
         13   -1    0    0    0    0  0.00000000000E+00  0.00000000000E+00  0.14999999963E+04  0.15000000000E+04  0.10566000000E+00 0.  1.
        994   -1    0    0    0    0 -0.00000000000E+00 -0.00000000000E+00  0.11368683772E-12  0.17120000000E+03  0.17120000000E+03 0.  0.
         13    1    1    2    0    0 -0.17136935654E+02  0.12003773499E+02  0.97920398908E+02  0.10013081857E+03  0.10566000000E+00 0.  1.
        994    1    1    2    0    0  0.73706496197E+01 -0.12095702437E+02  0.28894958928E+01  0.17180925959E+03  0.17120000000E+03 0.  0.
        998    1    1    2    0    0  0.97662860339E+01  0.91928938638E-01  0.13991901015E+04  0.13992599218E+04  0.10000000000E+02 0.  1.
</event>
<event>
 5    1  0.1247473E-008  0.3856855E+03  0.7957747E-01  0.3426770E+00
         13   -1    0    0    0    0  0.00000000000E+00  0.00000000000E+00  0.14999999963E+04  0.15000000000E+04  0.10566000000E+00 0. -1.
        994   -1    0    0    0    0 -0.00000000000E+00 -0.00000000000E+00  0.11368683772E-12  0.17120000000E+03  0.17120000000E+03 0.  0.
         13    1    1    2    0    0  0.14000636605E+02 -0.28562131945E+01  0.64479976796E+02  0.66044336251E+02  0.10566000000E+00 0. -1.
        994    1    1    2    0    0 -0.37961133559E+02  0.17820580518E+02  0.70822316224E+01  0.17640356787E+03  0.17120000000E+03 0.  0.
        998    1    1    2    0    0  0.23960496954E+02 -0.14964367324E+02  0.14284377879E+04  0.14287520959E+04  0.10000000000E+02 0. -1.
</event>
<event>
 5    1  0.1247473E-008  0.3769907E+03  0.7957747E-01  0.3464367E+00
         13   -1    0    0    0    0  0.00000000000E+00  0.00000000000E+00  0.14999999963E+04  0.15000000000E+04  0.10566000000E+00 0.  1.
        994   -1    0    0    0    0 -0.00000000000E+00 -0.00000000000E+00  0.11368683772E-12  0.17120000000E+03  0.17120000000E+03 0.  0.
         13    1    1    2    0    0 -0.11050549855E+02  0.24689312834E+02  0.61371426123E+02  0.67068173740E+02  0.10566000000E+00 0.  1.
        994    1    1    2    0    0  0.11670086079E+02 -0.19260791145E+02  0.73743669298E+01  0.17283226051E+03  0.17120000000E+03 0.  0.
        998    1    1    2    0    0 -0.61953622408E+00 -0.54285216891E+01  0.14312542032E+04  0.14312995658E+04  0.10000000000E+02 0.  1.
</event>
<event>
 5    1  0.1247473E-008  0.3830191E+03  0.7957747E-01  0.3438117E+00
         13   -1    0    0    0    0  0.00000000000E+00  0.00000000000E+00  0.14999999963E+04  0.15000000000E+04  0.10566000000E+00 0. -1.
        994   -1    0    0    0    0 -0.00000000000E+00 -0.00000000000E+00  0.11368683772E-12  0.17120000000E+03  0.17120000000E+03 0.  0.
         13    1    1    2    0    0 -0.31309399820E+00  0.15885762299E+02  0.52296406696E+02  0.54656937246E+02  0.10566000000E+00 0. -1.
        994    1    1    2    0    0 -0.50272509732E+01  0.10215987231E+02  0.30460193102E+01  0.17160523850E+03  0.17120000000E+03 0.  0.
        998    1    1    2    0    0  0.53403449714E+01 -0.26101749530E+02  0.14446575703E+04  0.14449378243E+04  0.10000000000E+02 0. -1.
</event>
<event>
 5    1  0.1247473E-008  0.3810293E+03  0.7957747E-01  0.3446689E+00
         13   -1    0    0    0    0  0.00000000000E+00  0.00000000000E+00  0.14999999963E+04  0.15000000000E+04  0.10566000000E+00 0.  1.
        994   -1    0    0    0    0 -0.00000000000E+00 -0.00000000000E+00  0.11368683772E-12  0.17120000000E+03  0.17120000000E+03 0.  0.
         13    1    1    2    0    0  0.36500379420E+02  0.42195892512E+01  0.21059357180E+03  0.21377498984E+03  0.10566000000E+00 0.  1.
        994    1    1    2    0    0 -0.73091652010E+01  0.95955912534E+01  0.40993366563E+01  0.17167336377E+03  0.17120000000E+03 0.  0.
        998    1    1    2    0    0 -0.29191214219E+02 -0.13815180505E+02  0.12853070878E+04  0.12857516464E+04  0.10000000000E+02 0.  1.
</event>
<event>
 5    1  0.1247473E-008  0.3855379E+03  0.7957747E-01  0.3427394E+00
         13   -1    0    0    0    0  0.00000000000E+00  0.00000000000E+00  0.14999999963E+04  0.15000000000E+04  0.10566000000E+00 0.  1.
        994   -1    0    0    0    0 -0.00000000000E+00 -0.00000000000E+00  0.11368683772E-12  0.17120000000E+03  0.17120000000E+03 0.  0.
         13    1    1    2    0    0 -0.87283838494E+01  0.11403695704E+02  0.78342791480E+02  0.79648183289E+02  0.10566000000E+00 0.  1.
        994    1    1    2    0    0  0.45434638102E+01 -0.34718932651E+01  0.14706895656E+01  0.17130178059E+03  0.17120000000E+03 0.  0.
        998    1    1    2    0    0  0.41849200393E+01 -0.79318024390E+01  0.14201865152E+04  0.14202500361E+04  0.10000000000E+02 0.  1.
</event>
<event>
 5    1  0.1247473E-008  0.3717852E+03  0.7957747E-01  0.3487727E+00
         13   -1    0    0    0    0  0.00000000000E+00  0.00000000000E+00  0.14999999963E+04  0.15000000000E+04  0.10566000000E+00 0.  1.
        994   -1    0    0    0    0 -0.00000000000E+00 -0.00000000000E+00  0.11368683772E-12  0.17120000000E+03  0.17120000000E+03 0.  0.
         13    1    1    2    0    0 -0.42288915422E+02  0.11853546427E+03  0.59889992516E+03  0.61198050637E+03  0.10566000000E+00 0.  1.
        994    1    1    2    0    0  0.16033001998E+02 -0.84698176976E+02  0.38508606273E+02  0.19550752183E+03  0.17120000000E+03 0.  0.
        998    1    1    2    0    0  0.26255913424E+02 -0.33837287293E+02  0.86259146484E+03  0.86371197179E+03  0.10000000000E+02 0.  1.
</event>
<event>
 5    1  0.1247473E-008  0.3803756E+03  0.7957747E-01  0.3449525E+00
         13   -1    0    0    0    0  0.00000000000E+00  0.00000000000E+00  0.14999999963E+04  0.15000000000E+04  0.10566000000E+00 0. -1.
        994   -1    0    0    0    0 -0.00000000000E+00 -0.00000000000E+00  0.11368683772E-12  0.17120000000E+03  0.17120000000E+03 0.  0.
         13    1    1    2    0    0 -0.32766155719E+02  0.12436291810E+02  0.14324802710E+03  0.14747301701E+03  0.10566000000E+00 0. -1.
        994    1    1    2    0    0  0.27913408628E+02 -0.18703848997E+02  0.77222913873E+01  0.17463695523E+03  0.17120000000E+03 0.  0.
        998    1    1    2    0    0  0.48527470908E+01  0.62675571867E+01  0.13490296778E+04  0.13490900278E+04  0.10000000000E+02 0. -1.
</event>
<event>
 5    1  0.1247473E-008  0.3736926E+03  0.7957747E-01  0.3479091E+00
         13   -1    0    0    0    0  0.00000000000E+00  0.00000000000E+00  0.14999999963E+04  0.15000000000E+04  0.10566000000E+00 0. -1.
        994   -1    0    0    0    0 -0.00000000000E+00 -0.00000000000E+00  0.11368683772E-12  0.17120000000E+03  0.17120000000E+03 0.  0.
         13    1    1    2    0    0 -0.74670041754E+01 -0.71284373425E+01  0.38097280260E+01  0.11004361043E+02  0.10566000000E+00 0. -1.
        994    1    1    2    0    0  0.56176308134E+01  0.84625621860E+01  0.77039715810E+01  0.17167400477E+03  0.17120000000E+03 0.  0.
        998    1    1    2    0    0  0.18493733619E+01 -0.13341248435E+01  0.14884862967E+04  0.14885216342E+04  0.10000000000E+02 0. -1.
</event>
<event>
 5    1  0.1247473E-008  0.3747947E+03  0.7957747E-01  0.3474142E+00
         13   -1    0    0    0    0  0.00000000000E+00  0.00000000000E+00  0.14999999963E+04  0.15000000000E+04  0.10566000000E+00 0.  1.
        994   -1    0    0    0    0 -0.00000000000E+00 -0.00000000000E+00  0.11368683772E-12  0.17120000000E+03  0.17120000000E+03 0.  0.
         13    1    1    2    0    0 -0.34201893900E+02  0.11216461882E+02  0.47704053338E+02  0.59760073899E+02  0.10566000000E+00 0.  1.
        994    1    1    2    0    0 -0.15363782955E+02  0.82449253578E+01  0.14578600638E+02  0.17270205620E+03  0.17120000000E+03 0.  0.
        998    1    1    2    0    0  0.49565676855E+02 -0.19461387240E+02  0.14377173423E+04  0.14387378699E+04  0.10000000000E+02 0.  1.
</event>
<event>
 5    1  0.1247473E-008  0.3720038E+03  0.7957747E-01  0.3486732E+00
         13   -1    0    0    0    0  0.00000000000E+00  0.00000000000E+00  0.14999999963E+04  0.15000000000E+04  0.10566000000E+00 0.  1.
        994   -1    0    0    0    0 -0.00000000000E+00 -0.00000000000E+00  0.11368683772E-12  0.17120000000E+03  0.17120000000E+03 0.  0.
         13    1    1    2    0    0 -0.10625901393E+03 -0.22671187783E+02  0.35774561023E+03  0.37388085482E+03  0.10566000000E+00 0.  1.
        994    1    1    2    0    0  0.10904981161E+03  0.21909054389E+02  0.56935547328E+02  0.21195038246E+03  0.17120000000E+03 0.  0.
        998    1    1    2    0    0 -0.27907976785E+01  0.76213339449E+00  0.10853188387E+04  0.10853687627E+04  0.10000000000E+02 0.  1.
</event>
<event>
 5    1  0.1247473E-008  0.3797935E+03  0.7957747E-01  0.3452058E+00
         13   -1    0    0    0    0  0.00000000000E+00  0.00000000000E+00  0.14999999963E+04  0.15000000000E+04  0.10566000000E+00 0.  1.
        994   -1    0    0    0    0 -0.00000000000E+00 -0.00000000000E+00  0.11368683772E-12  0.17120000000E+03  0.17120000000E+03 0.  0.
         13    1    1    2    0    0 -0.11463697448E+01  0.21493049064E+02  0.55627048194E+02  0.59645997154E+02  0.10566000000E+00 0.  1.
        994    1    1    2    0    0 -0.56003945521E+01 -0.22885449728E+01  0.43598559809E+01  0.17136233601E+03  0.17120000000E+03 0.  0.
        998    1    1    2    0    0  0.67467642969E+01 -0.19204504091E+02  0.14400130921E+04  0.14401916668E+04  0.10000000000E+02 0.  1.
</event>
<event>
 5    1  0.1247473E-008  0.3773088E+03  0.7957747E-01  0.3462961E+00
         13   -1    0    0    0    0  0.00000000000E+00  0.00000000000E+00  0.14999999963E+04  0.15000000000E+04  0.10566000000E+00 0.  1.
        994   -1    0    0    0    0 -0.00000000000E+00 -0.00000000000E+00  0.11368683772E-12  0.17120000000E+03  0.17120000000E+03 0.  0.
         13    1    1    2    0    0 -0.15816035049E+02  0.57741360926E+01  0.23080091430E+02  0.28569028627E+02  0.10566000000E+00 0.  1.
        994    1    1    2    0    0  0.17796076429E+02 -0.41710005262E+01  0.66255700578E+01  0.17230042298E+03  0.17120000000E+03 0.  0.
        998    1    1    2    0    0 -0.19800413804E+01 -0.16031355665E+01  0.14702943348E+04  0.14703305484E+04  0.10000000000E+02 0.  1.
</event>
<event>
 5    1  0.1247473E-008  0.3836841E+03  0.7957747E-01  0.3435272E+00
         13   -1    0    0    0    0  0.00000000000E+00  0.00000000000E+00  0.14999999963E+04  0.15000000000E+04  0.10566000000E+00 0. -1.
        994   -1    0    0    0    0 -0.00000000000E+00 -0.00000000000E+00  0.11368683772E-12  0.17120000000E+03  0.17120000000E+03 0.  0.
         13    1    1    2    0    0  0.34105995670E+02  0.19085834227E+02  0.33414768558E+02  0.51420287150E+02  0.10566000000E+00 0. -1.
        994    1    1    2    0    0 -0.37179205905E+02 -0.19059699750E+02  0.24804957946E+02  0.17796148866E+03  0.17120000000E+03 0.  0.
        998    1    1    2    0    0  0.30732102356E+01 -0.26134477346E-01  0.14417802698E+04  0.14418182242E+04  0.10000000000E+02 0. -1.
</event>
<event>
 5    1  0.1247473E-008  0.3837099E+03  0.7957747E-01  0.3435162E+00
         13   -1    0    0    0    0  0.00000000000E+00  0.00000000000E+00  0.14999999963E+04  0.15000000000E+04  0.10566000000E+00 0. -1.
        994   -1    0    0    0    0 -0.00000000000E+00 -0.00000000000E+00  0.11368683772E-12  0.17120000000E+03  0.17120000000E+03 0.  0.
         13    1    1    2    0    0  0.12319253123E+02  0.25666807626E+02  0.15917288013E+03  0.16169899797E+03  0.10566000000E+00 0. -1.
        994    1    1    2    0    0 -0.82130338147E+01 -0.29534314553E+02  0.53815909935E+01  0.17400612398E+03  0.17120000000E+03 0.  0.
        998    1    1    2    0    0 -0.41062193081E+01  0.38675069273E+01  0.13354455252E+04  0.13354948780E+04  0.10000000000E+02 0. -1.
</event>
<event>
 5    1  0.1247473E-008  0.3798394E+03  0.7957747E-01  0.3451858E+00
         13   -1    0    0    0    0  0.00000000000E+00  0.00000000000E+00  0.14999999963E+04  0.15000000000E+04  0.10566000000E+00 0. -1.
        994   -1    0    0    0    0 -0.00000000000E+00 -0.00000000000E+00  0.11368683772E-12  0.17120000000E+03  0.17120000000E+03 0.  0.
         13    1    1    2    0    0  0.11978513025E+02 -0.15553089282E+02  0.44605143688E+02  0.48734108876E+02  0.10566000000E+00 0. -1.
        994    1    1    2    0    0 -0.10109898820E+02  0.47226443118E+01  0.46308030649E+01  0.17162574912E+03  0.17120000000E+03 0.  0.
        998    1    1    2    0    0 -0.18686142053E+01  0.10830444971E+02  0.14507640495E+04  0.14508401420E+04  0.10000000000E+02 0. -1.
</event>
<event>
 5    1  0.1247473E-008  0.3708953E+03  0.7957747E-01  0.3491786E+00
         13   -1    0    0    0    0  0.00000000000E+00  0.00000000000E+00  0.14999999963E+04  0.15000000000E+04  0.10566000000E+00 0.  1.
        994   -1    0    0    0    0 -0.00000000000E+00 -0.00000000000E+00  0.11368683772E-12  0.17120000000E+03  0.17120000000E+03 0.  0.
         13    1    1    2    0    0  0.21912613581E+02  0.70796052538E+02  0.36578626060E+03  0.37321822476E+03  0.10566000000E+00 0.  1.
        994    1    1    2    0    0 -0.22760057010E+02  0.23141400518E+02  0.15116713349E+02  0.17490425848E+03  0.17120000000E+03 0.  0.
        998    1    1    2    0    0  0.84744342812E+00 -0.93937453056E+02  0.11190970223E+04  0.11230775168E+04  0.10000000000E+02 0.  1.
</event>
<event>
 5    1  0.1247473E-008  0.3812029E+03  0.7957747E-01  0.3445937E+00
         13   -1    0    0    0    0  0.00000000000E+00  0.00000000000E+00  0.14999999963E+04  0.15000000000E+04  0.10566000000E+00 0. -1.
        994   -1    0    0    0    0 -0.00000000000E+00 -0.00000000000E+00  0.11368683772E-12  0.17120000000E+03  0.17120000000E+03 0.  0.
         13    1    1    2    0    0  0.15612999388E+02 -0.70420409765E+01  0.38764254358E+02  0.42379649255E+02  0.10566000000E+00 0. -1.
        994    1    1    2    0    0 -0.14298007290E+02  0.22251732402E+02  0.58599945177E+01  0.17333018244E+03  0.17120000000E+03 0.  0.
        998    1    1    2    0    0 -0.13149920983E+01 -0.15209691425E+02  0.14553757474E+04  0.14554901683E+04  0.10000000000E+02 0. -1.
</event>
<event>
 5    1  0.1247473E-008  0.3797324E+03  0.7957747E-01  0.3452324E+00
         13   -1    0    0    0    0  0.00000000000E+00  0.00000000000E+00  0.14999999963E+04  0.15000000000E+04  0.10566000000E+00 0.  1.
        994   -1    0    0    0    0 -0.00000000000E+00 -0.00000000000E+00  0.11368683772E-12  0.17120000000E+03  0.17120000000E+03 0.  0.
         13    1    1    2    0    0  0.35534949195E+02 -0.43956727586E+01  0.13574073496E+03  0.14038380549E+03  0.10566000000E+00 0.  1.
        994    1    1    2    0    0 -0.36260557438E+02  0.65598380055E+01  0.88249076676E+01  0.17534303093E+03  0.17120000000E+03 0.  0.
        998    1    1    2    0    0  0.72560824289E+00 -0.21641652468E+01  0.13554343537E+04  0.13554731636E+04  0.10000000000E+02 0.  1.
</event>
<event>
 5    1  0.1247473E-008  0.3866963E+03  0.7957747E-01  0.3422510E+00
         13   -1    0    0    0    0  0.00000000000E+00  0.00000000000E+00  0.14999999963E+04  0.15000000000E+04  0.10566000000E+00 0. -1.
        994   -1    0    0    0    0 -0.00000000000E+00 -0.00000000000E+00  0.11368683772E-12  0.17120000000E+03  0.17120000000E+03 0.  0.
         13    1    1    2    0    0  0.80479374326E+01 -0.60457994820E+02  0.82084954905E+02  0.10226382264E+03  0.10566000000E+00 0. -1.
        994    1    1    2    0    0 -0.14407835761E+02  0.57464077927E+02  0.33212696562E+02  0.18417988271E+03  0.17120000000E+03 0.  0.
        998    1    1    2    0    0  0.63598983286E+01  0.29939168929E+01  0.13847023448E+04  0.13847562946E+04  0.10000000000E+02 0. -1.
</event>
<event>
 5    1  0.1247473E-008  0.3854458E+03  0.7957747E-01  0.3427784E+00
         13   -1    0    0    0    0  0.00000000000E+00  0.00000000000E+00  0.14999999963E+04  0.15000000000E+04  0.10566000000E+00 0. -1.
        994   -1    0    0    0    0 -0.00000000000E+00 -0.00000000000E+00  0.11368683772E-12  0.17120000000E+03  0.17120000000E+03 0.  0.
         13    1    1    2    0    0  0.15276150893E+02 -0.36190111648E+01  0.90079307838E+02  0.91437141756E+02  0.10566000000E+00 0. -1.
        994    1    1    2    0    0 -0.57520839478E+01  0.64913342735E+01  0.16560219618E+01  0.17142755408E+03  0.17120000000E+03 0.  0.
        998    1    1    2    0    0 -0.95240669450E+01 -0.28723231087E+01  0.14082646665E+04  0.14083353042E+04  0.10000000000E+02 0. -1.
</event>
<event>
 5    1  0.1247473E-008  0.3822403E+03  0.7957747E-01  0.3441461E+00
         13   -1    0    0    0    0  0.00000000000E+00  0.00000000000E+00  0.14999999963E+04  0.15000000000E+04  0.10566000000E+00 0. -1.
        994   -1    0    0    0    0 -0.00000000000E+00 -0.00000000000E+00  0.11368683772E-12  0.17120000000E+03  0.17120000000E+03 0.  0.
         13    1    1    2    0    0  0.20497484383E+02 -0.40079548935E+02  0.24944026404E+03  0.25346986723E+03  0.10566000000E+00 0. -1.
        994    1    1    2    0    0 -0.40118961402E+02  0.45381534252E+02  0.15278567211E+02  0.18224129425E+03  0.17120000000E+03 0.  0.
        998    1    1    2    0    0  0.19621477018E+02 -0.53019853168E+01  0.12352811650E+04  0.12354888385E+04  0.10000000000E+02 0. -1.
</event>
<event>
 5    1  0.1247473E-008  0.3211520E+03  0.7957747E-01  0.3755701E+00
         13   -1    0    0    0    0  0.00000000000E+00  0.00000000000E+00  0.14999999963E+04  0.15000000000E+04  0.10566000000E+00 0.  1.
        994   -1    0    0    0    0 -0.00000000000E+00 -0.00000000000E+00  0.11368683772E-12  0.17120000000E+03  0.17120000000E+03 0.  0.
         13    1    1    2    0    0 -0.11181559876E+02  0.18288843273E+03  0.90215541280E+03  0.92057460649E+03  0.10566000000E+00 0.  1.
        994    1    1    2    0    0 -0.33202899794E+02 -0.12935347554E+03  0.85289602904E+02  0.23327775409E+03  0.17120000000E+03 0.  0.
        998    1    1    2    0    0  0.44384459669E+02 -0.53534957182E+02  0.51255498058E+03  0.51734763942E+03  0.10000000000E+02 0.  1.
</event>
<event>
 5    1  0.1247473E-008  0.3847845E+03  0.7957747E-01  0.3430587E+00
         13   -1    0    0    0    0  0.00000000000E+00  0.00000000000E+00  0.14999999963E+04  0.15000000000E+04  0.10566000000E+00 0. -1.
        994   -1    0    0    0    0 -0.00000000000E+00 -0.00000000000E+00  0.11368683772E-12  0.17120000000E+03  0.17120000000E+03 0.  0.
         13    1    1    2    0    0 -0.16848253667E+02 -0.90322919944E+01  0.97214352157E+02  0.99076169585E+02  0.10566000000E+00 0. -1.
        994    1    1    2    0    0  0.23799466889E+02  0.38313689880E+01  0.36518373343E+01  0.17292735448E+03  0.17120000000E+03 0.  0.
        998    1    1    2    0    0 -0.69512132223E+01  0.52009230064E+01  0.13991338068E+04  0.13991964759E+04  0.10000000000E+02 0. -1.
</event>
<event>
 5    1  0.1247473E-008  0.3804116E+03  0.7957747E-01  0.3449368E+00
         13   -1    0    0    0    0  0.00000000000E+00  0.00000000000E+00  0.14999999963E+04  0.15000000000E+04  0.10566000000E+00 0. -1.
        994   -1    0    0    0    0 -0.00000000000E+00 -0.00000000000E+00  0.11368683772E-12  0.17120000000E+03  0.17120000000E+03 0.  0.
         13    1    1    2    0    0  0.10810747067E+01 -0.31050390115E+02  0.11980430281E+03  0.12376743346E+03  0.10566000000E+00 0. -1.
        994    1    1    2    0    0 -0.15222027617E+01  0.21185045279E+02  0.54329948441E+01  0.17259803208E+03  0.17120000000E+03 0.  0.
        998    1    1    2    0    0  0.44112805499E+00  0.98653448367E+01  0.13747626986E+04  0.13748345345E+04  0.10000000000E+02 0. -1.
</event>
<event>
 5    1  0.1247473E-008  0.3834544E+03  0.7957747E-01  0.3436254E+00
         13   -1    0    0    0    0  0.00000000000E+00  0.00000000000E+00  0.14999999963E+04  0.15000000000E+04  0.10566000000E+00 0. -1.
        994   -1    0    0    0    0 -0.00000000000E+00 -0.00000000000E+00  0.11368683772E-12  0.17120000000E+03  0.17120000000E+03 0.  0.
         13    1    1    2    0    0  0.92574741834E+01  0.11717582568E+02  0.58886904959E+02  0.60750977845E+02  0.10566000000E+00 0. -1.
        994    1    1    2    0    0  0.21307627761E+01  0.45635677112E+02  0.93287008176E+01  0.17743624160E+03  0.17120000000E+03 0.  0.
        998    1    1    2    0    0 -0.11388236960E+02 -0.57353259680E+02  0.14317843905E+04  0.14330127806E+04  0.10000000000E+02 0. -1.
</event>
<event>
 5    1  0.1247473E-008  0.3837037E+03  0.7957747E-01  0.3435189E+00
         13   -1    0    0    0    0  0.00000000000E+00  0.00000000000E+00  0.14999999963E+04  0.15000000000E+04  0.10566000000E+00 0. -1.
        994   -1    0    0    0    0 -0.00000000000E+00 -0.00000000000E+00  0.11368683772E-12  0.17120000000E+03  0.17120000000E+03 0.  0.
         13    1    1    2    0    0  0.93822456812E+01 -0.77065295583E+01  0.31770497414E+02  0.34011656852E+02  0.10566000000E+00 0. -1.
        994    1    1    2    0    0 -0.48212890223E+01  0.66358515829E+01  0.24973285321E+01  0.17141457349E+03  0.17120000000E+03 0.  0.
        998    1    1    2    0    0 -0.45609566589E+01  0.10706779754E+01  0.14657321703E+04  0.14657737697E+04  0.10000000000E+02 0. -1.
</event>
<event>
 5    1  0.2349554E-008  0.3857327E+03  0.7957747E-01  0.3426571E+00
         13   -1    0    0    0    0  0.00000000000E+00  0.00000000000E+00  0.14999999963E+04  0.15000000000E+04  0.10566000000E+00 0. -1.
        994   -1    0    0    0    0 -0.00000000000E+00 -0.00000000000E+00  0.11368683772E-12  0.17120000000E+03  0.17120000000E+03 0.  0.
         13    1    1    2    0    0  0.14281751819E+02  0.22756868925E+00  0.85033745648E+02  0.86225108208E+02  0.10566000000E+00 0. -1.
        994    1    1    2    0    0 -0.36751570398E+01  0.60442185197E+00  0.13122992945E+01  0.17124553785E+03  0.17120000000E+03 0.  0.
        998    1    1    2    0    0 -0.10606594779E+02 -0.83199054123E+00  0.14136539513E+04  0.14137293539E+04  0.10000000000E+02 0. -1.
</event>
<event>
 5    1  0.1247473E-008  0.3804749E+03  0.7957747E-01  0.3449093E+00
         13   -1    0    0    0    0  0.00000000000E+00  0.00000000000E+00  0.14999999963E+04  0.15000000000E+04  0.10566000000E+00 0. -1.
        994   -1    0    0    0    0 -0.00000000000E+00 -0.00000000000E+00  0.11368683772E-12  0.17120000000E+03  0.17120000000E+03 0.  0.
         13    1    1    2    0    0  0.16031036099E+02  0.19570182069E+02  0.90782094627E+02  0.94241105753E+02  0.10566000000E+00 0. -1.
        994    1    1    2    0    0  0.15249013158E+02 -0.36234734715E+01  0.47139695423E+01  0.17198059039E+03  0.17120000000E+03 0.  0.
        998    1    1    2    0    0 -0.31280049257E+02 -0.15946708598E+02  0.14045039321E+04  0.14049783039E+04  0.10000000000E+02 0. -1.
</event>
<event>
 5    1  0.1247473E-008  0.3775073E+03  0.7957747E-01  0.3462084E+00
         13   -1    0    0    0    0  0.00000000000E+00  0.00000000000E+00  0.14999999963E+04  0.15000000000E+04  0.10566000000E+00 0.  1.
        994   -1    0    0    0    0 -0.00000000000E+00 -0.00000000000E+00  0.11368683772E-12  0.17120000000E+03  0.17120000000E+03 0.  0.
         13    1    1    2    0    0 -0.40181742464E+02  0.34603025959E+02  0.81381703278E+02  0.97133591642E+02  0.10566000000E+00 0.  1.
        994    1    1    2    0    0  0.86315464950E+02  0.43640312046E+01  0.42300097719E+02  0.19638773517E+03  0.17120000000E+03 0.  0.
        998    1    1    2    0    0 -0.46133722486E+02 -0.38967057164E+02  0.13763181953E+04  0.13776786732E+04  0.10000000000E+02 0.  1.
</event>
<event>
 5    1  0.1247473E-008  0.3856396E+03  0.7957747E-01  0.3426964E+00
         13   -1    0    0    0    0  0.00000000000E+00  0.00000000000E+00  0.14999999963E+04  0.15000000000E+04  0.10566000000E+00 0. -1.
        994   -1    0    0    0    0 -0.00000000000E+00 -0.00000000000E+00  0.11368683772E-12  0.17120000000E+03  0.17120000000E+03 0.  0.
         13    1    1    2    0    0  0.88446325185E+01 -0.12111258995E+02  0.84352815876E+02  0.85675660657E+02  0.10566000000E+00 0. -1.
        994    1    1    2    0    0 -0.88068551411E+01  0.90485430468E+01  0.18363590090E+01  0.17167483521E+03  0.17120000000E+03 0.  0.
        998    1    1    2    0    0 -0.37777377389E-01  0.30627159486E+01  0.14138108214E+04  0.14138495041E+04  0.10000000000E+02 0. -1.
</event>
<event>
 5    1  0.1247473E-008  0.3729610E+03  0.7957747E-01  0.3482392E+00
         13   -1    0    0    0    0  0.00000000000E+00  0.00000000000E+00  0.14999999963E+04  0.15000000000E+04  0.10566000000E+00 0.  1.
        994   -1    0    0    0    0 -0.00000000000E+00 -0.00000000000E+00  0.11368683772E-12  0.17120000000E+03  0.17120000000E+03 0.  0.
         13    1    1    2    0    0 -0.52552448030E+02  0.73391643997E+02  0.35249602610E+03  0.36387024168E+03  0.10566000000E+00 0.  1.
        994    1    1    2    0    0  0.58386378285E+02 -0.82000046113E+01  0.24896826251E+02  0.18277171883E+03  0.17120000000E+03 0.  0.
        998    1    1    2    0    0 -0.58339302546E+01 -0.65191639386E+02  0.11226071439E+04  0.11245580395E+04  0.10000000000E+02 0.  1.
</event>
<event>
 5    1  0.1247473E-008  0.3786516E+03  0.7957747E-01  0.3457051E+00
         13   -1    0    0    0    0  0.00000000000E+00  0.00000000000E+00  0.14999999963E+04  0.15000000000E+04  0.10566000000E+00 0. -1.
        994   -1    0    0    0    0 -0.00000000000E+00 -0.00000000000E+00  0.11368683772E-12  0.17120000000E+03  0.17120000000E+03 0.  0.
         13    1    1    2    0    0  0.52210515979E+02  0.35311619260E+02  0.30526574428E+03  0.31170504364E+03  0.10566000000E+00 0. -1.
        994    1    1    2    0    0 -0.51363609381E+02 -0.51723102122E+02  0.22869747488E+02  0.18747257136E+03  0.17120000000E+03 0.  0.
        998    1    1    2    0    0 -0.84690659839E+00  0.16411482862E+02  0.11718645045E+04  0.11720223850E+04  0.10000000000E+02 0. -1.
</event>
<event>
 5    1  0.1247473E-008  0.3848397E+03  0.7957747E-01  0.3430352E+00
         13   -1    0    0    0    0  0.00000000000E+00  0.00000000000E+00  0.14999999963E+04  0.15000000000E+04  0.10566000000E+00 0. -1.
        994   -1    0    0    0    0 -0.00000000000E+00 -0.00000000000E+00  0.11368683772E-12  0.17120000000E+03  0.17120000000E+03 0.  0.
         13    1    1    2    0    0 -0.14888035421E+02  0.93202513261E+00  0.66768297866E+02  0.68414465089E+02  0.10566000000E+00 0. -1.
        994    1    1    2    0    0  0.54978550903E+01 -0.12573718897E+01  0.18144089194E+01  0.17130247948E+03  0.17120000000E+03 0.  0.
        998    1    1    2    0    0  0.93901803309E+01  0.32534675709E+00  0.14314172895E+04  0.14314830554E+04  0.10000000000E+02 0. -1.
</event>
<event>
 5    1  0.1247473E-008  0.3843107E+03  0.7957747E-01  0.3432601E+00
         13   -1    0    0    0    0  0.00000000000E+00  0.00000000000E+00  0.14999999963E+04  0.15000000000E+04  0.10566000000E+00 0.  1.
        994   -1    0    0    0    0 -0.00000000000E+00 -0.00000000000E+00  0.11368683772E-12  0.17120000000E+03  0.17120000000E+03 0.  0.
         13    1    1    2    0    0  0.17992073438E+01  0.10904987337E+02  0.29675555058E+02  0.31667106402E+02  0.10566000000E+00 0.  1.
        994    1    1    2    0    0 -0.86985928591E+01 -0.12902637843E+02  0.27712712370E+01  0.17192807661E+03  0.17120000000E+03 0.  0.
        998    1    1    2    0    0  0.68993855152E+01  0.19976505060E+01  0.14675531700E+04  0.14676048170E+04  0.10000000000E+02 0.  1.
</event>
<event>
 5    1  0.1247473E-008  0.3847928E+03  0.7957747E-01  0.3430552E+00
         13   -1    0    0    0    0  0.00000000000E+00  0.00000000000E+00  0.14999999963E+04  0.15000000000E+04  0.10566000000E+00 0.  1.
        994   -1    0    0    0    0 -0.00000000000E+00 -0.00000000000E+00  0.11368683772E-12  0.17120000000E+03  0.17120000000E+03 0.  0.
         13    1    1    2    0    0  0.13526357461E+01 -0.12242700522E+02  0.44327669026E+02  0.46007246656E+02  0.10566000000E+00 0.  1.
        994    1    1    2    0    0  0.10758487069E+02  0.62852578656E+01  0.22441269209E+01  0.17166748561E+03  0.17120000000E+03 0.  0.
        998    1    1    2    0    0 -0.12111122815E+02  0.59574426563E+01  0.14534282003E+04  0.14535252677E+04  0.10000000000E+02 0.  1.
</event>
<event>
 5    1  0.1247473E-008  0.3847819E+03  0.7957747E-01  0.3430598E+00
         13   -1    0    0    0    0  0.00000000000E+00  0.00000000000E+00  0.14999999963E+04  0.15000000000E+04  0.10566000000E+00 0. -1.
        994   -1    0    0    0    0 -0.00000000000E+00 -0.00000000000E+00  0.11368683772E-12  0.17120000000E+03  0.17120000000E+03 0.  0.
         13    1    1    2    0    0 -0.94537908344E+01  0.40456388604E+01  0.29947344474E+02  0.31663795729E+02  0.10566000000E+00 0. -1.
        994    1    1    2    0    0  0.75369035447E+01 -0.31120253550E+01  0.19573058606E+01  0.17140525273E+03  0.17120000000E+03 0.  0.
        998    1    1    2    0    0  0.19168872897E+01 -0.93361350543E+00  0.14680953459E+04  0.14681309515E+04  0.10000000000E+02 0. -1.
</event>
<event>
 5    1  0.1247473E-008  0.3881648E+03  0.7957747E-01  0.3416360E+00
         13   -1    0    0    0    0  0.00000000000E+00  0.00000000000E+00  0.14999999963E+04  0.15000000000E+04  0.10566000000E+00 0.  1.
        994   -1    0    0    0    0 -0.00000000000E+00 -0.00000000000E+00  0.11368683772E-12  0.17120000000E+03  0.17120000000E+03 0.  0.
         13    1    1    2    0    0  0.53312274531E+02  0.49317890002E+02  0.10888091581E+03  0.13087978408E+03  0.10566000000E+00 0.  1.
        994    1    1    2    0    0 -0.50385025814E+02 -0.61905924834E+02  0.45100160704E+02  0.19420210826E+03  0.17120000000E+03 0.  0.
        998    1    1    2    0    0 -0.29272487167E+01  0.12588034832E+02  0.13460189198E+04  0.13461181077E+04  0.10000000000E+02 0.  1.
</event>
<event>
 5    1  0.1247473E-008  0.3826155E+03  0.7957747E-01  0.3439849E+00
         13   -1    0    0    0    0  0.00000000000E+00  0.00000000000E+00  0.14999999963E+04  0.15000000000E+04  0.10566000000E+00 0. -1.
        994   -1    0    0    0    0 -0.00000000000E+00 -0.00000000000E+00  0.11368683772E-12  0.17120000000E+03  0.17120000000E+03 0.  0.
         13    1    1    2    0    0 -0.20732019748E+02 -0.24883030778E+02  0.15911554421E+03  0.16237841432E+03  0.10566000000E+00 0. -1.
        994    1    1    2    0    0  0.27279157366E+02  0.28245177598E+02  0.79459516024E+01  0.17582525595E+03  0.17120000000E+03 0.  0.
        998    1    1    2    0    0 -0.65471376175E+01 -0.33621468194E+01  0.13329385005E+04  0.13329963297E+04  0.10000000000E+02 0. -1.
</event>
<event>
 5    1  0.1247473E-008  0.3787838E+03  0.7957747E-01  0.3456471E+00
         13   -1    0    0    0    0  0.00000000000E+00  0.00000000000E+00  0.14999999963E+04  0.15000000000E+04  0.10566000000E+00 0.  1.
        994   -1    0    0    0    0 -0.00000000000E+00 -0.00000000000E+00  0.11368683772E-12  0.17120000000E+03  0.17120000000E+03 0.  0.
         13    1    1    2    0    0  0.22392541385E+02 -0.61368921368E-01  0.53847186337E+02  0.58317753011E+02  0.10566000000E+00 0.  1.
        994    1    1    2    0    0 -0.98577748945E-01 -0.31595398750E+02  0.81062235471E+01  0.17427974581E+03  0.17120000000E+03 0.  0.
        998    1    1    2    0    0 -0.22293963636E+02  0.31656767672E+02  0.14380465864E+04  0.14386025012E+04  0.10000000000E+02 0.  1.
</event>
<event>
 5    1  0.1247473E-008  0.3828255E+03  0.7957747E-01  0.3438947E+00
         13   -1    0    0    0    0  0.00000000000E+00  0.00000000000E+00  0.14999999963E+04  0.15000000000E+04  0.10566000000E+00 0. -1.
        994   -1    0    0    0    0 -0.00000000000E+00 -0.00000000000E+00  0.11368683772E-12  0.17120000000E+03  0.17120000000E+03 0.  0.
         13    1    1    2    0    0 -0.14222558754E+02  0.18725541038E+02  0.11710422923E+03  0.11944177967E+03  0.10566000000E+00 0. -1.
        994    1    1    2    0    0 -0.77560637787E+01  0.26935378830E+01  0.29369106337E+01  0.17142192717E+03  0.17120000000E+03 0.  0.
        998    1    1    2    0    0  0.21978622532E+02 -0.21419078921E+02  0.13799588564E+04  0.13803362932E+04  0.10000000000E+02 0. -1.
</event>
<event>
 5    1  0.1247473E-008  0.3838659E+03  0.7957747E-01  0.3434496E+00
         13   -1    0    0    0    0  0.00000000000E+00  0.00000000000E+00  0.14999999963E+04  0.15000000000E+04  0.10566000000E+00 0. -1.
        994   -1    0    0    0    0 -0.00000000000E+00 -0.00000000000E+00  0.11368683772E-12  0.17120000000E+03  0.17120000000E+03 0.  0.
         13    1    1    2    0    0 -0.64763570868E+01  0.20916406927E+02  0.93843229473E+02  0.96363904870E+02  0.10566000000E+00 0. -1.
        994    1    1    2    0    0  0.11600964591E+02 -0.34664064953E+02  0.66172214235E+01  0.17518392448E+03  0.17120000000E+03 0.  0.
        998    1    1    2    0    0 -0.51246075046E+01  0.13747658027E+02  0.13995395454E+04  0.13996521706E+04  0.10000000000E+02 0. -1.
</event>
<event>
 5    1  0.1247473E-008  0.3850802E+03  0.7957747E-01  0.3429332E+00
         13   -1    0    0    0    0  0.00000000000E+00  0.00000000000E+00  0.14999999963E+04  0.15000000000E+04  0.10566000000E+00 0. -1.
        994   -1    0    0    0    0 -0.00000000000E+00 -0.00000000000E+00  0.11368683772E-12  0.17120000000E+03  0.17120000000E+03 0.  0.
         13    1    1    2    0    0  0.25502358808E+01 -0.11663592382E+02  0.44040004314E+02  0.45629773551E+02  0.10566000000E+00 0. -1.
        994    1    1    2    0    0  0.21196838326E+01  0.11837281686E+02  0.20659348575E+01  0.17163426926E+03  0.17120000000E+03 0.  0.
        998    1    1    2    0    0 -0.46699197134E+01 -0.17368930438E+00  0.14538940571E+04  0.14539359572E+04  0.10000000000E+02 0. -1.
</event>
<event>
 5    1  0.1247473E-008  0.3785440E+03  0.7957747E-01  0.3457523E+00
         13   -1    0    0    0    0  0.00000000000E+00  0.00000000000E+00  0.14999999963E+04  0.15000000000E+04  0.10566000000E+00 0.  1.
        994   -1    0    0    0    0 -0.00000000000E+00 -0.00000000000E+00  0.11368683772E-12  0.17120000000E+03  0.17120000000E+03 0.  0.
         13    1    1    2    0    0  0.15269639549E+02 -0.37801589600E+02  0.21883583757E+03  0.22260111644E+03  0.10566000000E+00 0.  1.
        994    1    1    2    0    0  0.25613820456E+02 -0.20783737799E+00  0.70770082432E+01  0.17325020935E+03  0.17120000000E+03 0.  0.
        998    1    1    2    0    0 -0.40883460006E+02  0.38009426978E+02  0.12740871505E+04  0.12753486742E+04  0.10000000000E+02 0.  1.
</event>
<event>
 5    1  0.1247473E-008  0.3766799E+03  0.7957747E-01  0.3465744E+00
         13   -1    0    0    0    0  0.00000000000E+00  0.00000000000E+00  0.14999999963E+04  0.15000000000E+04  0.10566000000E+00 0. -1.
        994   -1    0    0    0    0 -0.00000000000E+00 -0.00000000000E+00  0.11368683772E-12  0.17120000000E+03  0.17120000000E+03 0.  0.
         13    1    1    2    0    0 -0.27726875224E+02 -0.50925608892E+02  0.29327754418E+03  0.29895472288E+03  0.10566000000E+00 0. -1.
        994    1    1    2    0    0  0.22056111346E+02  0.22637535222E+02  0.92024454772E+01  0.17433604060E+03  0.17120000000E+03 0.  0.
        998    1    1    2    0    0  0.56707638780E+01  0.28288073670E+02  0.11975200066E+04  0.11979092365E+04  0.10000000000E+02 0. -1.
</event>
<event>
 5    1  0.1247473E-008  0.3804351E+03  0.7957747E-01  0.3449266E+00
         13   -1    0    0    0    0  0.00000000000E+00  0.00000000000E+00  0.14999999963E+04  0.15000000000E+04  0.10566000000E+00 0. -1.
        994   -1    0    0    0    0 -0.00000000000E+00 -0.00000000000E+00  0.11368683772E-12  0.17120000000E+03  0.17120000000E+03 0.  0.
         13    1    1    2    0    0  0.10224784809E+02 -0.79292822094E+01  0.19577302921E+02  0.23467034206E+02  0.10566000000E+00 0. -1.
        994    1    1    2    0    0 -0.11502338158E+02  0.57950856853E+01  0.44676174299E+01  0.17174191802E+03  0.17120000000E+03 0.  0.
        998    1    1    2    0    0  0.12775533490E+01  0.21341965240E+01  0.14759550759E+04  0.14759910478E+04  0.10000000000E+02 0. -1.
</event>
<event>
 5    1  0.1247473E-008  0.3844056E+03  0.7957747E-01  0.3432197E+00
         13   -1    0    0    0    0  0.00000000000E+00  0.00000000000E+00  0.14999999963E+04  0.15000000000E+04  0.10566000000E+00 0.  1.
        994   -1    0    0    0    0 -0.00000000000E+00 -0.00000000000E+00  0.11368683772E-12  0.17120000000E+03  0.17120000000E+03 0.  0.
         13    1    1    2    0    0 -0.97583575336E+01 -0.10237757322E+02  0.50553759172E+02  0.52495056407E+02  0.10566000000E+00 0.  1.
        994    1    1    2    0    0  0.11573506518E+02  0.75894943750E+01  0.25569556965E+01  0.17177754364E+03  0.17120000000E+03 0.  0.
        998    1    1    2    0    0 -0.18151489849E+01  0.26482629472E+01  0.14468892814E+04  0.14469273999E+04  0.10000000000E+02 0.  1.
</event>
<event>
 5    1  0.1247473E-008  0.3832968E+03  0.7957747E-01  0.3436928E+00
         13   -1    0    0    0    0  0.00000000000E+00  0.00000000000E+00  0.14999999963E+04  0.15000000000E+04  0.10566000000E+00 0. -1.
        994   -1    0    0    0    0 -0.00000000000E+00 -0.00000000000E+00  0.11368683772E-12  0.17120000000E+03  0.17120000000E+03 0.  0.
         13    1    1    2    0    0 -0.15891986170E+02 -0.12099017819E+02  0.84013847947E+02  0.86355539877E+02  0.10566000000E+00 0. -1.
        994    1    1    2    0    0  0.12138072600E+01  0.52303388731E+01  0.25734732811E+01  0.17130351000E+03  0.17120000000E+03 0.  0.
        998    1    1    2    0    0  0.14678178910E+02  0.68686789457E+01  0.14134126751E+04  0.14135409501E+04  0.10000000000E+02 0. -1.
</event>
<event>
 5    1  0.1247473E-008  0.3754716E+03  0.7957747E-01  0.3471116E+00
         13   -1    0    0    0    0  0.00000000000E+00  0.00000000000E+00  0.14999999963E+04  0.15000000000E+04  0.10566000000E+00 0. -1.
        994   -1    0    0    0    0 -0.00000000000E+00 -0.00000000000E+00  0.11368683772E-12  0.17120000000E+03  0.17120000000E+03 0.  0.
         13    1    1    2    0    0  0.67707130512E+02  0.71425577584E+02  0.26550692602E+03  0.28316039197E+03  0.10566000000E+00 0. -1.
        994    1    1    2    0    0 -0.69432049515E+02 -0.83848719874E+02  0.57410669782E+02  0.21084791279E+03  0.17120000000E+03 0.  0.
        998    1    1    2    0    0  0.17249190032E+01  0.12423142290E+02  0.11770824005E+04  0.11771916952E+04  0.10000000000E+02 0. -1.
</event>
<event>
 5    1  0.1247473E-008  0.3693583E+03  0.7957747E-01  0.3498845E+00
         13   -1    0    0    0    0  0.00000000000E+00  0.00000000000E+00  0.14999999963E+04  0.15000000000E+04  0.10566000000E+00 0.  1.
        994   -1    0    0    0    0 -0.00000000000E+00 -0.00000000000E+00  0.11368683772E-12  0.17120000000E+03  0.17120000000E+03 0.  0.
         13    1    1    2    0    0  0.41485697927E+01  0.30509556610E+02  0.38985160552E+02  0.49677938596E+02  0.10566000000E+00 0.  1.
        994    1    1    2    0    0 -0.59793333676E+01 -0.35524807682E+02  0.15140264287E+02  0.17560305234E+03  0.17120000000E+03 0.  0.
        998    1    1    2    0    0  0.18307635749E+01  0.50152510729E+01  0.14458745714E+04  0.14459190091E+04  0.10000000000E+02 0.  1.
</event>
<event>
 5    1  0.1247473E-008  0.3789691E+03  0.7957747E-01  0.3455659E+00
         13   -1    0    0    0    0  0.00000000000E+00  0.00000000000E+00  0.14999999963E+04  0.15000000000E+04  0.10566000000E+00 0. -1.
        994   -1    0    0    0    0 -0.00000000000E+00 -0.00000000000E+00  0.11368683772E-12  0.17120000000E+03  0.17120000000E+03 0.  0.
         13    1    1    2    0    0 -0.33936818970E+02 -0.21666911392E+02  0.46152020576E+02  0.61246901132E+02  0.10566000000E+00 0. -1.
        994    1    1    2    0    0  0.29620825590E+02 -0.42402244294E+01  0.19000994032E+02  0.17483091999E+03  0.17120000000E+03 0.  0.
        998    1    1    2    0    0  0.43159933794E+01  0.25907135821E+02  0.14348469817E+04  0.14351221789E+04  0.10000000000E+02 0. -1.
</event>
<event>
 5    1  0.1247473E-008  0.3806763E+03  0.7957747E-01  0.3448219E+00
         13   -1    0    0    0    0  0.00000000000E+00  0.00000000000E+00  0.14999999963E+04  0.15000000000E+04  0.10566000000E+00 0. -1.
        994   -1    0    0    0    0 -0.00000000000E+00 -0.00000000000E+00  0.11368683772E-12  0.17120000000E+03  0.17120000000E+03 0.  0.
         13    1    1    2    0    0 -0.15254731162E+02 -0.20302625153E+02  0.85049737833E+02  0.88760196487E+02  0.10566000000E+00 0. -1.
        994    1    1    2    0    0 -0.10987486038E+02  0.24478564063E+02  0.61971310173E+01  0.17340060375E+03  0.17120000000E+03 0.  0.
        998    1    1    2    0    0  0.26242217200E+02 -0.41759389092E+01  0.14087531274E+04  0.14090391998E+04  0.10000000000E+02 0. -1.
</event>
<event>
 5    1  0.1247473E-008  0.3827611E+03  0.7957747E-01  0.3439223E+00
         13   -1    0    0    0    0  0.00000000000E+00  0.00000000000E+00  0.14999999963E+04  0.15000000000E+04  0.10566000000E+00 0.  1.
        994   -1    0    0    0    0 -0.00000000000E+00 -0.00000000000E+00  0.11368683772E-12  0.17120000000E+03  0.17120000000E+03 0.  0.
         13    1    1    2    0    0  0.73924303954E+01  0.95638455140E+02  0.21849390984E+03  0.23862305406E+03  0.10566000000E+00 0.  1.
        994    1    1    2    0    0 -0.11573551175E+02 -0.91460388963E+02  0.49671960722E+02  0.20068805026E+03  0.17120000000E+03 0.  0.
        998    1    1    2    0    0  0.41811207793E+01 -0.41780661778E+01  0.12318341257E+04  0.12318888957E+04  0.10000000000E+02 0.  1.
</event>
<event>
 5    1  0.1247473E-008  0.3841401E+03  0.7957747E-01  0.3433327E+00
         13   -1    0    0    0    0  0.00000000000E+00  0.00000000000E+00  0.14999999963E+04  0.15000000000E+04  0.10566000000E+00 0.  1.
        994   -1    0    0    0    0 -0.00000000000E+00 -0.00000000000E+00  0.11368683772E-12  0.17120000000E+03  0.17120000000E+03 0.  0.
         13    1    1    2    0    0 -0.22144931620E+02 -0.27195571721E+01  0.13256302970E+03  0.13442753437E+03  0.10566000000E+00 0.  1.
        994    1    1    2    0    0  0.17219919245E+01  0.55945775362E+01  0.21706854320E+01  0.17131379521E+03  0.17120000000E+03 0.  0.
        998    1    1    2    0    0  0.20422939696E+02 -0.28750203641E+01  0.13652662811E+04  0.13654586704E+04  0.10000000000E+02 0.  1.
</event>
<event>
 5    1  0.1247473E-008  0.3703785E+03  0.7957747E-01  0.3494153E+00
         13   -1    0    0    0    0  0.00000000000E+00  0.00000000000E+00  0.14999999963E+04  0.15000000000E+04  0.10566000000E+00 0.  1.
        994   -1    0    0    0    0 -0.00000000000E+00 -0.00000000000E+00  0.11368683772E-12  0.17120000000E+03  0.17120000000E+03 0.  0.
         13    1    1    2    0    0 -0.11340394318E+02  0.51146362701E+02  0.11764117987E+03  0.12877893200E+03  0.10566000000E+00 0.  1.
        994    1    1    2    0    0  0.19514573183E+02 -0.33358429720E+02  0.16385825075E+02  0.17627120770E+03  0.17120000000E+03 0.  0.
        998    1    1    2    0    0 -0.81741788654E+01 -0.17787932981E+02  0.13659729913E+04  0.13661498603E+04  0.10000000000E+02 0.  1.
</event>
<event>
 5    1  0.1247473E-008  0.3804161E+03  0.7957747E-01  0.3449349E+00
         13   -1    0    0    0    0  0.00000000000E+00  0.00000000000E+00  0.14999999963E+04  0.15000000000E+04  0.10566000000E+00 0.  1.
        994   -1    0    0    0    0 -0.00000000000E+00 -0.00000000000E+00  0.11368683772E-12  0.17120000000E+03  0.17120000000E+03 0.  0.
         13    1    1    2    0    0  0.14749925020E+02  0.15186588280E+01  0.25638792453E+02  0.29617992086E+02  0.10566000000E+00 0.  1.
        994    1    1    2    0    0 -0.19689366667E+02 -0.10709820789E+02  0.56021318650E+01  0.17275183155E+03  0.17120000000E+03 0.  0.
        998    1    1    2    0    0  0.49394416466E+01  0.91911619612E+01  0.14687590720E+04  0.14688301764E+04  0.10000000000E+02 0.  1.
</event>
<event>
 5    1  0.1247473E-008  0.3043732E+03  0.7957747E-01  0.3865285E+00
         13   -1    0    0    0    0  0.00000000000E+00  0.00000000000E+00  0.14999999963E+04  0.15000000000E+04  0.10566000000E+00 0.  1.
        994   -1    0    0    0    0 -0.00000000000E+00 -0.00000000000E+00  0.11368683772E-12  0.17120000000E+03  0.17120000000E+03 0.  0.
         13    1    1    2    0    0  0.81205076359E+02  0.16614420897E+03  0.67869347407E+03  0.70343656822E+03  0.10566000000E+00 0.  1.
        994    1    1    2    0    0 -0.82312683378E+02 -0.16156332523E+03  0.13925284280E+03  0.28562016758E+03  0.17120000000E+03 0.  0.
        998    1    1    2    0    0  0.11076070184E+01 -0.45808837373E+01  0.68205367941E+03  0.68214326419E+03  0.10000000000E+02 0.  0.
</event>
<event>
 5    1  0.1247473E-008  0.3764729E+03  0.7957747E-01  0.3466661E+00
         13   -1    0    0    0    0  0.00000000000E+00  0.00000000000E+00  0.14999999963E+04  0.15000000000E+04  0.10566000000E+00 0. -1.
        994   -1    0    0    0    0 -0.00000000000E+00 -0.00000000000E+00  0.11368683772E-12  0.17120000000E+03  0.17120000000E+03 0.  0.
         13    1    1    2    0    0 -0.48572890552E+01 -0.43079867441E+02  0.58199762755E+02  0.72571976578E+02  0.10566000000E+00 0. -1.
        994    1    1    2    0    0 -0.66978113896E+01  0.41702029760E+02  0.20812085096E+02  0.17755704112E+03  0.17120000000E+03 0.  0.
        998    1    1    2    0    0  0.11555100445E+02  0.13778376814E+01  0.14209881484E+04  0.14210709823E+04  0.10000000000E+02 0. -1.
</event>
<event>
 5    1  0.1247473E-008  0.3747089E+03  0.7957747E-01  0.3474526E+00
         13   -1    0    0    0    0  0.00000000000E+00  0.00000000000E+00  0.14999999963E+04  0.15000000000E+04  0.10566000000E+00 0.  1.
        994   -1    0    0    0    0 -0.00000000000E+00 -0.00000000000E+00  0.11368683772E-12  0.17120000000E+03  0.17120000000E+03 0.  0.
         13    1    1    2    0    0 -0.79937637971E+01  0.39470174800E+02  0.10412458394E+03  0.11164109952E+03  0.10566000000E+00 0.  1.
        994    1    1    2    0    0  0.19609018747E+01 -0.51312717610E+02  0.15853690673E+02  0.17943695169E+03  0.17120000000E+03 0.  0.
        998    1    1    2    0    0  0.60328619224E+01  0.11842542810E+02  0.13800217217E+04  0.13801219488E+04  0.10000000000E+02 0.  1.
</event>
<event>
 5    1  0.1247473E-008  0.3774669E+03  0.7957747E-01  0.3462263E+00
         13   -1    0    0    0    0  0.00000000000E+00  0.00000000000E+00  0.14999999963E+04  0.15000000000E+04  0.10566000000E+00 0. -1.
        994   -1    0    0    0    0 -0.00000000000E+00 -0.00000000000E+00  0.11368683772E-12  0.17120000000E+03  0.17120000000E+03 0.  0.
         13    1    1    2    0    0  0.71659653113E+01 -0.14119708999E+02  0.20610086906E+02  0.25990461469E+02  0.10566000000E+00 0. -1.
        994    1    1    2    0    0 -0.16246371539E+01  0.16502856079E+02  0.63448827105E+01  0.17211821880E+03  0.17120000000E+03 0.  0.
        998    1    1    2    0    0 -0.55413281574E+01 -0.23831470806E+01  0.14730450267E+04  0.14730913197E+04  0.10000000000E+02 0. -1.
</event>
<event>
 5    1  0.1247473E-008  0.3814866E+03  0.7957747E-01  0.3444711E+00
         13   -1    0    0    0    0  0.00000000000E+00  0.00000000000E+00  0.14999999963E+04  0.15000000000E+04  0.10566000000E+00 0. -1.
        994   -1    0    0    0    0 -0.00000000000E+00 -0.00000000000E+00  0.11368683772E-12  0.17120000000E+03  0.17120000000E+03 0.  0.
         13    1    1    2    0    0 -0.35453503052E+02  0.24222709233E+01  0.20488352862E+03  0.20794251547E+03  0.10566000000E+00 0. -1.
        994    1    1    2    0    0  0.86703172094E+01 -0.46382139656E+00  0.36354476764E+01  0.17145858395E+03  0.17120000000E+03 0.  0.
        998    1    1    2    0    0  0.26783185843E+02 -0.19584495267E+01  0.12914810200E+04  0.12917989006E+04  0.10000000000E+02 0. -1.
</event>
<event>
 5    1  0.1247473E-008  0.3846678E+03  0.7957747E-01  0.3431082E+00
         13   -1    0    0    0    0  0.00000000000E+00  0.00000000000E+00  0.14999999963E+04  0.15000000000E+04  0.10566000000E+00 0. -1.
        994   -1    0    0    0    0 -0.00000000000E+00 -0.00000000000E+00  0.11368683772E-12  0.17120000000E+03  0.17120000000E+03 0.  0.
         13    1    1    2    0    0 -0.12572825219E+02  0.12712964104E+02  0.10159670071E+03  0.10315811238E+03  0.10566000000E+00 0. -1.
        994    1    1    2    0    0 -0.91847571332E+00  0.71130434881E+01  0.19645300845E+01  0.17136142613E+03  0.17120000000E+03 0.  0.
        998    1    1    2    0    0  0.13491300932E+02 -0.19826007592E+02  0.13964387655E+04  0.13966804615E+04  0.10000000000E+02 0. -1.
</event>
<event>
 5    1  0.1247473E-008  0.3697393E+03  0.7957747E-01  0.3497090E+00
         13   -1    0    0    0    0  0.00000000000E+00  0.00000000000E+00  0.14999999963E+04  0.15000000000E+04  0.10566000000E+00 0. -1.
        994   -1    0    0    0    0 -0.00000000000E+00 -0.00000000000E+00  0.11368683772E-12  0.17120000000E+03  0.17120000000E+03 0.  0.
         13    1    1    2    0    0 -0.18165636335E+02  0.76203032016E+01  0.16234109743E+02  0.25526786863E+02  0.10566000000E+00 0. -1.
        994    1    1    2    0    0  0.19541200833E+02 -0.11976883878E+02  0.11225469200E+02  0.17309175439E+03  0.17120000000E+03 0.  0.
        998    1    1    2    0    0 -0.13755644979E+01  0.43565806764E+01  0.14725404173E+04  0.14725814588E+04  0.10000000000E+02 0. -1.
</event>
<event>
 5    1  0.1247473E-008  0.3813910E+03  0.7957747E-01  0.3445124E+00
         13   -1    0    0    0    0  0.00000000000E+00  0.00000000000E+00  0.14999999963E+04  0.15000000000E+04  0.10566000000E+00 0.  1.
        994   -1    0    0    0    0 -0.00000000000E+00 -0.00000000000E+00  0.11368683772E-12  0.17120000000E+03  0.17120000000E+03 0.  0.
         13    1    1    2    0    0  0.27527882794E+01  0.11183365472E+02  0.17746834882E+02  0.21156720421E+02  0.10566000000E+00 0.  1.
        994    1    1    2    0    0 -0.21449472323E+01 -0.11364572792E+02  0.38778443277E+01  0.17163400593E+03  0.17120000000E+03 0.  0.
        998    1    1    2    0    0 -0.60784104706E+00  0.18120731987E+00  0.14783753171E+04  0.14784092737E+04  0.10000000000E+02 0.  0.
</event>
<event>
 5    1  0.1247473E-008  0.3828009E+03  0.7957747E-01  0.3439053E+00
         13   -1    0    0    0    0  0.00000000000E+00  0.00000000000E+00  0.14999999963E+04  0.15000000000E+04  0.10566000000E+00 0.  1.
        994   -1    0    0    0    0 -0.00000000000E+00 -0.00000000000E+00  0.11368683772E-12  0.17120000000E+03  0.17120000000E+03 0.  0.
         13    1    1    2    0    0  0.56274063778E+02 -0.33180210077E+02  0.38034789689E+03  0.38591738808E+03  0.10566000000E+00 0.  1.
        994    1    1    2    0    0 -0.68969860640E+02  0.90082888497E+02  0.46599565496E+02  0.21060087365E+03  0.17120000000E+03 0.  0.
        998    1    1    2    0    0  0.12695796862E+02 -0.56902678420E+02  0.10730525339E+04  0.10746817383E+04  0.10000000000E+02 0. -1.
</event>
<event>
 5    1  0.1247473E-008  0.3843215E+03  0.7957747E-01  0.3432555E+00
         13   -1    0    0    0    0  0.00000000000E+00  0.00000000000E+00  0.14999999963E+04  0.15000000000E+04  0.10566000000E+00 0.  1.
        994   -1    0    0    0    0 -0.00000000000E+00 -0.00000000000E+00  0.11368683772E-12  0.17120000000E+03  0.17120000000E+03 0.  0.
         13    1    1    2    0    0 -0.14413351768E+02  0.98227400522E+00  0.52227729923E+02  0.54189081080E+02  0.10566000000E+00 0.  1.
        994    1    1    2    0    0  0.11020485921E+02 -0.49348591928E+01  0.24480881245E+01  0.17164276006E+03  0.17120000000E+03 0.  0.
        998    1    1    2    0    0  0.33928658473E+01  0.39525851876E+01  0.14453241782E+04  0.14453681589E+04  0.10000000000E+02 0.  1.
</event>
<event>
 5    1  0.1247473E-008  0.3842817E+03  0.7957747E-01  0.3432724E+00
         13   -1    0    0    0    0  0.00000000000E+00  0.00000000000E+00  0.14999999963E+04  0.15000000000E+04  0.10566000000E+00 0.  1.
        994   -1    0    0    0    0 -0.00000000000E+00 -0.00000000000E+00  0.11368683772E-12  0.17120000000E+03  0.17120000000E+03 0.  0.
         13    1    1    2    0    0  0.40024158980E+01  0.20972045737E+02  0.12633942280E+03  0.12813081968E+03  0.10566000000E+00 0.  1.
        994    1    1    2    0    0  0.80442957268E+01 -0.28647377279E+01  0.22275830942E+01  0.17142730104E+03  0.17120000000E+03 0.  0.
        998    1    1    2    0    0 -0.12046711625E+02 -0.18107308009E+02  0.13714329904E+04  0.13716418793E+04  0.10000000000E+02 0.  1.
</event>
<event>
 5    1  0.1247473E-008  0.3783683E+03  0.7957747E-01  0.3458294E+00
         13   -1    0    0    0    0  0.00000000000E+00  0.00000000000E+00  0.14999999963E+04  0.15000000000E+04  0.10566000000E+00 0.  1.
        994   -1    0    0    0    0 -0.00000000000E+00 -0.00000000000E+00  0.11368683772E-12  0.17120000000E+03  0.17120000000E+03 0.  0.
         13    1    1    2    0    0  0.10860261737E+02  0.19968910520E+02  0.48145908857E+02  0.53242298748E+02  0.10566000000E+00 0.  1.
        994    1    1    2    0    0 -0.11139282138E+02 -0.24575661584E+02  0.74099693894E+01  0.17347159536E+03  0.17120000000E+03 0.  0.
        998    1    1    2    0    0  0.27902040103E+00  0.46067510647E+01  0.14444441180E+04  0.14444861059E+04  0.10000000000E+02 0.  1.
</event>
<event>
 5    1  0.1247473E-008  0.3813460E+03  0.7957747E-01  0.3445319E+00
         13   -1    0    0    0    0  0.00000000000E+00  0.00000000000E+00  0.14999999963E+04  0.15000000000E+04  0.10566000000E+00 0. -1.
        994   -1    0    0    0    0 -0.00000000000E+00 -0.00000000000E+00  0.11368683772E-12  0.17120000000E+03  0.17120000000E+03 0.  0.
         13    1    1    2    0    0  0.19613895296E+01 -0.28252784233E+02  0.11518503286E+03  0.11861563904E+03  0.10566000000E+00 0. -1.
        994    1    1    2    0    0 -0.13392589818E+02  0.15981416999E+02  0.49035257292E+01  0.17253478408E+03  0.17120000000E+03 0.  0.
        998    1    1    2    0    0  0.11431200288E+02  0.12271367234E+02  0.13799114377E+04  0.13800495769E+04  0.10000000000E+02 0. -1.
</event>
<event>
 5    1  0.1247473E-008  0.3849718E+03  0.7957747E-01  0.3429792E+00
         13   -1    0    0    0    0  0.00000000000E+00  0.00000000000E+00  0.14999999963E+04  0.15000000000E+04  0.10566000000E+00 0. -1.
        994   -1    0    0    0    0 -0.00000000000E+00 -0.00000000000E+00  0.11368683772E-12  0.17120000000E+03  0.17120000000E+03 0.  0.
         13    1    1    2    0    0 -0.98975636121E+01 -0.10498460901E+02  0.61384204135E+02  0.63057205203E+02  0.10566000000E+00 0. -1.
        994    1    1    2    0    0  0.43734527153E+01  0.15997151049E+02  0.25492392596E+01  0.17202027366E+03  0.17120000000E+03 0.  0.
        998    1    1    2    0    0  0.55241108968E+01 -0.54986901483E+01  0.14360665529E+04  0.14361225211E+04  0.10000000000E+02 0. -1.
</event>
<event>
 5    1  0.1247473E-008  0.3847160E+03  0.7957747E-01  0.3430878E+00
         13   -1    0    0    0    0  0.00000000000E+00  0.00000000000E+00  0.14999999963E+04  0.15000000000E+04  0.10566000000E+00 0. -1.
        994   -1    0    0    0    0 -0.00000000000E+00 -0.00000000000E+00  0.11368683772E-12  0.17120000000E+03  0.17120000000E+03 0.  0.
         13    1    1    2    0    0  0.10371342372E+02  0.92055274376E+01  0.56738050700E+02  0.58408253178E+02  0.10566000000E+00 0. -1.
        994    1    1    2    0    0  0.38840814135E+01 -0.59472225264E+01  0.19373112377E+01  0.17135824672E+03  0.17120000000E+03 0.  0.
        998    1    1    2    0    0 -0.14255423786E+02 -0.32583049112E+01  0.14413246343E+04  0.14414335001E+04  0.10000000000E+02 0. -1.
</event>
<event>
 5    1  0.1247473E-008  0.3859264E+03  0.7957747E-01  0.3425753E+00
         13   -1    0    0    0    0  0.00000000000E+00  0.00000000000E+00  0.14999999963E+04  0.15000000000E+04  0.10566000000E+00 0. -1.
        994   -1    0    0    0    0 -0.00000000000E+00 -0.00000000000E+00  0.11368683772E-12  0.17120000000E+03  0.17120000000E+03 0.  0.
         13    1    1    2    0    0 -0.88477450058E+01 -0.52332825370E+01  0.47340984125E+02  0.48444295637E+02  0.10566000000E+00 0. -1.
        994    1    1    2    0    0 -0.68156019000E+01  0.14131171950E+02  0.19783693147E+01  0.17192875383E+03  0.17120000000E+03 0.  0.
        998    1    1    2    0    0  0.15663346906E+02 -0.88978894127E+01  0.14506806428E+04  0.14508269505E+04  0.10000000000E+02 0. -1.
</event>
<event>
 5    1  0.1247473E-008  0.3846705E+03  0.7957747E-01  0.3431071E+00
         13   -1    0    0    0    0  0.00000000000E+00  0.00000000000E+00  0.14999999963E+04  0.15000000000E+04  0.10566000000E+00 0.  1.
        994   -1    0    0    0    0 -0.00000000000E+00 -0.00000000000E+00  0.11368683772E-12  0.17120000000E+03  0.17120000000E+03 0.  0.
         13    1    1    2    0    0 -0.64709234718E+01  0.11851200327E+02  0.49167073632E+02  0.50987607252E+02  0.10566000000E+00 0.  1.
        994    1    1    2    0    0  0.74501908310E+01 -0.12459243503E+02  0.24878929072E+01  0.17183238258E+03  0.17120000000E+03 0.  0.
        998    1    1    2    0    0 -0.97926735915E+00  0.60804317686E+00  0.14483450297E+04  0.14483800102E+04  0.10000000000E+02 0.  1.
</event>
<event>
 5    1  0.1247473E-008  0.2240744E+03  0.7957747E-01  0.4651300E+00
         13   -1    0    0    0    0  0.00000000000E+00  0.00000000000E+00  0.14999999963E+04  0.15000000000E+04  0.10566000000E+00 0.  1.
        994   -1    0    0    0    0 -0.00000000000E+00 -0.00000000000E+00  0.11368683772E-12  0.17120000000E+03  0.17120000000E+03 0.  0.
         13    1    1    2    0    0  0.13094323373E+03  0.25846977348E+02  0.91519602516E+02  0.16183338811E+03  0.10566000000E+00 0.  1.
        994    1    1    2    0    0 -0.16123527206E+03 -0.31783079178E+01  0.22580303417E+03  0.32604196791E+03  0.17120000000E+03 0.  0.
        998    1    1    2    0    0  0.30292038330E+02 -0.22668669430E+02  0.11826773596E+04  0.11833246440E+04  0.10000000000E+02 0. -1.
</event>
<event>
 5    1  0.1247473E-008  0.3116100E+03  0.7957747E-01  0.3816469E+00
         13   -1    0    0    0    0  0.00000000000E+00  0.00000000000E+00  0.14999999963E+04  0.15000000000E+04  0.10566000000E+00 0.  1.
        994   -1    0    0    0    0 -0.00000000000E+00 -0.00000000000E+00  0.11368683772E-12  0.17120000000E+03  0.17120000000E+03 0.  0.
         13    1    1    2    0    0 -0.14747319995E+03 -0.28571754996E+02  0.85818491538E+03  0.87123248909E+03  0.10566000000E+00 0.  1.
        994    1    1    2    0    0  0.10979726730E+03 -0.40615042292E+02  0.64472782440E+02  0.21718932120E+03  0.17120000000E+03 0.  0.
        998    1    1    2    0    0  0.37675932650E+02  0.69186797287E+02  0.57734229846E+03  0.58277818971E+03  0.10000000000E+02 0.  1.
</event>
<event>
 5    1  0.1247473E-008  0.3836948E+03  0.7957747E-01  0.3435227E+00
         13   -1    0    0    0    0  0.00000000000E+00  0.00000000000E+00  0.14999999963E+04  0.15000000000E+04  0.10566000000E+00 0. -1.
        994   -1    0    0    0    0 -0.00000000000E+00 -0.00000000000E+00  0.11368683772E-12  0.17120000000E+03  0.17120000000E+03 0.  0.
         13    1    1    2    0    0 -0.97179407910E+01  0.86886141817E+01  0.35344180431E+02  0.37671642439E+02  0.10566000000E+00 0. -1.
        994    1    1    2    0    0  0.17395061124E+02 -0.69002452147E+01  0.34369772454E+01  0.17225404015E+03  0.17120000000E+03 0.  0.
        998    1    1    2    0    0 -0.76771203333E+01 -0.17883689670E+01  0.14612188386E+04  0.14612743174E+04  0.10000000000E+02 0. -1.
</event>
<event>
 5    1  0.1247473E-008  0.3838499E+03  0.7957747E-01  0.3434565E+00
         13   -1    0    0    0    0  0.00000000000E+00  0.00000000000E+00  0.14999999963E+04  0.15000000000E+04  0.10566000000E+00 0. -1.
        994   -1    0    0    0    0 -0.00000000000E+00 -0.00000000000E+00  0.11368683772E-12  0.17120000000E+03  0.17120000000E+03 0.  0.
         13    1    1    2    0    0  0.11476625419E+02 -0.12559961983E+02  0.60870974435E+02  0.63204052629E+02  0.10566000000E+00 0. -1.
        994    1    1    2    0    0 -0.19035154867E+02  0.15351971334E+02  0.41787549254E+01  0.17298821387E+03  0.17120000000E+03 0.  0.
        998    1    1    2    0    0  0.75585294479E+01 -0.27920093505E+01  0.14349502669E+04  0.14350077335E+04  0.10000000000E+02 0. -1.
</event>
<event>
 5    1  0.1247473E-008  0.3834824E+03  0.7957747E-01  0.3436134E+00
         13   -1    0    0    0    0  0.00000000000E+00  0.00000000000E+00  0.14999999963E+04  0.15000000000E+04  0.10566000000E+00 0.  1.
        994   -1    0    0    0    0 -0.00000000000E+00 -0.00000000000E+00  0.11368683772E-12  0.17120000000E+03  0.17120000000E+03 0.  0.
         13    1    1    2    0    0 -0.65832166917E+01  0.11051425336E+02  0.35309745294E+02  0.37580074784E+02  0.10566000000E+00 0.  1.
        994    1    1    2    0    0  0.73262143348E+01  0.53509012771E+01  0.26575216501E+01  0.17146080597E+03  0.17120000000E+03 0.  0.
        998    1    1    2    0    0 -0.74299764306E+00 -0.16402326613E+02  0.14620327293E+04  0.14621591193E+04  0.10000000000E+02 0.  1.
</event>
<event>
 5    1  0.1247473E-008  0.3846569E+03  0.7957747E-01  0.3431129E+00
         13   -1    0    0    0    0  0.00000000000E+00  0.00000000000E+00  0.14999999963E+04  0.15000000000E+04  0.10566000000E+00 0.  1.
        994   -1    0    0    0    0 -0.00000000000E+00 -0.00000000000E+00  0.11368683772E-12  0.17120000000E+03  0.17120000000E+03 0.  0.
         13    1    1    2    0    0 -0.86042782377E+01  0.14577004362E+02  0.77610739853E+02  0.79435261470E+02  0.10566000000E+00 0.  1.
        994    1    1    2    0    0  0.81805275522E+01 -0.11983104161E+02  0.24939879479E+01  0.17183182415E+03  0.17120000000E+03 0.  0.
        998    1    1    2    0    0  0.42375068543E+00 -0.25939002016E+01  0.14198952685E+04  0.14199329144E+04  0.10000000000E+02 0.  1.
</event>
<event>
 5    1  0.1247473E-008  0.3725942E+03  0.7957747E-01  0.3484053E+00
         13   -1    0    0    0    0  0.00000000000E+00  0.00000000000E+00  0.14999999963E+04  0.15000000000E+04  0.10566000000E+00 0.  1.
        994   -1    0    0    0    0 -0.00000000000E+00 -0.00000000000E+00  0.11368683772E-12  0.17120000000E+03  0.17120000000E+03 0.  0.
         13    1    1    2    0    0  0.75906567315E+02  0.39414980343E+02  0.51016984644E+03  0.51728969739E+03  0.10566000000E+00 0.  1.
        994    1    1    2    0    0 -0.46214232311E+02  0.17238517517E+01  0.15284605060E+02  0.17799378103E+03  0.17120000000E+03 0.  0.
        998    1    1    2    0    0 -0.29692335004E+02 -0.41138832095E+02  0.97454554477E+03  0.97591652159E+03  0.10000000000E+02 0.  1.
</event>
<event>
 5    1  0.1247473E-008  0.3817589E+03  0.7957747E-01  0.3443535E+00
         13   -1    0    0    0    0  0.00000000000E+00  0.00000000000E+00  0.14999999963E+04  0.15000000000E+04  0.10566000000E+00 0.  1.
        994   -1    0    0    0    0 -0.00000000000E+00 -0.00000000000E+00  0.11368683772E-12  0.17120000000E+03  0.17120000000E+03 0.  0.
         13    1    1    2    0    0  0.29840079860E+02  0.67377526021E+01  0.13393768494E+03  0.13738683447E+03  0.10566000000E+00 0.  1.
        994    1    1    2    0    0 -0.28450847844E+02 -0.20721715115E+01  0.59571424337E+01  0.17366252383E+03  0.17120000000E+03 0.  0.
        998    1    1    2    0    0 -0.13892320160E+01 -0.46655810906E+01  0.13601051689E+04  0.13601506417E+04  0.10000000000E+02 0.  1.
</event>
<event>
 5    1  0.1247473E-008  0.3776258E+03  0.7957747E-01  0.3461562E+00
         13   -1    0    0    0    0  0.00000000000E+00  0.00000000000E+00  0.14999999963E+04  0.15000000000E+04  0.10566000000E+00 0. -1.
        994   -1    0    0    0    0 -0.00000000000E+00 -0.00000000000E+00  0.11368683772E-12  0.17120000000E+03  0.17120000000E+03 0.  0.
         13    1    1    2    0    0 -0.14184136720E+02 -0.20775500572E+02  0.60457499429E+02  0.65482299591E+02  0.10566000000E+00 0. -1.
        994    1    1    2    0    0  0.42607753389E+01 -0.10436661120E+01  0.54013003209E+01  0.17134134787E+03  0.17120000000E+03 0.  0.
        998    1    1    2    0    0  0.99233613813E+01  0.21819166684E+02  0.14341411965E+04  0.14343763525E+04  0.10000000000E+02 0. -1.
</event>
<event>
 5    1  0.1247473E-008  0.3848034E+03  0.7957747E-01  0.3430506E+00
         13   -1    0    0    0    0  0.00000000000E+00  0.00000000000E+00  0.14999999963E+04  0.15000000000E+04  0.10566000000E+00 0. -1.
        994   -1    0    0    0    0 -0.00000000000E+00 -0.00000000000E+00  0.11368683772E-12  0.17120000000E+03  0.17120000000E+03 0.  0.
         13    1    1    2    0    0 -0.17418802854E+02 -0.11900010491E+02  0.12074164747E+03  0.12257072057E+03  0.10566000000E+00 0. -1.
        994    1    1    2    0    0  0.22484390812E+02  0.42773191633E+01  0.34535153238E+01  0.17275766280E+03  0.17120000000E+03 0.  0.
        998    1    1    2    0    0 -0.50655879585E+01  0.76226913279E+01  0.13758048335E+04  0.13758716166E+04  0.10000000000E+02 0. -1.
</event>
<event>
 5    1  0.1247473E-008  0.3802177E+03  0.7957747E-01  0.3450211E+00
         13   -1    0    0    0    0  0.00000000000E+00  0.00000000000E+00  0.14999999963E+04  0.15000000000E+04  0.10566000000E+00 0.  1.
        994   -1    0    0    0    0 -0.00000000000E+00 -0.00000000000E+00  0.11368683772E-12  0.17120000000E+03  0.17120000000E+03 0.  0.
         13    1    1    2    0    0 -0.19603601737E+02  0.32497117211E+02  0.22113796731E+03  0.22437106671E+03  0.10566000000E+00 0.  1.
        994    1    1    2    0    0 -0.21394865874E+02 -0.85308058520E+01  0.57975067566E+01  0.17283971193E+03  0.17120000000E+03 0.  0.
        998    1    1    2    0    0  0.40998467611E+02 -0.23966311359E+02  0.12730645222E+04  0.12739892214E+04  0.10000000000E+02 0.  1.
</event>
<event>
 5    1  0.1247473E-008  0.3749687E+03  0.7957747E-01  0.3473363E+00
         13   -1    0    0    0    0  0.00000000000E+00  0.00000000000E+00  0.14999999963E+04  0.15000000000E+04  0.10566000000E+00 0. -1.
        994   -1    0    0    0    0 -0.00000000000E+00 -0.00000000000E+00  0.11368683772E-12  0.17120000000E+03  0.17120000000E+03 0.  0.
         13    1    1    2    0    0 -0.24701834729E+02 -0.10444616507E+03  0.49783683326E+03  0.50927468595E+03  0.10566000000E+00 0. -1.
        994    1    1    2    0    0  0.66982277838E+01  0.12029303556E+03  0.57761331741E+02  0.21716604731E+03  0.17120000000E+03 0.  0.
        998    1    1    2    0    0  0.18003606946E+02 -0.15846870492E+02  0.94440183128E+03  0.94475926674E+03  0.10000000000E+02 0. -1.
</event>
<event>
 5    1  0.1247473E-008  0.3743102E+03  0.7957747E-01  0.3476314E+00
         13   -1    0    0    0    0  0.00000000000E+00  0.00000000000E+00  0.14999999963E+04  0.15000000000E+04  0.10566000000E+00 0.  1.
        994   -1    0    0    0    0 -0.00000000000E+00 -0.00000000000E+00  0.11368683772E-12  0.17120000000E+03  0.17120000000E+03 0.  0.
         13    1    1    2    0    0  0.22685254891E+02  0.31891860316E+02  0.50887770062E+02  0.64197257339E+02  0.10566000000E+00 0.  1.
        994    1    1    2    0    0 -0.23801728096E+02 -0.33663302909E+02  0.19294062493E+02  0.17714807668E+03  0.17120000000E+03 0.  0.
        998    1    1    2    0    0  0.11164732051E+01  0.17714425936E+01  0.14298181637E+04  0.14298546660E+04  0.10000000000E+02 0.  1.
</event>
<event>
 5    1  0.1247473E-008  0.3743392E+03  0.7957747E-01  0.3476183E+00
         13   -1    0    0    0    0  0.00000000000E+00  0.00000000000E+00  0.14999999963E+04  0.15000000000E+04  0.10566000000E+00 0.  1.
        994   -1    0    0    0    0 -0.00000000000E+00 -0.00000000000E+00  0.11368683772E-12  0.17120000000E+03  0.17120000000E+03 0.  0.
         13    1    1    2    0    0  0.48854330561E+02  0.27712128481E+02  0.12516705961E+03  0.13719151451E+03  0.10566000000E+00 0.  1.
        994    1    1    2    0    0 -0.25531411039E+02  0.21156785014E+02  0.17164906894E+02  0.17522424641E+03  0.17120000000E+03 0.  0.
        998    1    1    2    0    0 -0.23322919522E+02 -0.48868913495E+02  0.13576680298E+04  0.13587842391E+04  0.10000000000E+02 0.  1.
</event>
<event>
 5    1  0.1247473E-008  0.3842684E+03  0.7957747E-01  0.3432781E+00
         13   -1    0    0    0    0  0.00000000000E+00  0.00000000000E+00  0.14999999963E+04  0.15000000000E+04  0.10566000000E+00 0. -1.
        994   -1    0    0    0    0 -0.00000000000E+00 -0.00000000000E+00  0.11368683772E-12  0.17120000000E+03  0.17120000000E+03 0.  0.
         13    1    1    2    0    0 -0.37338122283E+01  0.11251312089E+02  0.34885092138E+02  0.36844459489E+02  0.10566000000E+00 0. -1.
        994    1    1    2    0    0  0.22003911463E+01 -0.70173913642E+01  0.21721246208E+01  0.17137165351E+03  0.17120000000E+03 0.  0.
        998    1    1    2    0    0  0.15334210819E+01 -0.42339207253E+01  0.14629427795E+04  0.14629838870E+04  0.10000000000E+02 0. -1.
</event>
<event>
 5    1  0.1247473E-008  0.3741727E+03  0.7957747E-01  0.3476931E+00
         13   -1    0    0    0    0  0.00000000000E+00  0.00000000000E+00  0.14999999963E+04  0.15000000000E+04  0.10566000000E+00 0.  1.
        994   -1    0    0    0    0 -0.00000000000E+00 -0.00000000000E+00  0.11368683772E-12  0.17120000000E+03  0.17120000000E+03 0.  0.
         13    1    1    2    0    0 -0.16142777434E+02 -0.66266337484E+02  0.30425754267E+03  0.31180840300E+03  0.10566000000E+00 0.  1.
        994    1    1    2    0    0 -0.49512998696E+01  0.51029658982E+02  0.16117534749E+02  0.17943733277E+03  0.17120000000E+03 0.  0.
        998    1    1    2    0    0  0.21094077304E+02  0.15236678502E+02  0.11796249189E+04  0.11799542642E+04  0.10000000000E+02 0.  1.
</event>
<event>
 5    1  0.1247473E-008  0.3701446E+03  0.7957747E-01  0.3495227E+00
         13   -1    0    0    0    0  0.00000000000E+00  0.00000000000E+00  0.14999999963E+04  0.15000000000E+04  0.10566000000E+00 0. -1.
        994   -1    0    0    0    0 -0.00000000000E+00 -0.00000000000E+00  0.11368683772E-12  0.17120000000E+03  0.17120000000E+03 0.  0.
         13    1    1    2    0    0 -0.14257116819E+02 -0.41228322531E+02  0.10864543979E+03  0.11707639689E+03  0.10566000000E+00 0. -1.
        994    1    1    2    0    0  0.13404671805E+02  0.24127555818E+01  0.98348714157E+01  0.17202229888E+03  0.17120000000E+03 0.  0.
        998    1    1    2    0    0  0.85244501426E+00  0.38815566949E+02  0.13815196851E+04  0.13821013042E+04  0.10000000000E+02 0. -1.
</event>
<event>
 5    1  0.1247473E-008  0.3805468E+03  0.7957747E-01  0.3448781E+00
         13   -1    0    0    0    0  0.00000000000E+00  0.00000000000E+00  0.14999999963E+04  0.15000000000E+04  0.10566000000E+00 0.  1.
        994   -1    0    0    0    0 -0.00000000000E+00 -0.00000000000E+00  0.11368683772E-12  0.17120000000E+03  0.17120000000E+03 0.  0.
         13    1    1    2    0    0 -0.18328998648E+02  0.26238239294E+02  0.11410670054E+03  0.11851053820E+03  0.10566000000E+00 0.  1.
        994    1    1    2    0    0  0.37639642779E+02 -0.28395783470E+02  0.11311369374E+02  0.17793383687E+03  0.17120000000E+03 0.  0.
        998    1    1    2    0    0 -0.19310644131E+02  0.21575441762E+01  0.13745819264E+04  0.13747556249E+04  0.10000000000E+02 0.  1.
</event>
<event>
 5    1  0.1247473E-008  0.3817086E+03  0.7957747E-01  0.3443752E+00
         13   -1    0    0    0    0  0.00000000000E+00  0.00000000000E+00  0.14999999963E+04  0.15000000000E+04  0.10566000000E+00 0.  1.
        994   -1    0    0    0    0 -0.00000000000E+00 -0.00000000000E+00  0.11368683772E-12  0.17120000000E+03  0.17120000000E+03 0.  0.
         13    1    1    2    0    0  0.22002650590E+02  0.74258244786E+01  0.78669217343E+02  0.82025096303E+02  0.10566000000E+00 0.  1.
        994    1    1    2    0    0 -0.19049989188E+02 -0.93911197601E+01  0.47740784308E+01  0.17257846634E+03  0.17120000000E+03 0.  0.
        998    1    1    2    0    0 -0.29526614018E+01  0.19652952815E+01  0.14165567005E+04  0.14165964374E+04  0.10000000000E+02 0.  1.
</event>
<event>
 5    1  0.1247473E-008  0.3842040E+03  0.7957747E-01  0.3433055E+00
         13   -1    0    0    0    0  0.00000000000E+00  0.00000000000E+00  0.14999999963E+04  0.15000000000E+04  0.10566000000E+00 0. -1.
        994   -1    0    0    0    0 -0.00000000000E+00 -0.00000000000E+00  0.11368683772E-12  0.17120000000E+03  0.17120000000E+03 0.  0.
         13    1    1    2    0    0 -0.27112839316E+01  0.16047684110E+02  0.61152611741E+02  0.63281374137E+02  0.10566000000E+00 0. -1.
        994    1    1    2    0    0  0.31265504769E+00 -0.22034659985E+02  0.36286923330E+01  0.17265060499E+03  0.17120000000E+03 0.  0.
        998    1    1    2    0    0  0.23986288839E+01  0.59869758753E+01  0.14352186922E+04  0.14352680209E+04  0.10000000000E+02 0. -1.
</event>
<event>
 5    1  0.1247473E-008  0.4035361E+03  0.7957747E-01  0.3354672E+00
         13   -1    0    0    0    0  0.00000000000E+00  0.00000000000E+00  0.14999999963E+04  0.15000000000E+04  0.10566000000E+00 0.  1.
        994   -1    0    0    0    0 -0.00000000000E+00 -0.00000000000E+00  0.11368683772E-12  0.17120000000E+03  0.17120000000E+03 0.  0.
         13    1    1    2    0    0 -0.12891893700E+03  0.46585097883E+01  0.32330658069E+03  0.34809330691E+03  0.10566000000E+00 0.  1.
        994    1    1    2    0    0  0.42266625081E+02 -0.26080862359E+02  0.39770352895E+02  0.18264117812E+03  0.17120000000E+03 0.  0.
        998    1    1    2    0    0  0.86652311922E+02  0.21422352570E+02  0.11369230627E+04  0.11404655150E+04  0.10000000000E+02 0.  1.
</event>
<event>
 5    1  0.1247473E-008  0.3842242E+03  0.7957747E-01  0.3432969E+00
         13   -1    0    0    0    0  0.00000000000E+00  0.00000000000E+00  0.14999999963E+04  0.15000000000E+04  0.10566000000E+00 0. -1.
        994   -1    0    0    0    0 -0.00000000000E+00 -0.00000000000E+00  0.11368683772E-12  0.17120000000E+03  0.17120000000E+03 0.  0.
         13    1    1    2    0    0 -0.12644981091E+02 -0.47231380700E+00  0.38327412650E+02  0.40362363058E+02  0.10566000000E+00 0. -1.
        994    1    1    2    0    0  0.13972561902E+02  0.62410190830E-01  0.26597215842E+01  0.17178984400E+03  0.17120000000E+03 0.  0.
        998    1    1    2    0    0 -0.13275808113E+01  0.40990361617E+00  0.14590128620E+04  0.14590477929E+04  0.10000000000E+02 0. -1.
</event>
<event>
 5    1  0.1247473E-008  0.3763674E+03  0.7957747E-01  0.3467130E+00
         13   -1    0    0    0    0  0.00000000000E+00  0.00000000000E+00  0.14999999963E+04  0.15000000000E+04  0.10566000000E+00 0. -1.
        994   -1    0    0    0    0 -0.00000000000E+00 -0.00000000000E+00  0.11368683772E-12  0.17120000000E+03  0.17120000000E+03 0.  0.
         13    1    1    2    0    0 -0.45749297519E+02 -0.12686397338E+02  0.17923854812E+03  0.18541955452E+03  0.10566000000E+00 0. -1.
        994    1    1    2    0    0  0.30922617820E+02  0.17406008330E+02  0.10250584211E+02  0.17513906445E+03  0.17120000000E+03 0.  0.
        998    1    1    2    0    0  0.14826679699E+02 -0.47196109918E+01  0.13105108639E+04  0.13106413810E+04  0.10000000000E+02 0. -1.
</event>
<event>
 5    1  0.1247473E-008  0.3845250E+03  0.7957747E-01  0.3431689E+00
         13   -1    0    0    0    0  0.00000000000E+00  0.00000000000E+00  0.14999999963E+04  0.15000000000E+04  0.10566000000E+00 0.  1.
        994   -1    0    0    0    0 -0.00000000000E+00 -0.00000000000E+00  0.11368683772E-12  0.17120000000E+03  0.17120000000E+03 0.  0.
         13    1    1    2    0    0  0.10575183523E+02  0.19624833718E+02  0.12709541090E+03  0.12903574404E+03  0.10566000000E+00 0.  1.
        994    1    1    2    0    0 -0.54572760411E+01 -0.18894696924E+02  0.31411585031E+01  0.17235457148E+03  0.17120000000E+03 0.  0.
        998    1    1    2    0    0 -0.51179074818E+01 -0.73013679371E+00  0.13697634269E+04  0.13698096845E+04  0.10000000000E+02 0.  1.
</event>
<event>
 5    1  0.1247473E-008  0.3744214E+03  0.7957747E-01  0.3475814E+00
         13   -1    0    0    0    0  0.00000000000E+00  0.00000000000E+00  0.14999999963E+04  0.15000000000E+04  0.10566000000E+00 0.  1.
        994   -1    0    0    0    0 -0.00000000000E+00 -0.00000000000E+00  0.11368683772E-12  0.17120000000E+03  0.17120000000E+03 0.  0.
         13    1    1    2    0    0 -0.42094099463E+02 -0.48270445331E+02  0.27368083130E+03  0.28107500367E+03  0.10566000000E+00 0.  1.
        994    1    1    2    0    0  0.28751074220E+02  0.35795728152E+02  0.14189639865E+02  0.17781660300E+03  0.17120000000E+03 0.  0.
        998    1    1    2    0    0  0.13343025243E+02  0.12474717179E+02  0.12121295251E+04  0.12123083933E+04  0.10000000000E+02 0.  1.
</event>
<event>
 5    1  0.1247473E-008  0.3690782E+03  0.7957747E-01  0.3500138E+00
         13   -1    0    0    0    0  0.00000000000E+00  0.00000000000E+00  0.14999999963E+04  0.15000000000E+04  0.10566000000E+00 0.  1.
        994   -1    0    0    0    0 -0.00000000000E+00 -0.00000000000E+00  0.11368683772E-12  0.17120000000E+03  0.17120000000E+03 0.  0.
         13    1    1    2    0    0 -0.28213299676E+02  0.25851080128E+02  0.68742036776E+02  0.78674947769E+02  0.10566000000E+00 0.  1.
        994    1    1    2    0    0  0.41996238839E+01 -0.14590092196E+02  0.11255860303E+02  0.17224007090E+03  0.17120000000E+03 0.  0.
        998    1    1    2    0    0  0.24013675792E+02 -0.11260987932E+02  0.14200020992E+04  0.14202849813E+04  0.10000000000E+02 0.  1.
</event>
<event>
 5    1  0.1247473E-008  0.3764241E+03  0.7957747E-01  0.3466878E+00
         13   -1    0    0    0    0  0.00000000000E+00  0.00000000000E+00  0.14999999963E+04  0.15000000000E+04  0.10566000000E+00 0.  1.
        994   -1    0    0    0    0 -0.00000000000E+00 -0.00000000000E+00  0.11368683772E-12  0.17120000000E+03  0.17120000000E+03 0.  0.
         13    1    1    2    0    0  0.64968221958E+01 -0.48275150484E+02  0.17562828656E+03  0.18225807268E+03  0.10566000000E+00 0.  1.
        994    1    1    2    0    0 -0.63185273519E+01  0.48163505816E+02  0.13973853168E+02  0.17850589809E+03  0.17120000000E+03 0.  0.
        998    1    1    2    0    0 -0.17829484390E+00  0.11164466868E+00  0.13103978566E+04  0.13104360292E+04  0.10000000000E+02 0.  0.
</event>
<event>
 5    1  0.1247473E-008  0.3836242E+03  0.7957747E-01  0.3435528E+00
         13   -1    0    0    0    0  0.00000000000E+00  0.00000000000E+00  0.14999999963E+04  0.15000000000E+04  0.10566000000E+00 0. -1.
        994   -1    0    0    0    0 -0.00000000000E+00 -0.00000000000E+00  0.11368683772E-12  0.17120000000E+03  0.17120000000E+03 0.  0.
         13    1    1    2    0    0  0.21964338692E+03 -0.52628544919E+02  0.10143999296E+04  0.10392402078E+04  0.10566000000E+00 0. -1.
        994    1    1    2    0    0 -0.23496174510E+03  0.59844319638E+02  0.22972033748E+03  0.37532550900E+03  0.17120000000E+03 0.  0.
        998    1    1    2    0    0  0.15318358182E+02 -0.72157747186E+01  0.25587972924E+03  0.25663428325E+03  0.10000000000E+02 0. -1.
</event>
<event>
 5    1  0.1247473E-008  0.3725712E+03  0.7957747E-01  0.3484157E+00
         13   -1    0    0    0    0  0.00000000000E+00  0.00000000000E+00  0.14999999963E+04  0.15000000000E+04  0.10566000000E+00 0. -1.
        994   -1    0    0    0    0 -0.00000000000E+00 -0.00000000000E+00  0.11368683772E-12  0.17120000000E+03  0.17120000000E+03 0.  0.
         13    1    1    2    0    0 -0.47090594636E+01 -0.27458846399E+02  0.44775527922E+02  0.52735401310E+02  0.10566000000E+00 0. -1.
        994    1    1    2    0    0 -0.93947865171E+01  0.28461785880E+02  0.11016321623E+02  0.17415261873E+03  0.17120000000E+03 0.  0.
        998    1    1    2    0    0  0.14103845981E+02 -0.10029394810E+01  0.14442081467E+04  0.14443119800E+04  0.10000000000E+02 0. -1.
</event>
<event>
 5    1  0.1247473E-008  0.3855647E+03  0.7957747E-01  0.3427281E+00
         13   -1    0    0    0    0  0.00000000000E+00  0.00000000000E+00  0.14999999963E+04  0.15000000000E+04  0.10566000000E+00 0.  1.
        994   -1    0    0    0    0 -0.00000000000E+00 -0.00000000000E+00  0.11368683772E-12  0.17120000000E+03  0.17120000000E+03 0.  0.
         13    1    1    2    0    0  0.12571517228E+02  0.41317168068E+01  0.70290691845E+02  0.71525566431E+02  0.10566000000E+00 0.  1.
        994    1    1    2    0    0  0.54105170714E+01 -0.12705452212E+02  0.19762881943E+01  0.17176742394E+03  0.17120000000E+03 0.  0.
        998    1    1    2    0    0 -0.17982034300E+02  0.85737354050E+01  0.14277330162E+04  0.14279070096E+04  0.10000000000E+02 0.  1.
</event>
<event>
 5    1  0.1247473E-008  0.3709063E+03  0.7957747E-01  0.3491736E+00
         13   -1    0    0    0    0  0.00000000000E+00  0.00000000000E+00  0.14999999963E+04  0.15000000000E+04  0.10566000000E+00 0.  1.
        994   -1    0    0    0    0 -0.00000000000E+00 -0.00000000000E+00  0.11368683772E-12  0.17120000000E+03  0.17120000000E+03 0.  0.
         13    1    1    2    0    0 -0.29816110454E+02 -0.32677690066E+02  0.92006574614E+02  0.10208845580E+03  0.10566000000E+00 0.  1.
        994    1    1    2    0    0 -0.36063513177E+01 -0.61342508990E+01  0.11596483112E+02  0.17173978346E+03  0.17120000000E+03 0.  0.
        998    1    1    2    0    0  0.33422461771E+02  0.38811940965E+02  0.13963969386E+04  0.13973717607E+04  0.10000000000E+02 0.  1.
</event>
<event>
 5    1  0.1247473E-008  0.3730213E+03  0.7957747E-01  0.3482120E+00
         13   -1    0    0    0    0  0.00000000000E+00  0.00000000000E+00  0.14999999963E+04  0.15000000000E+04  0.10566000000E+00 0. -1.
        994   -1    0    0    0    0 -0.00000000000E+00 -0.00000000000E+00  0.11368683772E-12  0.17120000000E+03  0.17120000000E+03 0.  0.
         13    1    1    2    0    0 -0.10315173225E+03 -0.66301551015E+02  0.63526246975E+03  0.64698886557E+03  0.10566000000E+00 0. -1.
        994    1    1    2    0    0  0.75227992723E+02  0.92925997434E+02  0.58316552072E+02  0.21680579359E+03  0.17120000000E+03 0.  0.
        998    1    1    2    0    0  0.27923739528E+02 -0.26624446419E+02  0.80642097446E+03  0.80740534084E+03  0.10000000000E+02 0.  1.
</event>
<event>
 5    1  0.1247473E-008  0.3773003E+03  0.7957747E-01  0.3462998E+00
         13   -1    0    0    0    0  0.00000000000E+00  0.00000000000E+00  0.14999999963E+04  0.15000000000E+04  0.10566000000E+00 0.  1.
        994   -1    0    0    0    0 -0.00000000000E+00 -0.00000000000E+00  0.11368683772E-12  0.17120000000E+03  0.17120000000E+03 0.  0.
         13    1    1    2    0    0 -0.95427455285E+01 -0.19759399258E+02  0.41203032446E+02  0.46681890472E+02  0.10566000000E+00 0.  1.
        994    1    1    2    0    0  0.64016379262E+01  0.16372592838E+02  0.65452591912E+01  0.17222463001E+03  0.17120000000E+03 0.  0.
        998    1    1    2    0    0  0.31411076023E+01  0.33868064197E+01  0.14522517046E+04  0.14522934795E+04  0.10000000000E+02 0.  1.
</event>
<event>
 5    1  0.1247473E-008  0.3812441E+03  0.7957747E-01  0.3445759E+00
         13   -1    0    0    0    0  0.00000000000E+00  0.00000000000E+00  0.14999999963E+04  0.15000000000E+04  0.10566000000E+00 0. -1.
        994   -1    0    0    0    0 -0.00000000000E+00 -0.00000000000E+00  0.11368683772E-12  0.17120000000E+03  0.17120000000E+03 0.  0.
         13    1    1    2    0    0  0.25651886717E+02 -0.11714367221E+02  0.92695322262E+02  0.96890038832E+02  0.10566000000E+00 0. -1.
        994    1    1    2    0    0 -0.48526825049E+02  0.23470166087E+02  0.13241332664E+02  0.17997353788E+03  0.17120000000E+03 0.  0.
        998    1    1    2    0    0  0.22874938332E+02 -0.11755798866E+02  0.13940633414E+04  0.13943364233E+04  0.10000000000E+02 0. -1.
</event>
<event>
 5    1  0.1247473E-008  0.3792584E+03  0.7957747E-01  0.3454394E+00
         13   -1    0    0    0    0  0.00000000000E+00  0.00000000000E+00  0.14999999963E+04  0.15000000000E+04  0.10566000000E+00 0.  1.
        994   -1    0    0    0    0 -0.00000000000E+00 -0.00000000000E+00  0.11368683772E-12  0.17120000000E+03  0.17120000000E+03 0.  0.
         13    1    1    2    0    0 -0.24948005188E+02 -0.44351364705E+01  0.62797779377E+02  0.67717395528E+02  0.10566000000E+00 0.  1.
        994    1    1    2    0    0  0.41175302810E+02  0.68345784873E+01  0.10368225322E+02  0.17651928258E+03  0.17120000000E+03 0.  0.
        998    1    1    2    0    0 -0.16227297622E+02 -0.23994420168E+01  0.14268339916E+04  0.14269633219E+04  0.10000000000E+02 0.  1.
</event>
<event>
 5    1  0.1247473E-008  0.3844697E+03  0.7957747E-01  0.3431925E+00
         13   -1    0    0    0    0  0.00000000000E+00  0.00000000000E+00  0.14999999963E+04  0.15000000000E+04  0.10566000000E+00 0. -1.
        994   -1    0    0    0    0 -0.00000000000E+00 -0.00000000000E+00  0.11368683772E-12  0.17120000000E+03  0.17120000000E+03 0.  0.
         13    1    1    2    0    0 -0.18514732042E+02  0.48096683885E+01  0.10168503160E+03  0.10346876354E+03  0.10566000000E+00 0. -1.
        994    1    1    2    0    0  0.87615221622E+01  0.12728492457E+02  0.26806725990E+01  0.17191685431E+03  0.17120000000E+03 0.  0.
        998    1    1    2    0    0  0.97532098795E+01 -0.17538160845E+02  0.13956342921E+04  0.13958143821E+04  0.10000000000E+02 0. -1.
</event>
<event>
 5    1  0.1247473E-008  0.3811472E+03  0.7957747E-01  0.3446178E+00
         13   -1    0    0    0    0  0.00000000000E+00  0.00000000000E+00  0.14999999963E+04  0.15000000000E+04  0.10566000000E+00 0. -1.
        994   -1    0    0    0    0 -0.00000000000E+00 -0.00000000000E+00  0.11368683772E-12  0.17120000000E+03  0.17120000000E+03 0.  0.
         13    1    1    2    0    0  0.30941604576E+02  0.10254192234E+02  0.17572046936E+03  0.17871828633E+03  0.10566000000E+00 0. -1.
        994    1    1    2    0    0 -0.33411109807E+00  0.10789046522E+02  0.39432894997E+01  0.17158526944E+03  0.17120000000E+03 0.  0.
        998    1    1    2    0    0 -0.30607493478E+02 -0.21043238756E+02  0.13203362374E+04  0.13208964442E+04  0.10000000000E+02 0.  1.
</event>
<event>
 5    1  0.1247473E-008  0.3743267E+03  0.7957747E-01  0.3476240E+00
         13   -1    0    0    0    0  0.00000000000E+00  0.00000000000E+00  0.14999999963E+04  0.15000000000E+04  0.10566000000E+00 0.  1.
        994   -1    0    0    0    0 -0.00000000000E+00 -0.00000000000E+00  0.11368683772E-12  0.17120000000E+03  0.17120000000E+03 0.  0.
         13    1    1    2    0    0  0.21188908125E+02  0.45342634366E+02  0.16138171579E+03  0.16896447459E+03  0.10566000000E+00 0.  1.
        994    1    1    2    0    0 -0.27770006041E+02 -0.37981551983E+02  0.14604777323E+02  0.17814744188E+03  0.17120000000E+03 0.  0.
        998    1    1    2    0    0  0.65810979157E+01 -0.73610823826E+01  0.13240135032E+04  0.13240880835E+04  0.10000000000E+02 0.  1.
</event>
<event>
 5    1  0.1247473E-008  0.3835614E+03  0.7957747E-01  0.3435796E+00
         13   -1    0    0    0    0  0.00000000000E+00  0.00000000000E+00  0.14999999963E+04  0.15000000000E+04  0.10566000000E+00 0. -1.
        994   -1    0    0    0    0 -0.00000000000E+00 -0.00000000000E+00  0.11368683772E-12  0.17120000000E+03  0.17120000000E+03 0.  0.
         13    1    1    2    0    0 -0.86411822665E+01  0.12022427882E+02  0.52106187562E+02  0.54168946357E+02  0.10566000000E+00 0. -1.
        994    1    1    2    0    0 -0.68601832278E+01  0.13701675719E+02  0.31222172915E+01  0.17191272865E+03  0.17120000000E+03 0.  0.
        998    1    1    2    0    0  0.15501365494E+02 -0.25724103602E+02  0.14447715914E+04  0.14451183250E+04  0.10000000000E+02 0. -1.
</event>
<event>
 5    1  0.1247473E-008  0.3797694E+03  0.7957747E-01  0.3452163E+00
         13   -1    0    0    0    0  0.00000000000E+00  0.00000000000E+00  0.14999999963E+04  0.15000000000E+04  0.10566000000E+00 0.  1.
        994   -1    0    0    0    0 -0.00000000000E+00 -0.00000000000E+00  0.11368683772E-12  0.17120000000E+03  0.17120000000E+03 0.  0.
         13    1    1    2    0    0  0.12687964689E+02 -0.14093621174E+02  0.40209224357E+02  0.44456804802E+02  0.10566000000E+00 0.  1.
        994    1    1    2    0    0 -0.88783045739E+01  0.13568696409E+02  0.51297238204E+01  0.17204269203E+03  0.17120000000E+03 0.  0.
        998    1    1    2    0    0 -0.38096601154E+01  0.52492476508E+00  0.14546610481E+04  0.14547005032E+04  0.10000000000E+02 0.  1.
</event>
<event>
 5    1  0.1247473E-008  0.3851710E+03  0.7957747E-01  0.3428947E+00
         13   -1    0    0    0    0  0.00000000000E+00  0.00000000000E+00  0.14999999963E+04  0.15000000000E+04  0.10566000000E+00 0.  1.
        994   -1    0    0    0    0 -0.00000000000E+00 -0.00000000000E+00  0.11368683772E-12  0.17120000000E+03  0.17120000000E+03 0.  0.
         13    1    1    2    0    0 -0.85072344817E+01  0.73698333253E+01  0.41960856989E+02  0.43444357114E+02  0.10566000000E+00 0.  1.
        994    1    1    2    0    0  0.12846377506E+00 -0.44260635518E+01  0.16097195651E+01  0.17126481757E+03  0.17120000000E+03 0.  0.
        998    1    1    2    0    0  0.83787707067E+01 -0.29437697735E+01  0.14564294197E+04  0.14564908253E+04  0.10000000000E+02 0.  1.
</event>
<event>
 5    1  0.1247473E-008  0.3912719E+03  0.7957747E-01  0.3403500E+00
         13   -1    0    0    0    0  0.00000000000E+00  0.00000000000E+00  0.14999999963E+04  0.15000000000E+04  0.10566000000E+00 0. -1.
        994   -1    0    0    0    0 -0.00000000000E+00 -0.00000000000E+00  0.11368683772E-12  0.17120000000E+03  0.17120000000E+03 0.  0.
         13    1    1    2    0    0  0.65059714060E+02  0.96949773557E+02  0.28101506788E+03  0.30430495318E+03  0.10566000000E+00 0. -1.
        994    1    1    2    0    0 -0.20713548916E+02 -0.85493085797E+02  0.52555030492E+02  0.19952340729E+03  0.17120000000E+03 0.  0.
        998    1    1    2    0    0 -0.44346165144E+02 -0.11456687760E+02  0.11664298979E+04  0.11673716395E+04  0.10000000000E+02 0. -1.
</event>
<event>
 5    1  0.1247473E-008  0.3745423E+03  0.7957747E-01  0.3475272E+00
         13   -1    0    0    0    0  0.00000000000E+00  0.00000000000E+00  0.14999999963E+04  0.15000000000E+04  0.10566000000E+00 0.  1.
        994   -1    0    0    0    0 -0.00000000000E+00 -0.00000000000E+00  0.11368683772E-12  0.17120000000E+03  0.17120000000E+03 0.  0.
         13    1    1    2    0    0  0.27881809270E+02 -0.25724235577E+02  0.11086702210E+03  0.11717781077E+03  0.10566000000E+00 0.  1.
        994    1    1    2    0    0  0.57255146606E+01  0.11328550743E+02  0.74626326128E+01  0.17183203562E+03  0.17120000000E+03 0.  0.
        998    1    1    2    0    0 -0.33607323931E+02  0.14395684835E+02  0.13816703416E+04  0.13821901536E+04  0.10000000000E+02 0.  1.
</event>
<event>
 5    1  0.1247473E-008  0.3853372E+03  0.7957747E-01  0.3428244E+00
         13   -1    0    0    0    0  0.00000000000E+00  0.00000000000E+00  0.14999999963E+04  0.15000000000E+04  0.10566000000E+00 0. -1.
        994   -1    0    0    0    0 -0.00000000000E+00 -0.00000000000E+00  0.11368683772E-12  0.17120000000E+03  0.17120000000E+03 0.  0.
         13    1    1    2    0    0 -0.32097327496E+01  0.12405272169E+02  0.60289946145E+02  0.61636693066E+02  0.10566000000E+00 0. -1.
        994    1    1    2    0    0 -0.93340089287E+01 -0.44216860262E+00  0.17497422922E+01  0.17146375953E+03  0.17120000000E+03 0.  0.
        998    1    1    2    0    0  0.12543741678E+02 -0.11963103566E+02  0.14379603078E+04  0.14380995474E+04  0.10000000000E+02 0. -1.
</event>
<event>
 5    1  0.1247473E-008  0.3695160E+03  0.7957747E-01  0.3498118E+00
         13   -1    0    0    0    0  0.00000000000E+00  0.00000000000E+00  0.14999999963E+04  0.15000000000E+04  0.10566000000E+00 0. -1.
        994   -1    0    0    0    0 -0.00000000000E+00 -0.00000000000E+00  0.11368683772E-12  0.17120000000E+03  0.17120000000E+03 0.  0.
         13    1    1    2    0    0  0.98141536897E+01 -0.54941404803E+02  0.17105211411E+03  0.17992696430E+03  0.10566000000E+00 0. -1.
        994    1    1    2    0    0 -0.19130471691E+02  0.17040943876E+02  0.11798885946E+02  0.17350798951E+03  0.17120000000E+03 0.  0.
        998    1    1    2    0    0  0.93163180011E+01  0.37900460928E+02  0.13171489962E+04  0.13177650462E+04  0.10000000000E+02 0. -1.
</event>
<event>
 5    1  0.1247473E-008  0.3845221E+03  0.7957747E-01  0.3431702E+00
         13   -1    0    0    0    0  0.00000000000E+00  0.00000000000E+00  0.14999999963E+04  0.15000000000E+04  0.10566000000E+00 0. -1.
        994   -1    0    0    0    0 -0.00000000000E+00 -0.00000000000E+00  0.11368683772E-12  0.17120000000E+03  0.17120000000E+03 0.  0.
         13    1    1    2    0    0 -0.14395068637E+02 -0.11175629904E+02  0.84017629342E+02  0.85971424957E+02  0.10566000000E+00 0. -1.
        994    1    1    2    0    0  0.24757980179E+02  0.87913961633E+00  0.38916822281E+01  0.17302692178E+03  0.17120000000E+03 0.  0.
        998    1    1    2    0    0 -0.10362911542E+02  0.10296490288E+02  0.14120906847E+04  0.14122016533E+04  0.10000000000E+02 0. -1.
</event>
<event>
 5    1  0.1247473E-008  0.3739839E+03  0.7957747E-01  0.3477780E+00
         13   -1    0    0    0    0  0.00000000000E+00  0.00000000000E+00  0.14999999963E+04  0.15000000000E+04  0.10566000000E+00 0. -1.
        994   -1    0    0    0    0 -0.00000000000E+00 -0.00000000000E+00  0.11368683772E-12  0.17120000000E+03  0.17120000000E+03 0.  0.
         13    1    1    2    0    0  0.20698931547E+01 -0.28669292457E+02  0.55950263178E+02  0.62901954671E+02  0.10566000000E+00 0. -1.
        994    1    1    2    0    0 -0.86516740809E+01  0.10586967723E+02  0.78393126456E+01  0.17192390809E+03  0.17120000000E+03 0.  0.
        998    1    1    2    0    0  0.65817809262E+01  0.18082324734E+02  0.14362104205E+04  0.14363741372E+04  0.10000000000E+02 0. -1.
</event>
<event>
 5    1  0.1247473E-008  0.3704226E+03  0.7957747E-01  0.3493951E+00
         13   -1    0    0    0    0  0.00000000000E+00  0.00000000000E+00  0.14999999963E+04  0.15000000000E+04  0.10566000000E+00 0.  1.
        994   -1    0    0    0    0 -0.00000000000E+00 -0.00000000000E+00  0.11368683772E-12  0.17120000000E+03  0.17120000000E+03 0.  0.
         13    1    1    2    0    0 -0.17881669696E+02 -0.15220662009E+00  0.13559557236E+02  0.22442148614E+02  0.10566000000E+00 0.  1.
        994    1    1    2    0    0  0.17343495531E+02  0.40220930286E+01  0.10143506161E+02  0.17242188024E+03  0.17120000000E+03 0.  0.
        998    1    1    2    0    0  0.53817416447E+00 -0.38698864085E+01  0.14762969329E+04  0.14763359711E+04  0.10000000000E+02 0.  1.
</event>
<event>
 5    1  0.1247473E-008  0.3840972E+03  0.7957747E-01  0.3433510E+00
         13   -1    0    0    0    0  0.00000000000E+00  0.00000000000E+00  0.14999999963E+04  0.15000000000E+04  0.10566000000E+00 0. -1.
        994   -1    0    0    0    0 -0.00000000000E+00 -0.00000000000E+00  0.11368683772E-12  0.17120000000E+03  0.17120000000E+03 0.  0.
         13    1    1    2    0    0 -0.17340224495E+02  0.67200555977E+01  0.80755822714E+02  0.82869515499E+02  0.10566000000E+00 0. -1.
        994    1    1    2    0    0  0.13952930615E+02 -0.79453165892E+01  0.29298385852E+01  0.17197626663E+03  0.17120000000E+03 0.  0.
        998    1    1    2    0    0  0.33872938795E+01  0.12252609914E+01  0.14163143350E+04  0.14163542179E+04  0.10000000000E+02 0. -1.
</event>
<event>
 5    1  0.1247473E-008  0.3838938E+03  0.7957747E-01  0.3434377E+00
         13   -1    0    0    0    0  0.00000000000E+00  0.00000000000E+00  0.14999999963E+04  0.15000000000E+04  0.10566000000E+00 0.  1.
        994   -1    0    0    0    0 -0.00000000000E+00 -0.00000000000E+00  0.11368683772E-12  0.17120000000E+03  0.17120000000E+03 0.  0.
         13    1    1    2    0    0  0.63790428023E+01  0.87409589266E+01  0.25322737704E+02  0.27538132814E+02  0.10566000000E+00 0.  1.
        994    1    1    2    0    0 -0.70646688310E+01 -0.15574879896E+02  0.31462659866E+01  0.17208086884E+03  0.17120000000E+03 0.  0.
        998    1    1    2    0    0  0.68562602869E+00  0.68339209696E+01  0.14715309926E+04  0.14715809984E+04  0.10000000000E+02 0.  1.
</event>
<event>
 5    1  0.1247473E-008  0.2550273E+03  0.7957747E-01  0.4280668E+00
         13   -1    0    0    0    0  0.00000000000E+00  0.00000000000E+00  0.14999999963E+04  0.15000000000E+04  0.10566000000E+00 0. -1.
        994   -1    0    0    0    0 -0.00000000000E+00 -0.00000000000E+00  0.11368683772E-12  0.17120000000E+03  0.17120000000E+03 0.  0.
         13    1    1    2    0    0 -0.36971485640E+02 -0.16956158085E+03  0.26208536672E+03  0.31433544354E+03  0.10566000000E+00 0. -1.
        994    1    1    2    0    0  0.75877426596E+02  0.18663394366E+03  0.23718693330E+03  0.35518543624E+03  0.17120000000E+03 0.  0.
        998    1    1    2    0    0 -0.38905940956E+02 -0.17072362807E+02  0.10007276963E+04  0.10016791202E+04  0.10000000000E+02 0. -1.
</event>
<event>
 5    1  0.1247473E-008  0.3787768E+03  0.7957747E-01  0.3456502E+00
         13   -1    0    0    0    0  0.00000000000E+00  0.00000000000E+00  0.14999999963E+04  0.15000000000E+04  0.10566000000E+00 0. -1.
        994   -1    0    0    0    0 -0.00000000000E+00 -0.00000000000E+00  0.11368683772E-12  0.17120000000E+03  0.17120000000E+03 0.  0.
         13    1    1    2    0    0  0.15367048575E+02  0.42117327697E+01  0.24937437151E+02  0.29593442018E+02  0.10566000000E+00 0. -1.
        994    1    1    2    0    0 -0.76192977006E+01 -0.36556631553E+01  0.49916528361E+01  0.17148111899E+03  0.17120000000E+03 0.  0.
        998    1    1    2    0    0 -0.77477508740E+01 -0.55606961440E+00  0.14700709063E+04  0.14701254390E+04  0.10000000000E+02 0. -1.
</event>
<event>
 5    1  0.1247473E-008  0.3838174E+03  0.7957747E-01  0.3434703E+00
         13   -1    0    0    0    0  0.00000000000E+00  0.00000000000E+00  0.14999999963E+04  0.15000000000E+04  0.10566000000E+00 0. -1.
        994   -1    0    0    0    0 -0.00000000000E+00 -0.00000000000E+00  0.11368683772E-12  0.17120000000E+03  0.17120000000E+03 0.  0.
         13    1    1    2    0    0  0.15033122987E+02 -0.24654017219E+02  0.17105016767E+03  0.17347041931E+03  0.10566000000E+00 0. -1.
        994    1    1    2    0    0 -0.19054784626E+02  0.20571139308E+02  0.48184254054E+01  0.17354801587E+03  0.17120000000E+03 0.  0.
        998    1    1    2    0    0  0.40216616387E+01  0.40828779107E+01  0.13241314032E+04  0.13241815648E+04  0.10000000000E+02 0. -1.
</event>
<event>
 5    1  0.1247473E-008  0.3793942E+03  0.7957747E-01  0.3453801E+00
         13   -1    0    0    0    0  0.00000000000E+00  0.00000000000E+00  0.14999999963E+04  0.15000000000E+04  0.10566000000E+00 0.  1.
        994   -1    0    0    0    0 -0.00000000000E+00 -0.00000000000E+00  0.11368683772E-12  0.17120000000E+03  0.17120000000E+03 0.  0.
         13    1    1    2    0    0 -0.26846498537E+02 -0.23273446676E+02  0.13985758759E+03  0.14430018633E+03  0.10566000000E+00 0.  1.
        994    1    1    2    0    0  0.18122561442E+02  0.12636938071E+02  0.60759923502E+01  0.17272659645E+03  0.17120000000E+03 0.  0.
        998    1    1    2    0    0  0.87239370949E+01  0.10636508605E+02  0.13540664163E+04  0.13541732172E+04  0.10000000000E+02 0.  1.
</event>
<event>
 5    1  0.1247473E-008  0.3856792E+03  0.7957747E-01  0.3426797E+00
         13   -1    0    0    0    0  0.00000000000E+00  0.00000000000E+00  0.14999999963E+04  0.15000000000E+04  0.10566000000E+00 0.  1.
        994   -1    0    0    0    0 -0.00000000000E+00 -0.00000000000E+00  0.11368683772E-12  0.17120000000E+03  0.17120000000E+03 0.  0.
         13    1    1    2    0    0  0.23294212281E+01  0.13651073245E+02  0.73156843205E+02  0.74456113757E+02  0.10566000000E+00 0.  1.
        994    1    1    2    0    0 -0.17178314578E+01 -0.11739195946E+02  0.17553475870E+01  0.17161958196E+03  0.17120000000E+03 0.  0.
        998    1    1    2    0    0 -0.61158977029E+00 -0.19118772989E+01  0.14250878055E+04  0.14251243043E+04  0.10000000000E+02 0.  1.
</event>
<event>
 5    1  0.1247473E-008  0.3848200E+03  0.7957747E-01  0.3430436E+00
         13   -1    0    0    0    0  0.00000000000E+00  0.00000000000E+00  0.14999999963E+04  0.15000000000E+04  0.10566000000E+00 0. -1.
        994   -1    0    0    0    0 -0.00000000000E+00 -0.00000000000E+00  0.11368683772E-12  0.17120000000E+03  0.17120000000E+03 0.  0.
         13    1    1    2    0    0  0.16220037040E+02 -0.10863178938E+02  0.97307573767E+02  0.99246528074E+02  0.10566000000E+00 0. -1.
        994    1    1    2    0    0 -0.42081982521E+02 -0.67344425954E+01  0.77189819396E+01  0.17659351249E+03  0.17120000000E+03 0.  0.
        998    1    1    2    0    0  0.25861945482E+02  0.17597621533E+02  0.13949734406E+04  0.13953599594E+04  0.10000000000E+02 0. -1.
</event>
<event>
 5    1  0.1247473E-008  0.3850085E+03  0.7957747E-01  0.3429636E+00
         13   -1    0    0    0    0  0.00000000000E+00  0.00000000000E+00  0.14999999963E+04  0.15000000000E+04  0.10566000000E+00 0.  1.
        994   -1    0    0    0    0 -0.00000000000E+00 -0.00000000000E+00  0.11368683772E-12  0.17120000000E+03  0.17120000000E+03 0.  0.
         13    1    1    2    0    0 -0.10479561566E+02 -0.52211585143E+01  0.43802651466E+02  0.45340546383E+02  0.10566000000E+00 0.  1.
        994    1    1    2    0    0  0.53103040573E+01 -0.10075277897E+02  0.20525980075E+01  0.17159068656E+03  0.17120000000E+03 0.  0.
        998    1    1    2    0    0  0.51692575083E+01  0.15296436412E+02  0.14541447468E+04  0.14542687671E+04  0.10000000000E+02 0.  1.
</event>
<event>
 5    1  0.1247473E-008  0.3834443E+03  0.7957747E-01  0.3436297E+00
         13   -1    0    0    0    0  0.00000000000E+00  0.00000000000E+00  0.14999999963E+04  0.15000000000E+04  0.10566000000E+00 0.  1.
        994   -1    0    0    0    0 -0.00000000000E+00 -0.00000000000E+00  0.11368683772E-12  0.17120000000E+03  0.17120000000E+03 0.  0.
         13    1    1    2    0    0 -0.16321455521E+02 -0.59675669879E+01  0.59283972196E+02  0.61778655614E+02  0.10566000000E+00 0.  1.
        994    1    1    2    0    0  0.21120729403E+02  0.26837510982E+01  0.39041924347E+01  0.17256294634E+03  0.17120000000E+03 0.  0.
        998    1    1    2    0    0 -0.47992738814E+01  0.32838158897E+01  0.14368118316E+04  0.14368583980E+04  0.10000000000E+02 0.  1.
</event>
<event>
 5    1  0.1247473E-008  0.3696345E+03  0.7957747E-01  0.3497572E+00
         13   -1    0    0    0    0  0.00000000000E+00  0.00000000000E+00  0.14999999963E+04  0.15000000000E+04  0.10566000000E+00 0. -1.
        994   -1    0    0    0    0 -0.00000000000E+00 -0.00000000000E+00  0.11368683772E-12  0.17120000000E+03  0.17120000000E+03 0.  0.
         13    1    1    2    0    0 -0.54137774341E+01 -0.13203036344E+02  0.62991423585E+01  0.15598702295E+02  0.10566000000E+00 0. -1.
        994    1    1    2    0    0  0.11801568597E+01  0.21383228865E+02  0.11049625492E+02  0.17288773661E+03  0.17120000000E+03 0.  0.
        998    1    1    2    0    0  0.42336205744E+01 -0.81801925206E+01  0.14826512284E+04  0.14827135611E+04  0.10000000000E+02 0. -1.
</event>
<event>
 5    1  0.1247473E-008  0.3820559E+03  0.7957747E-01  0.3442255E+00
         13   -1    0    0    0    0  0.00000000000E+00  0.00000000000E+00  0.14999999963E+04  0.15000000000E+04  0.10566000000E+00 0.  1.
        994   -1    0    0    0    0 -0.00000000000E+00 -0.00000000000E+00  0.11368683772E-12  0.17120000000E+03  0.17120000000E+03 0.  0.
         13    1    1    2    0    0  0.18809865670E+02 -0.49102286752E+02  0.78899523652E+02  0.94815566271E+02  0.10566000000E+00 0.  1.
        994    1    1    2    0    0 -0.17791917361E+01  0.96527378010E+01  0.17813211545E+02  0.17240386126E+03  0.17120000000E+03 0.  0.
        998    1    1    2    0    0 -0.17030673934E+02  0.39449548951E+02  0.14032872611E+04  0.14039805725E+04  0.10000000000E+02 0.  1.
</event>
<event>
 5    1  0.1247473E-008  0.3814122E+03  0.7957747E-01  0.3445032E+00
         13   -1    0    0    0    0  0.00000000000E+00  0.00000000000E+00  0.14999999963E+04  0.15000000000E+04  0.10566000000E+00 0.  1.
        994   -1    0    0    0    0 -0.00000000000E+00 -0.00000000000E+00  0.11368683772E-12  0.17120000000E+03  0.17120000000E+03 0.  0.
         13    1    1    2    0    0  0.24423153964E+01  0.14561969237E+02  0.31164419862E+02  0.34485476391E+02  0.10566000000E+00 0.  1.
        994    1    1    2    0    0 -0.64551254649E+01 -0.31255927473E+01  0.35931312458E+01  0.17138783086E+03  0.17120000000E+03 0.  0.
        998    1    1    2    0    0  0.40128100686E+01 -0.11436376490E+02  0.14652424452E+04  0.14653266927E+04  0.10000000000E+02 0.  1.
</event>
<event>
 5    1  0.1247473E-008  0.3821205E+03  0.7957747E-01  0.3441977E+00
         13   -1    0    0    0    0  0.00000000000E+00  0.00000000000E+00  0.14999999963E+04  0.15000000000E+04  0.10566000000E+00 0.  1.
        994   -1    0    0    0    0 -0.00000000000E+00 -0.00000000000E+00  0.11368683772E-12  0.17120000000E+03  0.17120000000E+03 0.  0.
         13    1    1    2    0    0 -0.27355342211E+01  0.32597184827E+02  0.19712272587E+03  0.19981851722E+03  0.10566000000E+00 0.  1.
        994    1    1    2    0    0 -0.46878564921E+01 -0.47300341500E+01  0.32137862887E+01  0.17135961497E+03  0.17120000000E+03 0.  0.
        998    1    1    2    0    0  0.74233907132E+01 -0.27867150677E+02  0.12996634841E+04  0.13000218678E+04  0.10000000000E+02 0.  1.
</event>
<event>
 5    1  0.1247473E-008  0.3338588E+03  0.7957747E-01  0.3680488E+00
         13   -1    0    0    0    0  0.00000000000E+00  0.00000000000E+00  0.14999999963E+04  0.15000000000E+04  0.10566000000E+00 0.  1.
        994   -1    0    0    0    0 -0.00000000000E+00 -0.00000000000E+00  0.11368683772E-12  0.17120000000E+03  0.17120000000E+03 0.  0.
         13    1    1    2    0    0  0.10169972727E+03  0.23482070217E+03  0.74781639894E+03  0.79038786325E+03  0.10566000000E+00 0.  1.
        994    1    1    2    0    0 -0.98693854000E+02 -0.22920403059E+03  0.29218891857E+03  0.42066467476E+03  0.17120000000E+03 0.  0.
        998    1    1    2    0    0 -0.30058732714E+01 -0.56166715793E+01  0.45999467877E+03  0.46014746198E+03  0.10000000000E+02 0.  0.
</event>
<event>
 5    1  0.1247473E-008  0.3843122E+03  0.7957747E-01  0.3432595E+00
         13   -1    0    0    0    0  0.00000000000E+00  0.00000000000E+00  0.14999999963E+04  0.15000000000E+04  0.10566000000E+00 0. -1.
        994   -1    0    0    0    0 -0.00000000000E+00 -0.00000000000E+00  0.11368683772E-12  0.17120000000E+03  0.17120000000E+03 0.  0.
         13    1    1    2    0    0  0.11081743547E+02 -0.87972271998E+01  0.51769097852E+02  0.53667931793E+02  0.10566000000E+00 0. -1.
        994    1    1    2    0    0 -0.10399742902E+02 -0.60087967116E+01  0.24476400845E+01  0.17163825690E+03  0.17120000000E+03 0.  0.
        998    1    1    2    0    0 -0.68200064574E+00  0.14806023911E+02  0.14457832583E+04  0.14458938113E+04  0.10000000000E+02 0. -1.
</event>
<event>
 5    1  0.1247473E-008  0.3822981E+03  0.7957747E-01  0.3441213E+00
         13   -1    0    0    0    0  0.00000000000E+00  0.00000000000E+00  0.14999999963E+04  0.15000000000E+04  0.10566000000E+00 0.  1.
        994   -1    0    0    0    0 -0.00000000000E+00 -0.00000000000E+00  0.11368683772E-12  0.17120000000E+03  0.17120000000E+03 0.  0.
         13    1    1    2    0    0  0.80025787401E+01  0.65368726854E+01  0.16904955293E+02  0.19813143327E+02  0.10566000000E+00 0.  1.
        994    1    1    2    0    0 -0.43271946374E+00 -0.54315866855E+01  0.30760441693E+01  0.17131430596E+03  0.17120000000E+03 0.  0.
        998    1    1    2    0    0 -0.75698592764E+01 -0.11052859998E+01  0.14800189968E+04  0.14800725507E+04  0.10000000000E+02 0.  1.
</event>
<event>
 5    1  0.1247473E-008  0.3796655E+03  0.7957747E-01  0.3452616E+00
         13   -1    0    0    0    0  0.00000000000E+00  0.00000000000E+00  0.14999999963E+04  0.15000000000E+04  0.10566000000E+00 0.  1.
        994   -1    0    0    0    0 -0.00000000000E+00 -0.00000000000E+00  0.11368683772E-12  0.17120000000E+03  0.17120000000E+03 0.  0.
         13    1    1    2    0    0 -0.18393898961E+02  0.36239328472E+02  0.22231269169E+03  0.22599683294E+03  0.10566000000E+00 0.  1.
        994    1    1    2    0    0  0.11950598054E+01 -0.37698162620E+01  0.43544332647E+01  0.17130102385E+03  0.17120000000E+03 0.  0.
        998    1    1    2    0    0  0.17198839155E+02 -0.32469512210E+02  0.12733328713E+04  0.12739021432E+04  0.10000000000E+02 0.  1.
</event>
<event>
 5    1  0.1247473E-008  0.3799713E+03  0.7957747E-01  0.3451283E+00
         13   -1    0    0    0    0  0.00000000000E+00  0.00000000000E+00  0.14999999963E+04  0.15000000000E+04  0.10566000000E+00 0. -1.
        994   -1    0    0    0    0 -0.00000000000E+00 -0.00000000000E+00  0.11368683772E-12  0.17120000000E+03  0.17120000000E+03 0.  0.
         13    1    1    2    0    0  0.36967926493E+01  0.15839048365E+02  0.30506572285E+02  0.34571720316E+02  0.10566000000E+00 0. -1.
        994    1    1    2    0    0 -0.48764360114E+01 -0.73785464280E+01  0.44091689411E+01  0.17148499452E+03  0.17120000000E+03 0.  0.
        998    1    1    2    0    0  0.11796433621E+01 -0.84605019368E+01  0.14650842551E+04  0.14651432852E+04  0.10000000000E+02 0. -1.
</event>
<event>
 5    1  0.1333000E-008  0.3862357E+03  0.7957747E-01  0.3424448E+00
         13   -1    0    0    0    0  0.00000000000E+00  0.00000000000E+00  0.14999999963E+04  0.15000000000E+04  0.10566000000E+00 0. -1.
        994   -1    0    0    0    0 -0.00000000000E+00 -0.00000000000E+00  0.11368683772E-12  0.17120000000E+03  0.17120000000E+03 0.  0.
         13    1    1    2    0    0  0.97517274339E+01  0.40900512848E+01  0.57149474890E+02  0.58119689880E+02  0.10566000000E+00 0. -1.
        994    1    1    2    0    0 -0.72729004962E+01  0.67856348372E+01  0.13420206651E+01  0.17149396765E+03  0.17120000000E+03 0.  0.
        998    1    1    2    0    0 -0.24788269377E+01 -0.10875686122E+02  0.14415085007E+04  0.14415863425E+04  0.10000000000E+02 0. -1.
</event>
<event>
 5    1  0.1247473E-008  0.3849634E+03  0.7957747E-01  0.3429828E+00
         13   -1    0    0    0    0  0.00000000000E+00  0.00000000000E+00  0.14999999963E+04  0.15000000000E+04  0.10566000000E+00 0. -1.
        994   -1    0    0    0    0 -0.00000000000E+00 -0.00000000000E+00  0.11368683772E-12  0.17120000000E+03  0.17120000000E+03 0.  0.
         13    1    1    2    0    0 -0.84151660238E+01  0.11666388412E+02  0.60501284890E+02  0.62187911005E+02  0.10566000000E+00 0. -1.
        994    1    1    2    0    0  0.85514165615E+01 -0.13003255249E+02  0.24453731563E+01  0.17192332949E+03  0.17120000000E+03 0.  0.
        998    1    1    2    0    0 -0.13625053775E+00  0.13368668370E+01  0.14370533382E+04  0.14370887595E+04  0.10000000000E+02 0. -1.
</event>
<event>
 5    1  0.1247473E-008  0.3770188E+03  0.7957747E-01  0.3464243E+00
         13   -1    0    0    0    0  0.00000000000E+00  0.00000000000E+00  0.14999999963E+04  0.15000000000E+04  0.10566000000E+00 0.  1.
        994   -1    0    0    0    0 -0.00000000000E+00 -0.00000000000E+00  0.11368683772E-12  0.17120000000E+03  0.17120000000E+03 0.  0.
         13    1    1    2    0    0 -0.28157355583E+01  0.13090956111E+02  0.13947178088E+02  0.19334850382E+02  0.10566000000E+00 0.  1.
        994    1    1    2    0    0 -0.12524076044E+02  0.54532440700E+01  0.62758553530E+01  0.17185871148E+03  0.17120000000E+03 0.  0.
        998    1    1    2    0    0  0.15339811603E+02 -0.18544200181E+02  0.14797769628E+04  0.14800064381E+04  0.10000000000E+02 0.  1.
</event>
<event>
 5    1  0.1247473E-008  0.3819737E+03  0.7957747E-01  0.3442610E+00
         13   -1    0    0    0    0  0.00000000000E+00  0.00000000000E+00  0.14999999963E+04  0.15000000000E+04  0.10566000000E+00 0. -1.
        994   -1    0    0    0    0 -0.00000000000E+00 -0.00000000000E+00  0.11368683772E-12  0.17120000000E+03  0.17120000000E+03 0.  0.
         13    1    1    2    0    0 -0.28200775731E+02  0.20066944826E+02  0.19260917814E+03  0.19569433486E+03  0.10566000000E+00 0. -1.
        994    1    1    2    0    0  0.13384703181E+02 -0.12789694485E+02  0.42792706471E+01  0.17225120819E+03  0.17120000000E+03 0.  0.
        998    1    1    2    0    0  0.14816072550E+02 -0.72772503410E+01  0.13031115475E+04  0.13032544570E+04  0.10000000000E+02 0. -1.
</event>
<event>
 5    1  0.1247473E-008  0.3798330E+03  0.7957747E-01  0.3451886E+00
         13   -1    0    0    0    0  0.00000000000E+00  0.00000000000E+00  0.14999999963E+04  0.15000000000E+04  0.10566000000E+00 0. -1.
        994   -1    0    0    0    0 -0.00000000000E+00 -0.00000000000E+00  0.11368683772E-12  0.17120000000E+03  0.17120000000E+03 0.  0.
         13    1    1    2    0    0 -0.89729949315E+01 -0.24990321996E+02  0.87976603165E+02  0.91896271415E+02  0.10566000000E+00 0. -1.
        994    1    1    2    0    0 -0.86290375225E+01  0.54295067409E+01  0.45652001091E+01  0.17156404310E+03  0.17120000000E+03 0.  0.
        998    1    1    2    0    0  0.17602032454E+02  0.19560815255E+02  0.14074581930E+04  0.14077396855E+04  0.10000000000E+02 0. -1.
</event>
<event>
 5    1  0.1247473E-008  0.3713620E+03  0.7957747E-01  0.3489655E+00
         13   -1    0    0    0    0  0.00000000000E+00  0.00000000000E+00  0.14999999963E+04  0.15000000000E+04  0.10566000000E+00 0. -1.
        994   -1    0    0    0    0 -0.00000000000E+00 -0.00000000000E+00  0.11368683772E-12  0.17120000000E+03  0.17120000000E+03 0.  0.
         13    1    1    2    0    0  0.74541646105E+02 -0.94528719872E+02  0.56075041369E+03  0.57352695970E+03  0.10566000000E+00 0. -1.
        994    1    1    2    0    0 -0.57246499310E+02  0.58504824417E+02  0.35583899145E+02  0.19306897742E+03  0.17120000000E+03 0.  0.
        998    1    1    2    0    0 -0.17295146795E+02  0.36023895455E+02  0.90366568345E+03  0.90460406288E+03  0.10000000000E+02 0. -1.
</event>
<event>
 5    1  0.1247473E-008  0.3807180E+03  0.7957747E-01  0.3448038E+00
         13   -1    0    0    0    0  0.00000000000E+00  0.00000000000E+00  0.14999999963E+04  0.15000000000E+04  0.10566000000E+00 0.  1.
        994   -1    0    0    0    0 -0.00000000000E+00 -0.00000000000E+00  0.11368683772E-12  0.17120000000E+03  0.17120000000E+03 0.  0.
         13    1    1    2    0    0 -0.67706013750E+01  0.15081241179E+02  0.32477950779E+02  0.36443289222E+02  0.10566000000E+00 0.  1.
        994    1    1    2    0    0  0.94753602927E+01 -0.30941778148E+02  0.72713771770E+01  0.17438316723E+03  0.17120000000E+03 0.  0.
        998    1    1    2    0    0 -0.27047589178E+01  0.15860536969E+02  0.14602506683E+04  0.14603735435E+04  0.10000000000E+02 0.  1.
</event>
<event>
 5    1  0.1247473E-008  0.3804047E+03  0.7957747E-01  0.3449398E+00
         13   -1    0    0    0    0  0.00000000000E+00  0.00000000000E+00  0.14999999963E+04  0.15000000000E+04  0.10566000000E+00 0. -1.
        994   -1    0    0    0    0 -0.00000000000E+00 -0.00000000000E+00  0.11368683772E-12  0.17120000000E+03  0.17120000000E+03 0.  0.
         13    1    1    2    0    0  0.13427585919E+02  0.28745896974E+02  0.11653089639E+03  0.12077287624E+03  0.10566000000E+00 0. -1.
        994    1    1    2    0    0 -0.11694953549E+02 -0.32069169400E+02  0.78287654676E+01  0.17474533794E+03  0.17120000000E+03 0.  0.
        998    1    1    2    0    0 -0.17326323703E+01  0.33232724270E+01  0.13756403344E+04  0.13756817858E+04  0.10000000000E+02 0. -1.
</event>
<event>
 5    1  0.1247473E-008  0.3839650E+03  0.7957747E-01  0.3434074E+00
         13   -1    0    0    0    0  0.00000000000E+00  0.00000000000E+00  0.14999999963E+04  0.15000000000E+04  0.10566000000E+00 0. -1.
        994   -1    0    0    0    0 -0.00000000000E+00 -0.00000000000E+00  0.11368683772E-12  0.17120000000E+03  0.17120000000E+03 0.  0.
         13    1    1    2    0    0  0.63292355877E+01 -0.36916789638E+02  0.34421273971E+02  0.50869871693E+02  0.10566000000E+00 0. -1.
        994    1    1    2    0    0 -0.11733265313E+02 -0.24650316980E+02  0.21267605625E+02  0.17466269977E+03  0.17120000000E+03 0.  0.
        998    1    1    2    0    0  0.54040297255E+01  0.61567106618E+02  0.14443111167E+04  0.14456674285E+04  0.10000000000E+02 0. -1.
</event>
<event>
 5    1  0.1247473E-008  0.3731363E+03  0.7957747E-01  0.3481600E+00
         13   -1    0    0    0    0  0.00000000000E+00  0.00000000000E+00  0.14999999963E+04  0.15000000000E+04  0.10566000000E+00 0.  1.
        994   -1    0    0    0    0 -0.00000000000E+00 -0.00000000000E+00  0.11368683772E-12  0.17120000000E+03  0.17120000000E+03 0.  0.
         13    1    1    2    0    0  0.97536334943E+01  0.39731817327E+02  0.10323187931E+03  0.11104315712E+03  0.10566000000E+00 0.  1.
        994    1    1    2    0    0  0.59193189504E+01 -0.36169150578E+02  0.12247627209E+02  0.17550695189E+03  0.17120000000E+03 0.  0.
        998    1    1    2    0    0 -0.15672952445E+02 -0.35626667487E+01  0.13845204898E+04  0.13846498910E+04  0.10000000000E+02 0.  1.
</event>
<event>
 5    1  0.1247473E-008  0.3754777E+03  0.7957747E-01  0.3471089E+00
         13   -1    0    0    0    0  0.00000000000E+00  0.00000000000E+00  0.14999999963E+04  0.15000000000E+04  0.10566000000E+00 0. -1.
        994   -1    0    0    0    0 -0.00000000000E+00 -0.00000000000E+00  0.11368683772E-12  0.17120000000E+03  0.17120000000E+03 0.  0.
         13    1    1    2    0    0  0.40356141096E+02 -0.24654893806E+02  0.69226760126E+02  0.83838161921E+02  0.10566000000E+00 0. -1.
        994    1    1    2    0    0 -0.52669642779E+02  0.32850881176E+02  0.27730586195E+02  0.18420558372E+03  0.17120000000E+03 0.  0.
        998    1    1    2    0    0  0.12313501683E+02 -0.81959873701E+01  0.14030426500E+04  0.14031562544E+04  0.10000000000E+02 0. -1.
</event>
<event>
 5    1  0.1247473E-008  0.3860564E+03  0.7957747E-01  0.3425204E+00
         13   -1    0    0    0    0  0.00000000000E+00  0.00000000000E+00  0.14999999963E+04  0.15000000000E+04  0.10566000000E+00 0. -1.
        994   -1    0    0    0    0 -0.00000000000E+00 -0.00000000000E+00  0.11368683772E-12  0.17120000000E+03  0.17120000000E+03 0.  0.
         13    1    1    2    0    0  0.10726420950E+02 -0.26022645479E+01  0.52913431568E+02  0.54052477200E+02  0.10566000000E+00 0. -1.
        994    1    1    2    0    0 -0.17058878142E+02 -0.58624153745E+01  0.21736870694E+01  0.17216137242E+03  0.17120000000E+03 0.  0.
        998    1    1    2    0    0  0.63324571919E+01  0.84646799224E+01  0.14449128776E+04  0.14449861504E+04  0.10000000000E+02 0. -1.
</event>
<event>
 5    1  0.1247473E-008  0.3860719E+03  0.7957747E-01  0.3425139E+00
         13   -1    0    0    0    0  0.00000000000E+00  0.00000000000E+00  0.14999999963E+04  0.15000000000E+04  0.10566000000E+00 0.  1.
        994   -1    0    0    0    0 -0.00000000000E+00 -0.00000000000E+00  0.11368683772E-12  0.17120000000E+03  0.17120000000E+03 0.  0.
         13    1    1    2    0    0  0.10241908812E+02  0.34781823839E+01  0.61222952771E+02  0.62171179487E+02  0.10566000000E+00 0.  1.
        994    1    1    2    0    0  0.96209324266E+01  0.81332516673E+00  0.14044461618E+01  0.17147780121E+03  0.17120000000E+03 0.  0.
        998    1    1    2    0    0 -0.19862841239E+02 -0.42915075507E+01  0.14373725973E+04  0.14375510193E+04  0.10000000000E+02 0.  1.
</event>
<event>
 5    1  0.1247473E-008  0.3831143E+03  0.7957747E-01  0.3437709E+00
         13   -1    0    0    0    0  0.00000000000E+00  0.00000000000E+00  0.14999999963E+04  0.15000000000E+04  0.10566000000E+00 0.  1.
        994   -1    0    0    0    0 -0.00000000000E+00 -0.00000000000E+00  0.11368683772E-12  0.17120000000E+03  0.17120000000E+03 0.  0.
         13    1    1    2    0    0  0.59447619009E+01 -0.10547530704E+02  0.28052930915E+02  0.30554356399E+02  0.10566000000E+00 0.  1.
        994    1    1    2    0    0 -0.48294658230E+00  0.46590856158E+01  0.26418420664E+01  0.17128444076E+03  0.17120000000E+03 0.  0.
        998    1    1    2    0    0 -0.54618153186E+01  0.58884450879E+01  0.14693052233E+04  0.14693612028E+04  0.10000000000E+02 0.  1.
</event>
<event>
 5    1  0.1247473E-008  0.3716495E+03  0.7957747E-01  0.3488344E+00
         13   -1    0    0    0    0  0.00000000000E+00  0.00000000000E+00  0.14999999963E+04  0.15000000000E+04  0.10566000000E+00 0. -1.
        994   -1    0    0    0    0 -0.00000000000E+00 -0.00000000000E+00  0.11368683772E-12  0.17120000000E+03  0.17120000000E+03 0.  0.
         13    1    1    2    0    0 -0.57655361808E+01  0.12991419089E+02  0.85154934851E+01  0.16569344306E+02  0.10566000000E+00 0. -1.
        994    1    1    2    0    0 -0.51551218981E+02 -0.12695963218E+02  0.18163494108E+02  0.18016122829E+03  0.17120000000E+03 0.  0.
        998    1    1    2    0    0  0.57316755162E+02 -0.29545587161E+00  0.14733210087E+04  0.14744694274E+04  0.10000000000E+02 0. -1.
</event>
<event>
 5    1  0.1912830E-008  0.3858459E+03  0.7957747E-01  0.3426092E+00
         13   -1    0    0    0    0  0.00000000000E+00  0.00000000000E+00  0.14999999963E+04  0.15000000000E+04  0.10566000000E+00 0.  1.
        994   -1    0    0    0    0 -0.00000000000E+00 -0.00000000000E+00  0.11368683772E-12  0.17120000000E+03  0.17120000000E+03 0.  0.
         13    1    1    2    0    0  0.15714430548E+01  0.99363119478E+01  0.40895575577E+02  0.42114831048E+02  0.10566000000E+00 0.  1.
        994    1    1    2    0    0 -0.16998609707E+01 -0.11882548864E+02  0.16834112992E+01  0.17162854765E+03  0.17120000000E+03 0.  0.
        998    1    1    2    0    0  0.12841791591E+00  0.19462369162E+01  0.14574210094E+04  0.14574566213E+04  0.10000000000E+02 0.  1.
</event>
<event>
 5    1  0.1247473E-008  0.3821772E+03  0.7957747E-01  0.3441733E+00
         13   -1    0    0    0    0  0.00000000000E+00  0.00000000000E+00  0.14999999963E+04  0.15000000000E+04  0.10566000000E+00 0. -1.
        994   -1    0    0    0    0 -0.00000000000E+00 -0.00000000000E+00  0.11368683772E-12  0.17120000000E+03  0.17120000000E+03 0.  0.
         13    1    1    2    0    0  0.20481786477E+02 -0.96965898823E+01  0.99489156828E+02  0.10203739963E+03  0.10566000000E+00 0. -1.
        994    1    1    2    0    0  0.72636322059E+01 -0.18662212198E+02  0.43703037046E+01  0.17242267273E+03  0.17120000000E+03 0.  0.
        998    1    1    2    0    0 -0.27745418683E+02  0.28358802080E+02  0.13961405357E+04  0.13967399276E+04  0.10000000000E+02 0. -1.
</event>
<event>
 5    1  0.1247473E-008  0.3843069E+03  0.7957747E-01  0.3432617E+00
         13   -1    0    0    0    0  0.00000000000E+00  0.00000000000E+00  0.14999999963E+04  0.15000000000E+04  0.10566000000E+00 0.  1.
        994   -1    0    0    0    0 -0.00000000000E+00 -0.00000000000E+00  0.11368683772E-12  0.17120000000E+03  0.17120000000E+03 0.  0.
         13    1    1    2    0    0  0.31735307652E+01 -0.10385714106E+02  0.27252409912E+02  0.29336655656E+02  0.10566000000E+00 0.  1.
        994    1    1    2    0    0 -0.11481145910E+01  0.27494998276E+02  0.44747141676E+01  0.17345534343E+03  0.17120000000E+03 0.  0.
        998    1    1    2    0    0 -0.20254161742E+01 -0.17109284170E+02  0.14682728722E+04  0.14684080009E+04  0.10000000000E+02 0.  1.
</event>
<event>
 5    1  0.1391932E-008  0.3851110E+03  0.7957747E-01  0.3429202E+00
         13   -1    0    0    0    0  0.00000000000E+00  0.00000000000E+00  0.14999999963E+04  0.15000000000E+04  0.10566000000E+00 0.  1.
        994   -1    0    0    0    0 -0.00000000000E+00 -0.00000000000E+00  0.11368683772E-12  0.17120000000E+03  0.17120000000E+03 0.  0.
         13    1    1    2    0    0  0.22439633946E+01  0.10674043808E+02  0.37556661214E+02  0.39108624989E+02  0.10566000000E+00 0.  1.
        994    1    1    2    0    0 -0.97936575601E+00 -0.79307215526E+01  0.17850019321E+01  0.17139568762E+03  0.17120000000E+03 0.  0.
        998    1    1    2    0    0 -0.12645976386E+01 -0.27433222554E+01  0.14606583331E+04  0.14606956874E+04  0.10000000000E+02 0.  1.
</event>
<event>
 5    1  0.1247473E-008  0.3805086E+03  0.7957747E-01  0.3448947E+00
         13   -1    0    0    0    0  0.00000000000E+00  0.00000000000E+00  0.14999999963E+04  0.15000000000E+04  0.10566000000E+00 0.  1.
        994   -1    0    0    0    0 -0.00000000000E+00 -0.00000000000E+00  0.11368683772E-12  0.17120000000E+03  0.17120000000E+03 0.  0.
         13    1    1    2    0    0  0.30859926827E+02 -0.47454895793E+00  0.12836547302E+03  0.13202373313E+03  0.10566000000E+00 0.  1.
        994    1    1    2    0    0 -0.95002478464E+01 -0.42143112842E+01  0.42371764369E+01  0.17156750506E+03  0.17120000000E+03 0.  0.
        998    1    1    2    0    0 -0.21359678980E+02  0.46888602422E+01  0.13673973468E+04  0.13676087618E+04  0.10000000000E+02 0.  1.
</event>
<event>
 5    1  0.1247473E-008  0.3814726E+03  0.7957747E-01  0.3444771E+00
         13   -1    0    0    0    0  0.00000000000E+00  0.00000000000E+00  0.14999999963E+04  0.15000000000E+04  0.10566000000E+00 0. -1.
        994   -1    0    0    0    0 -0.00000000000E+00 -0.00000000000E+00  0.11368683772E-12  0.17120000000E+03  0.17120000000E+03 0.  0.
         13    1    1    2    0    0 -0.83907443035E+01 -0.13990387730E+02  0.28482699090E+02  0.32823937154E+02  0.10566000000E+00 0. -1.
        994    1    1    2    0    0  0.61043252651E+02  0.77308569397E+02  0.36373359764E+02  0.20083663734E+03  0.17120000000E+03 0.  0.
        998    1    1    2    0    0 -0.52652508348E+02 -0.63318181667E+02  0.14351439374E+04  0.14375394255E+04  0.10000000000E+02 0. -1.
</event>
<event>
 5    1  0.1247473E-008  0.3956585E+03  0.7957747E-01  0.3385689E+00
         13   -1    0    0    0    0  0.00000000000E+00  0.00000000000E+00  0.14999999963E+04  0.15000000000E+04  0.10566000000E+00 0.  1.
        994   -1    0    0    0    0 -0.00000000000E+00 -0.00000000000E+00  0.11368683772E-12  0.17120000000E+03  0.17120000000E+03 0.  0.
         13    1    1    2    0    0  0.83491810552E+02  0.16060605611E+02  0.14494937661E+03  0.16804510830E+03  0.10566000000E+00 0.  1.
        994    1    1    2    0    0 -0.41151279141E+02  0.10574866249E+02  0.32184630596E+02  0.17930573337E+03  0.17120000000E+03 0.  0.
        998    1    1    2    0    0 -0.42340531411E+02 -0.26635471861E+02  0.13228659891E+04  0.13238491583E+04  0.10000000000E+02 0.  1.
</event>
<event>
 5    1  0.1247473E-008  0.3717959E+03  0.7957747E-01  0.3487678E+00
         13   -1    0    0    0    0  0.00000000000E+00  0.00000000000E+00  0.14999999963E+04  0.15000000000E+04  0.10566000000E+00 0.  1.
        994   -1    0    0    0    0 -0.00000000000E+00 -0.00000000000E+00  0.11368683772E-12  0.17120000000E+03  0.17120000000E+03 0.  0.
         13    1    1    2    0    0 -0.84281656707E+02  0.38243554822E+02  0.39557191965E+03  0.40625499618E+03  0.10566000000E+00 0.  1.
        994    1    1    2    0    0  0.76355356032E+02 -0.38850853122E+02  0.33993090203E+02  0.19443379173E+03  0.17120000000E+03 0.  0.
        998    1    1    2    0    0  0.79263006745E+01  0.60729829976E+00  0.10704349864E+04  0.10705112121E+04  0.10000000000E+02 0.  0.
</event>
<event>
 5    1  0.1247473E-008  0.3801099E+03  0.7957747E-01  0.3450680E+00
         13   -1    0    0    0    0  0.00000000000E+00  0.00000000000E+00  0.14999999963E+04  0.15000000000E+04  0.10566000000E+00 0.  1.
        994   -1    0    0    0    0 -0.00000000000E+00 -0.00000000000E+00  0.11368683772E-12  0.17120000000E+03  0.17120000000E+03 0.  0.
         13    1    1    2    0    0 -0.14273735311E+02  0.17792805798E+02  0.60115361861E+02  0.64297677669E+02  0.10566000000E+00 0.  1.
        994    1    1    2    0    0  0.12171705920E+02 -0.20281069940E+02  0.59495037301E+01  0.17292862348E+03  0.17120000000E+03 0.  0.
        998    1    1    2    0    0  0.21020293920E+01  0.24882641421E+01  0.14339351307E+04  0.14339736989E+04  0.10000000000E+02 0.  1.
</event>
<event>
 5    1  0.1247473E-008  0.3812465E+03  0.7957747E-01  0.3445749E+00
         13   -1    0    0    0    0  0.00000000000E+00  0.00000000000E+00  0.14999999963E+04  0.15000000000E+04  0.10566000000E+00 0.  1.
        994   -1    0    0    0    0 -0.00000000000E+00 -0.00000000000E+00  0.11368683772E-12  0.17120000000E+03  0.17120000000E+03 0.  0.
         13    1    1    2    0    0 -0.11467873634E+02  0.24902019139E+01  0.18149257419E+02  0.21612957691E+02  0.10566000000E+00 0.  1.
        994    1    1    2    0    0  0.87509405745E+01 -0.39178314335E+01  0.38113367668E+01  0.17151062548E+03  0.17120000000E+03 0.  0.
        998    1    1    2    0    0  0.27169330596E+01  0.14276295196E+01  0.14780394021E+04  0.14780764168E+04  0.10000000000E+02 0.  1.
</event>
<event>
 5    1  0.1247473E-008  0.3814744E+03  0.7957747E-01  0.3444764E+00
         13   -1    0    0    0    0  0.00000000000E+00  0.00000000000E+00  0.14999999963E+04  0.15000000000E+04  0.10566000000E+00 0.  1.
        994   -1    0    0    0    0 -0.00000000000E+00 -0.00000000000E+00  0.11368683772E-12  0.17120000000E+03  0.17120000000E+03 0.  0.
         13    1    1    2    0    0  0.61131415672E+01  0.29969311327E+02  0.17845462930E+03  0.18105688610E+03  0.10566000000E+00 0.  1.
        994    1    1    2    0    0 -0.17282611344E+02  0.18337234463E+02  0.55058793276E+01  0.17313202341E+03  0.17120000000E+03 0.  0.
        998    1    1    2    0    0  0.11169469777E+02 -0.48306545790E+02  0.13160394876E+04  0.13170110905E+04  0.10000000000E+02 0.  1.
</event>
<event>
 5    1  0.1247473E-008  0.3826590E+03  0.7957747E-01  0.3439662E+00
         13   -1    0    0    0    0  0.00000000000E+00  0.00000000000E+00  0.14999999963E+04  0.15000000000E+04  0.10566000000E+00 0.  1.
        994   -1    0    0    0    0 -0.00000000000E+00 -0.00000000000E+00  0.11368683772E-12  0.17120000000E+03  0.17120000000E+03 0.  0.
         13    1    1    2    0    0 -0.18184599607E+02  0.16619160197E+01  0.60640605932E+02  0.63330370910E+02  0.10566000000E+00 0.  1.
        994    1    1    2    0    0  0.51242709940E+01 -0.16891556860E+01  0.28933746853E+01  0.17130943645E+03  0.17120000000E+03 0.  0.
        998    1    1    2    0    0  0.13060328613E+02  0.27239666267E-01  0.14364660157E+04  0.14365601926E+04  0.10000000000E+02 0.  1.
</event>
<event>
 5    1  0.1247473E-008  0.4060420E+03  0.7957747E-01  0.3345056E+00
         13   -1    0    0    0    0  0.00000000000E+00  0.00000000000E+00  0.14999999963E+04  0.15000000000E+04  0.10566000000E+00 0.  1.
        994   -1    0    0    0    0 -0.00000000000E+00 -0.00000000000E+00  0.11368683772E-12  0.17120000000E+03  0.17120000000E+03 0.  0.
         13    1    1    2    0    0  0.10608485161E+02  0.13199373022E+02 -0.93212555768E+01  0.19330296820E+02  0.10566000000E+00 0. -1.
        994    1    1    2    0    0 -0.10551064749E+02 -0.11987981305E+02  0.32467694971E+02  0.17498179300E+03  0.17120000000E+03 0.  0.
        998    1    1    2    0    0 -0.57420412609E-01 -0.12113917167E+01  0.14768535569E+04  0.14768879102E+04  0.10000000000E+02 0.  1.
</event>
<event>
 5    1  0.1247473E-008  0.3810719E+03  0.7957747E-01  0.3446504E+00
         13   -1    0    0    0    0  0.00000000000E+00  0.00000000000E+00  0.14999999963E+04  0.15000000000E+04  0.10566000000E+00 0.  1.
        994   -1    0    0    0    0 -0.00000000000E+00 -0.00000000000E+00  0.11368683772E-12  0.17120000000E+03  0.17120000000E+03 0.  0.
         13    1    1    2    0    0  0.20033742063E+02  0.28416123010E+02  0.18906552755E+03  0.19223582325E+03  0.10566000000E+00 0.  1.
        994    1    1    2    0    0 -0.81508481913E+01  0.30562200235E+00  0.38146895349E+01  0.17143664015E+03  0.17120000000E+03 0.  0.
        998    1    1    2    0    0 -0.11882893871E+02 -0.28721745012E+02  0.13071197792E+04  0.13075275366E+04  0.10000000000E+02 0.  1.
</event>
<event>
 5    1  0.1247473E-008  0.3742439E+03  0.7957747E-01  0.3476611E+00
         13   -1    0    0    0    0  0.00000000000E+00  0.00000000000E+00  0.14999999963E+04  0.15000000000E+04  0.10566000000E+00 0. -1.
        994   -1    0    0    0    0 -0.00000000000E+00 -0.00000000000E+00  0.11368683772E-12  0.17120000000E+03  0.17120000000E+03 0.  0.
         13    1    1    2    0    0 -0.17779579711E+02 -0.48233731579E+02  0.20456009136E+03  0.21092047899E+03  0.10566000000E+00 0. -1.
        994    1    1    2    0    0 -0.13235497679E+02  0.18886586353E+02  0.88821914133E+01  0.17297460758E+03  0.17120000000E+03 0.  0.
        998    1    1    2    0    0  0.31015077390E+02  0.29347145226E+02  0.12865577135E+04  0.12873049134E+04  0.10000000000E+02 0. -1.
</event>
<event>
 5    1  0.1247473E-008  0.3719773E+03  0.7957747E-01  0.3486852E+00
         13   -1    0    0    0    0  0.00000000000E+00  0.00000000000E+00  0.14999999963E+04  0.15000000000E+04  0.10566000000E+00 0.  1.
        994   -1    0    0    0    0 -0.00000000000E+00 -0.00000000000E+00  0.11368683772E-12  0.17120000000E+03  0.17120000000E+03 0.  0.
         13    1    1    2    0    0  0.47823998094E+02 -0.26836057446E+02  0.11964123827E+03  0.13161058404E+03  0.10566000000E+00 0.  1.
        994    1    1    2    0    0 -0.22376660936E+02  0.38826382923E+02  0.19091429090E+02  0.17799473484E+03  0.17120000000E+03 0.  0.
        998    1    1    2    0    0 -0.25447337158E+02 -0.11990325478E+02  0.13612673289E+04  0.13615946811E+04  0.10000000000E+02 0.  1.
</event>
<event>
 5    1  0.1247473E-008  0.3820780E+03  0.7957747E-01  0.3442160E+00
         13   -1    0    0    0    0  0.00000000000E+00  0.00000000000E+00  0.14999999963E+04  0.15000000000E+04  0.10566000000E+00 0.  1.
        994   -1    0    0    0    0 -0.00000000000E+00 -0.00000000000E+00  0.11368683772E-12  0.17120000000E+03  0.17120000000E+03 0.  0.
         13    1    1    2    0    0  0.17464995472E+02  0.19056193918E+02  0.10882195825E+03  0.11184987418E+03  0.10566000000E+00 0.  1.
        994    1    1    2    0    0 -0.92706082057E+01 -0.95818770067E+01  0.36782434378E+01  0.17175775388E+03  0.17120000000E+03 0.  0.
        998    1    1    2    0    0 -0.81943872666E+01 -0.94743169110E+01  0.13874997946E+04  0.13875923719E+04  0.10000000000E+02 0.  1.
</event>
<event>
 5    1  0.1247473E-008  0.3849124E+03  0.7957747E-01  0.3430044E+00
         13   -1    0    0    0    0  0.00000000000E+00  0.00000000000E+00  0.14999999963E+04  0.15000000000E+04  0.10566000000E+00 0.  1.
        994   -1    0    0    0    0 -0.00000000000E+00 -0.00000000000E+00  0.11368683772E-12  0.17120000000E+03  0.17120000000E+03 0.  0.
         13    1    1    2    0    0 -0.95150562863E+01 -0.31173864486E+01  0.31770653829E+02  0.33311259405E+02  0.10566000000E+00 0.  1.
        994    1    1    2    0    0 -0.67785716362E+01 -0.57828223637E+01  0.19348586437E+01  0.17144262523E+03  0.17120000000E+03 0.  0.
        998    1    1    2    0    0  0.16293627923E+02  0.89002088122E+01  0.14662944838E+04  0.14664461154E+04  0.10000000000E+02 0.  1.
</event>
<event>
 5    1  0.1247473E-008  0.3816073E+03  0.7957747E-01  0.3444190E+00
         13   -1    0    0    0    0  0.00000000000E+00  0.00000000000E+00  0.14999999963E+04  0.15000000000E+04  0.10566000000E+00 0.  1.
        994   -1    0    0    0    0 -0.00000000000E+00 -0.00000000000E+00  0.11368683772E-12  0.17120000000E+03  0.17120000000E+03 0.  0.
         13    1    1    2    0    0  0.10935017653E+02  0.22358175748E+02  0.96092839814E+02  0.99263828565E+02  0.10566000000E+00 0.  1.
        994    1    1    2    0    0 -0.10815297313E+02 -0.33686376563E+01  0.37508089166E+01  0.17161534588E+03  0.17120000000E+03 0.  0.
        998    1    1    2    0    0 -0.11972033993E+00 -0.18989538092E+02  0.14001563475E+04  0.14003208256E+04  0.10000000000E+02 0.  1.
</event>
<event>
 5    1  0.1247473E-008  0.3776630E+03  0.7957747E-01  0.3461398E+00
         13   -1    0    0    0    0  0.00000000000E+00  0.00000000000E+00  0.14999999963E+04  0.15000000000E+04  0.10566000000E+00 0. -1.
        994   -1    0    0    0    0 -0.00000000000E+00 -0.00000000000E+00  0.11368683772E-12  0.17120000000E+03  0.17120000000E+03 0.  0.
         13    1    1    2    0    0 -0.86039235089E+01  0.78188933941E+01  0.10323422970E+02  0.15548209527E+02  0.10566000000E+00 0. -1.
        994    1    1    2    0    0  0.16101470300E+02  0.50588993113E+01  0.62777463523E+01  0.17214441585E+03  0.17120000000E+03 0.  0.
        998    1    1    2    0    0 -0.74975467909E+01 -0.12877792705E+02  0.14833988270E+04  0.14835073746E+04  0.10000000000E+02 0. -1.
</event>
<event>
 5    1  0.1247473E-008  0.3764817E+03  0.7957747E-01  0.3466623E+00
         13   -1    0    0    0    0  0.00000000000E+00  0.00000000000E+00  0.14999999963E+04  0.15000000000E+04  0.10566000000E+00 0. -1.
        994   -1    0    0    0    0 -0.00000000000E+00 -0.00000000000E+00  0.11368683772E-12  0.17120000000E+03  0.17120000000E+03 0.  0.
         13    1    1    2    0    0 -0.36755981215E+02  0.19586869063E+03  0.10692595848E+04  0.10876725689E+04  0.10566000000E+00 0. -1.
        994    1    1    2    0    0  0.25698589902E+02 -0.18480822505E+03  0.13454575064E+03  0.28675162874E+03  0.17120000000E+03 0.  0.
        998    1    1    2    0    0  0.11057391314E+02 -0.11060465576E+02  0.29619466080E+03  0.29677580240E+03  0.10000000000E+02 0. -1.
</event>
<event>
 5    1  0.1247473E-008  0.3802162E+03  0.7957747E-01  0.3450218E+00
         13   -1    0    0    0    0  0.00000000000E+00  0.00000000000E+00  0.14999999963E+04  0.15000000000E+04  0.10566000000E+00 0.  1.
        994   -1    0    0    0    0 -0.00000000000E+00 -0.00000000000E+00  0.11368683772E-12  0.17120000000E+03  0.17120000000E+03 0.  0.
         13    1    1    2    0    0  0.21256853761E+02 -0.14296973593E+02  0.88396176478E+02  0.92033431240E+02  0.10566000000E+00 0.  1.
        994    1    1    2    0    0  0.15385663950E+02  0.16586871315E+02  0.57357385006E+01  0.17278362669E+03  0.17120000000E+03 0.  0.
        998    1    1    2    0    0 -0.36642517711E+02 -0.22898977225E+01  0.14058680813E+04  0.14063829421E+04  0.10000000000E+02 0.  1.
</event>
<event>
 5    1  0.1247473E-008  0.3815432E+03  0.7957747E-01  0.3444467E+00
         13   -1    0    0    0    0  0.00000000000E+00  0.00000000000E+00  0.14999999963E+04  0.15000000000E+04  0.10566000000E+00 0.  1.
        994   -1    0    0    0    0 -0.00000000000E+00 -0.00000000000E+00  0.11368683772E-12  0.17120000000E+03  0.17120000000E+03 0.  0.
         13    1    1    2    0    0  0.18142794753E+02 -0.43779570951E+02  0.27112414632E+03  0.27523467389E+03  0.10566000000E+00 0.  1.
        994    1    1    2    0    0 -0.10437341434E+02  0.49137992856E+02  0.11795073274E+02  0.17880728227E+03  0.17120000000E+03 0.  0.
        998    1    1    2    0    0 -0.77054533189E+01 -0.53584219054E+01  0.12170807767E+04  0.12171580438E+04  0.10000000000E+02 0.  1.
</event>
<event>
 5    1  0.1247473E-008  0.3848252E+03  0.7957747E-01  0.3430414E+00
         13   -1    0    0    0    0  0.00000000000E+00  0.00000000000E+00  0.14999999963E+04  0.15000000000E+04  0.10566000000E+00 0. -1.
        994   -1    0    0    0    0 -0.00000000000E+00 -0.00000000000E+00  0.11368683772E-12  0.17120000000E+03  0.17120000000E+03 0.  0.
         13    1    1    2    0    0 -0.26966330472E+01  0.17195339330E+02  0.84618945872E+02  0.86390559027E+02  0.10566000000E+00 0. -1.
        994    1    1    2    0    0  0.16593961025E+01 -0.17055312211E+02  0.26837680340E+01  0.17207637804E+03  0.17120000000E+03 0.  0.
        998    1    1    2    0    0  0.10372369447E+01 -0.14002711889E+00  0.14126972824E+04  0.14127330629E+04  0.10000000000E+02 0. -1.
</event>
<event>
 5    1  0.1247473E-008  0.3852241E+03  0.7957747E-01  0.3428722E+00
         13   -1    0    0    0    0  0.00000000000E+00  0.00000000000E+00  0.14999999963E+04  0.15000000000E+04  0.10566000000E+00 0. -1.
        994   -1    0    0    0    0 -0.00000000000E+00 -0.00000000000E+00  0.11368683772E-12  0.17120000000E+03  0.17120000000E+03 0.  0.
         13    1    1    2    0    0  0.10972897015E+02  0.15309148586E+01  0.57108835079E+02  0.58173691454E+02  0.10566000000E+00 0. -1.
        994    1    1    2    0    0  0.45197434792E+02  0.28873617462E+01  0.82887756579E+01  0.17728307525E+03  0.17120000000E+03 0.  0.
        998    1    1    2    0    0 -0.56170331807E+02 -0.44182766048E+01  0.14346023855E+04  0.14357432333E+04  0.10000000000E+02 0. -1.
</event>
<event>
 5    1  0.1247473E-008  0.3839945E+03  0.7957747E-01  0.3433948E+00
         13   -1    0    0    0    0  0.00000000000E+00  0.00000000000E+00  0.14999999963E+04  0.15000000000E+04  0.10566000000E+00 0. -1.
        994   -1    0    0    0    0 -0.00000000000E+00 -0.00000000000E+00  0.11368683772E-12  0.17120000000E+03  0.17120000000E+03 0.  0.
         13    1    1    2    0    0 -0.15974647196E+02  0.24060989189E+01  0.60288704578E+02  0.62415684958E+02  0.10566000000E+00 0. -1.
        994    1    1    2    0    0  0.13099540680E+02  0.48219972967E+01  0.27733425631E+01  0.17179051503E+03  0.17120000000E+03 0.  0.
        998    1    1    2    0    0  0.28751065158E+01 -0.72280962156E+01  0.14369379491E+04  0.14369938000E+04  0.10000000000E+02 0. -1.
</event>
<event>
 5    1  0.1247473E-008  0.3699859E+03  0.7957747E-01  0.3495956E+00
         13   -1    0    0    0    0  0.00000000000E+00  0.00000000000E+00  0.14999999963E+04  0.15000000000E+04  0.10566000000E+00 0. -1.
        994   -1    0    0    0    0 -0.00000000000E+00 -0.00000000000E+00  0.11368683772E-12  0.17120000000E+03  0.17120000000E+03 0.  0.
         13    1    1    2    0    0 -0.32900594272E+02 -0.15213866686E+02  0.64560042551E+02  0.74039996631E+02  0.10566000000E+00 0. -1.
        994    1    1    2    0    0  0.31306151751E+02  0.20766667359E+02  0.14172327233E+02  0.17584545621E+03  0.17120000000E+03 0.  0.
        998    1    1    2    0    0  0.15944425202E+01 -0.55528006730E+01  0.14212676265E+04  0.14213145472E+04  0.10000000000E+02 0. -1.
</event>
<event>
 5    1  0.1247473E-008  0.3772756E+03  0.7957747E-01  0.3463108E+00
         13   -1    0    0    0    0  0.00000000000E+00  0.00000000000E+00  0.14999999963E+04  0.15000000000E+04  0.10566000000E+00 0. -1.
        994   -1    0    0    0    0 -0.00000000000E+00 -0.00000000000E+00  0.11368683772E-12  0.17120000000E+03  0.17120000000E+03 0.  0.
         13    1    1    2    0    0 -0.10848210510E+02 -0.76530401422E+00  0.82648158885E+01  0.13659711095E+02  0.10566000000E+00 0. -1.
        994    1    1    2    0    0  0.53918439886E+01  0.48667052667E+01  0.56927612878E+01  0.17144854719E+03  0.17120000000E+03 0.  0.
        998    1    1    2    0    0  0.54563665211E+01 -0.41014012525E+01  0.14860424191E+04  0.14860917417E+04  0.10000000000E+02 0. -1.
</event>
<event>
 5    1  0.1247473E-008  0.3824248E+03  0.7957747E-01  0.3440668E+00
         13   -1    0    0    0    0  0.00000000000E+00  0.00000000000E+00  0.14999999963E+04  0.15000000000E+04  0.10566000000E+00 0.  1.
        994   -1    0    0    0    0 -0.00000000000E+00 -0.00000000000E+00  0.11368683772E-12  0.17120000000E+03  0.17120000000E+03 0.  0.
         13    1    1    2    0    0 -0.10627748174E+02 -0.69118432201E+01  0.27088155055E+02  0.29908224894E+02  0.10566000000E+00 0.  1.
        994    1    1    2    0    0 -0.16825863441E+01  0.67299289079E+01  0.30736997572E+01  0.17136805615E+03  0.17120000000E+03 0.  0.
        998    1    1    2    0    0  0.12310334519E+02  0.18191431222E+00  0.14698381415E+04  0.14699237190E+04  0.10000000000E+02 0.  1.
</event>
<event>
 5    1  0.1247473E-008  0.3727317E+03  0.7957747E-01  0.3483430E+00
         13   -1    0    0    0    0  0.00000000000E+00  0.00000000000E+00  0.14999999963E+04  0.15000000000E+04  0.10566000000E+00 0. -1.
        994   -1    0    0    0    0 -0.00000000000E+00 -0.00000000000E+00  0.11368683772E-12  0.17120000000E+03  0.17120000000E+03 0.  0.
         13    1    1    2    0    0 -0.67385146177E+02  0.64436431697E+01  0.23514471997E+03  0.24469435824E+03  0.10566000000E+00 0. -1.
        994    1    1    2    0    0  0.76545712403E+02  0.18535968634E+02  0.29403706700E+02  0.19072715116E+03  0.17120000000E+03 0.  0.
        998    1    1    2    0    0 -0.91605662264E+01 -0.24979611804E+02  0.12354515696E+04  0.12357784906E+04  0.10000000000E+02 0. -1.
</event>
<event>
 5    1  0.1247473E-008  0.3826044E+03  0.7957747E-01  0.3439896E+00
         13   -1    0    0    0    0  0.00000000000E+00  0.00000000000E+00  0.14999999963E+04  0.15000000000E+04  0.10566000000E+00 0.  1.
        994   -1    0    0    0    0 -0.00000000000E+00 -0.00000000000E+00  0.11368683772E-12  0.17120000000E+03  0.17120000000E+03 0.  0.
         13    1    1    2    0    0  0.15849804841E+02  0.15072716100E+02  0.92868327181E+02  0.95409330998E+02  0.10566000000E+00 0.  1.
        994    1    1    2    0    0 -0.27299010758E+01  0.77912996608E+01  0.30501145205E+01  0.17142607710E+03  0.17120000000E+03 0.  0.
        998    1    1    2    0    0 -0.13119903765E+02 -0.22864015761E+02  0.14040815546E+04  0.14043645919E+04  0.10000000000E+02 0.  1.
</event>
<event>
 5    1  0.1247473E-008  0.3850163E+03  0.7957747E-01  0.3429603E+00
         13   -1    0    0    0    0  0.00000000000E+00  0.00000000000E+00  0.14999999963E+04  0.15000000000E+04  0.10566000000E+00 0. -1.
        994   -1    0    0    0    0 -0.00000000000E+00 -0.00000000000E+00  0.11368683772E-12  0.17120000000E+03  0.17120000000E+03 0.  0.
         13    1    1    2    0    0  0.20479222807E+01 -0.12914337765E+02  0.57449360114E+02  0.58918708804E+02  0.10566000000E+00 0. -1.
        994    1    1    2    0    0 -0.28656699477E+01 -0.60932293509E+01  0.17711710030E+01  0.17134152023E+03  0.17120000000E+03 0.  0.
        998    1    1    2    0    0  0.81774766706E+00  0.19007567116E+02  0.14407794652E+04  0.14409397710E+04  0.10000000000E+02 0. -1.
</event>
<event>
 5    1  0.1247473E-008  0.3717587E+03  0.7957747E-01  0.3487847E+00
         13   -1    0    0    0    0  0.00000000000E+00  0.00000000000E+00  0.14999999963E+04  0.15000000000E+04  0.10566000000E+00 0. -1.
        994   -1    0    0    0    0 -0.00000000000E+00 -0.00000000000E+00  0.11368683772E-12  0.17120000000E+03  0.17120000000E+03 0.  0.
         13    1    1    2    0    0 -0.39494361051E+02  0.15615659551E+02  0.10008659652E+03  0.10872438248E+03  0.10566000000E+00 0. -1.
        994    1    1    2    0    0  0.37194000840E+02 -0.11261754208E+02  0.13560864637E+02  0.17607827196E+03  0.17120000000E+03 0.  0.
        998    1    1    2    0    0  0.23003602108E+01 -0.43539053430E+01  0.13863525351E+04  0.13863973456E+04  0.10000000000E+02 0. -1.
</event>
<event>
 5    1  0.1247473E-008  0.3780777E+03  0.7957747E-01  0.3459571E+00
         13   -1    0    0    0    0  0.00000000000E+00  0.00000000000E+00  0.14999999963E+04  0.15000000000E+04  0.10566000000E+00 0.  1.
        994   -1    0    0    0    0 -0.00000000000E+00 -0.00000000000E+00  0.11368683772E-12  0.17120000000E+03  0.17120000000E+03 0.  0.
         13    1    1    2    0    0 -0.41909509745E+02 -0.22436327327E+02  0.75125281039E+02  0.88902276721E+02  0.10566000000E+00 0.  1.
        994    1    1    2    0    0 -0.12578376694E+02  0.24095368279E+02  0.17938151377E+02  0.17426996186E+03  0.17120000000E+03 0.  0.
        998    1    1    2    0    0  0.54487886439E+02 -0.16590409516E+01  0.14069365639E+04  0.14080277614E+04  0.10000000000E+02 0.  1.
</event>
<event>
 5    1  0.1247473E-008  0.3793392E+03  0.7957747E-01  0.3454041E+00
         13   -1    0    0    0    0  0.00000000000E+00  0.00000000000E+00  0.14999999963E+04  0.15000000000E+04  0.10566000000E+00 0.  1.
        994   -1    0    0    0    0 -0.00000000000E+00 -0.00000000000E+00  0.11368683772E-12  0.17120000000E+03  0.17120000000E+03 0.  0.
         13    1    1    2    0    0 -0.34049084378E+01  0.23243798991E+02  0.60760114559E+02  0.65143459213E+02  0.10566000000E+00 0.  1.
        994    1    1    2    0    0  0.10628355548E+01 -0.12344847755E+02  0.49815890613E+01  0.17172006614E+03  0.17120000000E+03 0.  0.
        998    1    1    2    0    0  0.23420728831E+01 -0.10898951236E+02  0.14342582927E+04  0.14343364746E+04  0.10000000000E+02 0.  1.
</event>
<event>
 5    1  0.1247473E-008  0.3831715E+03  0.7957747E-01  0.3437464E+00
         13   -1    0    0    0    0  0.00000000000E+00  0.00000000000E+00  0.14999999963E+04  0.15000000000E+04  0.10566000000E+00 0.  1.
        994   -1    0    0    0    0 -0.00000000000E+00 -0.00000000000E+00  0.11368683772E-12  0.17120000000E+03  0.17120000000E+03 0.  0.
         13    1    1    2    0    0 -0.10502562878E+02 -0.61645325701E-01  0.20831342437E+02  0.23329458179E+02  0.10566000000E+00 0.  1.
        994    1    1    2    0    0  0.66787318778E+01 -0.11385718750E+01  0.26925779783E+01  0.17135516269E+03  0.17120000000E+03 0.  0.
        998    1    1    2    0    0  0.38238310002E+01  0.12002172007E+01  0.14764760759E+04  0.14765153791E+04  0.10000000000E+02 0.  1.
</event>
<event>
 5    1  0.1247473E-008  0.3780777E+03  0.7957747E-01  0.3459572E+00
         13   -1    0    0    0    0  0.00000000000E+00  0.00000000000E+00  0.14999999963E+04  0.15000000000E+04  0.10566000000E+00 0. -1.
        994   -1    0    0    0    0 -0.00000000000E+00 -0.00000000000E+00  0.11368683772E-12  0.17120000000E+03  0.17120000000E+03 0.  0.
         13    1    1    2    0    0 -0.44583196977E+02  0.38782693829E+02  0.35344131480E+03  0.35834694497E+03  0.10566000000E+00 0. -1.
        994    1    1    2    0    0  0.90452203391E+01 -0.36055614965E+02  0.97696278114E+01  0.17546141744E+03  0.17120000000E+03 0.  0.
        998    1    1    2    0    0  0.35537976638E+02 -0.27270788642E+01  0.11367890537E+04  0.11373916376E+04  0.10000000000E+02 0. -1.
</event>
<event>
 5    1  0.1247473E-008  0.3840472E+03  0.7957747E-01  0.3433723E+00
         13   -1    0    0    0    0  0.00000000000E+00  0.00000000000E+00  0.14999999963E+04  0.15000000000E+04  0.10566000000E+00 0. -1.
        994   -1    0    0    0    0 -0.00000000000E+00 -0.00000000000E+00  0.11368683772E-12  0.17120000000E+03  0.17120000000E+03 0.  0.
         13    1    1    2    0    0  0.26358384454E+01  0.12909878730E+02  0.39781800303E+02  0.41907223870E+02  0.10566000000E+00 0. -1.
        994    1    1    2    0    0 -0.15939896962E+01 -0.14272134467E+02  0.27845649542E+01  0.17182382963E+03  0.17120000000E+03 0.  0.
        998    1    1    2    0    0 -0.10418487492E+01  0.13622557370E+01  0.14574336310E+04  0.14574689465E+04  0.10000000000E+02 0. -1.
</event>
<event>
 5    1  0.1247473E-008  0.3837387E+03  0.7957747E-01  0.3435039E+00
         13   -1    0    0    0    0  0.00000000000E+00  0.00000000000E+00  0.14999999963E+04  0.15000000000E+04  0.10566000000E+00 0. -1.
        994   -1    0    0    0    0 -0.00000000000E+00 -0.00000000000E+00  0.11368683772E-12  0.17120000000E+03  0.17120000000E+03 0.  0.
         13    1    1    2    0    0  0.13012895105E+02 -0.25636201982E+01  0.38370240930E+02  0.40597957345E+02  0.10566000000E+00 0. -1.
        994    1    1    2    0    0 -0.95143384601E+01 -0.27993774316E+01  0.25824993303E+01  0.17150646767E+03  0.17120000000E+03 0.  0.
        998    1    1    2    0    0 -0.34985566444E+01  0.53629976298E+01  0.14590472560E+04  0.14590955750E+04  0.10000000000E+02 0. -1.
</event>
<event>
 5    1  0.1247473E-008  0.3810984E+03  0.7957747E-01  0.3446390E+00
         13   -1    0    0    0    0  0.00000000000E+00  0.00000000000E+00  0.14999999963E+04  0.15000000000E+04  0.10566000000E+00 0.  1.
        994   -1    0    0    0    0 -0.00000000000E+00 -0.00000000000E+00  0.11368683772E-12  0.17120000000E+03  0.17120000000E+03 0.  0.
         13    1    1    2    0    0 -0.27765333013E+02 -0.11934477221E+02  0.12338474333E+03  0.12703208852E+03  0.10566000000E+00 0.  1.
        994    1    1    2    0    0  0.26031303590E+02 -0.42014957643E+01  0.58990115940E+01  0.17331912667E+03  0.17120000000E+03 0.  0.
        998    1    1    2    0    0  0.17340294233E+01  0.16135972985E+02  0.13707162414E+04  0.13708487848E+04  0.10000000000E+02 0.  1.
</event>
<event>
 5    1  0.1247473E-008  0.3743287E+03  0.7957747E-01  0.3476231E+00
         13   -1    0    0    0    0  0.00000000000E+00  0.00000000000E+00  0.14999999963E+04  0.15000000000E+04  0.10566000000E+00 0. -1.
        994   -1    0    0    0    0 -0.00000000000E+00 -0.00000000000E+00  0.11368683772E-12  0.17120000000E+03  0.17120000000E+03 0.  0.
         13    1    1    2    0    0  0.21885944493E+03 -0.10730431175E+03  0.11643903833E+04  0.11896296263E+04  0.10566000000E+00 0. -1.
        994    1    1    2    0    0 -0.21045694552E+03  0.12978055776E+03  0.24682819959E+03  0.38906133090E+03  0.17120000000E+03 0.  0.
        998    1    1    2    0    0 -0.84024994107E+01 -0.22476246012E+02  0.88781413427E+02  0.92509042808E+02  0.10000000000E+02 0. -1.
</event>
<event>
 5    1  0.1247473E-008  0.3839382E+03  0.7957747E-01  0.3434188E+00
         13   -1    0    0    0    0  0.00000000000E+00  0.00000000000E+00  0.14999999963E+04  0.15000000000E+04  0.10566000000E+00 0. -1.
        994   -1    0    0    0    0 -0.00000000000E+00 -0.00000000000E+00  0.11368683772E-12  0.17120000000E+03  0.17120000000E+03 0.  0.
         13    1    1    2    0    0  0.15012283344E+02  0.50289132201E+01  0.72816297915E+02  0.74517669216E+02  0.10566000000E+00 0. -1.
        994    1    1    2    0    0  0.31057252623E+02 -0.58550118249E+01  0.54613384766E+01  0.17417835779E+03  0.17120000000E+03 0.  0.
        998    1    1    2    0    0 -0.46069535968E+02  0.82609860481E+00  0.14217223599E+04  0.14225039730E+04  0.10000000000E+02 0. -1.
</event>
<event>
 5    1  0.1247473E-008  0.3768826E+03  0.7957747E-01  0.3464846E+00
         13   -1    0    0    0    0  0.00000000000E+00  0.00000000000E+00  0.14999999963E+04  0.15000000000E+04  0.10566000000E+00 0.  1.
        994   -1    0    0    0    0 -0.00000000000E+00 -0.00000000000E+00  0.11368683772E-12  0.17120000000E+03  0.17120000000E+03 0.  0.
         13    1    1    2    0    0 -0.23371463119E+02  0.18384278527E+01  0.44349640699E+02  0.50164797412E+02  0.10566000000E+00 0.  1.
        994    1    1    2    0    0  0.25499095914E+02 -0.57434277105E+01  0.80262168166E+01  0.17336969461E+03  0.17120000000E+03 0.  0.
        998    1    1    2    0    0 -0.21276327955E+01  0.39049998578E+01  0.14476241388E+04  0.14476655080E+04  0.10000000000E+02 0.  1.
</event>
<event>
 5    1  0.1247473E-008  0.3829921E+03  0.7957747E-01  0.3438233E+00
         13   -1    0    0    0    0  0.00000000000E+00  0.00000000000E+00  0.14999999963E+04  0.15000000000E+04  0.10566000000E+00 0. -1.
        994   -1    0    0    0    0 -0.00000000000E+00 -0.00000000000E+00  0.11368683772E-12  0.17120000000E+03  0.17120000000E+03 0.  0.
         13    1    1    2    0    0 -0.14783766396E+02  0.26299116181E+02  0.15930243357E+03  0.16213414127E+03  0.10566000000E+00 0. -1.
        994    1    1    2    0    0  0.11815724462E+02 -0.25181143084E+02  0.51956329918E+01  0.17352272449E+03  0.17120000000E+03 0.  0.
        998    1    1    2    0    0  0.29680419343E+01 -0.11179730971E+01  0.13355019297E+04  0.13355431342E+04  0.10000000000E+02 0.  0.
</event>
<event>
 5    1  0.1247473E-008  0.3846454E+03  0.7957747E-01  0.3431178E+00
         13   -1    0    0    0    0  0.00000000000E+00  0.00000000000E+00  0.14999999963E+04  0.15000000000E+04  0.10566000000E+00 0. -1.
        994   -1    0    0    0    0 -0.00000000000E+00 -0.00000000000E+00  0.11368683772E-12  0.17120000000E+03  0.17120000000E+03 0.  0.
         13    1    1    2    0    0  0.11797300406E+02 -0.18101765287E+02  0.12440058714E+03  0.12626308822E+03  0.10566000000E+00 0. -1.
        994    1    1    2    0    0 -0.74785793494E+01  0.16427712195E+02  0.28797049756E+01  0.17217296994E+03  0.17120000000E+03 0.  0.
        998    1    1    2    0    0 -0.43187210567E+01  0.16740530925E+01  0.13727197042E+04  0.13727639418E+04  0.10000000000E+02 0. -1.
</event>
<event>
 5    1  0.1247473E-008  0.3803731E+03  0.7957747E-01  0.3449536E+00
         13   -1    0    0    0    0  0.00000000000E+00  0.00000000000E+00  0.14999999963E+04  0.15000000000E+04  0.10566000000E+00 0.  1.
        994   -1    0    0    0    0 -0.00000000000E+00 -0.00000000000E+00  0.11368683772E-12  0.17120000000E+03  0.17120000000E+03 0.  0.
         13    1    1    2    0    0 -0.59935609954E+01  0.12022126430E+02  0.20224500137E+02  0.24279535974E+02  0.10566000000E+00 0.  1.
        994    1    1    2    0    0  0.62259879852E+01 -0.27311403568E+02  0.65692172465E+01  0.17360089374E+03  0.17120000000E+03 0.  0.
        998    1    1    2    0    0 -0.23242698977E+00  0.15289277138E+02  0.14732062789E+04  0.14733195703E+04  0.10000000000E+02 0.  1.
</event>
<event>
 5    1  0.1247473E-008  0.3806454E+03  0.7957747E-01  0.3448353E+00
         13   -1    0    0    0    0  0.00000000000E+00  0.00000000000E+00  0.14999999963E+04  0.15000000000E+04  0.10566000000E+00 0. -1.
        994   -1    0    0    0    0 -0.00000000000E+00 -0.00000000000E+00  0.11368683772E-12  0.17120000000E+03  0.17120000000E+03 0.  0.
         13    1    1    2    0    0  0.18642474863E+02  0.28326416441E+02  0.13697812754E+03  0.14111323937E+03  0.10566000000E+00 0. -1.
        994    1    1    2    0    0 -0.33365347711E+02 -0.19671610957E+02  0.88283957916E+01  0.17574868215E+03  0.17120000000E+03 0.  0.
        998    1    1    2    0    0  0.14722872848E+02 -0.86548054842E+01  0.13541934729E+04  0.13543380785E+04  0.10000000000E+02 0. -1.
</event>
<event>
 5    1  0.1247473E-008  0.3753529E+03  0.7957747E-01  0.3471646E+00
         13   -1    0    0    0    0  0.00000000000E+00  0.00000000000E+00  0.14999999963E+04  0.15000000000E+04  0.10566000000E+00 0.  1.
        994   -1    0    0    0    0 -0.00000000000E+00 -0.00000000000E+00  0.11368683772E-12  0.17120000000E+03  0.17120000000E+03 0.  0.
         13    1    1    2    0    0  0.19924340331E+01 -0.71323020806E+02  0.42972932966E+03  0.43561250100E+03  0.10566000000E+00 0.  1.
        994    1    1    2    0    0  0.12954971623E+02  0.31578378644E+02  0.10463283661E+02  0.17488266236E+03  0.17120000000E+03 0.  0.
        998    1    1    2    0    0 -0.14947405656E+02  0.39744642162E+02  0.10598073830E+04  0.10607048366E+04  0.10000000000E+02 0.  1.
</event>
<event>
 5    1  0.1247473E-008  0.3881942E+03  0.7957747E-01  0.3416237E+00
         13   -1    0    0    0    0  0.00000000000E+00  0.00000000000E+00  0.14999999963E+04  0.15000000000E+04  0.10566000000E+00 0.  1.
        994   -1    0    0    0    0 -0.00000000000E+00 -0.00000000000E+00  0.11368683772E-12  0.17120000000E+03  0.17120000000E+03 0.  0.
         13    1    1    2    0    0  0.10524156042E+03 -0.12433455834E+03  0.43075891230E+03  0.46053025973E+03  0.10566000000E+00 0.  1.
        994    1    1    2    0    0 -0.10034179069E+03  0.12120378724E+03  0.12056664070E+03  0.26192477518E+03  0.17120000000E+03 0.  0.
        998    1    1    2    0    0 -0.48997697289E+01  0.31307710983E+01  0.94867444327E+03  0.94874496509E+03  0.10000000000E+02 0.  0.
</event>
<event>
 5    1  0.1247473E-008  0.3825792E+03  0.7957747E-01  0.3440004E+00
         13   -1    0    0    0    0  0.00000000000E+00  0.00000000000E+00  0.14999999963E+04  0.15000000000E+04  0.10566000000E+00 0.  1.
        994   -1    0    0    0    0 -0.00000000000E+00 -0.00000000000E+00  0.11368683772E-12  0.17120000000E+03  0.17120000000E+03 0.  0.
         13    1    1    2    0    0  0.26430301170E+02  0.10492539711E+02  0.14806831004E+03  0.15077430090E+03  0.10566000000E+00 0.  1.
        994    1    1    2    0    0 -0.79350988200E+01 -0.10181459082E+02  0.33893296789E+01  0.17171940909E+03  0.17120000000E+03 0.  0.
        998    1    1    2    0    0 -0.18495202350E+02 -0.31108062867E+00  0.13485423566E+04  0.13487062900E+04  0.10000000000E+02 0.  1.
</event>
<event>
 5    1  0.1247473E-008  0.3718469E+03  0.7957747E-01  0.3487446E+00
         13   -1    0    0    0    0  0.00000000000E+00  0.00000000000E+00  0.14999999963E+04  0.15000000000E+04  0.10566000000E+00 0. -1.
        994   -1    0    0    0    0 -0.00000000000E+00 -0.00000000000E+00  0.11368683772E-12  0.17120000000E+03  0.17120000000E+03 0.  0.
         13    1    1    2    0    0  0.48853139952E+02 -0.50421072033E+02  0.27446632568E+03  0.28330317486E+03  0.10566000000E+00 0. -1.
        994    1    1    2    0    0 -0.45828928060E+02  0.27035827685E+02  0.18097808752E+02  0.18018933739E+03  0.17120000000E+03 0.  0.
        998    1    1    2    0    0 -0.30242118918E+01  0.23385244348E+02  0.12074358618E+04  0.12077074878E+04  0.10000000000E+02 0. -1.
</event>
<event>
 5    1  0.1283781E-008  0.3857795E+03  0.7957747E-01  0.3426373E+00
         13   -1    0    0    0    0  0.00000000000E+00  0.00000000000E+00  0.14999999963E+04  0.15000000000E+04  0.10566000000E+00 0.  1.
        994   -1    0    0    0    0 -0.00000000000E+00 -0.00000000000E+00  0.11368683772E-12  0.17120000000E+03  0.17120000000E+03 0.  0.
         13    1    1    2    0    0 -0.10286862550E+02 -0.44698754579E+01  0.52045277494E+02  0.53240223527E+02  0.10566000000E+00 0.  1.
        994    1    1    2    0    0  0.41279794395E+01  0.15276089507E+01  0.13071680457E+01  0.17126156163E+03  0.17120000000E+03 0.  0.
        998    1    1    2    0    0  0.61588831109E+01  0.29422665072E+01  0.14466475507E+04  0.14466982148E+04  0.10000000000E+02 0.  1.
</event>
<event>
 5    1  0.1247473E-008  0.3802052E+03  0.7957747E-01  0.3450266E+00
         13   -1    0    0    0    0  0.00000000000E+00  0.00000000000E+00  0.14999999963E+04  0.15000000000E+04  0.10566000000E+00 0. -1.
        994   -1    0    0    0    0 -0.00000000000E+00 -0.00000000000E+00  0.11368683772E-12  0.17120000000E+03  0.17120000000E+03 0.  0.
         13    1    1    2    0    0  0.11602617544E+02 -0.12048470073E+02  0.38617180680E+02  0.42084250886E+02  0.10566000000E+00 0. -1.
        994    1    1    2    0    0 -0.32027515252E+01 -0.49076065447E+02  0.12152374121E+02  0.17853805761E+03  0.17120000000E+03 0.  0.
        998    1    1    2    0    0 -0.83998660190E+01  0.61124535520E+02  0.14492304415E+04  0.14505776915E+04  0.10000000000E+02 0. -1.
</event>
<event>
 5    1  0.1247473E-008  0.3862116E+03  0.7957747E-01  0.3424550E+00
         13   -1    0    0    0    0  0.00000000000E+00  0.00000000000E+00  0.14999999963E+04  0.15000000000E+04  0.10566000000E+00 0. -1.
        994   -1    0    0    0    0 -0.00000000000E+00 -0.00000000000E+00  0.11368683772E-12  0.17120000000E+03  0.17120000000E+03 0.  0.
         13    1    1    2    0    0  0.47698751683E+01  0.11613783590E+02  0.74384779539E+02  0.75436982107E+02  0.10566000000E+00 0. -1.
        994    1    1    2    0    0 -0.96677161796E+00 -0.14202562837E+02  0.16939203828E+01  0.17179917580E+03  0.17120000000E+03 0.  0.
        998    1    1    2    0    0 -0.38031035503E+01  0.25887792473E+01  0.14239212964E+04  0.14239638421E+04  0.10000000000E+02 0. -1.
</event>
<event>
 5    1  0.1247473E-008  0.3821804E+03  0.7957747E-01  0.3441719E+00
         13   -1    0    0    0    0  0.00000000000E+00  0.00000000000E+00  0.14999999963E+04  0.15000000000E+04  0.10566000000E+00 0. -1.
        994   -1    0    0    0    0 -0.00000000000E+00 -0.00000000000E+00  0.11368683772E-12  0.17120000000E+03  0.17120000000E+03 0.  0.
         13    1    1    2    0    0 -0.12674221091E+02 -0.12362858018E+02  0.50002931142E+02  0.53045079182E+02  0.10566000000E+00 0. -1.
        994    1    1    2    0    0  0.87060995651E+01  0.11744528331E+02  0.37462035509E+01  0.17186391173E+03  0.17120000000E+03 0.  0.
        998    1    1    2    0    0  0.39681215258E+01  0.61832968701E+00  0.14462508616E+04  0.14462910091E+04  0.10000000000E+02 0. -1.
</event>
<event>
 5    1  0.1247473E-008  0.3729567E+03  0.7957747E-01  0.3482412E+00
         13   -1    0    0    0    0  0.00000000000E+00  0.00000000000E+00  0.14999999963E+04  0.15000000000E+04  0.10566000000E+00 0.  1.
        994   -1    0    0    0    0 -0.00000000000E+00 -0.00000000000E+00  0.11368683772E-12  0.17120000000E+03  0.17120000000E+03 0.  0.
         13    1    1    2    0    0  0.10726461826E+03  0.57836588654E+01  0.57717616302E+03  0.58708728769E+03  0.10566000000E+00 0.  1.
        994    1    1    2    0    0 -0.87485587229E+02  0.97872702302E+01  0.34740746405E+02  0.19561666108E+03  0.17120000000E+03 0.  0.
        998    1    1    2    0    0 -0.19779031030E+02 -0.15570929096E+02  0.88808308685E+03  0.88849605123E+03  0.10000000000E+02 0.  1.
</event>
<event>
 5    1  0.1247473E-008  0.3859703E+03  0.7957747E-01  0.3425567E+00
         13   -1    0    0    0    0  0.00000000000E+00  0.00000000000E+00  0.14999999963E+04  0.15000000000E+04  0.10566000000E+00 0. -1.
        994   -1    0    0    0    0 -0.00000000000E+00 -0.00000000000E+00  0.11368683772E-12  0.17120000000E+03  0.17120000000E+03 0.  0.
         13    1    1    2    0    0 -0.16866540866E+02 -0.17553494224E+02  0.74955369040E+01  0.25471544864E+02  0.10566000000E+00 0. -1.
        994    1    1    2    0    0 -0.18443710916E+02 -0.98760128812E+01  0.21269368602E+02  0.17378012586E+03  0.17120000000E+03 0.  0.
        998    1    1    2    0    0  0.35310251782E+02  0.27429507105E+02  0.14712350908E+04  0.14719483293E+04  0.10000000000E+02 0. -1.
</event>
<event>
 5    1  0.1247473E-008  0.3754937E+03  0.7957747E-01  0.3471018E+00
         13   -1    0    0    0    0  0.00000000000E+00  0.00000000000E+00  0.14999999963E+04  0.15000000000E+04  0.10566000000E+00 0.  1.
        994   -1    0    0    0    0 -0.00000000000E+00 -0.00000000000E+00  0.11368683772E-12  0.17120000000E+03  0.17120000000E+03 0.  0.
         13    1    1    2    0    0  0.93626516106E+02  0.65839375770E+02  0.35211882879E+03  0.37025454578E+03  0.10566000000E+00 0.  1.
        994    1    1    2    0    0 -0.10055251717E+03 -0.54678997575E+02  0.62180983707E+02  0.21511977180E+03  0.17120000000E+03 0.  0.
        998    1    1    2    0    0  0.69260010640E+01 -0.11160378195E+02  0.10857001838E+04  0.10858256824E+04  0.10000000000E+02 0.  1.
</event>
<event>
 5    1  0.1247473E-008  0.3698483E+03  0.7957747E-01  0.3496588E+00
         13   -1    0    0    0    0  0.00000000000E+00  0.00000000000E+00  0.14999999963E+04  0.15000000000E+04  0.10566000000E+00 0.  1.
        994   -1    0    0    0    0 -0.00000000000E+00 -0.00000000000E+00  0.11368683772E-12  0.17120000000E+03  0.17120000000E+03 0.  0.
         13    1    1    2    0    0 -0.58408095166E+02  0.13962592776E+01  0.24377153405E+03  0.25067514256E+03  0.10566000000E+00 0.  1.
        994    1    1    2    0    0 -0.44848605137E+02 -0.16187554832E+02  0.18844815866E+02  0.17871206282E+03  0.17120000000E+03 0.  0.
        998    1    1    2    0    0  0.10325670030E+03  0.14791295554E+02  0.12373836464E+04  0.12418127946E+04  0.10000000000E+02 0.  1.
</event>
<event>
 5    1  0.1247473E-008  0.3740379E+03  0.7957747E-01  0.3477537E+00
         13   -1    0    0    0    0  0.00000000000E+00  0.00000000000E+00  0.14999999963E+04  0.15000000000E+04  0.10566000000E+00 0.  1.
        994   -1    0    0    0    0 -0.00000000000E+00 -0.00000000000E+00  0.11368683772E-12  0.17120000000E+03  0.17120000000E+03 0.  0.
         13    1    1    2    0    0  0.36331675837E+02 -0.20379246954E+02  0.60914365505E+02  0.73796175134E+02  0.10566000000E+00 0.  1.
        994    1    1    2    0    0 -0.31891190252E+02  0.75642824929E+01  0.16909077384E+02  0.17512744869E+03  0.17120000000E+03 0.  0.
        998    1    1    2    0    0 -0.44404855850E+01  0.12814964461E+02  0.14221765534E+04  0.14222763762E+04  0.10000000000E+02 0.  1.
</event>
<event>
 5    1  0.1247473E-008  0.3807486E+03  0.7957747E-01  0.3447905E+00
         13   -1    0    0    0    0  0.00000000000E+00  0.00000000000E+00  0.14999999963E+04  0.15000000000E+04  0.10566000000E+00 0. -1.
        994   -1    0    0    0    0 -0.00000000000E+00 -0.00000000000E+00  0.11368683772E-12  0.17120000000E+03  0.17120000000E+03 0.  0.
         13    1    1    2    0    0 -0.22258808827E+01 -0.24472703541E+02  0.87193863829E+02  0.90590555898E+02  0.10566000000E+00 0. -1.
        994    1    1    2    0    0  0.39016161003E+01 -0.42514540148E+01  0.38667927363E+01  0.17134085781E+03  0.17120000000E+03 0.  0.
        998    1    1    2    0    0 -0.16757352176E+01  0.28724157556E+02  0.14089393397E+04  0.14092685863E+04  0.10000000000E+02 0. -1.
</event>
<event>
 5    1  0.1247473E-008  0.3773499E+03  0.7957747E-01  0.3462780E+00
         13   -1    0    0    0    0  0.00000000000E+00  0.00000000000E+00  0.14999999963E+04  0.15000000000E+04  0.10566000000E+00 0.  1.
        994   -1    0    0    0    0 -0.00000000000E+00 -0.00000000000E+00  0.11368683772E-12  0.17120000000E+03  0.17120000000E+03 0.  0.
         13    1    1    2    0    0 -0.67526175861E+01 -0.22258193993E+02  0.45580021386E+02  0.51172009514E+02  0.10566000000E+00 0.  1.
        994    1    1    2    0    0  0.55337715022E+01  0.25873625085E+02  0.78414871989E+01  0.17340990751E+03  0.17120000000E+03 0.  0.
        998    1    1    2    0    0  0.12188460839E+01 -0.36154310915E+01  0.14465784877E+04  0.14466180830E+04  0.10000000000E+02 0.  1.
</event>
<event>
 5    1  0.1247473E-008  0.3735338E+03  0.7957747E-01  0.3479806E+00
         13   -1    0    0    0    0  0.00000000000E+00  0.00000000000E+00  0.14999999963E+04  0.15000000000E+04  0.10566000000E+00 0. -1.
        994   -1    0    0    0    0 -0.00000000000E+00 -0.00000000000E+00  0.11368683772E-12  0.17120000000E+03  0.17120000000E+03 0.  0.
         13    1    1    2    0    0 -0.40652716654E+02  0.19678290785E+02  0.13172019659E+03  0.13924833878E+03  0.10566000000E+00 0. -1.
        994    1    1    2    0    0  0.33602820407E+02 -0.39872658326E+01  0.11355198997E+02  0.17488118359E+03  0.17120000000E+03 0.  0.
        998    1    1    2    0    0  0.70498962470E+01 -0.15691024952E+02  0.13569246007E+04  0.13570704776E+04  0.10000000000E+02 0. -1.
</event>
<event>
 5    1  0.1247473E-008  0.3837084E+03  0.7957747E-01  0.3435169E+00
         13   -1    0    0    0    0  0.00000000000E+00  0.00000000000E+00  0.14999999963E+04  0.15000000000E+04  0.10566000000E+00 0.  1.
        994   -1    0    0    0    0 -0.00000000000E+00 -0.00000000000E+00  0.11368683772E-12  0.17120000000E+03  0.17120000000E+03 0.  0.
         13    1    1    2    0    0 -0.22125180665E+02 -0.13870662186E+02  0.14784648809E+03  0.15013498624E+03  0.10566000000E+00 0.  1.
        994    1    1    2    0    0  0.18807724990E+02  0.23030852389E+01  0.34593777320E+01  0.17228012658E+03  0.17120000000E+03 0.  0.
        998    1    1    2    0    0  0.33174556743E+01  0.11567576947E+02  0.13486941305E+04  0.13487848872E+04  0.10000000000E+02 0.  1.
</event>
<event>
 5    1  0.1247473E-008  0.3687841E+03  0.7957747E-01  0.3501498E+00
         13   -1    0    0    0    0  0.00000000000E+00  0.00000000000E+00  0.14999999963E+04  0.15000000000E+04  0.10566000000E+00 0.  1.
        994   -1    0    0    0    0 -0.00000000000E+00 -0.00000000000E+00  0.11368683772E-12  0.17120000000E+03  0.17120000000E+03 0.  0.
         13    1    1    2    0    0 -0.17640871471E+02 -0.23013699838E+02  0.37513108633E+02  0.47413871492E+02  0.10566000000E+00 0.  1.
        994    1    1    2    0    0  0.19006525233E+02  0.22935116063E+02  0.12992963849E+02  0.17425706488E+03  0.17120000000E+03 0.  0.
        998    1    1    2    0    0 -0.13656537618E+01  0.78583775205E-01  0.14494939238E+04  0.14495290636E+04  0.10000000000E+02 0.  0.
</event>
<event>
 5    1  0.1247473E-008  0.3801778E+03  0.7957747E-01  0.3450384E+00
         13   -1    0    0    0    0  0.00000000000E+00  0.00000000000E+00  0.14999999963E+04  0.15000000000E+04  0.10566000000E+00 0. -1.
        994   -1    0    0    0    0 -0.00000000000E+00 -0.00000000000E+00  0.11368683772E-12  0.17120000000E+03  0.17120000000E+03 0.  0.
         13    1    1    2    0    0 -0.27177260670E+02  0.32437488297E+02  0.20305949997E+03  0.20742219224E+03  0.10566000000E+00 0. -1.
        994    1    1    2    0    0  0.68937787878E+01 -0.41016196676E+02  0.98444740750E+01  0.17645454442E+03  0.17120000000E+03 0.  0.
        998    1    1    2    0    0  0.20283481882E+02  0.85787083789E+01  0.12870960222E+04  0.12873232633E+04  0.10000000000E+02 0. -1.
</event>
<event>
 5    1  0.1247473E-008  0.3856976E+03  0.7957747E-01  0.3426719E+00
         13   -1    0    0    0    0  0.00000000000E+00  0.00000000000E+00  0.14999999963E+04  0.15000000000E+04  0.10566000000E+00 0. -1.
        994   -1    0    0    0    0 -0.00000000000E+00 -0.00000000000E+00  0.11368683772E-12  0.17120000000E+03  0.17120000000E+03 0.  0.
         13    1    1    2    0    0  0.13272677608E+02  0.45425378824E+00  0.68148791805E+02  0.69430823889E+02  0.10566000000E+00 0. -1.
        994    1    1    2    0    0 -0.10903331990E+02  0.10164709655E+01  0.16777757867E+01  0.17155806828E+03  0.17120000000E+03 0.  0.
        998    1    1    2    0    0 -0.23693456180E+01 -0.14707247538E+01  0.14301734287E+04  0.14302111078E+04  0.10000000000E+02 0. -1.
</event>
<event>
 5    1  0.1247473E-008  0.3798332E+03  0.7957747E-01  0.3451885E+00
         13   -1    0    0    0    0  0.00000000000E+00  0.00000000000E+00  0.14999999963E+04  0.15000000000E+04  0.10566000000E+00 0.  1.
        994   -1    0    0    0    0 -0.00000000000E+00 -0.00000000000E+00  0.11368683772E-12  0.17120000000E+03  0.17120000000E+03 0.  0.
         13    1    1    2    0    0 -0.11416960904E+02  0.99671032876E+00  0.13689018658E+02  0.17853314080E+02  0.10566000000E+00 0.  1.
        994    1    1    2    0    0  0.92855378235E+01 -0.69475814872E+01  0.46673218037E+01  0.17165580093E+03  0.17120000000E+03 0.  0.
        998    1    1    2    0    0  0.21314230808E+01  0.59508711584E+01  0.14816436558E+04  0.14816908850E+04  0.10000000000E+02 0.  1.
</event>
<event>
 5    1  0.1247473E-008  0.3835008E+03  0.7957747E-01  0.3436056E+00
         13   -1    0    0    0    0  0.00000000000E+00  0.00000000000E+00  0.14999999963E+04  0.15000000000E+04  0.10566000000E+00 0.  1.
        994   -1    0    0    0    0 -0.00000000000E+00 -0.00000000000E+00  0.11368683772E-12  0.17120000000E+03  0.17120000000E+03 0.  0.
         13    1    1    2    0    0 -0.86636876095E+01 -0.12243837624E+02  0.46301845315E+02  0.48670762130E+02  0.10566000000E+00 0.  1.
        994    1    1    2    0    0  0.59959717416E+01  0.10203799543E+02  0.28393422872E+01  0.17163208053E+03  0.17120000000E+03 0.  0.
        998    1    1    2    0    0  0.26677158679E+01  0.20400380813E+01  0.14508588087E+04  0.14508971573E+04  0.10000000000E+02 0.  1.
</event>
<event>
 5    1  0.1247473E-008  0.3834333E+03  0.7957747E-01  0.3436344E+00
         13   -1    0    0    0    0  0.00000000000E+00  0.00000000000E+00  0.14999999963E+04  0.15000000000E+04  0.10566000000E+00 0. -1.
        994   -1    0    0    0    0 -0.00000000000E+00 -0.00000000000E+00  0.11368683772E-12  0.17120000000E+03  0.17120000000E+03 0.  0.
         13    1    1    2    0    0 -0.13347284410E+02  0.63461254499E+01  0.42578657535E+02  0.45070794877E+02  0.10566000000E+00 0. -1.
        994    1    1    2    0    0  0.18419541342E+02 -0.95438012691E+01  0.38338304585E+01  0.17249493297E+03  0.17120000000E+03 0.  0.
        998    1    1    2    0    0 -0.50722569314E+01  0.31976758192E+01  0.14535875083E+04  0.14536342721E+04  0.10000000000E+02 0. -1.
</event>
<event>
 5    1  0.1247473E-008  0.3797597E+03  0.7957747E-01  0.3452205E+00
         13   -1    0    0    0    0  0.00000000000E+00  0.00000000000E+00  0.14999999963E+04  0.15000000000E+04  0.10566000000E+00 0. -1.
        994   -1    0    0    0    0 -0.00000000000E+00 -0.00000000000E+00  0.11368683772E-12  0.17120000000E+03  0.17120000000E+03 0.  0.
         13    1    1    2    0    0 -0.28607977769E+02 -0.14435387627E+02  0.11672815669E+03  0.12104656350E+03  0.10566000000E+00 0. -1.
        994    1    1    2    0    0  0.22053994317E+02  0.74931658928E+01  0.60716656604E+01  0.17288386658E+03  0.17120000000E+03 0.  0.
        998    1    1    2    0    0  0.65539834524E+01  0.69422217340E+01  0.13772001739E+04  0.13772695699E+04  0.10000000000E+02 0. -1.
</event>
<event>
 5    1  0.1247473E-008  0.3743611E+03  0.7957747E-01  0.3476085E+00
         13   -1    0    0    0    0  0.00000000000E+00  0.00000000000E+00  0.14999999963E+04  0.15000000000E+04  0.10566000000E+00 0.  1.
        994   -1    0    0    0    0 -0.00000000000E+00 -0.00000000000E+00  0.11368683772E-12  0.17120000000E+03  0.17120000000E+03 0.  0.
         13    1    1    2    0    0 -0.11351569250E+03  0.19666746451E+02  0.33774409433E+03  0.35685245940E+03  0.10566000000E+00 0.  1.
        994    1    1    2    0    0  0.12773397759E+03 -0.29786138493E+02  0.77144874151E+02  0.22905011391E+03  0.17120000000E+03 0.  0.
        998    1    1    2    0    0 -0.14218285087E+02  0.10119392043E+02  0.10851110278E+04  0.10852974267E+04  0.10000000000E+02 0.  1.
</event>
<event>
 5    1  0.1247473E-008  0.3762688E+03  0.7957747E-01  0.3467568E+00
         13   -1    0    0    0    0  0.00000000000E+00  0.00000000000E+00  0.14999999963E+04  0.15000000000E+04  0.10566000000E+00 0.  1.
        994   -1    0    0    0    0 -0.00000000000E+00 -0.00000000000E+00  0.11368683772E-12  0.17120000000E+03  0.17120000000E+03 0.  0.
         13    1    1    2    0    0 -0.41558505183E+02 -0.14290850982E+00  0.14901694565E+03  0.15470355856E+03  0.10566000000E+00 0.  1.
        994    1    1    2    0    0  0.14519561086E+02  0.31578232513E+01  0.67762679262E+01  0.17197717089E+03  0.17120000000E+03 0.  0.
        998    1    1    2    0    0  0.27038944097E+02 -0.30149147415E+01  0.13442067827E+04  0.13445192705E+04  0.10000000000E+02 0.  1.
</event>
<event>
 5    1  0.1650361E-008  0.3860817E+03  0.7957747E-01  0.3425098E+00
         13   -1    0    0    0    0  0.00000000000E+00  0.00000000000E+00  0.14999999963E+04  0.15000000000E+04  0.10566000000E+00 0.  1.
        994   -1    0    0    0    0 -0.00000000000E+00 -0.00000000000E+00  0.11368683772E-12  0.17120000000E+03  0.17120000000E+03 0.  0.
         13    1    1    2    0    0  0.23222607209E+01 -0.11663949138E+02  0.65840930792E+02  0.66906501447E+02  0.10566000000E+00 0.  1.
        994    1    1    2    0    0  0.48827879798E-01  0.73781426031E+01  0.12724764052E+01  0.17136364424E+03  0.17120000000E+03 0.  0.
        998    1    1    2    0    0 -0.23710886007E+01  0.42858065345E+01  0.14328865891E+04  0.14329298543E+04  0.10000000000E+02 0.  1.
</event>
<event>
 5    1  0.3373778E-008  0.3858012E+03  0.7957747E-01  0.3426281E+00
         13   -1    0    0    0    0  0.00000000000E+00  0.00000000000E+00  0.14999999963E+04  0.15000000000E+04  0.10566000000E+00 0.  1.
        994   -1    0    0    0    0 -0.00000000000E+00 -0.00000000000E+00  0.11368683772E-12  0.17120000000E+03  0.17120000000E+03 0.  0.
         13    1    1    2    0    0  0.12073008403E+02  0.34733588489E+01  0.67228359340E+02  0.68392142950E+02  0.10566000000E+00 0.  1.
        994    1    1    2    0    0 -0.34554233014E+01  0.14643912713E+01  0.12790680321E+01  0.17124590625E+03  0.17120000000E+03 0.  0.
        998    1    1    2    0    0 -0.86175851015E+01 -0.49377501202E+01  0.14314925689E+04  0.14315619508E+04  0.10000000000E+02 0.  1.
</event>
<event>
 5    1  0.1247473E-008  0.3829614E+03  0.7957747E-01  0.3438364E+00
         13   -1    0    0    0    0  0.00000000000E+00  0.00000000000E+00  0.14999999963E+04  0.15000000000E+04  0.10566000000E+00 0.  1.
        994   -1    0    0    0    0 -0.00000000000E+00 -0.00000000000E+00  0.11368683772E-12  0.17120000000E+03  0.17120000000E+03 0.  0.
         13    1    1    2    0    0 -0.46903541131E+01 -0.27143061062E+02  0.15060375028E+03  0.15310207689E+03  0.10566000000E+00 0.  1.
        994    1    1    2    0    0  0.29899419345E+01  0.91561032777E+01  0.29528256189E+01  0.17149616077E+03  0.17120000000E+03 0.  0.
        998    1    1    2    0    0  0.17004121786E+01  0.17986957784E+02  0.13464434204E+04  0.13466017623E+04  0.10000000000E+02 0. -1.
</event>
<event>
 5    1  0.1306220E-008  0.3845724E+03  0.7957747E-01  0.3431488E+00
         13   -1    0    0    0    0  0.00000000000E+00  0.00000000000E+00  0.14999999963E+04  0.15000000000E+04  0.10566000000E+00 0. -1.
        994   -1    0    0    0    0 -0.00000000000E+00 -0.00000000000E+00  0.11368683772E-12  0.17120000000E+03  0.17120000000E+03 0.  0.
         13    1    1    2    0    0 -0.98274005781E+01 -0.66898341723E+01  0.37690439579E+02  0.39521033426E+02  0.10566000000E+00 0. -1.
        994    1    1    2    0    0  0.78059392243E+01  0.62207189743E+01  0.21707749308E+01  0.17150446728E+03  0.17120000000E+03 0.  0.
        998    1    1    2    0    0  0.20214613538E+01  0.46911519805E+00  0.14601387818E+04  0.14601744993E+04  0.10000000000E+02 0. -1.
</event>
<event>
 5    1  0.1247473E-008  0.3762324E+03  0.7957747E-01  0.3467729E+00
         13   -1    0    0    0    0  0.00000000000E+00  0.00000000000E+00  0.14999999963E+04  0.15000000000E+04  0.10566000000E+00 0. -1.
        994   -1    0    0    0    0 -0.00000000000E+00 -0.00000000000E+00  0.11368683772E-12  0.17120000000E+03  0.17120000000E+03 0.  0.
         13    1    1    2    0    0  0.11666052426E+02 -0.37106937970E+00  0.85065413495E+01  0.14443229606E+02  0.10566000000E+00 0. -1.
        994    1    1    2    0    0 -0.95544664091E+01 -0.96862400319E+00  0.63594872933E+01  0.17158703080E+03  0.17120000000E+03 0.  0.
        998    1    1    2    0    0 -0.21115860167E+01  0.13396933829E+01  0.14851339676E+04  0.14851697396E+04  0.10000000000E+02 0. -1.
</event>
<event>
 5    1  0.1247473E-008  0.3839484E+03  0.7957747E-01  0.3434144E+00
         13   -1    0    0    0    0  0.00000000000E+00  0.00000000000E+00  0.14999999963E+04  0.15000000000E+04  0.10566000000E+00 0. -1.
        994   -1    0    0    0    0 -0.00000000000E+00 -0.00000000000E+00  0.11368683772E-12  0.17120000000E+03  0.17120000000E+03 0.  0.
         13    1    1    2    0    0 -0.21459477968E+02  0.10170150609E+02  0.11971165061E+03  0.12204438379E+03  0.10566000000E+00 0. -1.
        994    1    1    2    0    0  0.22396741412E+02 -0.13843618901E+02  0.44441709788E+01  0.17326987755E+03  0.17120000000E+03 0.  0.
        998    1    1    2    0    0 -0.93726344375E+00  0.36734682917E+01  0.13758441747E+04  0.13758857387E+04  0.10000000000E+02 0. -1.
</event>
<event>
 5    1  0.1247473E-008  0.3827758E+03  0.7957747E-01  0.3439160E+00
         13   -1    0    0    0    0  0.00000000000E+00  0.00000000000E+00  0.14999999963E+04  0.15000000000E+04  0.10566000000E+00 0. -1.
        994   -1    0    0    0    0 -0.00000000000E+00 -0.00000000000E+00  0.11368683772E-12  0.17120000000E+03  0.17120000000E+03 0.  0.
         13    1    1    2    0    0  0.16028054585E+02  0.42957399481E+01  0.49142327826E+02  0.51868405255E+02  0.10566000000E+00 0. -1.
        994    1    1    2    0    0 -0.11107893541E+02 -0.57604490150E+01  0.32572743755E+01  0.17168755898E+03  0.17120000000E+03 0.  0.
        998    1    1    2    0    0 -0.49201610444E+01  0.14647090669E+01  0.14476003941E+04  0.14476440358E+04  0.10000000000E+02 0. -1.
</event>
<event>
 5    1  0.1247473E-008  0.3845568E+03  0.7957747E-01  0.3431554E+00
         13   -1    0    0    0    0  0.00000000000E+00  0.00000000000E+00  0.14999999963E+04  0.15000000000E+04  0.10566000000E+00 0.  1.
        994   -1    0    0    0    0 -0.00000000000E+00 -0.00000000000E+00  0.11368683772E-12  0.17120000000E+03  0.17120000000E+03 0.  0.
         13    1    1    2    0    0  0.68940638301E+01 -0.14613395414E+02  0.74442433491E+02  0.76175891920E+02  0.10566000000E+00 0.  1.
        994    1    1    2    0    0 -0.43170415516E+01 -0.72441911642E-01  0.19117578273E+01  0.17126510711E+03  0.17120000000E+03 0.  0.
        998    1    1    2    0    0 -0.25770222785E+01  0.14685837326E+02  0.14236458050E+04  0.14237590010E+04  0.10000000000E+02 0.  1.
</event>
<event>
 5    1  0.1247473E-008  0.3846056E+03  0.7957747E-01  0.3431347E+00
         13   -1    0    0    0    0  0.00000000000E+00  0.00000000000E+00  0.14999999963E+04  0.15000000000E+04  0.10566000000E+00 0.  1.
        994   -1    0    0    0    0 -0.00000000000E+00 -0.00000000000E+00  0.11368683772E-12  0.17120000000E+03  0.17120000000E+03 0.  0.
         13    1    1    2    0    0  0.12454498063E+02  0.48364382953E+01  0.47356814455E+02  0.49205535225E+02  0.10566000000E+00 0.  1.
        994    1    1    2    0    0 -0.10294912629E+02 -0.12570852993E+02  0.26959002099E+01  0.17199046325E+03  0.17120000000E+03 0.  0.
        998    1    1    2    0    0 -0.21595854346E+01  0.77344146981E+01  0.14499472816E+04  0.14500040015E+04  0.10000000000E+02 0.  1.
</event>
<event>
 5    1  0.1247473E-008  0.3834978E+03  0.7957747E-01  0.3436068E+00
         13   -1    0    0    0    0  0.00000000000E+00  0.00000000000E+00  0.14999999963E+04  0.15000000000E+04  0.10566000000E+00 0. -1.
        994   -1    0    0    0    0 -0.00000000000E+00 -0.00000000000E+00  0.11368683772E-12  0.17120000000E+03  0.17120000000E+03 0.  0.
         13    1    1    2    0    0 -0.76091504932E+01 -0.27762241663E+02  0.15064826776E+03  0.15337389927E+03  0.10566000000E+00 0. -1.
        994    1    1    2    0    0  0.68123596894E+01  0.34442948728E+02  0.64623220329E+01  0.17488260796E+03  0.17120000000E+03 0.  0.
        998    1    1    2    0    0  0.79679080379E+00 -0.66807070652E+01  0.13428894065E+04  0.13429434928E+04  0.10000000000E+02 0. -1.
</event>
<event>
 5    1  0.1247473E-008  0.3835998E+03  0.7957747E-01  0.3435632E+00
         13   -1    0    0    0    0  0.00000000000E+00  0.00000000000E+00  0.14999999963E+04  0.15000000000E+04  0.10566000000E+00 0. -1.
        994   -1    0    0    0    0 -0.00000000000E+00 -0.00000000000E+00  0.11368683772E-12  0.17120000000E+03  0.17120000000E+03 0.  0.
         13    1    1    2    0    0 -0.63618168846E+01 -0.10781386618E+02  0.32636437406E+02  0.34955102948E+02  0.10566000000E+00 0. -1.
        994    1    1    2    0    0  0.52873649932E+01  0.98623072383E+01  0.27406985623E+01  0.17158721619E+03  0.17120000000E+03 0.  0.
        998    1    1    2    0    0  0.10744518914E+01  0.91907937988E+00  0.14646228603E+04  0.14646576809E+04  0.10000000000E+02 0.  0.
</event>
<event>
 5    1  0.1247473E-008  0.3804267E+03  0.7957747E-01  0.3449303E+00
         13   -1    0    0    0    0  0.00000000000E+00  0.00000000000E+00  0.14999999963E+04  0.15000000000E+04  0.10566000000E+00 0. -1.
        994   -1    0    0    0    0 -0.00000000000E+00 -0.00000000000E+00  0.11368683772E-12  0.17120000000E+03  0.17120000000E+03 0.  0.
         13    1    1    2    0    0  0.46202056850E+02  0.22243266261E+02  0.24461293241E+03  0.24992977177E+03  0.10566000000E+00 0. -1.
        994    1    1    2    0    0 -0.64023668395E+02 -0.23917825568E+02  0.19671689804E+02  0.18538475632E+03  0.17120000000E+03 0.  0.
        998    1    1    2    0    0  0.17821611545E+02  0.16745593069E+01  0.12357153741E+04  0.12358854719E+04  0.10000000000E+02 0. -1.
</event>
<event>
 5    1  0.1247473E-008  0.3809364E+03  0.7957747E-01  0.3447091E+00
         13   -1    0    0    0    0  0.00000000000E+00  0.00000000000E+00  0.14999999963E+04  0.15000000000E+04  0.10566000000E+00 0.  1.
        994   -1    0    0    0    0 -0.00000000000E+00 -0.00000000000E+00  0.11368683772E-12  0.17120000000E+03  0.17120000000E+03 0.  0.
         13    1    1    2    0    0 -0.83453421104E+01 -0.44322728319E+02  0.23228432719E+03  0.23662241821E+03  0.10566000000E+00 0.  1.
        994    1    1    2    0    0  0.16173931895E+02  0.44864193131E+02  0.11278302958E+02  0.17807591644E+03  0.17120000000E+03 0.  0.
        998    1    1    2    0    0 -0.78285897842E+01 -0.54146481246E+00  0.12564373661E+04  0.12565016653E+04  0.10000000000E+02 0.  1.
</event>
<event>
 5    1  0.1247473E-008  0.3828444E+03  0.7957747E-01  0.3438866E+00
         13   -1    0    0    0    0  0.00000000000E+00  0.00000000000E+00  0.14999999963E+04  0.15000000000E+04  0.10566000000E+00 0.  1.
        994   -1    0    0    0    0 -0.00000000000E+00 -0.00000000000E+00  0.11368683772E-12  0.17120000000E+03  0.17120000000E+03 0.  0.
         13    1    1    2    0    0  0.48901006611E+01  0.12494623017E+02  0.31997823539E+02  0.34697270269E+02  0.10566000000E+00 0.  1.
        994    1    1    2    0    0 -0.14432517715E+01 -0.12630185452E+02  0.32395297772E+01  0.17170189024E+03  0.17120000000E+03 0.  0.
        998    1    1    2    0    0 -0.34468488896E+01  0.13556243438E+00  0.14647626430E+04  0.14648008395E+04  0.10000000000E+02 0.  1.
</event>
<event>
 5    1  0.1247473E-008  0.3845151E+03  0.7957747E-01  0.3431731E+00
         13   -1    0    0    0    0  0.00000000000E+00  0.00000000000E+00  0.14999999963E+04  0.15000000000E+04  0.10566000000E+00 0.  1.
        994   -1    0    0    0    0 -0.00000000000E+00 -0.00000000000E+00  0.11368683772E-12  0.17120000000E+03  0.17120000000E+03 0.  0.
         13    1    1    2    0    0  0.10959641482E+02 -0.11673604679E+02  0.71391067130E+02  0.73164762131E+02  0.10566000000E+00 0.  1.
        994    1    1    2    0    0 -0.90469737410E+00  0.37848464781E+01  0.19209730797E+01  0.17125499607E+03  0.17120000000E+03 0.  0.
        998    1    1    2    0    0 -0.10054944108E+02  0.78887582008E+01  0.14266879561E+04  0.14267802418E+04  0.10000000000E+02 0.  1.
</event>
<event>
 5    1  0.1247473E-008  0.3839087E+03  0.7957747E-01  0.3434314E+00
         13   -1    0    0    0    0  0.00000000000E+00  0.00000000000E+00  0.14999999963E+04  0.15000000000E+04  0.10566000000E+00 0.  1.
        994   -1    0    0    0    0 -0.00000000000E+00 -0.00000000000E+00  0.11368683772E-12  0.17120000000E+03  0.17120000000E+03 0.  0.
         13    1    1    2    0    0 -0.15763819565E+02 -0.16395085190E+02  0.12173035579E+03  0.12383693920E+03  0.10566000000E+00 0.  1.
        994    1    1    2    0    0  0.78433270463E+00  0.14083595605E+02  0.28298448281E+01  0.17180340761E+03  0.17120000000E+03 0.  0.
        998    1    1    2    0    0  0.14979486860E+02  0.23114895850E+01  0.13754397957E+04  0.13755596532E+04  0.10000000000E+02 0.  1.
</event>
<event>
 5    1  0.1247473E-008  0.3799820E+03  0.7957747E-01  0.3451237E+00
         13   -1    0    0    0    0  0.00000000000E+00  0.00000000000E+00  0.14999999963E+04  0.15000000000E+04  0.10566000000E+00 0. -1.
        994   -1    0    0    0    0 -0.00000000000E+00 -0.00000000000E+00  0.11368683772E-12  0.17120000000E+03  0.17120000000E+03 0.  0.
         13    1    1    2    0    0 -0.19538577084E+02 -0.25709720052E+02  0.13649771722E+03  0.14026540439E+03  0.10566000000E+00 0. -1.
        994    1    1    2    0    0  0.29686662619E+01  0.28353791011E+01  0.41985570224E+01  0.17130067202E+03  0.17120000000E+03 0.  0.
        998    1    1    2    0    0  0.16569910822E+02  0.22874340950E+02  0.13593037220E+04  0.13596339236E+04  0.10000000000E+02 0. -1.
</event>
<event>
 5    1  0.1247473E-008  0.3760930E+03  0.7957747E-01  0.3468349E+00
         13   -1    0    0    0    0  0.00000000000E+00  0.00000000000E+00  0.14999999963E+04  0.15000000000E+04  0.10566000000E+00 0.  1.
        994   -1    0    0    0    0 -0.00000000000E+00 -0.00000000000E+00  0.11368683772E-12  0.17120000000E+03  0.17120000000E+03 0.  0.
         13    1    1    2    0    0 -0.92823213379E+01  0.35157878025E+02  0.10399524971E+03  0.11016923801E+03  0.10566000000E+00 0.  1.
        994    1    1    2    0    0  0.11052722371E+01 -0.26802853656E+02  0.85594712552E+01  0.17350019925E+03  0.17120000000E+03 0.  0.
        998    1    1    2    0    0  0.81770491009E+01 -0.83550243696E+01  0.13874452753E+04  0.13875305627E+04  0.10000000000E+02 0.  1.
</event>
<event>
 5    1  0.1247473E-008  0.3850148E+03  0.7957747E-01  0.3429610E+00
         13   -1    0    0    0    0  0.00000000000E+00  0.00000000000E+00  0.14999999963E+04  0.15000000000E+04  0.10566000000E+00 0. -1.
        994   -1    0    0    0    0 -0.00000000000E+00 -0.00000000000E+00  0.11368683772E-12  0.17120000000E+03  0.17120000000E+03 0.  0.
         13    1    1    2    0    0  0.15947601550E+02 -0.85698801939E+01  0.99865332346E+02  0.10149317519E+03  0.10566000000E+00 0. -1.
        994    1    1    2    0    0 -0.22456372029E+02 -0.12526230470E+02  0.38001576410E+01  0.17316199437E+03  0.17120000000E+03 0.  0.
        998    1    1    2    0    0  0.65087704794E+01  0.21096110664E+02  0.13963345063E+04  0.13965448304E+04  0.10000000000E+02 0. -1.
</event>
<event>
 5    1  0.1247473E-008  0.3763130E+03  0.7957747E-01  0.3467371E+00
         13   -1    0    0    0    0  0.00000000000E+00  0.00000000000E+00  0.14999999963E+04  0.15000000000E+04  0.10566000000E+00 0.  1.
        994   -1    0    0    0    0 -0.00000000000E+00 -0.00000000000E+00  0.11368683772E-12  0.17120000000E+03  0.17120000000E+03 0.  0.
         13    1    1    2    0    0 -0.14920769319E+02 -0.23125328550E+02  0.57129531451E+02  0.63412969537E+02  0.10566000000E+00 0.  1.
        994    1    1    2    0    0  0.24545353651E+02  0.26519521534E+02  0.10437738379E+02  0.17528304479E+03  0.17120000000E+03 0.  0.
        998    1    1    2    0    0 -0.96245843324E+01 -0.33941929840E+01  0.14324327264E+04  0.14325039857E+04  0.10000000000E+02 0.  1.
</event>
<event>
 5    1  0.1247473E-008  0.3802596E+03  0.7957747E-01  0.3450029E+00
         13   -1    0    0    0    0  0.00000000000E+00  0.00000000000E+00  0.14999999963E+04  0.15000000000E+04  0.10566000000E+00 0. -1.
        994   -1    0    0    0    0 -0.00000000000E+00 -0.00000000000E+00  0.11368683772E-12  0.17120000000E+03  0.17120000000E+03 0.  0.
         13    1    1    2    0    0  0.74517546562E+01 -0.10850175229E+02  0.19628959195E+02  0.23633919545E+02  0.10566000000E+00 0. -1.
        994    1    1    2    0    0 -0.10150704162E+02  0.12242591990E+02  0.48473594442E+01  0.17200539162E+03  0.17120000000E+03 0.  0.
        998    1    1    2    0    0  0.26989495061E+01 -0.13924167612E+01  0.14755236776E+04  0.14755606888E+04  0.10000000000E+02 0. -1.
</event>
<event>
 5    1  0.1247473E-008  0.3853001E+03  0.7957747E-01  0.3428400E+00
         13   -1    0    0    0    0  0.00000000000E+00  0.00000000000E+00  0.14999999963E+04  0.15000000000E+04  0.10566000000E+00 0.  1.
        994   -1    0    0    0    0 -0.00000000000E+00 -0.00000000000E+00  0.11368683772E-12  0.17120000000E+03  0.17120000000E+03 0.  0.
         13    1    1    2    0    0 -0.16899804068E+02 -0.67329859766E+01  0.10210898322E+03  0.10371688434E+03  0.10566000000E+00 0.  1.
        994    1    1    2    0    0  0.26301286212E+02 -0.33153825246E+01  0.37934661105E+01  0.17328179305E+03  0.17120000000E+03 0.  0.
        998    1    1    2    0    0 -0.94014821444E+01  0.10048368501E+02  0.13940975469E+04  0.13942013226E+04  0.10000000000E+02 0.  1.
</event>
<event>
 5    1  0.1247473E-008  0.3842076E+03  0.7957747E-01  0.3433040E+00
         13   -1    0    0    0    0  0.00000000000E+00  0.00000000000E+00  0.14999999963E+04  0.15000000000E+04  0.10566000000E+00 0. -1.
        994   -1    0    0    0    0 -0.00000000000E+00 -0.00000000000E+00  0.11368683772E-12  0.17120000000E+03  0.17120000000E+03 0.  0.
         13    1    1    2    0    0  0.12864933122E+01  0.13671277966E+02  0.46482267320E+02  0.48468249871E+02  0.10566000000E+00 0. -1.
        994    1    1    2    0    0  0.36533659537E+01 -0.81839101927E+01  0.22889219824E+01  0.17144970876E+03  0.17120000000E+03 0.  0.
        998    1    1    2    0    0 -0.49398592659E+01 -0.54873677729E+01  0.14512288070E+04  0.14512820414E+04  0.10000000000E+02 0. -1.
</event>
<event>
 5    1  0.1247473E-008  0.3795865E+03  0.7957747E-01  0.3452961E+00
         13   -1    0    0    0    0  0.00000000000E+00  0.00000000000E+00  0.14999999963E+04  0.15000000000E+04  0.10566000000E+00 0. -1.
        994   -1    0    0    0    0 -0.00000000000E+00 -0.00000000000E+00  0.11368683772E-12  0.17120000000E+03  0.17120000000E+03 0.  0.
         13    1    1    2    0    0  0.24370700414E+02  0.16159447055E+02  0.98732986138E+02  0.10297219277E+03  0.10566000000E+00 0. -1.
        994    1    1    2    0    0 -0.69650431769E+01 -0.15287414149E+02  0.52872883462E+01  0.17210349292E+03  0.17120000000E+03 0.  0.
        998    1    1    2    0    0 -0.17405657237E+02 -0.87203290593E+00  0.13959797218E+04  0.13961243143E+04  0.10000000000E+02 0. -1.
</event>
<event>
 5    1  0.1707728E-008  0.3860079E+03  0.7957747E-01  0.3425409E+00
         13   -1    0    0    0    0  0.00000000000E+00  0.00000000000E+00  0.14999999963E+04  0.15000000000E+04  0.10566000000E+00 0. -1.
        994   -1    0    0    0    0 -0.00000000000E+00 -0.00000000000E+00  0.11368683772E-12  0.17120000000E+03  0.17120000000E+03 0.  0.
         13    1    1    2    0    0  0.19505854075E+01  0.10594626813E+02  0.50946497723E+02  0.52073099533E+02  0.10566000000E+00 0. -1.
        994    1    1    2    0    0 -0.53578151052E+01 -0.93291883892E+01  0.15100406932E+01  0.17154433876E+03  0.17120000000E+03 0.  0.
        998    1    1    2    0    0  0.34072296977E+01 -0.12654384233E+01  0.14475434579E+04  0.14475825617E+04  0.10000000000E+02 0. -1.
</event>
<event>
 5    1  0.1247473E-008  0.3846875E+03  0.7957747E-01  0.3430999E+00
         13   -1    0    0    0    0  0.00000000000E+00  0.00000000000E+00  0.14999999963E+04  0.15000000000E+04  0.10566000000E+00 0. -1.
        994   -1    0    0    0    0 -0.00000000000E+00 -0.00000000000E+00  0.11368683772E-12  0.17120000000E+03  0.17120000000E+03 0.  0.
         13    1    1    2    0    0  0.10757898242E+02 -0.17361158557E+02  0.11060282436E+03  0.11247283282E+03  0.10566000000E+00 0. -1.
        994    1    1    2    0    0 -0.10378424414E+02  0.16676883103E+02  0.30565527373E+01  0.17235026150E+03  0.17120000000E+03 0.  0.
        998    1    1    2    0    0 -0.37947382788E+00  0.68427545365E+00  0.13863406192E+04  0.13863769057E+04  0.10000000000E+02 0.  0.
</event>
<event>
 5    1  0.1247473E-008  0.3775984E+03  0.7957747E-01  0.3461683E+00
         13   -1    0    0    0    0  0.00000000000E+00  0.00000000000E+00  0.14999999963E+04  0.15000000000E+04  0.10566000000E+00 0.  1.
        994   -1    0    0    0    0 -0.00000000000E+00 -0.00000000000E+00  0.11368683772E-12  0.17120000000E+03  0.17120000000E+03 0.  0.
         13    1    1    2    0    0 -0.43589489466E+02 -0.29761162570E+02  0.28321362587E+03  0.28808981140E+03  0.10566000000E+00 0.  1.
        994    1    1    2    0    0 -0.12206738689E+01  0.38523723763E+02  0.10372660217E+02  0.17579135194E+03  0.17120000000E+03 0.  0.
        998    1    1    2    0    0  0.44810163335E+02 -0.87625611930E+01  0.12064137102E+04  0.12073188367E+04  0.10000000000E+02 0.  1.
</event>
<event>
 5    1  0.1247473E-008  0.3759248E+03  0.7957747E-01  0.3469097E+00
         13   -1    0    0    0    0  0.00000000000E+00  0.00000000000E+00  0.14999999963E+04  0.15000000000E+04  0.10566000000E+00 0. -1.
        994   -1    0    0    0    0 -0.00000000000E+00 -0.00000000000E+00  0.11368683772E-12  0.17120000000E+03  0.17120000000E+03 0.  0.
         13    1    1    2    0    0  0.49769687903E+02 -0.22829818330E+02  0.30479256927E+03  0.30967199403E+03  0.10566000000E+00 0. -1.
        994    1    1    2    0    0  0.66757139613E+01  0.21181095122E+02  0.78776364735E+01  0.17281406512E+03  0.17120000000E+03 0.  0.
        998    1    1    2    0    0 -0.56445401865E+02  0.16487232080E+01  0.11873297905E+04  0.11887139409E+04  0.10000000000E+02 0.  1.
</event>
<event>
 5    1  0.1247473E-008  0.3853545E+03  0.7957747E-01  0.3428170E+00
         13   -1    0    0    0    0  0.00000000000E+00  0.00000000000E+00  0.14999999963E+04  0.15000000000E+04  0.10566000000E+00 0. -1.
        994   -1    0    0    0    0 -0.00000000000E+00 -0.00000000000E+00  0.11368683772E-12  0.17120000000E+03  0.17120000000E+03 0.  0.
         13    1    1    2    0    0 -0.12811479032E+02  0.78218863658E+01  0.88664930772E+02  0.89926620164E+02  0.10566000000E+00 0. -1.
        994    1    1    2    0    0 -0.98493568005E+01 -0.37008147149E+01  0.18179775039E+01  0.17153265258E+03  0.17120000000E+03 0.  0.
        998    1    1    2    0    0  0.22660835832E+02 -0.41210716509E+01  0.14095170880E+04  0.14097407273E+04  0.10000000000E+02 0. -1.
</event>
<event>
 5    1  0.1247473E-008  0.3729775E+03  0.7957747E-01  0.3482318E+00
         13   -1    0    0    0    0  0.00000000000E+00  0.00000000000E+00  0.14999999963E+04  0.15000000000E+04  0.10566000000E+00 0.  1.
        994   -1    0    0    0    0 -0.00000000000E+00 -0.00000000000E+00  0.11368683772E-12  0.17120000000E+03  0.17120000000E+03 0.  0.
         13    1    1    2    0    0 -0.19193636872E+02 -0.11192456579E+03  0.68448349559E+03  0.69383944182E+03  0.10566000000E+00 0.  1.
        994    1    1    2    0    0  0.94852884414E+01  0.40317243018E+02  0.18606951489E+02  0.17711891323E+03  0.17120000000E+03 0.  0.
        998    1    1    2    0    0  0.97083484308E+01  0.71607322770E+02  0.79690954920E+03  0.80024164495E+03  0.10000000000E+02 0.  1.
</event>
<event>
 5    1  0.1247473E-008  0.3809390E+03  0.7957747E-01  0.3447080E+00
         13   -1    0    0    0    0  0.00000000000E+00  0.00000000000E+00  0.14999999963E+04  0.15000000000E+04  0.10566000000E+00 0. -1.
        994   -1    0    0    0    0 -0.00000000000E+00 -0.00000000000E+00  0.11368683772E-12  0.17120000000E+03  0.17120000000E+03 0.  0.
         13    1    1    2    0    0  0.11630356819E+02  0.17614739724E+02  0.59343323512E+02  0.62985597280E+02  0.10566000000E+00 0. -1.
        994    1    1    2    0    0 -0.23349576557E+01 -0.15832040781E+02  0.45138551288E+01  0.17200558256E+03  0.17120000000E+03 0.  0.
        998    1    1    2    0    0 -0.92953991632E+01 -0.17826989423E+01  0.14361428176E+04  0.14362088202E+04  0.10000000000E+02 0. -1.
</event>
<event>
 5    1  0.1247473E-008  0.3690122E+03  0.7957747E-01  0.3500443E+00
         13   -1    0    0    0    0  0.00000000000E+00  0.00000000000E+00  0.14999999963E+04  0.15000000000E+04  0.10566000000E+00 0.  1.
        994   -1    0    0    0    0 -0.00000000000E+00 -0.00000000000E+00  0.11368683772E-12  0.17120000000E+03  0.17120000000E+03 0.  0.
         13    1    1    2    0    0  0.26931697901E+02 -0.36840291536E+02  0.97857909250E+02  0.10797548332E+03  0.10566000000E+00 0.  1.
        994    1    1    2    0    0 -0.28176110142E+02  0.32263455972E+02  0.16179230144E+02  0.17721746884E+03  0.17120000000E+03 0.  0.
        998    1    1    2    0    0  0.12444122410E+01  0.45768355640E+01  0.13859628569E+04  0.13860070478E+04  0.10000000000E+02 0.  1.
</event>
<event>
 5    1  0.1247473E-008  0.3798912E+03  0.7957747E-01  0.3451632E+00
         13   -1    0    0    0    0  0.00000000000E+00  0.00000000000E+00  0.14999999963E+04  0.15000000000E+04  0.10566000000E+00 0. -1.
        994   -1    0    0    0    0 -0.00000000000E+00 -0.00000000000E+00  0.11368683772E-12  0.17120000000E+03  0.17120000000E+03 0.  0.
         13    1    1    2    0    0 -0.55298527172E+02  0.60888364157E+02  0.39384852443E+03  0.40234561182E+03  0.10566000000E+00 0. -1.
        994    1    1    2    0    0  0.71082819270E+02 -0.97695323805E+02  0.54657209097E+02  0.21655021126E+03  0.17120000000E+03 0.  0.
        998    1    1    2    0    0 -0.15784292099E+02  0.36806959647E+02  0.10514942628E+04  0.10523041769E+04  0.10000000000E+02 0. -1.
</event>
<event>
 5    1  0.1247473E-008  0.3843106E+03  0.7957747E-01  0.3432601E+00
         13   -1    0    0    0    0  0.00000000000E+00  0.00000000000E+00  0.14999999963E+04  0.15000000000E+04  0.10566000000E+00 0. -1.
        994   -1    0    0    0    0 -0.00000000000E+00 -0.00000000000E+00  0.11368683772E-12  0.17120000000E+03  0.17120000000E+03 0.  0.
         13    1    1    2    0    0  0.14156477841E+01 -0.21136382735E+02  0.96098849828E+02  0.98406050811E+02  0.10566000000E+00 0. -1.
        994    1    1    2    0    0 -0.22818879579E+02  0.36652304089E+02  0.81412123170E+01  0.17674787693E+03  0.17120000000E+03 0.  0.
        998    1    1    2    0    0  0.21403231795E+02 -0.15515921354E+02  0.13957599341E+04  0.13960460723E+04  0.10000000000E+02 0. -1.
</event>
<event>
 5    1  0.1247473E-008  0.3852685E+03  0.7957747E-01  0.3428534E+00
         13   -1    0    0    0    0  0.00000000000E+00  0.00000000000E+00  0.14999999963E+04  0.15000000000E+04  0.10566000000E+00 0.  1.
        994   -1    0    0    0    0 -0.00000000000E+00 -0.00000000000E+00  0.11368683772E-12  0.17120000000E+03  0.17120000000E+03 0.  0.
         13    1    1    2    0    0  0.31668915931E+01  0.97282714791E+01  0.34916449485E+02  0.36384585706E+02  0.10566000000E+00 0.  1.
        994    1    1    2    0    0 -0.70499732437E+01 -0.49413263051E+01  0.17404490321E+01  0.17142516732E+03  0.17120000000E+03 0.  0.
        998    1    1    2    0    0  0.38830816507E+01 -0.47869451740E+01  0.14633430978E+04  0.14633902470E+04  0.10000000000E+02 0.  1.
</event>
<event>
 5    1  0.1247473E-008  0.3792943E+03  0.7957747E-01  0.3454237E+00
         13   -1    0    0    0    0  0.00000000000E+00  0.00000000000E+00  0.14999999963E+04  0.15000000000E+04  0.10566000000E+00 0.  1.
        994   -1    0    0    0    0 -0.00000000000E+00 -0.00000000000E+00  0.11368683772E-12  0.17120000000E+03  0.17120000000E+03 0.  0.
         13    1    1    2    0    0  0.22918794120E+02  0.36146382947E+02  0.18348448930E+03  0.18841019374E+03  0.10566000000E+00 0.  1.
        994    1    1    2    0    0 -0.26219750271E+02 -0.30189925393E+02  0.98660245095E+01  0.17608431315E+03  0.17120000000E+03 0.  0.
        998    1    1    2    0    0  0.33009561508E+01 -0.59564575535E+01  0.13066494825E+04  0.13067054931E+04  0.10000000000E+02 0.  1.
</event>
<event>
 5    1  0.1247473E-008  0.3770528E+03  0.7957747E-01  0.3464093E+00
         13   -1    0    0    0    0  0.00000000000E+00  0.00000000000E+00  0.14999999963E+04  0.15000000000E+04  0.10566000000E+00 0.  1.
        994   -1    0    0    0    0 -0.00000000000E+00 -0.00000000000E+00  0.11368683772E-12  0.17120000000E+03  0.17120000000E+03 0.  0.
         13    1    1    2    0    0  0.62900395912E+01 -0.15050678129E+02  0.20829456174E+02  0.26456850129E+02  0.10566000000E+00 0.  1.
        994    1    1    2    0    0  0.12423627174E+01  0.21343686583E+02  0.71729364578E+01  0.17267885638E+03  0.17120000000E+03 0.  0.
        998    1    1    2    0    0 -0.75324023086E+01 -0.62930084537E+01  0.14719976036E+04  0.14720642935E+04  0.10000000000E+02 0.  1.
</event>
<event>
 5    1  0.1247473E-008  0.3822033E+03  0.7957747E-01  0.3441620E+00
         13   -1    0    0    0    0  0.00000000000E+00  0.00000000000E+00  0.14999999963E+04  0.15000000000E+04  0.10566000000E+00 0. -1.
        994   -1    0    0    0    0 -0.00000000000E+00 -0.00000000000E+00  0.11368683772E-12  0.17120000000E+03  0.17120000000E+03 0.  0.
         13    1    1    2    0    0 -0.79486330154E+01  0.96035822043E+01  0.24358210028E+02  0.27363170828E+02  0.10566000000E+00 0. -1.
        994    1    1    2    0    0  0.75834130731E+01 -0.80309492179E+01  0.34300415730E+01  0.17159023715E+03  0.17120000000E+03 0.  0.
        998    1    1    2    0    0  0.36521994233E+00 -0.15726329864E+01  0.14722117447E+04  0.14722465920E+04  0.10000000000E+02 0. -1.
</event>
<event>
 5    1  0.1247473E-008  0.3800455E+03  0.7957747E-01  0.3450960E+00
         13   -1    0    0    0    0  0.00000000000E+00  0.00000000000E+00  0.14999999963E+04  0.15000000000E+04  0.10566000000E+00 0.  1.
        994   -1    0    0    0    0 -0.00000000000E+00 -0.00000000000E+00  0.11368683772E-12  0.17120000000E+03  0.17120000000E+03 0.  0.
         13    1    1    2    0    0  0.61446889573E+01 -0.80628639848E+01  0.10593155054E+02  0.14662642192E+02  0.10566000000E+00 0.  1.
        994    1    1    2    0    0 -0.77021316805E+01  0.81632341627E+01  0.45312867596E+01  0.17162731072E+03  0.17120000000E+03 0.  0.
        998    1    1    2    0    0  0.15574427231E+01 -0.10037017785E+00  0.14848755545E+04  0.14849100471E+04  0.10000000000E+02 0.  1.
</event>
<event>
 5    1  0.1247473E-008  0.3722094E+03  0.7957747E-01  0.3485798E+00
         13   -1    0    0    0    0  0.00000000000E+00  0.00000000000E+00  0.14999999963E+04  0.15000000000E+04  0.10566000000E+00 0.  1.
        994   -1    0    0    0    0 -0.00000000000E+00 -0.00000000000E+00  0.11368683772E-12  0.17120000000E+03  0.17120000000E+03 0.  0.
         13    1    1    2    0    0 -0.28725886098E+02 -0.73653491456E+02  0.21536169251E+03  0.22941378141E+03  0.10566000000E+00 0.  1.
        994    1    1    2    0    0  0.35734087002E+02  0.73086675866E+02  0.35812265719E+02  0.19290035132E+03  0.17120000000E+03 0.  0.
        998    1    1    2    0    0 -0.70082009036E+01  0.56681558925E+00  0.12488260381E+04  0.12488858673E+04  0.10000000000E+02 0.  1.
</event>
<event>
 5    1  0.1247473E-008  0.3856062E+03  0.7957747E-01  0.3427105E+00
         13   -1    0    0    0    0  0.00000000000E+00  0.00000000000E+00  0.14999999963E+04  0.15000000000E+04  0.10566000000E+00 0. -1.
        994   -1    0    0    0    0 -0.00000000000E+00 -0.00000000000E+00  0.11368683772E-12  0.17120000000E+03  0.17120000000E+03 0.  0.
         13    1    1    2    0    0  0.11318668635E+02  0.70584747865E+01  0.64719839621E+02  0.66080277924E+02  0.10566000000E+00 0. -1.
        994    1    1    2    0    0 -0.12913603776E+02 -0.68540009434E+01  0.20313312585E+01  0.17183510933E+03  0.17120000000E+03 0.  0.
        998    1    1    2    0    0  0.15949351414E+01 -0.20447384310E+00  0.14332488254E+04  0.14332846127E+04  0.10000000000E+02 0. -1.
</event>
<event>
 5    1  0.1247473E-008  0.3750544E+03  0.7957747E-01  0.3472980E+00
         13   -1    0    0    0    0  0.00000000000E+00  0.00000000000E+00  0.14999999963E+04  0.15000000000E+04  0.10566000000E+00 0.  1.
        994   -1    0    0    0    0 -0.00000000000E+00 -0.00000000000E+00  0.11368683772E-12  0.17120000000E+03  0.17120000000E+03 0.  0.
         13    1    1    2    0    0 -0.91666640295E+01  0.47487941584E+02  0.18012189540E+03  0.18650211980E+03  0.10566000000E+00 0.  1.
        994    1    1    2    0    0  0.13818227233E+02 -0.19627604684E+02  0.86114779762E+01  0.17308894772E+03  0.17120000000E+03 0.  0.
        998    1    1    2    0    0 -0.46515632038E+01 -0.27860336900E+02  0.13112666229E+04  0.13116089325E+04  0.10000000000E+02 0.  1.
</event>
<event>
 5    1  0.1247473E-008  0.3852501E+03  0.7957747E-01  0.3428612E+00
         13   -1    0    0    0    0  0.00000000000E+00  0.00000000000E+00  0.14999999963E+04  0.15000000000E+04  0.10566000000E+00 0. -1.
        994   -1    0    0    0    0 -0.00000000000E+00 -0.00000000000E+00  0.11368683772E-12  0.17120000000E+03  0.17120000000E+03 0.  0.
         13    1    1    2    0    0 -0.13069889372E+02 -0.28967838172E+00  0.58362805048E+02  0.59809147285E+02  0.10566000000E+00 0. -1.
        994    1    1    2    0    0  0.46779634059E+01 -0.48759810462E+01  0.16560783475E+01  0.17134130012E+03  0.17120000000E+03 0.  0.
        998    1    1    2    0    0  0.83919259660E+01  0.51656594279E+01  0.14399811129E+04  0.14400495526E+04  0.10000000000E+02 0. -1.
</event>
<event>
 5    1  0.1247473E-008  0.3817459E+03  0.7957747E-01  0.3443591E+00
         13   -1    0    0    0    0  0.00000000000E+00  0.00000000000E+00  0.14999999963E+04  0.15000000000E+04  0.10566000000E+00 0. -1.
        994   -1    0    0    0    0 -0.00000000000E+00 -0.00000000000E+00  0.11368683772E-12  0.17120000000E+03  0.17120000000E+03 0.  0.
         13    1    1    2    0    0 -0.11537866975E+02 -0.17889793234E+01  0.20359031235E+02  0.23469642908E+02  0.10566000000E+00 0. -1.
        994    1    1    2    0    0 -0.39796454824E+01 -0.14636131096E+01  0.33141742005E+01  0.17128456875E+03  0.17120000000E+03 0.  0.
        998    1    1    2    0    0  0.15517512457E+02  0.32525924330E+01  0.14763267908E+04  0.14764457883E+04  0.10000000000E+02 0. -1.
</event>
<event>
 5    1  0.1247473E-008  0.3807378E+03  0.7957747E-01  0.3447952E+00
         13   -1    0    0    0    0  0.00000000000E+00  0.00000000000E+00  0.14999999963E+04  0.15000000000E+04  0.10566000000E+00 0.  1.
        994   -1    0    0    0    0 -0.00000000000E+00 -0.00000000000E+00  0.11368683772E-12  0.17120000000E+03  0.17120000000E+03 0.  0.
         13    1    1    2    0    0 -0.22646933022E+02  0.32150548080E+01  0.66154473138E+02  0.69997468761E+02  0.10566000000E+00 0.  1.
        994    1    1    2    0    0  0.22177205870E+02  0.27976115061E+01  0.54291736050E+01  0.17273844684E+03  0.17120000000E+03 0.  0.
        998    1    1    2    0    0  0.46972715231E+00 -0.60126663142E+01  0.14284163495E+04  0.14284640844E+04  0.10000000000E+02 0.  1.
</event>
<event>
 5    1  0.1247473E-008  0.3732223E+03  0.7957747E-01  0.3481212E+00
         13   -1    0    0    0    0  0.00000000000E+00  0.00000000000E+00  0.14999999963E+04  0.15000000000E+04  0.10566000000E+00 0. -1.
        994   -1    0    0    0    0 -0.00000000000E+00 -0.00000000000E+00  0.11368683772E-12  0.17120000000E+03  0.17120000000E+03 0.  0.
         13    1    1    2    0    0  0.25022504118E+01  0.10651544822E+02  0.43386772333E+01  0.11770809165E+02  0.10566000000E+00 0. -1.
        994    1    1    2    0    0 -0.36635289374E+01 -0.10064077569E+02  0.79868250662E+01  0.17172051851E+03  0.17120000000E+03 0.  0.
        998    1    1    2    0    0  0.11612785256E+01 -0.58746725293E+00  0.14876744940E+04  0.14877086723E+04  0.10000000000E+02 0. -1.
</event>
<event>
 5    1  0.1247473E-008  0.3851180E+03  0.7957747E-01  0.3429172E+00
         13   -1    0    0    0    0  0.00000000000E+00  0.00000000000E+00  0.14999999963E+04  0.15000000000E+04  0.10566000000E+00 0. -1.
        994   -1    0    0    0    0 -0.00000000000E+00 -0.00000000000E+00  0.11368683772E-12  0.17120000000E+03  0.17120000000E+03 0.  0.
         13    1    1    2    0    0 -0.14306666455E+01 -0.12922807938E+02  0.49562645041E+02  0.51239757216E+02  0.10566000000E+00 0. -1.
        994    1    1    2    0    0  0.65592955800E+00  0.23480540105E+02  0.33875346969E+01  0.17283715283E+03  0.17120000000E+03 0.  0.
        998    1    1    2    0    0  0.77473708749E+00 -0.10557732167E+02  0.14470498165E+04  0.14471230900E+04  0.10000000000E+02 0. -1.
</event>
<event>
 5    1  0.1247473E-008  0.3805627E+03  0.7957747E-01  0.3448712E+00
         13   -1    0    0    0    0  0.00000000000E+00  0.00000000000E+00  0.14999999963E+04  0.15000000000E+04  0.10566000000E+00 0. -1.
        994   -1    0    0    0    0 -0.00000000000E+00 -0.00000000000E+00  0.11368683772E-12  0.17120000000E+03  0.17120000000E+03 0.  0.
         13    1    1    2    0    0  0.43530924411E+02 -0.10038911309E+02  0.24491407921E+03  0.24895509330E+03  0.10566000000E+00 0. -1.
        994    1    1    2    0    0 -0.33712095440E+02 -0.42697904133E+01  0.77119893873E+01  0.17471019223E+03  0.17120000000E+03 0.  0.
        998    1    1    2    0    0 -0.98188289717E+01  0.14308701722E+02  0.12473739277E+04  0.12475347145E+04  0.10000000000E+02 0. -1.
</event>
<event>
 5    1  0.1247473E-008  0.3835261E+03  0.7957747E-01  0.3435947E+00
         13   -1    0    0    0    0  0.00000000000E+00  0.00000000000E+00  0.14999999963E+04  0.15000000000E+04  0.10566000000E+00 0. -1.
        994   -1    0    0    0    0 -0.00000000000E+00 -0.00000000000E+00  0.11368683772E-12  0.17120000000E+03  0.17120000000E+03 0.  0.
         13    1    1    2    0    0  0.26447307547E+02  0.32784333277E+01  0.13750647753E+03  0.14006516600E+03  0.10566000000E+00 0. -1.
        994    1    1    2    0    0 -0.25931889052E+02 -0.11659745383E+02  0.50396049832E+01  0.17361811585E+03  0.17120000000E+03 0.  0.
        998    1    1    2    0    0 -0.51541849477E+00  0.83813120557E+01  0.13574539138E+04  0.13575167181E+04  0.10000000000E+02 0. -1.
</event>
<event>
 5    1  0.1247473E-008  0.3781358E+03  0.7957747E-01  0.3459316E+00
         13   -1    0    0    0    0  0.00000000000E+00  0.00000000000E+00  0.14999999963E+04  0.15000000000E+04  0.10566000000E+00 0.  1.
        994   -1    0    0    0    0 -0.00000000000E+00 -0.00000000000E+00  0.11368683772E-12  0.17120000000E+03  0.17120000000E+03 0.  0.
         13    1    1    2    0    0  0.76943153486E+02  0.21966284841E+02  0.42751488121E+03  0.43493879035E+03  0.10566000000E+00 0.  1.
        994    1    1    2    0    0 -0.79939404194E+02 -0.26561055639E+02  0.29328779371E+02  0.19304252205E+03  0.17120000000E+03 0.  0.
        998    1    1    2    0    0  0.29962507080E+01  0.45947707972E+01  0.10431563357E+04  0.10432186876E+04  0.10000000000E+02 0.  1.
</event>
<event>
 5    1  0.1247473E-008  0.3791864E+03  0.7957747E-01  0.3454709E+00
         13   -1    0    0    0    0  0.00000000000E+00  0.00000000000E+00  0.14999999963E+04  0.15000000000E+04  0.10566000000E+00 0.  1.
        994   -1    0    0    0    0 -0.00000000000E+00 -0.00000000000E+00  0.11368683772E-12  0.17120000000E+03  0.17120000000E+03 0.  0.
         13    1    1    2    0    0  0.17341041595E+02 -0.22056964111E+01  0.32712333019E+02  0.37090223993E+02  0.10566000000E+00 0.  1.
        994    1    1    2    0    0 -0.35628635819E+01 -0.65744963769E+01  0.47318758391E+01  0.17142855261E+03  0.17120000000E+03 0.  0.
        998    1    1    2    0    0 -0.13778178013E+02  0.87801927880E+01  0.14625557874E+04  0.14626812234E+04  0.10000000000E+02 0.  1.
</event>
<event>
 5    1  0.1247473E-008  0.3732101E+03  0.7957747E-01  0.3481267E+00
         13   -1    0    0    0    0  0.00000000000E+00  0.00000000000E+00  0.14999999963E+04  0.15000000000E+04  0.10566000000E+00 0. -1.
        994   -1    0    0    0    0 -0.00000000000E+00 -0.00000000000E+00  0.11368683772E-12  0.17120000000E+03  0.17120000000E+03 0.  0.
         13    1    1    2    0    0 -0.57365037953E+02 -0.24727807806E+02  0.13792703592E+03  0.15141364027E+03  0.10566000000E+00 0. -1.
        994    1    1    2    0    0  0.56635194727E+02  0.21887189477E+02  0.25798158297E+02  0.18347092226E+03  0.17120000000E+03 0.  0.
        998    1    1    2    0    0  0.72984322643E+00  0.28406183291E+01  0.13362748021E+04  0.13363154375E+04  0.10000000000E+02 0. -1.
</event>
<event>
 5    1  0.1247473E-008  0.3860994E+03  0.7957747E-01  0.3425023E+00
         13   -1    0    0    0    0  0.00000000000E+00  0.00000000000E+00  0.14999999963E+04  0.15000000000E+04  0.10566000000E+00 0.  1.
        994   -1    0    0    0    0 -0.00000000000E+00 -0.00000000000E+00  0.11368683772E-12  0.17120000000E+03  0.17120000000E+03 0.  0.
         13    1    1    2    0    0  0.59816641092E+01  0.99764575562E+01  0.67372441034E+02  0.68369342441E+02  0.10566000000E+00 0.  1.
        994    1    1    2    0    0  0.52761460289E+01 -0.28388289966E+01  0.12029198632E+01  0.17130902978E+03  0.17120000000E+03 0.  0.
        998    1    1    2    0    0 -0.11257810138E+02 -0.71376285596E+01  0.14314246354E+04  0.14315216278E+04  0.10000000000E+02 0.  1.
</event>
<event>
 5    1  0.1247473E-008  0.3849286E+03  0.7957747E-01  0.3429975E+00
         13   -1    0    0    0    0  0.00000000000E+00  0.00000000000E+00  0.14999999963E+04  0.15000000000E+04  0.10566000000E+00 0. -1.
        994   -1    0    0    0    0 -0.00000000000E+00 -0.00000000000E+00  0.11368683772E-12  0.17120000000E+03  0.17120000000E+03 0.  0.
         13    1    1    2    0    0  0.12911197165E+02  0.27713573098E+01  0.51583959029E+02  0.53247492211E+02  0.10566000000E+00 0. -1.
        994    1    1    2    0    0 -0.11186257258E+02 -0.11015107696E+01  0.20813190113E+01  0.17158122731E+03  0.17120000000E+03 0.  0.
        998    1    1    2    0    0 -0.17249399068E+01 -0.16698465402E+01  0.14463347182E+04  0.14463712805E+04  0.10000000000E+02 0. -1.
</event>
<event>
 5    1  0.1247473E-008  0.3816585E+03  0.7957747E-01  0.3443969E+00
         13   -1    0    0    0    0  0.00000000000E+00  0.00000000000E+00  0.14999999963E+04  0.15000000000E+04  0.10566000000E+00 0.  1.
        994   -1    0    0    0    0 -0.00000000000E+00 -0.00000000000E+00  0.11368683772E-12  0.17120000000E+03  0.17120000000E+03 0.  0.
         13    1    1    2    0    0 -0.38513674094E+02  0.13041484666E+02  0.23307313435E+03  0.23659349217E+03  0.10566000000E+00 0.  1.
        994    1    1    2    0    0  0.25694565066E+02 -0.21988891313E+02  0.71101591322E+01  0.17465313160E+03  0.17120000000E+03 0.  0.
        998    1    1    2    0    0  0.12819109027E+02  0.89474066473E+01  0.12598167028E+04  0.12599533762E+04  0.10000000000E+02 0.  1.
</event>
<event>
 5    1  0.1247473E-008  0.3824640E+03  0.7957747E-01  0.3440500E+00
         13   -1    0    0    0    0  0.00000000000E+00  0.00000000000E+00  0.14999999963E+04  0.15000000000E+04  0.10566000000E+00 0.  1.
        994   -1    0    0    0    0 -0.00000000000E+00 -0.00000000000E+00  0.11368683772E-12  0.17120000000E+03  0.17120000000E+03 0.  0.
         13    1    1    2    0    0  0.10862373066E+02 -0.15364473146E+02  0.66703256925E+02  0.69306520849E+02  0.10566000000E+00 0.  1.
        994    1    1    2    0    0  0.69093852698E+01 -0.51052327079E+01  0.31392558439E+01  0.17144415398E+03  0.17120000000E+03 0.  0.
        998    1    1    2    0    0 -0.17771758336E+02  0.20469705853E+02  0.14301574835E+04  0.14304493252E+04  0.10000000000E+02 0.  1.
</event>
<event>
 5    1  0.1247473E-008  0.3741044E+03  0.7957747E-01  0.3477238E+00
         13   -1    0    0    0    0  0.00000000000E+00  0.00000000000E+00  0.14999999963E+04  0.15000000000E+04  0.10566000000E+00 0.  1.
        994   -1    0    0    0    0 -0.00000000000E+00 -0.00000000000E+00  0.11368683772E-12  0.17120000000E+03  0.17120000000E+03 0.  0.
         13    1    1    2    0    0 -0.51018717509E+02 -0.48641407656E+02  0.31056585222E+03  0.31846515635E+03  0.10566000000E+00 0.  1.
        994    1    1    2    0    0  0.50072644770E+02  0.27347853280E+02  0.18320179564E+02  0.18138424356E+03  0.17120000000E+03 0.  0.
        998    1    1    2    0    0  0.94607273892E+00  0.21293554376E+02  0.11711139645E+04  0.11713506001E+04  0.10000000000E+02 0.  1.
</event>
<event>
 5    1  0.1247473E-008  0.3827356E+03  0.7957747E-01  0.3439333E+00
         13   -1    0    0    0    0  0.00000000000E+00  0.00000000000E+00  0.14999999963E+04  0.15000000000E+04  0.10566000000E+00 0. -1.
        994   -1    0    0    0    0 -0.00000000000E+00 -0.00000000000E+00  0.11368683772E-12  0.17120000000E+03  0.17120000000E+03 0.  0.
         13    1    1    2    0    0  0.20221163145E+02 -0.17177389670E+02  0.12122307154E+03  0.12409271692E+03  0.10566000000E+00 0. -1.
        994    1    1    2    0    0 -0.15858668776E+02  0.16401646696E+02  0.44848814745E+01  0.17277171514E+03  0.17120000000E+03 0.  0.
        998    1    1    2    0    0 -0.43624943691E+01  0.77574297343E+00  0.13742920433E+04  0.13743355679E+04  0.10000000000E+02 0. -1.
</event>
<event>
 5    1  0.1247473E-008  0.3829307E+03  0.7957747E-01  0.3438496E+00
         13   -1    0    0    0    0  0.00000000000E+00  0.00000000000E+00  0.14999999963E+04  0.15000000000E+04  0.10566000000E+00 0. -1.
        994   -1    0    0    0    0 -0.00000000000E+00 -0.00000000000E+00  0.11368683772E-12  0.17120000000E+03  0.17120000000E+03 0.  0.
         13    1    1    2    0    0  0.20899366711E+02 -0.12560901533E+02  0.12121183713E+03  0.12364012455E+03  0.10566000000E+00 0. -1.
        994    1    1    2    0    0 -0.28615790593E+01 -0.32587940681E+00  0.26884901637E+01  0.17124532931E+03  0.17120000000E+03 0.  0.
        998    1    1    2    0    0 -0.18037787651E+02  0.12886780940E+02  0.13760996690E+04  0.13763145461E+04  0.10000000000E+02 0. -1.
</event>
<event>
 5    1  0.1247473E-008  0.3756972E+03  0.7957747E-01  0.3470110E+00
         13   -1    0    0    0    0  0.00000000000E+00  0.00000000000E+00  0.14999999963E+04  0.15000000000E+04  0.10566000000E+00 0.  1.
        994   -1    0    0    0    0 -0.00000000000E+00 -0.00000000000E+00  0.11368683772E-12  0.17120000000E+03  0.17120000000E+03 0.  0.
         13    1    1    2    0    0 -0.54974085907E+01 -0.53470640948E+02  0.23737990183E+03  0.24338972842E+03  0.10566000000E+00 0.  1.
        994    1    1    2    0    0 -0.12863778588E+02  0.25694254413E+02  0.91262508309E+01  0.17383440386E+03  0.17120000000E+03 0.  0.
        998    1    1    2    0    0  0.18361187179E+02  0.27776386535E+02  0.12534938436E+04  0.12539758677E+04  0.10000000000E+02 0.  1.
</event>
<event>
 5    1  0.1247473E-008  0.3736929E+03  0.7957747E-01  0.3479089E+00
         13   -1    0    0    0    0  0.00000000000E+00  0.00000000000E+00  0.14999999963E+04  0.15000000000E+04  0.10566000000E+00 0. -1.
        994   -1    0    0    0    0 -0.00000000000E+00 -0.00000000000E+00  0.11368683772E-12  0.17120000000E+03  0.17120000000E+03 0.  0.
         13    1    1    2    0    0  0.26609488022E+01  0.14984604202E+02  0.12632579655E+02  0.19779086036E+02  0.10566000000E+00 0. -1.
        994    1    1    2    0    0  0.19164654154E+00 -0.63879362672E+01  0.74909404983E+01  0.17148293398E+03  0.17120000000E+03 0.  0.
        998    1    1    2    0    0 -0.28525953438E+01 -0.85966679353E+01  0.14798764761E+04  0.14799379800E+04  0.10000000000E+02 0. -1.
</event>
<event>
 5    1  0.1247473E-008  0.3827081E+03  0.7957747E-01  0.3439451E+00
         13   -1    0    0    0    0  0.00000000000E+00  0.00000000000E+00  0.14999999963E+04  0.15000000000E+04  0.10566000000E+00 0. -1.
        994   -1    0    0    0    0 -0.00000000000E+00 -0.00000000000E+00  0.11368683772E-12  0.17120000000E+03  0.17120000000E+03 0.  0.
         13    1    1    2    0    0  0.10409843342E+02  0.12341020218E+02  0.50729124068E+02  0.53236461295E+02  0.10566000000E+00 0. -1.
        994    1    1    2    0    0  0.99139955310E+01  0.53573916998E+01  0.31931972117E+01  0.17160019074E+03  0.17120000000E+03 0.  0.
        998    1    1    2    0    0 -0.20323838873E+02 -0.17698411917E+02  0.14460776750E+04  0.14463633480E+04  0.10000000000E+02 0. -1.
</event>
<event>
 5    1  0.1247473E-008  0.3814462E+03  0.7957747E-01  0.3444885E+00
         13   -1    0    0    0    0  0.00000000000E+00  0.00000000000E+00  0.14999999963E+04  0.15000000000E+04  0.10566000000E+00 0. -1.
        994   -1    0    0    0    0 -0.00000000000E+00 -0.00000000000E+00  0.11368683772E-12  0.17120000000E+03  0.17120000000E+03 0.  0.
         13    1    1    2    0    0  0.95098533578E+00 -0.18033330017E+02  0.44881109501E+02  0.48377996225E+02  0.10566000000E+00 0. -1.
        994    1    1    2    0    0 -0.47593518561E+01  0.21828395468E+02  0.50672626949E+01  0.17272593155E+03  0.17120000000E+03 0.  0.
        998    1    1    2    0    0  0.38083665204E+01 -0.37950654510E+01  0.14500516241E+04  0.14500960722E+04  0.10000000000E+02 0. -1.
</event>
<event>
 5    1  0.1247473E-008  0.3707412E+03  0.7957747E-01  0.3492491E+00
         13   -1    0    0    0    0  0.00000000000E+00  0.00000000000E+00  0.14999999963E+04  0.15000000000E+04  0.10566000000E+00 0. -1.
        994   -1    0    0    0    0 -0.00000000000E+00 -0.00000000000E+00  0.11368683772E-12  0.17120000000E+03  0.17120000000E+03 0.  0.
         13    1    1    2    0    0  0.13301895810E+02  0.15853221342E+02  0.19987354032E+02  0.28771001795E+02  0.10566000000E+00 0. -1.
        994    1    1    2    0    0 -0.15488396835E+02 -0.15286069727E+02  0.10517071745E+02  0.17289766673E+03  0.17120000000E+03 0.  0.
        998    1    1    2    0    0  0.21865010249E+01 -0.56715161506E+00  0.14694955705E+04  0.14695313315E+04  0.10000000000E+02 0. -1.
</event>
<event>
 5    1  0.1247473E-008  0.3844694E+03  0.7957747E-01  0.3431925E+00
         13   -1    0    0    0    0  0.00000000000E+00  0.00000000000E+00  0.14999999963E+04  0.15000000000E+04  0.10566000000E+00 0. -1.
        994   -1    0    0    0    0 -0.00000000000E+00 -0.00000000000E+00  0.11368683772E-12  0.17120000000E+03  0.17120000000E+03 0.  0.
         13    1    1    2    0    0  0.14561516631E+02  0.21563813952E+02  0.15383419244E+03  0.15601924806E+03  0.10566000000E+00 0. -1.
        994    1    1    2    0    0 -0.16086983316E+02 -0.28187897739E+02  0.53715614816E+01  0.17433198870E+03  0.17120000000E+03 0.  0.
        998    1    1    2    0    0  0.15254666850E+01  0.66240837869E+01  0.13407942424E+04  0.13408487632E+04  0.10000000000E+02 0. -1.
</event>
<event>
 5    1  0.1247473E-008  0.3807420E+03  0.7957747E-01  0.3447934E+00
         13   -1    0    0    0    0  0.00000000000E+00  0.00000000000E+00  0.14999999963E+04  0.15000000000E+04  0.10566000000E+00 0.  1.
        994   -1    0    0    0    0 -0.00000000000E+00 -0.00000000000E+00  0.11368683772E-12  0.17120000000E+03  0.17120000000E+03 0.  0.
         13    1    1    2    0    0  0.16619921558E+02  0.13040862271E+02  0.58712114125E+02  0.62397190565E+02  0.10566000000E+00 0.  1.
        994    1    1    2    0    0 -0.19182080956E+02  0.68215077873E+01  0.51424709318E+01  0.17248295628E+03  0.17120000000E+03 0.  0.
        998    1    1    2    0    0  0.25621593972E+01 -0.19862370059E+02  0.14361454112E+04  0.14363198532E+04  0.10000000000E+02 0.  1.
</event>
<event>
 5    1  0.1247473E-008  0.3828863E+03  0.7957747E-01  0.3438686E+00
         13   -1    0    0    0    0  0.00000000000E+00  0.00000000000E+00  0.14999999963E+04  0.15000000000E+04  0.10566000000E+00 0.  1.
        994   -1    0    0    0    0 -0.00000000000E+00 -0.00000000000E+00  0.11368683772E-12  0.17120000000E+03  0.17120000000E+03 0.  0.
         13    1    1    2    0    0 -0.20976707704E+03  0.22883833454E+02  0.11405785531E+04  0.11599333358E+04  0.10566000000E+00 0.  1.
        994    1    1    2    0    0  0.21103990701E+03 -0.17499751695E+02  0.16897554298E+03  0.32047817053E+03  0.17120000000E+03 0.  0.
        998    1    1    2    0    0 -0.12728299642E+01 -0.53840817584E+01  0.19044590017E+03  0.19078849369E+03  0.10000000000E+02 0. -1.
</event>
<event>
 5    1  0.1247473E-008  0.3828867E+03  0.7957747E-01  0.3438685E+00
         13   -1    0    0    0    0  0.00000000000E+00  0.00000000000E+00  0.14999999963E+04  0.15000000000E+04  0.10566000000E+00 0. -1.
        994   -1    0    0    0    0 -0.00000000000E+00 -0.00000000000E+00  0.11368683772E-12  0.17120000000E+03  0.17120000000E+03 0.  0.
         13    1    1    2    0    0  0.10815626000E+02 -0.63109346492E+01  0.28547501084E+02  0.31173332259E+02  0.10566000000E+00 0. -1.
        994    1    1    2    0    0 -0.31357538423E+01  0.65735434609E+01  0.28586697006E+01  0.17137869301E+03  0.17120000000E+03 0.  0.
        998    1    1    2    0    0 -0.76798721582E+01 -0.26260881167E+00  0.14685938255E+04  0.14686479747E+04  0.10000000000E+02 0. -1.
</event>
<event>
 5    1  0.1247473E-008  0.3806025E+03  0.7957747E-01  0.3448539E+00
         13   -1    0    0    0    0  0.00000000000E+00  0.00000000000E+00  0.14999999963E+04  0.15000000000E+04  0.10566000000E+00 0.  1.
        994   -1    0    0    0    0 -0.00000000000E+00 -0.00000000000E+00  0.11368683772E-12  0.17120000000E+03  0.17120000000E+03 0.  0.
         13    1    1    2    0    0 -0.74077752630E+01 -0.30857461545E+02  0.13360116255E+03  0.13731838866E+03  0.10566000000E+00 0.  1.
        994    1    1    2    0    0  0.31193168485E+01  0.14372780876E+02  0.45512935339E+01  0.17189084106E+03  0.17120000000E+03 0.  0.
        998    1    1    2    0    0  0.42884584145E+01  0.16484680669E+02  0.13618475402E+04  0.13619907703E+04  0.10000000000E+02 0.  1.
</event>
<event>
 5    1  0.1247473E-008  0.3857418E+03  0.7957747E-01  0.3426532E+00
         13   -1    0    0    0    0  0.00000000000E+00  0.00000000000E+00  0.14999999963E+04  0.15000000000E+04  0.10566000000E+00 0. -1.
        994   -1    0    0    0    0 -0.00000000000E+00 -0.00000000000E+00  0.11368683772E-12  0.17120000000E+03  0.17120000000E+03 0.  0.
         13    1    1    2    0    0  0.12000498541E+02 -0.75573348224E+00  0.65014083232E+02  0.66116754918E+02  0.10566000000E+00 0. -1.
        994    1    1    2    0    0  0.81755654431E+01 -0.72884007452E+00  0.14833580886E+01  0.17140306715E+03  0.17120000000E+03 0.  0.
        998    1    1    2    0    0 -0.20176063984E+02  0.14845735568E+01  0.14335025550E+04  0.14336801779E+04  0.10000000000E+02 0. -1.
</event>
<event>
 5    1  0.1247473E-008  0.3849898E+03  0.7957747E-01  0.3429715E+00
         13   -1    0    0    0    0  0.00000000000E+00  0.00000000000E+00  0.14999999963E+04  0.15000000000E+04  0.10566000000E+00 0. -1.
        994   -1    0    0    0    0 -0.00000000000E+00 -0.00000000000E+00  0.11368683772E-12  0.17120000000E+03  0.17120000000E+03 0.  0.
         13    1    1    2    0    0 -0.11486266439E+02 -0.76817657414E+01  0.54873770383E+02  0.56586974488E+02  0.10566000000E+00 0. -1.
        994    1    1    2    0    0  0.15213442476E+02  0.13016674287E+02  0.29547018868E+01  0.17239214862E+03  0.17120000000E+03 0.  0.
        998    1    1    2    0    0 -0.37271760368E+01 -0.53349085451E+01  0.14421715240E+04  0.14422208769E+04  0.10000000000E+02 0. -1.
</event>
<event>
 5    1  0.1247473E-008  0.3719456E+03  0.7957747E-01  0.3486997E+00
         13   -1    0    0    0    0  0.00000000000E+00  0.00000000000E+00  0.14999999963E+04  0.15000000000E+04  0.10566000000E+00 0. -1.
        994   -1    0    0    0    0 -0.00000000000E+00 -0.00000000000E+00  0.11368683772E-12  0.17120000000E+03  0.17120000000E+03 0.  0.
         13    1    1    2    0    0 -0.72307050268E+01  0.16965033265E+02  0.18829795113E+02  0.26356551309E+02  0.10566000000E+00 0. -1.
        994    1    1    2    0    0 -0.39448743683E+01  0.32415724380E+02  0.11926956095E+02  0.17469411410E+03  0.17120000000E+03 0.  0.
        998    1    1    2    0    0  0.11175579395E+02 -0.49380757646E+02  0.14692432451E+04  0.14701493346E+04  0.10000000000E+02 0. -1.
</event>
<event>
 5    1  0.1247473E-008  0.3822002E+03  0.7957747E-01  0.3441634E+00
         13   -1    0    0    0    0  0.00000000000E+00  0.00000000000E+00  0.14999999963E+04  0.15000000000E+04  0.10566000000E+00 0.  1.
        994   -1    0    0    0    0 -0.00000000000E+00 -0.00000000000E+00  0.11368683772E-12  0.17120000000E+03  0.17120000000E+03 0.  0.
         13    1    1    2    0    0 -0.23058096777E+02  0.24049131736E+02  0.17934510448E+03  0.18241358016E+03  0.10566000000E+00 0.  1.
        994    1    1    2    0    0  0.14405907460E+02 -0.16112993899E+02  0.45785318892E+01  0.17261970252E+03  0.17120000000E+03 0.  0.
        998    1    1    2    0    0  0.86521893170E+01 -0.79361378373E+01  0.13160763599E+04  0.13161667173E+04  0.10000000000E+02 0.  1.
</event>
<event>
 5    1  0.1247473E-008  0.3781288E+03  0.7957747E-01  0.3459347E+00
         13   -1    0    0    0    0  0.00000000000E+00  0.00000000000E+00  0.14999999963E+04  0.15000000000E+04  0.10566000000E+00 0. -1.
        994   -1    0    0    0    0 -0.00000000000E+00 -0.00000000000E+00  0.11368683772E-12  0.17120000000E+03  0.17120000000E+03 0.  0.
         13    1    1    2    0    0  0.10384555083E+02 -0.49150995591E+02  0.26950999799E+03  0.27415198254E+03  0.10566000000E+00 0. -1.
        994    1    1    2    0    0 -0.50343271648E+01  0.17074413545E+02  0.61473247812E+01  0.17223271945E+03  0.17120000000E+03 0.  0.
        998    1    1    2    0    0 -0.53502279180E+01  0.32076582046E+02  0.12243426735E+04  0.12248152980E+04  0.10000000000E+02 0. -1.
</event>
<event>
 5    1  0.1247473E-008  0.3787767E+03  0.7957747E-01  0.3456503E+00
         13   -1    0    0    0    0  0.00000000000E+00  0.00000000000E+00  0.14999999963E+04  0.15000000000E+04  0.10566000000E+00 0.  1.
        994   -1    0    0    0    0 -0.00000000000E+00 -0.00000000000E+00  0.11368683772E-12  0.17120000000E+03  0.17120000000E+03 0.  0.
         13    1    1    2    0    0 -0.46331336725E+02 -0.10425979073E+01  0.64662141833E+02  0.79554280360E+02  0.10566000000E+00 0.  1.
        994    1    1    2    0    0  0.22032335188E+02 -0.56473732140E+02  0.29034688901E+02  0.18392161204E+03  0.17120000000E+03 0.  0.
        998    1    1    2    0    0  0.24299001537E+02  0.57516330047E+02  0.14063031655E+04  0.14077241076E+04  0.10000000000E+02 0.  1.
</event>
<event>
 5    1  0.1247473E-008  0.3693138E+03  0.7957747E-01  0.3499050E+00
         13   -1    0    0    0    0  0.00000000000E+00  0.00000000000E+00  0.14999999963E+04  0.15000000000E+04  0.10566000000E+00 0.  1.
        994   -1    0    0    0    0 -0.00000000000E+00 -0.00000000000E+00  0.11368683772E-12  0.17120000000E+03  0.17120000000E+03 0.  0.
         13    1    1    2    0    0  0.13263094281E+02 -0.20820600589E+03  0.12016717785E+04  0.12196477872E+04  0.10566000000E+00 0.  1.
        994    1    1    2    0    0 -0.65817531406E+01  0.19206939966E+03  0.14203442179E+03  0.29396800971E+03  0.17120000000E+03 0.  0.
        998    1    1    2    0    0 -0.66813411407E+01  0.16136606226E+02  0.15629379604E+03  0.15758420308E+03  0.10000000000E+02 0.  0.
</event>
<event>
 5    1  0.1247473E-008  0.3842752E+03  0.7957747E-01  0.3432752E+00
         13   -1    0    0    0    0  0.00000000000E+00  0.00000000000E+00  0.14999999963E+04  0.15000000000E+04  0.10566000000E+00 0.  1.
        994   -1    0    0    0    0 -0.00000000000E+00 -0.00000000000E+00  0.11368683772E-12  0.17120000000E+03  0.17120000000E+03 0.  0.
         13    1    1    2    0    0 -0.23206663756E+01 -0.11371039421E+02  0.34920540591E+02  0.36798659610E+02  0.10566000000E+00 0.  1.
        994    1    1    2    0    0  0.27105883008E+01 -0.31880681589E+01  0.20481622980E+01  0.17126338206E+03  0.17120000000E+03 0.  0.
        998    1    1    2    0    0 -0.38992192526E+00  0.14559107580E+02  0.14630312934E+04  0.14631379583E+04  0.10000000000E+02 0.  1.
</event>
<event>
 5    1  0.1247473E-008  0.3825237E+03  0.7957747E-01  0.3440243E+00
         13   -1    0    0    0    0  0.00000000000E+00  0.00000000000E+00  0.14999999963E+04  0.15000000000E+04  0.10566000000E+00 0.  1.
        994   -1    0    0    0    0 -0.00000000000E+00 -0.00000000000E+00  0.11368683772E-12  0.17120000000E+03  0.17120000000E+03 0.  0.
         13    1    1    2    0    0 -0.23575255952E+02  0.31843505178E+01  0.10212966560E+03  0.10486378088E+03  0.10566000000E+00 0.  1.
        994    1    1    2    0    0  0.97592980002E+01  0.12303833031E+02  0.36826700297E+01  0.17195822244E+03  0.17120000000E+03 0.  0.
        998    1    1    2    0    0  0.13815957951E+02 -0.15488183549E+02  0.13941876607E+04  0.13943779967E+04  0.10000000000E+02 0.  1.
</event>
<event>
 5    1  0.1247473E-008  0.3743129E+03  0.7957747E-01  0.3476301E+00
         13   -1    0    0    0    0  0.00000000000E+00  0.00000000000E+00  0.14999999963E+04  0.15000000000E+04  0.10566000000E+00 0. -1.
        994   -1    0    0    0    0 -0.00000000000E+00 -0.00000000000E+00  0.11368683772E-12  0.17120000000E+03  0.17120000000E+03 0.  0.
         13    1    1    2    0    0 -0.29328306985E+02  0.10763122771E+03  0.43214171994E+03  0.44630831053E+03  0.10566000000E+00 0. -1.
        994    1    1    2    0    0  0.28473873750E+02 -0.70756935949E+02  0.34186451709E+02  0.19051367130E+03  0.17120000000E+03 0.  0.
        998    1    1    2    0    0  0.85443323445E+00 -0.36874291758E+02  0.10336718246E+04  0.10343780182E+04  0.10000000000E+02 0. -1.
</event>
<event>
 5    1  0.1247473E-008  0.3800197E+03  0.7957747E-01  0.3451073E+00
         13   -1    0    0    0    0  0.00000000000E+00  0.00000000000E+00  0.14999999963E+04  0.15000000000E+04  0.10566000000E+00 0. -1.
        994   -1    0    0    0    0 -0.00000000000E+00 -0.00000000000E+00  0.11368683772E-12  0.17120000000E+03  0.17120000000E+03 0.  0.
         13    1    1    2    0    0 -0.27437723735E+02 -0.23364806757E+02  0.17508653160E+03  0.17875695116E+03  0.10566000000E+00 0. -1.
        994    1    1    2    0    0  0.43638989518E+01  0.20646600468E+01  0.42011024236E+01  0.17131957184E+03  0.17120000000E+03 0.  0.
        998    1    1    2    0    0  0.23073824783E+02  0.21300146710E+02  0.13207123623E+04  0.13211234770E+04  0.10000000000E+02 0. -1.
</event>
<event>
 5    1  0.1247473E-008  0.3732330E+03  0.7957747E-01  0.3481163E+00
         13   -1    0    0    0    0  0.00000000000E+00  0.00000000000E+00  0.14999999963E+04  0.15000000000E+04  0.10566000000E+00 0. -1.
        994   -1    0    0    0    0 -0.00000000000E+00 -0.00000000000E+00  0.11368683772E-12  0.17120000000E+03  0.17120000000E+03 0.  0.
         13    1    1    2    0    0  0.75806163861E+01 -0.92716531961E+01  0.58700119210E+01  0.13337822227E+02  0.10566000000E+00 0. -1.
        994    1    1    2    0    0 -0.85414639719E+01  0.13124368339E+02  0.84278709535E+01  0.17212110463E+03  0.17120000000E+03 0.  0.
        998    1    1    2    0    0  0.96084758587E+00 -0.38527151428E+01  0.14857021134E+04  0.14857410731E+04  0.10000000000E+02 0. -1.
</event>
<event>
 5    1  0.1247473E-008  0.3821413E+03  0.7957747E-01  0.3441887E+00
         13   -1    0    0    0    0  0.00000000000E+00  0.00000000000E+00  0.14999999963E+04  0.15000000000E+04  0.10566000000E+00 0. -1.
        994   -1    0    0    0    0 -0.00000000000E+00 -0.00000000000E+00  0.11368683772E-12  0.17120000000E+03  0.17120000000E+03 0.  0.
         13    1    1    2    0    0 -0.75350918199E+01 -0.15971524267E+02  0.60294607517E+02  0.62827685425E+02  0.10566000000E+00 0. -1.
        994    1    1    2    0    0  0.13844292068E+02 -0.36970282474E+02  0.82466323874E+01  0.17588608005E+03  0.17120000000E+03 0.  0.
        998    1    1    2    0    0 -0.63092002479E+01  0.52941806741E+02  0.14314587564E+04  0.14324862345E+04  0.10000000000E+02 0. -1.
</event>
<event>
 5    1  0.1247473E-008  0.3790627E+03  0.7957747E-01  0.3455250E+00
         13   -1    0    0    0    0  0.00000000000E+00  0.00000000000E+00  0.14999999963E+04  0.15000000000E+04  0.10566000000E+00 0. -1.
        994   -1    0    0    0    0 -0.00000000000E+00 -0.00000000000E+00  0.11368683772E-12  0.17120000000E+03  0.17120000000E+03 0.  0.
         13    1    1    2    0    0 -0.16163527915E+02 -0.24717991570E+01  0.27545341101E+02  0.32033207865E+02  0.10566000000E+00 0. -1.
        994    1    1    2    0    0  0.66343029493E+01 -0.31192262868E+01  0.47872618213E+01  0.17142374813E+03  0.17120000000E+03 0.  0.
        998    1    1    2    0    0  0.95292249656E+01  0.55910254437E+01  0.14676673934E+04  0.14677430440E+04  0.10000000000E+02 0. -1.
</event>
<event>
 5    1  0.1247473E-008  0.3823408E+03  0.7957747E-01  0.3441029E+00
         13   -1    0    0    0    0  0.00000000000E+00  0.00000000000E+00  0.14999999963E+04  0.15000000000E+04  0.10566000000E+00 0. -1.
        994   -1    0    0    0    0 -0.00000000000E+00 -0.00000000000E+00  0.11368683772E-12  0.17120000000E+03  0.17120000000E+03 0.  0.
         13    1    1    2    0    0  0.91585257176E+02 -0.17863998535E+03  0.10295760939E+04  0.10489647506E+04  0.10566000000E+00 0. -1.
        994    1    1    2    0    0 -0.93751286461E+02  0.18805653569E+03  0.16671980074E+03  0.31821297316E+03  0.17120000000E+03 0.  0.
        998    1    1    2    0    0  0.21660292850E+01 -0.94165503376E+01  0.30370410160E+03  0.30402227620E+03  0.10000000000E+02 0. -1.
</event>
<event>
 5    1  0.1247473E-008  0.3799456E+03  0.7957747E-01  0.3451395E+00
         13   -1    0    0    0    0  0.00000000000E+00  0.00000000000E+00  0.14999999963E+04  0.15000000000E+04  0.10566000000E+00 0. -1.
        994   -1    0    0    0    0 -0.00000000000E+00 -0.00000000000E+00  0.11368683772E-12  0.17120000000E+03  0.17120000000E+03 0.  0.
         13    1    1    2    0    0  0.50732187273E+02  0.11589238242E+02  0.25146431357E+03  0.25679247932E+03  0.10566000000E+00 0. -1.
        994    1    1    2    0    0 -0.60070488239E+02 -0.11782062403E+02  0.16793130246E+02  0.18258896400E+03  0.17120000000E+03 0.  0.
        998    1    1    2    0    0  0.93383009660E+01  0.19282416182E+00  0.12317425525E+04  0.12318185567E+04  0.10000000000E+02 0. -1.
</event>
<event>
 5    1  0.1247473E-008  0.3687204E+03  0.7957747E-01  0.3501793E+00
         13   -1    0    0    0    0  0.00000000000E+00  0.00000000000E+00  0.14999999963E+04  0.15000000000E+04  0.10566000000E+00 0.  1.
        994   -1    0    0    0    0 -0.00000000000E+00 -0.00000000000E+00  0.11368683772E-12  0.17120000000E+03  0.17120000000E+03 0.  0.
         13    1    1    2    0    0  0.42388406548E+02 -0.27117670390E+02  0.13323853649E+03  0.14242423890E+03  0.10566000000E+00 0.  1.
        994    1    1    2    0    0 -0.12197565785E+02 -0.89393371883E+01  0.11060094843E+02  0.17222211838E+03  0.17120000000E+03 0.  0.
        998    1    1    2    0    0 -0.30190840763E+02  0.36057007579E+02  0.13557013649E+04  0.13565536427E+04  0.10000000000E+02 0.  1.
</event>
<event>
 5    1  0.1247473E-008  0.3845863E+03  0.7957747E-01  0.3431429E+00
         13   -1    0    0    0    0  0.00000000000E+00  0.00000000000E+00  0.14999999963E+04  0.15000000000E+04  0.10566000000E+00 0. -1.
        994   -1    0    0    0    0 -0.00000000000E+00 -0.00000000000E+00  0.11368683772E-12  0.17120000000E+03  0.17120000000E+03 0.  0.
         13    1    1    2    0    0 -0.83850730555E+01 -0.69356269330E+01  0.31740095854E+02  0.33553795910E+02  0.10566000000E+00 0. -1.
        994    1    1    2    0    0  0.80335008637E+01  0.35272713659E+01  0.20892062846E+01  0.17143740421E+03  0.17120000000E+03 0.  0.
        998    1    1    2    0    0  0.35157219183E+00  0.34083555670E+01  0.14661706941E+04  0.14662087999E+04  0.10000000000E+02 0. -1.
</event>
<event>
 5    1  0.1247473E-008  0.3774168E+03  0.7957747E-01  0.3462484E+00
         13   -1    0    0    0    0  0.00000000000E+00  0.00000000000E+00  0.14999999963E+04  0.15000000000E+04  0.10566000000E+00 0.  1.
        994   -1    0    0    0    0 -0.00000000000E+00 -0.00000000000E+00  0.11368683772E-12  0.17120000000E+03  0.17120000000E+03 0.  0.
         13    1    1    2    0    0 -0.26448454598E+02  0.43167905303E+02  0.17683013834E+03  0.18393449319E+03  0.10566000000E+00 0.  1.
        994    1    1    2    0    0  0.27269555463E+02 -0.73120405309E+02  0.26260808116E+02  0.18997181994E+03  0.17120000000E+03 0.  0.
        998    1    1    2    0    0 -0.82110086533E+00  0.29952500007E+02  0.12969090498E+04  0.12972936869E+04  0.10000000000E+02 0.  1.
</event>
<event>
 5    1  0.1247473E-008  0.3780568E+03  0.7957747E-01  0.3459664E+00
         13   -1    0    0    0    0  0.00000000000E+00  0.00000000000E+00  0.14999999963E+04  0.15000000000E+04  0.10566000000E+00 0. -1.
        994   -1    0    0    0    0 -0.00000000000E+00 -0.00000000000E+00  0.11368683772E-12  0.17120000000E+03  0.17120000000E+03 0.  0.
         13    1    1    2    0    0  0.14372081632E+02 -0.39268259591E+02  0.16535961536E+03  0.17056484544E+03  0.10566000000E+00 0. -1.
        994    1    1    2    0    0  0.25566750777E+01  0.31061318616E+02  0.83923479657E+01  0.17421599699E+03  0.17120000000E+03 0.  0.
        998    1    1    2    0    0 -0.16928756710E+02  0.82069409744E+01  0.13262480329E+04  0.13264191576E+04  0.10000000000E+02 0. -1.
</event>
<event>
 5    1  0.1247473E-008  0.3728120E+03  0.7957747E-01  0.3483066E+00
         13   -1    0    0    0    0  0.00000000000E+00  0.00000000000E+00  0.14999999963E+04  0.15000000000E+04  0.10566000000E+00 0. -1.
        994   -1    0    0    0    0 -0.00000000000E+00 -0.00000000000E+00  0.11368683772E-12  0.17120000000E+03  0.17120000000E+03 0.  0.
         13    1    1    2    0    0  0.52891012397E+02 -0.13656416268E+02  0.20872268602E+03  0.21575246863E+03  0.10566000000E+00 0. -1.
        994    1    1    2    0    0 -0.14877242520E+02 -0.17406673176E+00  0.85650209041E+01  0.17205860114E+03  0.17120000000E+03 0.  0.
        998    1    1    2    0    0 -0.38013769877E+02  0.13830483000E+02  0.12827122894E+04  0.12833889302E+04  0.10000000000E+02 0. -1.
</event>
<event>
 5    1  0.1247473E-008  0.3844639E+03  0.7957747E-01  0.3431949E+00
         13   -1    0    0    0    0  0.00000000000E+00  0.00000000000E+00  0.14999999963E+04  0.15000000000E+04  0.10566000000E+00 0. -1.
        994   -1    0    0    0    0 -0.00000000000E+00 -0.00000000000E+00  0.11368683772E-12  0.17120000000E+03  0.17120000000E+03 0.  0.
         13    1    1    2    0    0  0.62429162980E+01  0.14701016921E+02  0.63303431080E+02  0.65287284006E+02  0.10566000000E+00 0. -1.
        994    1    1    2    0    0 -0.93252392907E+01 -0.18100745519E+02  0.32635654212E+01  0.17243748994E+03  0.17120000000E+03 0.  0.
        998    1    1    2    0    0  0.30823229927E+01  0.33997285980E+01  0.14334329998E+04  0.14334752261E+04  0.10000000000E+02 0. -1.
</event>
<event>
 5    1  0.1247473E-008  0.3815794E+03  0.7957747E-01  0.3444310E+00
         13   -1    0    0    0    0  0.00000000000E+00  0.00000000000E+00  0.14999999963E+04  0.15000000000E+04  0.10566000000E+00 0.  1.
        994   -1    0    0    0    0 -0.00000000000E+00 -0.00000000000E+00  0.11368683772E-12  0.17120000000E+03  0.17120000000E+03 0.  0.
         13    1    1    2    0    0  0.34310054742E+02  0.34594620963E+02  0.28686327503E+03  0.29097167797E+03  0.10566000000E+00 0.  1.
        994    1    1    2    0    0 -0.32057280044E+02 -0.38211991637E+02  0.11655997981E+02  0.17869842696E+03  0.17120000000E+03 0.  0.
        998    1    1    2    0    0 -0.22527746985E+01  0.36173706745E+01  0.12014807233E+04  0.12015298951E+04  0.10000000000E+02 0.  1.
</event>
<event>
 5    1  0.1247473E-008  0.3841423E+03  0.7957747E-01  0.3433318E+00
         13   -1    0    0    0    0  0.00000000000E+00  0.00000000000E+00  0.14999999963E+04  0.15000000000E+04  0.10566000000E+00 0.  1.
        994   -1    0    0    0    0 -0.00000000000E+00 -0.00000000000E+00  0.11368683772E-12  0.17120000000E+03  0.17120000000E+03 0.  0.
         13    1    1    2    0    0 -0.14569800018E+02 -0.64433183366E+01  0.60051904469E+02  0.62129202619E+02  0.10566000000E+00 0.  1.
        994    1    1    2    0    0  0.14367497487E+02  0.28142806461E+01  0.27637739014E+01  0.17184709368E+03  0.17120000000E+03 0.  0.
        998    1    1    2    0    0  0.20230253079E+00  0.36290376905E+01  0.14371843179E+04  0.14372237037E+04  0.10000000000E+02 0.  1.
</event>
<event>
 5    1  0.1247473E-008  0.3830563E+03  0.7957747E-01  0.3437958E+00
         13   -1    0    0    0    0  0.00000000000E+00  0.00000000000E+00  0.14999999963E+04  0.15000000000E+04  0.10566000000E+00 0.  1.
        994   -1    0    0    0    0 -0.00000000000E+00 -0.00000000000E+00  0.11368683772E-12  0.17120000000E+03  0.17120000000E+03 0.  0.
         13    1    1    2    0    0  0.64964024930E+01  0.11129872688E+02  0.32214622407E+02  0.34696835191E+02  0.10566000000E+00 0.  1.
        994    1    1    2    0    0 -0.84206441361E+01  0.56099464575E+01  0.29371409951E+01  0.17152389205E+03  0.17120000000E+03 0.  0.
        998    1    1    2    0    0  0.19242416431E+01 -0.16739819145E+02  0.14648482329E+04  0.14649792728E+04  0.10000000000E+02 0.  1.
</event>
<event>
 5    1  0.1247473E-008  0.3708253E+03  0.7957747E-01  0.3492106E+00
         13   -1    0    0    0    0  0.00000000000E+00  0.00000000000E+00  0.14999999963E+04  0.15000000000E+04  0.10566000000E+00 0.  1.
        994   -1    0    0    0    0 -0.00000000000E+00 -0.00000000000E+00  0.11368683772E-12  0.17120000000E+03  0.17120000000E+03 0.  0.
         13    1    1    2    0    0  0.33243778594E+02 -0.30191424650E+02  0.12222947900E+03  0.13021800044E+03  0.10566000000E+00 0.  1.
        994    1    1    2    0    0 -0.30286124682E+01  0.35320822017E+01  0.89129594127E+01  0.17149498227E+03  0.17120000000E+03 0.  0.
        998    1    1    2    0    0 -0.30215166126E+02  0.26659342448E+02  0.13688575579E+04  0.13694870173E+04  0.10000000000E+02 0.  1.
</event>
<event>
 5    1  0.1247473E-008  0.3833967E+03  0.7957747E-01  0.3436501E+00
         13   -1    0    0    0    0  0.00000000000E+00  0.00000000000E+00  0.14999999963E+04  0.15000000000E+04  0.10566000000E+00 0. -1.
        994   -1    0    0    0    0 -0.00000000000E+00 -0.00000000000E+00  0.11368683772E-12  0.17120000000E+03  0.17120000000E+03 0.  0.
         13    1    1    2    0    0  0.12599054198E+02  0.23337284661E+02  0.12759577014E+03  0.13032289417E+03  0.10566000000E+00 0. -1.
        994    1    1    2    0    0 -0.26857201191E+02 -0.23164249870E+02  0.65977596410E+01  0.17495960151E+03  0.17120000000E+03 0.  0.
        998    1    1    2    0    0  0.14258146993E+02 -0.17303479061E+00  0.13658064665E+04  0.13659175043E+04  0.10000000000E+02 0. -1.
</event>
<event>
 5    1  0.1247473E-008  0.3760173E+03  0.7957747E-01  0.3468685E+00
         13   -1    0    0    0    0  0.00000000000E+00  0.00000000000E+00  0.14999999963E+04  0.15000000000E+04  0.10566000000E+00 0.  1.
        994   -1    0    0    0    0 -0.00000000000E+00 -0.00000000000E+00  0.11368683772E-12  0.17120000000E+03  0.17120000000E+03 0.  0.
         13    1    1    2    0    0 -0.43275193040E+01  0.18636401704E+02  0.27139108571E+02  0.33205199440E+02  0.10566000000E+00 0.  1.
        994    1    1    2    0    0  0.48280075052E+01 -0.12828805632E+02  0.67939657115E+01  0.17188218605E+03  0.17120000000E+03 0.  0.
        998    1    1    2    0    0 -0.50048820118E+00 -0.58075960722E+01  0.14660669220E+04  0.14661126145E+04  0.10000000000E+02 0.  1.
</event>
<event>
 5    1  0.1247473E-008  0.3856395E+03  0.7957747E-01  0.3426965E+00
         13   -1    0    0    0    0  0.00000000000E+00  0.00000000000E+00  0.14999999963E+04  0.15000000000E+04  0.10566000000E+00 0. -1.
        994   -1    0    0    0    0 -0.00000000000E+00 -0.00000000000E+00  0.11368683772E-12  0.17120000000E+03  0.17120000000E+03 0.  0.
         13    1    1    2    0    0 -0.77100384532E+01  0.15708901101E+02  0.10563662700E+03  0.10707624571E+03  0.10566000000E+00 0. -1.
        994    1    1    2    0    0  0.61710057127E+01 -0.22677332234E+02  0.31277815097E+01  0.17283392527E+03  0.17120000000E+03 0.  0.
        998    1    1    2    0    0  0.15390327405E+01  0.69684311325E+01  0.13912355878E+04  0.13912898290E+04  0.10000000000E+02 0. -1.
</event>
<event>
 5    1  0.1247473E-008  0.3774554E+03  0.7957747E-01  0.3462314E+00
         13   -1    0    0    0    0  0.00000000000E+00  0.00000000000E+00  0.14999999963E+04  0.15000000000E+04  0.10566000000E+00 0.  1.
        994   -1    0    0    0    0 -0.00000000000E+00 -0.00000000000E+00  0.11368683772E-12  0.17120000000E+03  0.17120000000E+03 0.  0.
         13    1    1    2    0    0  0.91565159575E+01 -0.82130817554E+01  0.11875659587E+02  0.17097922420E+02  0.10566000000E+00 0.  1.
        994    1    1    2    0    0  0.10322376690E+01 -0.43517405314E+01  0.54906321832E+01  0.17134640411E+03  0.17120000000E+03 0.  0.
        998    1    1    2    0    0 -0.10188753626E+02  0.12564822287E+02  0.14826337045E+04  0.14827556735E+04  0.10000000000E+02 0.  1.
</event>
<event>
 5    1  0.1247473E-008  0.3842732E+03  0.7957747E-01  0.3432761E+00
         13   -1    0    0    0    0  0.00000000000E+00  0.00000000000E+00  0.14999999963E+04  0.15000000000E+04  0.10566000000E+00 0. -1.
        994   -1    0    0    0    0 -0.00000000000E+00 -0.00000000000E+00  0.11368683772E-12  0.17120000000E+03  0.17120000000E+03 0.  0.
         13    1    1    2    0    0 -0.10915762148E+02 -0.76523198479E+01  0.43869520988E+02  0.45850386019E+02  0.10566000000E+00 0. -1.
        994    1    1    2    0    0  0.66490511658E+01  0.90003136410E+01  0.24042972580E+01  0.17158215575E+03  0.17120000000E+03 0.  0.
        998    1    1    2    0    0  0.42667109822E+01 -0.13479937931E+01  0.14537261780E+04  0.14537674582E+04  0.10000000000E+02 0. -1.
</event>
<event>
 5    1  0.1247473E-008  0.3695149E+03  0.7957747E-01  0.3498123E+00
         13   -1    0    0    0    0  0.00000000000E+00  0.00000000000E+00  0.14999999963E+04  0.15000000000E+04  0.10566000000E+00 0. -1.
        994   -1    0    0    0    0 -0.00000000000E+00 -0.00000000000E+00  0.11368683772E-12  0.17120000000E+03  0.17120000000E+03 0.  0.
         13    1    1    2    0    0  0.13044433361E+02  0.33589983594E+02  0.55167848565E+02  0.65893451260E+02  0.10566000000E+00 0. -1.
        994    1    1    2    0    0 -0.14588887597E+02 -0.30722891442E+02  0.14730346781E+02  0.17516607781E+03  0.17120000000E+03 0.  0.
        998    1    1    2    0    0  0.15444542361E+01 -0.28670921526E+01  0.14301018009E+04  0.14301404709E+04  0.10000000000E+02 0. -1.
</event>
<event>
 5    1  0.1247473E-008  0.3840185E+03  0.7957747E-01  0.3433846E+00
         13   -1    0    0    0    0  0.00000000000E+00  0.00000000000E+00  0.14999999963E+04  0.15000000000E+04  0.10566000000E+00 0.  1.
        994   -1    0    0    0    0 -0.00000000000E+00 -0.00000000000E+00  0.11368683772E-12  0.17120000000E+03  0.17120000000E+03 0.  0.
         13    1    1    2    0    0 -0.54808223881E+01  0.89216535665E+01  0.28427717072E+02  0.30294910107E+02  0.10566000000E+00 0.  1.
        994    1    1    2    0    0 -0.17993692534E+02  0.16124869950E+02  0.40466011271E+01  0.17294391976E+03  0.17120000000E+03 0.  0.
        998    1    1    2    0    0  0.23474514922E+02 -0.25046523516E+02  0.14675256781E+04  0.14679611701E+04  0.10000000000E+02 0.  1.
</event>
<event>
 5    1  0.1247473E-008  0.3836596E+03  0.7957747E-01  0.3435377E+00
         13   -1    0    0    0    0  0.00000000000E+00  0.00000000000E+00  0.14999999963E+04  0.15000000000E+04  0.10566000000E+00 0.  1.
        994   -1    0    0    0    0 -0.00000000000E+00 -0.00000000000E+00  0.11368683772E-12  0.17120000000E+03  0.17120000000E+03 0.  0.
         13    1    1    2    0    0 -0.11176573272E+02 -0.10717461656E+02  0.55697061588E+02  0.57809632484E+02  0.10566000000E+00 0.  1.
        994    1    1    2    0    0 -0.64522588523E+00 -0.61838734909E+01  0.24247731888E+01  0.17133002111E+03  0.17120000000E+03 0.  0.
        998    1    1    2    0    0  0.11821799157E+02  0.16901335147E+02  0.14418781615E+04  0.14420603464E+04  0.10000000000E+02 0.  1.
</event>
<event>
 5    1  0.1269316E-008  0.3857669E+03  0.7957747E-01  0.3426426E+00
         13   -1    0    0    0    0  0.00000000000E+00  0.00000000000E+00  0.14999999963E+04  0.15000000000E+04  0.10566000000E+00 0. -1.
        994   -1    0    0    0    0 -0.00000000000E+00 -0.00000000000E+00  0.11368683772E-12  0.17120000000E+03  0.17120000000E+03 0.  0.
         13    1    1    2    0    0 -0.11593546993E+02  0.59480163100E+01  0.69260849968E+02  0.70475994014E+02  0.10566000000E+00 0. -1.
        994    1    1    2    0    0  0.61380796270E+01 -0.36398062077E+01  0.14169171863E+01  0.17135452099E+03  0.17120000000E+03 0.  0.
        998    1    1    2    0    0  0.54554673664E+01 -0.23082101024E+01  0.14293222291E+04  0.14293694850E+04  0.10000000000E+02 0. -1.
</event>
<event>
 5    1  0.1247473E-008  0.3844892E+03  0.7957747E-01  0.3431841E+00
         13   -1    0    0    0    0  0.00000000000E+00  0.00000000000E+00  0.14999999963E+04  0.15000000000E+04  0.10566000000E+00 0.  1.
        994   -1    0    0    0    0 -0.00000000000E+00 -0.00000000000E+00  0.11368683772E-12  0.17120000000E+03  0.17120000000E+03 0.  0.
         13    1    1    2    0    0 -0.10068234654E+02 -0.22186144230E+02  0.14631831572E+03  0.14833291955E+03  0.10566000000E+00 0.  1.
        994    1    1    2    0    0  0.11146040262E+02  0.20208477830E+02  0.36404041581E+01  0.17278688993E+03  0.17120000000E+03 0.  0.
        998    1    1    2    0    0 -0.10778056081E+01  0.19776664009E+01  0.13500412764E+04  0.13500801905E+04  0.10000000000E+02 0.  1.
</event>
<event>
 5    1  0.1247473E-008  0.3802761E+03  0.7957747E-01  0.3449957E+00
         13   -1    0    0    0    0  0.00000000000E+00  0.00000000000E+00  0.14999999963E+04  0.15000000000E+04  0.10566000000E+00 0. -1.
        994   -1    0    0    0    0 -0.00000000000E+00 -0.00000000000E+00  0.11368683772E-12  0.17120000000E+03  0.17120000000E+03 0.  0.
         13    1    1    2    0    0  0.20886781230E+02  0.84340042952E+01  0.64880452593E+02  0.68679504594E+02  0.10566000000E+00 0. -1.
        994    1    1    2    0    0 -0.38933727066E+01 -0.12364645936E+01  0.40495771626E+01  0.17129660321E+03  0.17120000000E+03 0.  0.
        998    1    1    2    0    0 -0.16993408523E+02 -0.71975397016E+01  0.14310699665E+04  0.14312238922E+04  0.10000000000E+02 0. -1.
</event>
<event>
 5    1  0.1247473E-008  0.3825787E+03  0.7957747E-01  0.3440007E+00
         13   -1    0    0    0    0  0.00000000000E+00  0.00000000000E+00  0.14999999963E+04  0.15000000000E+04  0.10566000000E+00 0.  1.
        994   -1    0    0    0    0 -0.00000000000E+00 -0.00000000000E+00  0.11368683772E-12  0.17120000000E+03  0.17120000000E+03 0.  0.
         13    1    1    2    0    0 -0.10711438972E+02  0.11628857919E+02  0.42940224146E+02  0.45758488558E+02  0.10566000000E+00 0.  1.
        994    1    1    2    0    0  0.74934289232E+01 -0.88049845269E+01  0.32802832924E+01  0.17162132585E+03  0.17120000000E+03 0.  0.
        998    1    1    2    0    0  0.32180100486E+01 -0.28238733926E+01  0.14537794888E+04  0.14538201856E+04  0.10000000000E+02 0.  1.
</event>
<event>
 5    1  0.1247473E-008  0.3759206E+03  0.7957747E-01  0.3469116E+00
         13   -1    0    0    0    0  0.00000000000E+00  0.00000000000E+00  0.14999999963E+04  0.15000000000E+04  0.10566000000E+00 0.  1.
        994   -1    0    0    0    0 -0.00000000000E+00 -0.00000000000E+00  0.11368683772E-12  0.17120000000E+03  0.17120000000E+03 0.  0.
         13    1    1    2    0    0 -0.39652960470E+02  0.50009790162E+02  0.30309654455E+03  0.30974322086E+03  0.10566000000E+00 0.  1.
        994    1    1    2    0    0  0.57639342557E+02 -0.15263190097E+02  0.18351025642E+02  0.18221267498E+03  0.17120000000E+03 0.  0.
        998    1    1    2    0    0 -0.17986382087E+02 -0.34746600065E+02  0.11785524261E+04  0.11792441042E+04  0.10000000000E+02 0.  1.
</event>
<event>
 5    1  0.1247473E-008  0.3853659E+03  0.7957747E-01  0.3428122E+00
         13   -1    0    0    0    0  0.00000000000E+00  0.00000000000E+00  0.14999999963E+04  0.15000000000E+04  0.10566000000E+00 0.  1.
        994   -1    0    0    0    0 -0.00000000000E+00 -0.00000000000E+00  0.11368683772E-12  0.17120000000E+03  0.17120000000E+03 0.  0.
         13    1    1    2    0    0 -0.51105686115E+01  0.12700723825E+02  0.75553695634E+02  0.76784102425E+02  0.10566000000E+00 0.  1.
        994    1    1    2    0    0 -0.36501079890E+01  0.10754691252E+02  0.18723859082E+01  0.17158651608E+03  0.17120000000E+03 0.  0.
        998    1    1    2    0    0  0.87606766005E+01 -0.23455415076E+02  0.14225739147E+04  0.14228293815E+04  0.10000000000E+02 0.  1.
</event>
<event>
 5    1  0.1247473E-008  0.2699438E+03  0.7957747E-01  0.4137092E+00
         13   -1    0    0    0    0  0.00000000000E+00  0.00000000000E+00  0.14999999963E+04  0.15000000000E+04  0.10566000000E+00 0.  1.
        994   -1    0    0    0    0 -0.00000000000E+00 -0.00000000000E+00  0.11368683772E-12  0.17120000000E+03  0.17120000000E+03 0.  0.
         13    1    1    2    0    0  0.78840299365E+02 -0.21480488044E+03  0.87965452821E+03  0.90892740614E+03  0.10566000000E+00 0.  1.
        994    1    1    2    0    0 -0.34643030340E+02  0.10170749766E+02  0.10052207812E+03  0.20178630254E+03  0.17120000000E+03 0.  0.
        998    1    1    2    0    0 -0.44197269025E+02  0.20463413068E+03  0.51982338995E+03  0.56048629132E+03  0.10000000000E+02 0.  1.
</event>
<event>
 5    1  0.1485439E-008  0.3859644E+03  0.7957747E-01  0.3425593E+00
         13   -1    0    0    0    0  0.00000000000E+00  0.00000000000E+00  0.14999999963E+04  0.15000000000E+04  0.10566000000E+00 0.  1.
        994   -1    0    0    0    0 -0.00000000000E+00 -0.00000000000E+00  0.11368683772E-12  0.17120000000E+03  0.17120000000E+03 0.  0.
         13    1    1    2    0    0  0.77941771981E+01 -0.95938730565E+01  0.71861717853E+02  0.72917139653E+02  0.10566000000E+00 0.  1.
        994    1    1    2    0    0  0.65438102337E+01  0.48311179904E+01  0.13690365502E+01  0.17139858638E+03  0.17120000000E+03 0.  0.
        998    1    1    2    0    0 -0.14337987432E+02  0.47627550661E+01  0.14267692419E+04  0.14268842740E+04  0.10000000000E+02 0.  1.
</event>
<event>
 5    1  0.1247473E-008  0.3854692E+03  0.7957747E-01  0.3427685E+00
         13   -1    0    0    0    0  0.00000000000E+00  0.00000000000E+00  0.14999999963E+04  0.15000000000E+04  0.10566000000E+00 0.  1.
        994   -1    0    0    0    0 -0.00000000000E+00 -0.00000000000E+00  0.11368683772E-12  0.17120000000E+03  0.17120000000E+03 0.  0.
         13    1    1    2    0    0 -0.71095952313E+01 -0.87566199038E+01  0.45496502933E+02  0.46873955238E+02  0.10566000000E+00 0.  1.
        994    1    1    2    0    0  0.85381421006E+01  0.37970951511E+01  0.16841296833E+01  0.17146309835E+03  0.17120000000E+03 0.  0.
        998    1    1    2    0    0 -0.14285468693E+01  0.49595247526E+01  0.14528193637E+04  0.14528629464E+04  0.10000000000E+02 0.  1.
</event>
<event>
 5    1  0.1247473E-008  0.3846407E+03  0.7957747E-01  0.3431197E+00
         13   -1    0    0    0    0  0.00000000000E+00  0.00000000000E+00  0.14999999963E+04  0.15000000000E+04  0.10566000000E+00 0. -1.
        994   -1    0    0    0    0 -0.00000000000E+00 -0.00000000000E+00  0.11368683772E-12  0.17120000000E+03  0.17120000000E+03 0.  0.
         13    1    1    2    0    0  0.12661207417E+02  0.21005092769E+02  0.14549821115E+03  0.14755087498E+03  0.10566000000E+00 0. -1.
        994    1    1    2    0    0 -0.20647851365E+02 -0.22495321435E+02  0.48844778277E+01  0.17397031751E+03  0.17120000000E+03 0.  0.
        998    1    1    2    0    0  0.79866439482E+01  0.14902286665E+01  0.13496173073E+04  0.13496788075E+04  0.10000000000E+02 0. -1.
</event>
<event>
 5    1  0.1247473E-008  0.3806129E+03  0.7957747E-01  0.3448494E+00
         13   -1    0    0    0    0  0.00000000000E+00  0.00000000000E+00  0.14999999963E+04  0.15000000000E+04  0.10566000000E+00 0. -1.
        994   -1    0    0    0    0 -0.00000000000E+00 -0.00000000000E+00  0.11368683772E-12  0.17120000000E+03  0.17120000000E+03 0.  0.
         13    1    1    2    0    0  0.27944708850E+02 -0.29681326456E+02  0.24009413387E+03  0.24353047484E+03  0.10566000000E+00 0. -1.
        994    1    1    2    0    0  0.31610920533E+01  0.18944000038E+02  0.50556638319E+01  0.17234809943E+03  0.17120000000E+03 0.  0.
        998    1    1    2    0    0 -0.31105800904E+02  0.10737326418E+02  0.12548501986E+04  0.12553214257E+04  0.10000000000E+02 0. -1.
</event>
<event>
 5    1  0.1247473E-008  0.3803750E+03  0.7957747E-01  0.3449527E+00
         13   -1    0    0    0    0  0.00000000000E+00  0.00000000000E+00  0.14999999963E+04  0.15000000000E+04  0.10566000000E+00 0.  1.
        994   -1    0    0    0    0 -0.00000000000E+00 -0.00000000000E+00  0.11368683772E-12  0.17120000000E+03  0.17120000000E+03 0.  0.
         13    1    1    2    0    0 -0.22005933693E+01 -0.33960503172E+02  0.14125653070E+03  0.14529823474E+03  0.10566000000E+00 0.  1.
        994    1    1    2    0    0 -0.17445759424E+01  0.25017936597E+02  0.60467073258E+01  0.17313273338E+03  0.17120000000E+03 0.  0.
        998    1    1    2    0    0  0.39451693117E+01  0.89425665752E+01  0.13526967582E+04  0.13527690319E+04  0.10000000000E+02 0.  0.
</event>
<event>
 5    1  0.1247473E-008  0.3817380E+03  0.7957747E-01  0.3443626E+00
         13   -1    0    0    0    0  0.00000000000E+00  0.00000000000E+00  0.14999999963E+04  0.15000000000E+04  0.10566000000E+00 0.  1.
        994   -1    0    0    0    0 -0.00000000000E+00 -0.00000000000E+00  0.11368683772E-12  0.17120000000E+03  0.17120000000E+03 0.  0.
         13    1    1    2    0    0  0.18518536077E+02 -0.98055419759E+01  0.64014483789E+02  0.67356886290E+02  0.10566000000E+00 0.  1.
        994    1    1    2    0    0 -0.16702087433E+02  0.13302531831E+02  0.47752261777E+01  0.17259246757E+03  0.17120000000E+03 0.  0.
        998    1    1    2    0    0 -0.18164486441E+01 -0.34969898554E+01  0.14312102863E+04  0.14312506461E+04  0.10000000000E+02 0.  1.
</event>
<event>
 5    1  0.1247473E-008  0.3838464E+03  0.7957747E-01  0.3434580E+00
         13   -1    0    0    0    0  0.00000000000E+00  0.00000000000E+00  0.14999999963E+04  0.15000000000E+04  0.10566000000E+00 0. -1.
        994   -1    0    0    0    0 -0.00000000000E+00 -0.00000000000E+00  0.11368683772E-12  0.17120000000E+03  0.17120000000E+03 0.  0.
         13    1    1    2    0    0 -0.11206705653E+02 -0.88623594261E+01  0.45462702751E+02  0.47655012031E+02  0.10566000000E+00 0. -1.
        994    1    1    2    0    0  0.13519087611E+02  0.66107514229E+00  0.28089453076E+01  0.17175719177E+03  0.17120000000E+03 0.  0.
        998    1    1    2    0    0 -0.23123819578E+01  0.82012842838E+01  0.14517283482E+04  0.14517877962E+04  0.10000000000E+02 0. -1.
</event>
<event>
 5    1  0.1247473E-008  0.3817763E+03  0.7957747E-01  0.3443460E+00
         13   -1    0    0    0    0  0.00000000000E+00  0.00000000000E+00  0.14999999963E+04  0.15000000000E+04  0.10566000000E+00 0. -1.
        994   -1    0    0    0    0 -0.00000000000E+00 -0.00000000000E+00  0.11368683772E-12  0.17120000000E+03  0.17120000000E+03 0.  0.
         13    1    1    2    0    0  0.51832177064E+01  0.21773070968E+02  0.72885885093E+02  0.76244972130E+02  0.10566000000E+00 0. -1.
        994    1    1    2    0    0 -0.89859504232E+00 -0.23817298125E+02  0.51293843929E+01  0.17292721517E+03  0.17120000000E+03 0.  0.
        998    1    1    2    0    0 -0.42846226641E+01  0.20442271569E+01  0.14219847268E+04  0.14220278127E+04  0.10000000000E+02 0. -1.
</event>
<event>
 5    1  0.1247473E-008  0.3730818E+03  0.7957747E-01  0.3481846E+00
         13   -1    0    0    0    0  0.00000000000E+00  0.00000000000E+00  0.14999999963E+04  0.15000000000E+04  0.10566000000E+00 0. -1.
        994   -1    0    0    0    0 -0.00000000000E+00 -0.00000000000E+00  0.11368683772E-12  0.17120000000E+03  0.17120000000E+03 0.  0.
         13    1    1    2    0    0 -0.44007774837E+02  0.43170809510E+02  0.33909885481E+03  0.34465699983E+03  0.10566000000E+00 0. -1.
        994    1    1    2    0    0 -0.66395591614E+01 -0.24972366855E+00  0.78181453476E+01  0.17150717042E+03  0.17120000000E+03 0.  0.
        998    1    1    2    0    0  0.50647333999E+02 -0.42921085841E+02  0.11530829961E+04  0.11550358297E+04  0.10000000000E+02 0. -1.
</event>
<event>
 5    1  0.1247473E-008  0.3835784E+03  0.7957747E-01  0.3435724E+00
         13   -1    0    0    0    0  0.00000000000E+00  0.00000000000E+00  0.14999999963E+04  0.15000000000E+04  0.10566000000E+00 0. -1.
        994   -1    0    0    0    0 -0.00000000000E+00 -0.00000000000E+00  0.11368683772E-12  0.17120000000E+03  0.17120000000E+03 0.  0.
         13    1    1    2    0    0 -0.19518203787E+02  0.13781070168E+02  0.12539253777E+03  0.12764865007E+03  0.10566000000E+00 0. -1.
        994    1    1    2    0    0  0.10161706368E+01 -0.17140637076E+02  0.33122996454E+01  0.17209080560E+03  0.17120000000E+03 0.  0.
        998    1    1    2    0    0  0.18502033150E+02  0.33595669079E+01  0.13712951589E+04  0.13714605443E+04  0.10000000000E+02 0. -1.
</event>
<event>
 5    1  0.1247473E-008  0.3854912E+03  0.7957747E-01  0.3427592E+00
         13   -1    0    0    0    0  0.00000000000E+00  0.00000000000E+00  0.14999999963E+04  0.15000000000E+04  0.10566000000E+00 0. -1.
        994   -1    0    0    0    0 -0.00000000000E+00 -0.00000000000E+00  0.11368683772E-12  0.17120000000E+03  0.17120000000E+03 0.  0.
         13    1    1    2    0    0 -0.97469669957E+01  0.94521660075E+01  0.75964921145E+02  0.77168822826E+02  0.10566000000E+00 0. -1.
        994    1    1    2    0    0 -0.18287550052E+01  0.94877672620E+01  0.16930536055E+01  0.17148081089E+03  0.17120000000E+03 0.  0.
        998    1    1    2    0    0  0.11575722001E+02 -0.18939933269E+02  0.14223420215E+04  0.14225503663E+04  0.10000000000E+02 0. -1.
</event>
<event>
 5    1  0.1247473E-008  0.3749571E+03  0.7957747E-01  0.3473414E+00
         13   -1    0    0    0    0  0.00000000000E+00  0.00000000000E+00  0.14999999963E+04  0.15000000000E+04  0.10566000000E+00 0.  1.
        994   -1    0    0    0    0 -0.00000000000E+00 -0.00000000000E+00  0.11368683772E-12  0.17120000000E+03  0.17120000000E+03 0.  0.
         13    1    1    2    0    0 -0.63510597108E+02 -0.42141361104E+01  0.16717637804E+03  0.17888350239E+03  0.10566000000E+00 0.  1.
        994    1    1    2    0    0  0.20914606555E+01  0.66841583894E+02  0.29671730401E+02  0.18617739694E+03  0.17120000000E+03 0.  0.
        998    1    1    2    0    0  0.61419136452E+02 -0.62627447784E+02  0.13031518878E+04  0.13061391007E+04  0.10000000000E+02 0.  1.
</event>
<event>
 5    1  0.1247473E-008  0.3758099E+03  0.7957747E-01  0.3469609E+00
         13   -1    0    0    0    0  0.00000000000E+00  0.00000000000E+00  0.14999999963E+04  0.15000000000E+04  0.10566000000E+00 0.  1.
        994   -1    0    0    0    0 -0.00000000000E+00 -0.00000000000E+00  0.11368683772E-12  0.17120000000E+03  0.17120000000E+03 0.  0.
         13    1    1    2    0    0  0.54413722082E+02 -0.10128899664E+03  0.55318938489E+03  0.56501223059E+03  0.10566000000E+00 0.  1.
        994    1    1    2    0    0 -0.51977795507E+02  0.11638288426E+03  0.63494655409E+02  0.22268290963E+03  0.17120000000E+03 0.  0.
        998    1    1    2    0    0 -0.24359265747E+01 -0.15093887618E+02  0.88331595598E+03  0.88350485978E+03  0.10000000000E+02 0.  1.
</event>
<event>
 5    1  0.1247473E-008  0.3781418E+03  0.7957747E-01  0.3459290E+00
         13   -1    0    0    0    0  0.00000000000E+00  0.00000000000E+00  0.14999999963E+04  0.15000000000E+04  0.10566000000E+00 0. -1.
        994   -1    0    0    0    0 -0.00000000000E+00 -0.00000000000E+00  0.11368683772E-12  0.17120000000E+03  0.17120000000E+03 0.  0.
         13    1    1    2    0    0  0.28152760589E+02 -0.23892418330E+01  0.81378822170E+02  0.86144124971E+02  0.10566000000E+00 0. -1.
        994    1    1    2    0    0 -0.41820491626E+01  0.57273744404E+00  0.51340439117E+01  0.17132897003E+03  0.17120000000E+03 0.  0.
        998    1    1    2    0    0 -0.23970711426E+02  0.18165043890E+01  0.14134871302E+04  0.14137269050E+04  0.10000000000E+02 0. -1.
</event>
<event>
 5    1  0.1247473E-008  0.3754189E+03  0.7957747E-01  0.3471351E+00
         13   -1    0    0    0    0  0.00000000000E+00  0.00000000000E+00  0.14999999963E+04  0.15000000000E+04  0.10566000000E+00 0.  1.
        994   -1    0    0    0    0 -0.00000000000E+00 -0.00000000000E+00  0.11368683772E-12  0.17120000000E+03  0.17120000000E+03 0.  0.
         13    1    1    2    0    0 -0.60971444402E+00  0.20564376811E+02  0.29297363651E+02  0.35799609304E+02  0.10566000000E+00 0.  1.
        994    1    1    2    0    0 -0.54935554793E+01 -0.24025308114E+02  0.85282260279E+01  0.17317495552E+03  0.17120000000E+03 0.  0.
        998    1    1    2    0    0  0.61032699233E+01  0.34609313033E+01  0.14621744066E+04  0.14622254352E+04  0.10000000000E+02 0.  1.
</event>
<event>
 5    1  0.1247473E-008  0.3707532E+03  0.7957747E-01  0.3492436E+00
         13   -1    0    0    0    0  0.00000000000E+00  0.00000000000E+00  0.14999999963E+04  0.15000000000E+04  0.10566000000E+00 0.  1.
        994   -1    0    0    0    0 -0.00000000000E+00 -0.00000000000E+00  0.11368683772E-12  0.17120000000E+03  0.17120000000E+03 0.  0.
         13    1    1    2    0    0  0.29940405455E+02  0.71663905521E+02  0.41339774987E+03  0.42063030561E+03  0.10566000000E+00 0.  1.
        994    1    1    2    0    0  0.10150667984E+02 -0.27213203276E+02  0.11790716488E+02  0.17404613035E+03  0.17120000000E+03 0.  0.
        998    1    1    2    0    0 -0.40091073439E+02 -0.44450702245E+02  0.10748115299E+04  0.10765235640E+04  0.10000000000E+02 0.  1.
</event>
<event>
 5    1  0.1247473E-008  0.3719170E+03  0.7957747E-01  0.3487127E+00
         13   -1    0    0    0    0  0.00000000000E+00  0.00000000000E+00  0.14999999963E+04  0.15000000000E+04  0.10566000000E+00 0.  1.
        994   -1    0    0    0    0 -0.00000000000E+00 -0.00000000000E+00  0.11368683772E-12  0.17120000000E+03  0.17120000000E+03 0.  0.
         13    1    1    2    0    0  0.16376772414E+02 -0.40411251605E+02  0.71013407841E+02  0.83331765781E+02  0.10566000000E+00 0.  1.
        994    1    1    2    0    0 -0.17476950525E+02  0.44244599790E+02  0.19963919632E+02  0.17880443646E+03  0.17120000000E+03 0.  0.
        998    1    1    2    0    0  0.11001781107E+01 -0.38333481849E+01  0.14090226688E+04  0.14090637978E+04  0.10000000000E+02 0.  1.
</event>
<event>
 5    1  0.1247473E-008  0.3777726E+03  0.7957747E-01  0.3460915E+00
         13   -1    0    0    0    0  0.00000000000E+00  0.00000000000E+00  0.14999999963E+04  0.15000000000E+04  0.10566000000E+00 0.  1.
        994   -1    0    0    0    0 -0.00000000000E+00 -0.00000000000E+00  0.11368683772E-12  0.17120000000E+03  0.17120000000E+03 0.  0.
         13    1    1    2    0    0 -0.11076201970E+02  0.52282600995E+02  0.21993078206E+03  0.22633098038E+03  0.10566000000E+00 0.  1.
        994    1    1    2    0    0  0.53049087829E+01 -0.60942349571E+02  0.17969477901E+02  0.18268676516E+03  0.17120000000E+03 0.  0.
        998    1    1    2    0    0  0.57712931876E+01  0.86597485759E+01  0.12620997363E+04  0.12621822545E+04  0.10000000000E+02 0.  1.
</event>
<event>
 5    1  0.1247473E-008  0.3839954E+03  0.7957747E-01  0.3433944E+00
         13   -1    0    0    0    0  0.00000000000E+00  0.00000000000E+00  0.14999999963E+04  0.15000000000E+04  0.10566000000E+00 0. -1.
        994   -1    0    0    0    0 -0.00000000000E+00 -0.00000000000E+00  0.11368683772E-12  0.17120000000E+03  0.17120000000E+03 0.  0.
         13    1    1    2    0    0 -0.98647091356E+01 -0.53222690787E+01  0.28061001810E+02  0.30217048517E+02  0.10566000000E+00 0. -1.
        994    1    1    2    0    0  0.12852542794E+02  0.84357449174E+01  0.29099334354E+01  0.17191351710E+03  0.17120000000E+03 0.  0.
        998    1    1    2    0    0 -0.29878336581E+01 -0.31134758386E+01  0.14690290610E+04  0.14690694344E+04  0.10000000000E+02 0. -1.
</event>
<event>
 5    1  0.1247473E-008  0.3737584E+03  0.7957747E-01  0.3478794E+00
         13   -1    0    0    0    0  0.00000000000E+00  0.00000000000E+00  0.14999999963E+04  0.15000000000E+04  0.10566000000E+00 0. -1.
        994   -1    0    0    0    0 -0.00000000000E+00 -0.00000000000E+00  0.11368683772E-12  0.17120000000E+03  0.17120000000E+03 0.  0.
         13    1    1    2    0    0  0.34349170076E+02 -0.55329703196E+02  0.28566976092E+03  0.29299908704E+03  0.10566000000E+00 0. -1.
        994    1    1    2    0    0 -0.56759690961E+02  0.12418028315E+02  0.18930140687E+02  0.18177915219E+03  0.17120000000E+03 0.  0.
        998    1    1    2    0    0  0.22410520885E+02  0.42911674881E+02  0.11954000947E+04  0.11964217608E+04  0.10000000000E+02 0. -1.
</event>
<event>
 5    1  0.1247473E-008  0.3852214E+03  0.7957747E-01  0.3428734E+00
         13   -1    0    0    0    0  0.00000000000E+00  0.00000000000E+00  0.14999999963E+04  0.15000000000E+04  0.10566000000E+00 0. -1.
        994   -1    0    0    0    0 -0.00000000000E+00 -0.00000000000E+00  0.11368683772E-12  0.17120000000E+03  0.17120000000E+03 0.  0.
         13    1    1    2    0    0 -0.79605740384E+01 -0.12702331162E+02  0.70931511481E+02  0.72498347850E+02  0.10566000000E+00 0. -1.
        994    1    1    2    0    0  0.90440702846E+01  0.13509466058E+02  0.23892899167E+01  0.17198677155E+03  0.17120000000E+03 0.  0.
        998    1    1    2    0    0 -0.10834962462E+01 -0.80713489637E+00  0.14266791949E+04  0.14267148806E+04  0.10000000000E+02 0. -1.
</event>
<event>
 5    1  0.1247473E-008  0.3853907E+03  0.7957747E-01  0.3428017E+00
         13   -1    0    0    0    0  0.00000000000E+00  0.00000000000E+00  0.14999999963E+04  0.15000000000E+04  0.10566000000E+00 0. -1.
        994   -1    0    0    0    0 -0.00000000000E+00 -0.00000000000E+00  0.11368683772E-12  0.17120000000E+03  0.17120000000E+03 0.  0.
         13    1    1    2    0    0  0.42289143429E+01  0.13829170425E+02  0.74211154519E+02  0.75607117987E+02  0.10566000000E+00 0. -1.
        994    1    1    2    0    0 -0.48106402919E+01 -0.62689599688E+01  0.16413820351E+01  0.17139012881E+03  0.17120000000E+03 0.  0.
        998    1    1    2    0    0  0.58172594900E+00 -0.75602104566E+01  0.14241474597E+04  0.14242027532E+04  0.10000000000E+02 0. -1.
</event>
<event>
 5    1  0.1247473E-008  0.3783480E+03  0.7957747E-01  0.3458383E+00
         13   -1    0    0    0    0  0.00000000000E+00  0.00000000000E+00  0.14999999963E+04  0.15000000000E+04  0.10566000000E+00 0. -1.
        994   -1    0    0    0    0 -0.00000000000E+00 -0.00000000000E+00  0.11368683772E-12  0.17120000000E+03  0.17120000000E+03 0.  0.
         13    1    1    2    0    0  0.89592960754E+01 -0.10814050303E+02  0.17601090179E+02  0.22517153676E+02  0.10566000000E+00 0. -1.
        994    1    1    2    0    0 -0.81369254362E+01  0.94380206258E+01  0.54915264193E+01  0.17174074255E+03  0.17120000000E+03 0.  0.
        998    1    1    2    0    0 -0.82237063922E+00  0.13760296768E+01  0.14769073797E+04  0.14769421038E+04  0.10000000000E+02 0.  0.
</event>
<event>
 5    1  0.1247473E-008  0.3835159E+03  0.7957747E-01  0.3435991E+00
         13   -1    0    0    0    0  0.00000000000E+00  0.00000000000E+00  0.14999999963E+04  0.15000000000E+04  0.10566000000E+00 0.  1.
        994   -1    0    0    0    0 -0.00000000000E+00 -0.00000000000E+00  0.11368683772E-12  0.17120000000E+03  0.17120000000E+03 0.  0.
         13    1    1    2    0    0 -0.11079749509E+02 -0.21389863931E+02  0.12805627388E+03  0.13030236979E+03  0.10566000000E+00 0.  1.
        994    1    1    2    0    0  0.76654641101E+01  0.52754413995E+01  0.26549367746E+01  0.17147325830E+03  0.17120000000E+03 0.  0.
        998    1    1    2    0    0  0.34142853988E+01  0.16114422532E+02  0.13692887856E+04  0.13694243719E+04  0.10000000000E+02 0.  1.
</event>
<event>
 5    1  0.1247473E-008  0.3819242E+03  0.7957747E-01  0.3442823E+00
         13   -1    0    0    0    0  0.00000000000E+00  0.00000000000E+00  0.14999999963E+04  0.15000000000E+04  0.10566000000E+00 0. -1.
        994   -1    0    0    0    0 -0.00000000000E+00 -0.00000000000E+00  0.11368683772E-12  0.17120000000E+03  0.17120000000E+03 0.  0.
         13    1    1    2    0    0  0.96384825696E+01 -0.57133272846E+01  0.18691273336E+02  0.21792597776E+02  0.10566000000E+00 0. -1.
        994    1    1    2    0    0 -0.74499065337E+01 -0.17568603809E+01  0.33596010779E+01  0.17140395149E+03  0.17120000000E+03 0.  0.
        998    1    1    2    0    0 -0.21885760359E+01  0.74701876655E+01  0.14779491219E+04  0.14780034507E+04  0.10000000000E+02 0. -1.
</event>
<event>
 5    1  0.1247473E-008  0.3687019E+03  0.7957747E-01  0.3501878E+00
         13   -1    0    0    0    0  0.00000000000E+00  0.00000000000E+00  0.14999999963E+04  0.15000000000E+04  0.10566000000E+00 0. -1.
        994   -1    0    0    0    0 -0.00000000000E+00 -0.00000000000E+00  0.11368683772E-12  0.17120000000E+03  0.17120000000E+03 0.  0.
         13    1    1    2    0    0  0.17138953050E+02 -0.73331374899E+02  0.27050872262E+03  0.28079568094E+03  0.10566000000E+00 0. -1.
        994    1    1    2    0    0 -0.24021780265E+02  0.41403592385E+02  0.18270971133E+02  0.17870246718E+03  0.17120000000E+03 0.  0.
        998    1    1    2    0    0  0.68828272143E+01  0.31927782514E+02  0.12112203025E+04  0.12117018519E+04  0.10000000000E+02 0. -1.
</event>
<event>
 5    1  0.1247473E-008  0.3894282E+03  0.7957747E-01  0.3411106E+00
         13   -1    0    0    0    0  0.00000000000E+00  0.00000000000E+00  0.14999999963E+04  0.15000000000E+04  0.10566000000E+00 0. -1.
        994   -1    0    0    0    0 -0.00000000000E+00 -0.00000000000E+00  0.11368683772E-12  0.17120000000E+03  0.17120000000E+03 0.  0.
         13    1    1    2    0    0  0.40102074233E+02 -0.53384808941E+01  0.29428924251E+02  0.50027477276E+02  0.10566000000E+00 0. -1.
        994    1    1    2    0    0 -0.32392219048E+02  0.28473593804E+01  0.25584746795E+02  0.17612888059E+03  0.17120000000E+03 0.  0.
        998    1    1    2    0    0 -0.77098551846E+01  0.24911215137E+01  0.14449863252E+04  0.14450436421E+04  0.10000000000E+02 0. -1.
</event>
<event>
 5    1  0.1247473E-008  0.3812159E+03  0.7957747E-01  0.3445881E+00
         13   -1    0    0    0    0  0.00000000000E+00  0.00000000000E+00  0.14999999963E+04  0.15000000000E+04  0.10566000000E+00 0.  1.
        994   -1    0    0    0    0 -0.00000000000E+00 -0.00000000000E+00  0.11368683772E-12  0.17120000000E+03  0.17120000000E+03 0.  0.
         13    1    1    2    0    0  0.14513667239E+02 -0.11420962663E+02  0.48914691852E+02  0.52285209839E+02  0.10566000000E+00 0.  1.
        994    1    1    2    0    0  0.29832050339E+01  0.87092549305E+01  0.38028702623E+01  0.17148951121E+03  0.17120000000E+03 0.  0.
        998    1    1    2    0    0 -0.17496872273E+02  0.27117077326E+01  0.14472824342E+04  0.14474252789E+04  0.10000000000E+02 0.  1.
</event>
<event>
 5    1  0.1247473E-008  0.3712294E+03  0.7957747E-01  0.3490260E+00
         13   -1    0    0    0    0  0.00000000000E+00  0.00000000000E+00  0.14999999963E+04  0.15000000000E+04  0.10566000000E+00 0.  1.
        994   -1    0    0    0    0 -0.00000000000E+00 -0.00000000000E+00  0.11368683772E-12  0.17120000000E+03  0.17120000000E+03 0.  0.
         13    1    1    2    0    0  0.55067353446E+02 -0.55187736257E+02  0.29998810292E+03  0.30995317825E+03  0.10566000000E+00 0.  1.
        994    1    1    2    0    0 -0.42663992144E+02 -0.10484671734E+02  0.18398105638E+02  0.17770220837E+03  0.17120000000E+03 0.  0.
        998    1    1    2    0    0 -0.12403361302E+02  0.65672407991E+02  0.11816137877E+04  0.11835446134E+04  0.10000000000E+02 0. -1.
</event>
<event>
 5    1  0.1247473E-008  0.3847267E+03  0.7957747E-01  0.3430832E+00
         13   -1    0    0    0    0  0.00000000000E+00  0.00000000000E+00  0.14999999963E+04  0.15000000000E+04  0.10566000000E+00 0.  1.
        994   -1    0    0    0    0 -0.00000000000E+00 -0.00000000000E+00  0.11368683772E-12  0.17120000000E+03  0.17120000000E+03 0.  0.
         13    1    1    2    0    0  0.11694160439E+01 -0.10976049835E+02  0.33465554710E+02  0.35239122008E+02  0.10566000000E+00 0.  1.
        994    1    1    2    0    0  0.53132122292E+00  0.12485274050E+02  0.22800999416E+01  0.17167062424E+03  0.17120000000E+03 0.  0.
        998    1    1    2    0    0 -0.17007372668E+01 -0.15092242154E+01  0.14642543416E+04  0.14642902538E+04  0.10000000000E+02 0.  1.
</event>
<event>
 5    1  0.1291512E-008  0.3847338E+03  0.7957747E-01  0.3430802E+00
         13   -1    0    0    0    0  0.00000000000E+00  0.00000000000E+00  0.14999999963E+04  0.15000000000E+04  0.10566000000E+00 0.  1.
        994   -1    0    0    0    0 -0.00000000000E+00 -0.00000000000E+00  0.11368683772E-12  0.17120000000E+03  0.17120000000E+03 0.  0.
         13    1    1    2    0    0 -0.32996049063E+01  0.10629896404E+02  0.34988545868E+02  0.36716366869E+02  0.10566000000E+00 0.  1.
        994    1    1    2    0    0 -0.11308223589E+01 -0.74110254725E+01  0.19473678573E+01  0.17137512742E+03  0.17120000000E+03 0.  0.
        998    1    1    2    0    0  0.44304272652E+01 -0.32188709312E+01  0.14630640826E+04  0.14631085057E+04  0.10000000000E+02 0.  1.
</event>
<event>
 5    1  0.1247473E-008  0.3800624E+03  0.7957747E-01  0.3450887E+00
         13   -1    0    0    0    0  0.00000000000E+00  0.00000000000E+00  0.14999999963E+04  0.15000000000E+04  0.10566000000E+00 0.  1.
        994   -1    0    0    0    0 -0.00000000000E+00 -0.00000000000E+00  0.11368683772E-12  0.17120000000E+03  0.17120000000E+03 0.  0.
         13    1    1    2    0    0  0.26549438641E+02 -0.19601624913E+02  0.14226920283E+03  0.14604668304E+03  0.10566000000E+00 0.  1.
        994    1    1    2    0    0 -0.14526233010E+01  0.95443749444E+01  0.44132430773E+01  0.17152877870E+03  0.17120000000E+03 0.  0.
        998    1    1    2    0    0 -0.25096815340E+02  0.10057249968E+02  0.13533175504E+04  0.13536245383E+04  0.10000000000E+02 0.  1.
</event>
<event>
 5    1  0.1247473E-008  0.3774841E+03  0.7957747E-01  0.3462187E+00
         13   -1    0    0    0    0  0.00000000000E+00  0.00000000000E+00  0.14999999963E+04  0.15000000000E+04  0.10566000000E+00 0. -1.
        994   -1    0    0    0    0 -0.00000000000E+00 -0.00000000000E+00  0.11368683772E-12  0.17120000000E+03  0.17120000000E+03 0.  0.
         13    1    1    2    0    0 -0.27543797679E+02  0.76507906748E+02  0.37784605988E+03  0.38649680039E+03  0.10566000000E+00 0. -1.
        994    1    1    2    0    0  0.36008252363E+02 -0.93369001704E+02  0.39947282636E+02  0.20228591179E+03  0.17120000000E+03 0.  0.
        998    1    1    2    0    0 -0.84644546836E+01  0.16861094955E+02  0.10822066538E+04  0.10824172878E+04  0.10000000000E+02 0. -1.
</event>
<event>
 5    1  0.1247473E-008  0.3842417E+03  0.7957747E-01  0.3432894E+00
         13   -1    0    0    0    0  0.00000000000E+00  0.00000000000E+00  0.14999999963E+04  0.15000000000E+04  0.10566000000E+00 0.  1.
        994   -1    0    0    0    0 -0.00000000000E+00 -0.00000000000E+00  0.11368683772E-12  0.17120000000E+03  0.17120000000E+03 0.  0.
         13    1    1    2    0    0 -0.97686506233E+01  0.78957789306E+01  0.38611629114E+02  0.40603434914E+02  0.10566000000E+00 0.  1.
        994    1    1    2    0    0  0.90189694821E+01 -0.46109757779E+01  0.23453938918E+01  0.17151543307E+03  0.17120000000E+03 0.  0.
        998    1    1    2    0    0  0.74968114120E+00 -0.32848031527E+01  0.14590429733E+04  0.14590811320E+04  0.10000000000E+02 0.  1.
</event>
<event>
 5    1  0.1247473E-008  0.3845686E+03  0.7957747E-01  0.3431504E+00
         13   -1    0    0    0    0  0.00000000000E+00  0.00000000000E+00  0.14999999963E+04  0.15000000000E+04  0.10566000000E+00 0. -1.
        994   -1    0    0    0    0 -0.00000000000E+00 -0.00000000000E+00  0.11368683772E-12  0.17120000000E+03  0.17120000000E+03 0.  0.
         13    1    1    2    0    0  0.11645453468E+02  0.49807581214E+01  0.42917441720E+02  0.44747541897E+02  0.10566000000E+00 0. -1.
        994    1    1    2    0    0 -0.99170095332E+01 -0.18384330120E+01  0.21795745908E+01  0.17151069197E+03  0.17120000000E+03 0.  0.
        998    1    1    2    0    0 -0.17284439352E+01 -0.31423251094E+01  0.14549029800E+04  0.14549417661E+04  0.10000000000E+02 0. -1.
</event>
<event>
 5    1  0.1247473E-008  0.3816134E+03  0.7957747E-01  0.3444163E+00
         13   -1    0    0    0    0  0.00000000000E+00  0.00000000000E+00  0.14999999963E+04  0.15000000000E+04  0.10566000000E+00 0.  1.
        994   -1    0    0    0    0 -0.00000000000E+00 -0.00000000000E+00  0.11368683772E-12  0.17120000000E+03  0.17120000000E+03 0.  0.
         13    1    1    2    0    0  0.20392399599E+02  0.82314963009E+01  0.72742270674E+02  0.75993793165E+02  0.10566000000E+00 0.  1.
        994    1    1    2    0    0 -0.66451169515E+01 -0.12937401517E+02  0.40246368228E+01  0.17186381713E+03  0.17120000000E+03 0.  0.
        998    1    1    2    0    0 -0.13747282648E+02  0.47059052160E+01  0.14232330888E+04  0.14233423897E+04  0.10000000000E+02 0.  1.
</event>
<event>
 5    1  0.1247473E-008  0.3749620E+03  0.7957747E-01  0.3473393E+00
         13   -1    0    0    0    0  0.00000000000E+00  0.00000000000E+00  0.14999999963E+04  0.15000000000E+04  0.10566000000E+00 0. -1.
        994   -1    0    0    0    0 -0.00000000000E+00 -0.00000000000E+00  0.11368683772E-12  0.17120000000E+03  0.17120000000E+03 0.  0.
         13    1    1    2    0    0 -0.29597626107E+02 -0.21556241537E+02  0.11224644642E+03  0.11806763705E+03  0.10566000000E+00 0. -1.
        994    1    1    2    0    0 -0.88512828016E+01 -0.21590410157E+01  0.69804677684E+01  0.17158430463E+03  0.17120000000E+03 0.  0.
        998    1    1    2    0    0  0.38448908909E+02  0.23715282553E+02  0.13807730821E+04  0.13815480583E+04  0.10000000000E+02 0. -1.
</event>
<event>
 5    1  0.1247473E-008  0.3710697E+03  0.7957747E-01  0.3490989E+00
         13   -1    0    0    0    0  0.00000000000E+00  0.00000000000E+00  0.14999999963E+04  0.15000000000E+04  0.10566000000E+00 0. -1.
        994   -1    0    0    0    0 -0.00000000000E+00 -0.00000000000E+00  0.11368683772E-12  0.17120000000E+03  0.17120000000E+03 0.  0.
         13    1    1    2    0    0 -0.48883013346E-01  0.18151415833E+02  0.15287527891E+02  0.23731750027E+02  0.10566000000E+00 0. -1.
        994    1    1    2    0    0 -0.24992459116E+01 -0.80690855682E+01  0.89568719986E+01  0.17164213331E+03  0.17120000000E+03 0.  0.
        998    1    1    2    0    0  0.25481289250E+01 -0.10082330264E+02  0.14757555964E+04  0.14758261167E+04  0.10000000000E+02 0. -1.
</event>
<event>
 5    1  0.1247473E-008  0.3725584E+03  0.7957747E-01  0.3484215E+00
         13   -1    0    0    0    0  0.00000000000E+00  0.00000000000E+00  0.14999999963E+04  0.15000000000E+04  0.10566000000E+00 0. -1.
        994   -1    0    0    0    0 -0.00000000000E+00 -0.00000000000E+00  0.11368683772E-12  0.17120000000E+03  0.17120000000E+03 0.  0.
         13    1    1    2    0    0 -0.34167320206E+02 -0.51836906048E+02  0.19742139081E+03  0.20695334573E+03  0.10566000000E+00 0. -1.
        994    1    1    2    0    0  0.51471353359E+02  0.52843175755E+02  0.26825711583E+02  0.18833682657E+03  0.17120000000E+03 0.  0.
        998    1    1    2    0    0 -0.17304033153E+02 -0.10062697067E+01  0.12757528939E+04  0.12759098277E+04  0.10000000000E+02 0. -1.
</event>
<event>
 5    1  0.1489607E-008  0.3860102E+03  0.7957747E-01  0.3425399E+00
         13   -1    0    0    0    0  0.00000000000E+00  0.00000000000E+00  0.14999999963E+04  0.15000000000E+04  0.10566000000E+00 0. -1.
        994   -1    0    0    0    0 -0.00000000000E+00 -0.00000000000E+00  0.11368683772E-12  0.17120000000E+03  0.17120000000E+03 0.  0.
         13    1    1    2    0    0  0.98666428982E+01 -0.53987195356E+01  0.61005397644E+02  0.62033591871E+02  0.10566000000E+00 0. -1.
        994    1    1    2    0    0  0.36731073485E+01  0.17717526095E+01  0.11839449731E+01  0.17125265706E+03  0.17120000000E+03 0.  0.
        998    1    1    2    0    0 -0.13539750247E+02  0.36269669261E+01  0.14378106537E+04  0.14379137511E+04  0.10000000000E+02 0. -1.
</event>
<event>
 5    1  0.1247473E-008  0.3834827E+03  0.7957747E-01  0.3436133E+00
         13   -1    0    0    0    0  0.00000000000E+00  0.00000000000E+00  0.14999999963E+04  0.15000000000E+04  0.10566000000E+00 0. -1.
        994   -1    0    0    0    0 -0.00000000000E+00 -0.00000000000E+00  0.11368683772E-12  0.17120000000E+03  0.17120000000E+03 0.  0.
         13    1    1    2    0    0  0.15140289772E+02 -0.13094216181E+02  0.90097130669E+02  0.92294046344E+02  0.10566000000E+00 0. -1.
        994    1    1    2    0    0  0.14637288676E+02  0.18604436378E+02  0.42394907914E+01  0.17288085075E+03  0.17120000000E+03 0.  0.
        998    1    1    2    0    0 -0.29777578448E+02 -0.55102201974E+01  0.14056633748E+04  0.14060251029E+04  0.10000000000E+02 0. -1.
</event>
<event>
 5    1  0.1247473E-008  0.3778306E+03  0.7957747E-01  0.3460659E+00
         13   -1    0    0    0    0  0.00000000000E+00  0.00000000000E+00  0.14999999963E+04  0.15000000000E+04  0.10566000000E+00 0. -1.
        994   -1    0    0    0    0 -0.00000000000E+00 -0.00000000000E+00  0.11368683772E-12  0.17120000000E+03  0.17120000000E+03 0.  0.
         13    1    1    2    0    0  0.98276889945E+02 -0.35020118746E+02  0.43765616603E+03  0.44991964465E+03  0.10566000000E+00 0. -1.
        994    1    1    2    0    0 -0.34949597106E+02 -0.30884777101E+01  0.19578918964E+02  0.17585160534E+03  0.17120000000E+03 0.  0.
        998    1    1    2    0    0 -0.63327292839E+02  0.38108596456E+02  0.10427649113E+04  0.10454287500E+04  0.10000000000E+02 0. -1.
</event>
<event>
 5    1  0.1247473E-008  0.3730256E+03  0.7957747E-01  0.3482100E+00
         13   -1    0    0    0    0  0.00000000000E+00  0.00000000000E+00  0.14999999963E+04  0.15000000000E+04  0.10566000000E+00 0. -1.
        994   -1    0    0    0    0 -0.00000000000E+00 -0.00000000000E+00  0.11368683772E-12  0.17120000000E+03  0.17120000000E+03 0.  0.
         13    1    1    2    0    0 -0.54374607908E+02  0.94078172065E+02  0.51843403685E+03  0.52969912420E+03  0.10566000000E+00 0. -1.
        994    1    1    2    0    0  0.50862387119E+02 -0.89557679783E+02  0.44914689802E+02  0.20477873374E+03  0.17120000000E+03 0.  0.
        998    1    1    2    0    0  0.35122207891E+01 -0.45204922820E+01  0.93665126963E+03  0.93672214207E+03  0.10000000000E+02 0. -1.
</event>
<event>
 5    1  0.1247473E-008  0.4411127E+03  0.7957747E-01  0.3221764E+00
         13   -1    0    0    0    0  0.00000000000E+00  0.00000000000E+00  0.14999999963E+04  0.15000000000E+04  0.10566000000E+00 0. -1.
        994   -1    0    0    0    0 -0.00000000000E+00 -0.00000000000E+00  0.11368683772E-12  0.17120000000E+03  0.17120000000E+03 0.  0.
         13    1    1    2    0    0  0.10233463783E+01 -0.67208571280E+02  0.29261501918E+02  0.73309521550E+02  0.10566000000E+00 0. -1.
        994    1    1    2    0    0  0.38145842695E+02 -0.21000165524E+02  0.64118031324E+02  0.18792731097E+03  0.17120000000E+03 0.  0.
        998    1    1    2    0    0 -0.39169189073E+02  0.88208736804E+02  0.14066204630E+04  0.14099631675E+04  0.10000000000E+02 0. -1.
</event>
<event>
 5    1  0.1247473E-008  0.3795210E+03  0.7957747E-01  0.3453247E+00
         13   -1    0    0    0    0  0.00000000000E+00  0.00000000000E+00  0.14999999963E+04  0.15000000000E+04  0.10566000000E+00 0. -1.
        994   -1    0    0    0    0 -0.00000000000E+00 -0.00000000000E+00  0.11368683772E-12  0.17120000000E+03  0.17120000000E+03 0.  0.
         13    1    1    2    0    0  0.55774259942E+01  0.95795376637E+01  0.11995857585E+02  0.16333615209E+02  0.10566000000E+00 0. -1.
        994    1    1    2    0    0 -0.52196451540E+01 -0.11317842345E+02  0.48953956122E+01  0.17172286729E+03  0.17120000000E+03 0.  0.
        998    1    1    2    0    0 -0.35778084020E+00  0.17383046814E+01  0.14831087431E+04  0.14831435175E+04  0.10000000000E+02 0. -1.
</event>
<event>
 5    1  0.1247473E-008  0.3795322E+03  0.7957747E-01  0.3453198E+00
         13   -1    0    0    0    0  0.00000000000E+00  0.00000000000E+00  0.14999999963E+04  0.15000000000E+04  0.10566000000E+00 0.  1.
        994   -1    0    0    0    0 -0.00000000000E+00 -0.00000000000E+00  0.11368683772E-12  0.17120000000E+03  0.17120000000E+03 0.  0.
         13    1    1    2    0    0  0.19080560134E+01 -0.11719469729E+02  0.14289019244E+02  0.18578855817E+02  0.10566000000E+00 0.  1.
        994    1    1    2    0    0 -0.20487251543E+01  0.68943075068E+01  0.45426704178E+01  0.17141121493E+03  0.17120000000E+03 0.  0.
        998    1    1    2    0    0  0.14066914084E+00  0.48251622221E+01  0.14811683066E+04  0.14812099292E+04  0.10000000000E+02 0.  1.
</event>
<event>
 5    1  0.1247473E-008  0.3831977E+03  0.7957747E-01  0.3437352E+00
         13   -1    0    0    0    0  0.00000000000E+00  0.00000000000E+00  0.14999999963E+04  0.15000000000E+04  0.10566000000E+00 0. -1.
        994   -1    0    0    0    0 -0.00000000000E+00 -0.00000000000E+00  0.11368683772E-12  0.17120000000E+03  0.17120000000E+03 0.  0.
         13    1    1    2    0    0  0.10704979594E+02  0.19482605184E+02  0.91220746000E+02  0.93890383734E+02  0.10566000000E+00 0. -1.
        994    1    1    2    0    0 -0.14039552340E+02 -0.19829680883E+02  0.44828250914E+01  0.17297358467E+03  0.17120000000E+03 0.  0.
        998    1    1    2    0    0  0.33345727462E+01  0.34707569928E+00  0.14042964252E+04  0.14043360316E+04  0.10000000000E+02 0. -1.
</event>
<event>
 5    1  0.1247473E-008  0.3776318E+03  0.7957747E-01  0.3461536E+00
         13   -1    0    0    0    0  0.00000000000E+00  0.00000000000E+00  0.14999999963E+04  0.15000000000E+04  0.10566000000E+00 0. -1.
        994   -1    0    0    0    0 -0.00000000000E+00 -0.00000000000E+00  0.11368683772E-12  0.17120000000E+03  0.17120000000E+03 0.  0.
         13    1    1    2    0    0  0.38971542841E+02  0.14080749323E+03  0.86064843132E+03  0.87296120463E+03  0.10566000000E+00 0. -1.
        994    1    1    2    0    0 -0.24744210619E+02 -0.14012170795E+03  0.76902121503E+02  0.23552015899E+03  0.17120000000E+03 0.  0.
        998    1    1    2    0    0 -0.14227332222E+02 -0.68578528040E+00  0.56244944346E+03  0.56271863638E+03  0.10000000000E+02 0.  0.
</event>
<event>
 5    1  0.1247473E-008  0.3821979E+03  0.7957747E-01  0.3441644E+00
         13   -1    0    0    0    0  0.00000000000E+00  0.00000000000E+00  0.14999999963E+04  0.15000000000E+04  0.10566000000E+00 0. -1.
        994   -1    0    0    0    0 -0.00000000000E+00 -0.00000000000E+00  0.11368683772E-12  0.17120000000E+03  0.17120000000E+03 0.  0.
         13    1    1    2    0    0  0.10396026037E+02 -0.90638875512E+01  0.29555482689E+02  0.32615473872E+02  0.10566000000E+00 0. -1.
        994    1    1    2    0    0 -0.15279029949E+02  0.80699029485E+01  0.40192740451E+01  0.17211672392E+03  0.17120000000E+03 0.  0.
        998    1    1    2    0    0  0.48830039121E+01  0.99398460266E+00  0.14664252395E+04  0.14664678022E+04  0.10000000000E+02 0. -1.
</event>
<event>
 5    1  0.1247473E-008  0.3834162E+03  0.7957747E-01  0.3436417E+00
         13   -1    0    0    0    0  0.00000000000E+00  0.00000000000E+00  0.14999999963E+04  0.15000000000E+04  0.10566000000E+00 0.  1.
        994   -1    0    0    0    0 -0.00000000000E+00 -0.00000000000E+00  0.11368683772E-12  0.17120000000E+03  0.17120000000E+03 0.  0.
         13    1    1    2    0    0 -0.12177185374E+02 -0.16668609056E+02  0.81783662618E+02  0.84348710759E+02  0.10566000000E+00 0.  1.
        994    1    1    2    0    0  0.19114400872E+02  0.16483653089E+02  0.45272576095E+01  0.17310981255E+03  0.17120000000E+03 0.  0.
        998    1    1    2    0    0 -0.69372154972E+01  0.18495596678E+00  0.14136890761E+04  0.14137414767E+04  0.10000000000E+02 0.  1.
</event>
<event>
 5    1  0.1247473E-008  0.3860890E+03  0.7957747E-01  0.3425067E+00
         13   -1    0    0    0    0  0.00000000000E+00  0.00000000000E+00  0.14999999963E+04  0.15000000000E+04  0.10566000000E+00 0. -1.
        994   -1    0    0    0    0 -0.00000000000E+00 -0.00000000000E+00  0.11368683772E-12  0.17120000000E+03  0.17120000000E+03 0.  0.
         13    1    1    2    0    0  0.11833119577E+02  0.43994467341E+01  0.70608448784E+02  0.71728251437E+02  0.10566000000E+00 0. -1.
        994    1    1    2    0    0 -0.13561421870E+02 -0.46203045144E+01  0.17633608609E+01  0.17180747603E+03  0.17120000000E+03 0.  0.
        998    1    1    2    0    0  0.17283022923E+01  0.22085778029E+00  0.14276281866E+04  0.14276642725E+04  0.10000000000E+02 0. -1.
</event>
<event>
 5    1  0.1247473E-008  0.3820759E+03  0.7957747E-01  0.3442169E+00
         13   -1    0    0    0    0  0.00000000000E+00  0.00000000000E+00  0.14999999963E+04  0.15000000000E+04  0.10566000000E+00 0. -1.
        994   -1    0    0    0    0 -0.00000000000E+00 -0.00000000000E+00  0.11368683772E-12  0.17120000000E+03  0.17120000000E+03 0.  0.
         13    1    1    2    0    0  0.55581832239E+01 -0.12375911454E+02  0.29078836645E+02  0.32088105113E+02  0.10566000000E+00 0. -1.
        994    1    1    2    0    0 -0.75659915454E+00  0.49992738113E+01  0.31737714290E+01  0.17130405134E+03  0.17120000000E+03 0.  0.
        998    1    1    2    0    0 -0.48015840694E+01  0.73766376428E+01  0.14677473882E+04  0.14678078435E+04  0.10000000000E+02 0. -1.
</event>
<event>
 5    1  0.1247473E-008  0.3804213E+03  0.7957747E-01  0.3449326E+00
         13   -1    0    0    0    0  0.00000000000E+00  0.00000000000E+00  0.14999999963E+04  0.15000000000E+04  0.10566000000E+00 0. -1.
        994   -1    0    0    0    0 -0.00000000000E+00 -0.00000000000E+00  0.11368683772E-12  0.17120000000E+03  0.17120000000E+03 0.  0.
         13    1    1    2    0    0 -0.29135982518E+02  0.12585157065E+02  0.11962808555E+03  0.12376664200E+03  0.10566000000E+00 0. -1.
        994    1    1    2    0    0  0.28465312074E+02 -0.88478135136E+01  0.68925534038E+01  0.17391234887E+03  0.17120000000E+03 0.  0.
        998    1    1    2    0    0  0.67067044387E+00 -0.37373435518E+01  0.13734793573E+04  0.13735210091E+04  0.10000000000E+02 0. -1.
</event>
<event>
 5    1  0.1247473E-008  0.3818485E+03  0.7957747E-01  0.3443149E+00
         13   -1    0    0    0    0  0.00000000000E+00  0.00000000000E+00  0.14999999963E+04  0.15000000000E+04  0.10566000000E+00 0.  1.
        994   -1    0    0    0    0 -0.00000000000E+00 -0.00000000000E+00  0.11368683772E-12  0.17120000000E+03  0.17120000000E+03 0.  0.
         13    1    1    2    0    0  0.47824096936E+01  0.34926788298E+02  0.14717650290E+03  0.15133963841E+03  0.10566000000E+00 0.  1.
        994    1    1    2    0    0 -0.47697749727E+02 -0.56964531297E+02  0.21766214726E+02  0.18789156782E+03  0.17120000000E+03 0.  0.
        998    1    1    2    0    0  0.42915340034E+02  0.22037742999E+02  0.13310572787E+04  0.13319687938E+04  0.10000000000E+02 0.  1.
</event>
<event>
 5    1  0.1247473E-008  0.3859898E+03  0.7957747E-01  0.3425485E+00
         13   -1    0    0    0    0  0.00000000000E+00  0.00000000000E+00  0.14999999963E+04  0.15000000000E+04  0.10566000000E+00 0.  1.
        994   -1    0    0    0    0 -0.00000000000E+00 -0.00000000000E+00  0.11368683772E-12  0.17120000000E+03  0.17120000000E+03 0.  0.
         13    1    1    2    0    0  0.47959392482E+00 -0.11575351662E+02  0.57433461414E+02  0.58590378309E+02  0.10566000000E+00 0.  1.
        994    1    1    2    0    0  0.20261291104E+01  0.13079730279E+02  0.17140077115E+01  0.17171942920E+03  0.17120000000E+03 0.  0.
        998    1    1    2    0    0 -0.25057230352E+01 -0.15043786167E+01  0.14408525272E+04  0.14408901925E+04  0.10000000000E+02 0.  1.
</event>
<event>
 5    1  0.1247473E-008  0.3862415E+03  0.7957747E-01  0.3424424E+00
         13   -1    0    0    0    0  0.00000000000E+00  0.00000000000E+00  0.14999999963E+04  0.15000000000E+04  0.10566000000E+00 0. -1.
        994   -1    0    0    0    0 -0.00000000000E+00 -0.00000000000E+00  0.11368683772E-12  0.17120000000E+03  0.17120000000E+03 0.  0.
         13    1    1    2    0    0 -0.42529303667E+01  0.10071041986E+02  0.63123706144E+02  0.64063458732E+02  0.10566000000E+00 0. -1.
        994    1    1    2    0    0 -0.99474910689E+01 -0.50250926711E+01  0.14219399036E+01  0.17156825478E+03  0.17120000000E+03 0.  0.
        998    1    1    2    0    0  0.14200421436E+02 -0.50459493148E+01  0.14354543502E+04  0.14355682865E+04  0.10000000000E+02 0. -1.
</event>
<event>
 5    1  0.1247473E-008  0.3830215E+03  0.7957747E-01  0.3438107E+00
         13   -1    0    0    0    0  0.00000000000E+00  0.00000000000E+00  0.14999999963E+04  0.15000000000E+04  0.10566000000E+00 0. -1.
        994   -1    0    0    0    0 -0.00000000000E+00 -0.00000000000E+00  0.11368683772E-12  0.17120000000E+03  0.17120000000E+03 0.  0.
         13    1    1    2    0    0  0.11513530937E+02 -0.13265405271E+01  0.24350665131E+02  0.26968262101E+02  0.10566000000E+00 0. -1.
        994    1    1    2    0    0 -0.12409323543E+02  0.50774581452E+01  0.32108472786E+01  0.17175424720E+03  0.17120000000E+03 0.  0.
        998    1    1    2    0    0  0.89579260596E+00 -0.37509176181E+01  0.14724384839E+04  0.14724774907E+04  0.10000000000E+02 0. -1.
</event>
<event>
 5    1  0.1247473E-008  0.3330638E+03  0.7957747E-01  0.3685016E+00
         13   -1    0    0    0    0  0.00000000000E+00  0.00000000000E+00  0.14999999963E+04  0.15000000000E+04  0.10566000000E+00 0.  1.
        994   -1    0    0    0    0 -0.00000000000E+00 -0.00000000000E+00  0.11368683772E-12  0.17120000000E+03  0.17120000000E+03 0.  0.
         13    1    1    2    0    0  0.34835188137E+00 -0.28070981142E+03  0.60810032600E+03  0.66976424003E+03  0.10566000000E+00 0.  1.
        994    1    1    2    0    0  0.15251677095E+02  0.27533538686E+03  0.42809923143E+03  0.53723419555E+03  0.17120000000E+03 0.  0.
        998    1    1    2    0    0 -0.15600028976E+02  0.53744245627E+01  0.46380043884E+03  0.46420156442E+03  0.10000000000E+02 0.  1.
</event>
<event>
 5    1  0.1247473E-008  0.3801151E+03  0.7957747E-01  0.3450657E+00
         13   -1    0    0    0    0  0.00000000000E+00  0.00000000000E+00  0.14999999963E+04  0.15000000000E+04  0.10566000000E+00 0. -1.
        994   -1    0    0    0    0 -0.00000000000E+00 -0.00000000000E+00  0.11368683772E-12  0.17120000000E+03  0.17120000000E+03 0.  0.
         13    1    1    2    0    0  0.66681302481E+01  0.85870841753E+01  0.12667944074E+02  0.16694009307E+02  0.10566000000E+00 0. -1.
        994    1    1    2    0    0 -0.70446867143E+01 -0.70600348984E+01  0.44075092342E+01  0.17154689692E+03  0.17120000000E+03 0.  0.
        998    1    1    2    0    0  0.37655646621E+00 -0.15270492769E+01  0.14829245430E+04  0.14829590938E+04  0.10000000000E+02 0. -1.
</event>
<event>
 5    1  0.1247473E-008  0.3826264E+03  0.7957747E-01  0.3439802E+00
         13   -1    0    0    0    0  0.00000000000E+00  0.00000000000E+00  0.14999999963E+04  0.15000000000E+04  0.10566000000E+00 0.  1.
        994   -1    0    0    0    0 -0.00000000000E+00 -0.00000000000E+00  0.11368683772E-12  0.17120000000E+03  0.17120000000E+03 0.  0.
         13    1    1    2    0    0 -0.30698472340E+02 -0.54330299293E+02  0.87914003104E+02  0.10781029974E+03  0.10566000000E+00 0.  1.
        994    1    1    2    0    0  0.67517989964E+02  0.70674390563E+02  0.53632581133E+02  0.20430233041E+03  0.17120000000E+03 0.  0.
        998    1    1    2    0    0 -0.36819517624E+02 -0.16344091271E+02  0.13584534120E+04  0.13590873698E+04  0.10000000000E+02 0.  1.
</event>
<event>
 5    1  0.1247473E-008  0.3804257E+03  0.7957747E-01  0.3449307E+00
         13   -1    0    0    0    0  0.00000000000E+00  0.00000000000E+00  0.14999999963E+04  0.15000000000E+04  0.10566000000E+00 0.  1.
        994   -1    0    0    0    0 -0.00000000000E+00 -0.00000000000E+00  0.11368683772E-12  0.17120000000E+03  0.17120000000E+03 0.  0.
         13    1    1    2    0    0  0.65224736434E+02 -0.32562377592E+02  0.15235308645E+03  0.16889656241E+03  0.10566000000E+00 0.  1.
        994    1    1    2    0    0 -0.55874793108E+02  0.34077051127E+01  0.28022871813E+02  0.18228638540E+03  0.17120000000E+03 0.  0.
        998    1    1    2    0    0 -0.93499433263E+01  0.29154672480E+02  0.13196240380E+04  0.13200170522E+04  0.10000000000E+02 0.  1.
</event>
<event>
 5    1  0.1247473E-008  0.3734956E+03  0.7957747E-01  0.3479978E+00
         13   -1    0    0    0    0  0.00000000000E+00  0.00000000000E+00  0.14999999963E+04  0.15000000000E+04  0.10566000000E+00 0. -1.
        994   -1    0    0    0    0 -0.00000000000E+00 -0.00000000000E+00  0.11368683772E-12  0.17120000000E+03  0.17120000000E+03 0.  0.
         13    1    1    2    0    0 -0.43726963062E+01  0.13594202763E+02  0.10296727034E+02  0.17605583586E+02  0.10566000000E+00 0. -1.
        994    1    1    2    0    0  0.61221509652E+01 -0.10922752936E+02  0.79891459465E+01  0.17184310785E+03  0.17120000000E+03 0.  0.
        998    1    1    2    0    0 -0.17494546590E+01 -0.26714498269E+01  0.14817141233E+04  0.14817513086E+04  0.10000000000E+02 0. -1.
</event>
<event>
 5    1  0.1247473E-008  0.3759932E+03  0.7957747E-01  0.3468793E+00
         13   -1    0    0    0    0  0.00000000000E+00  0.00000000000E+00  0.14999999963E+04  0.15000000000E+04  0.10566000000E+00 0.  1.
        994   -1    0    0    0    0 -0.00000000000E+00 -0.00000000000E+00  0.11368683772E-12  0.17120000000E+03  0.17120000000E+03 0.  0.
         13    1    1    2    0    0  0.17369366085E+02  0.47003172143E+02  0.19146453418E+03  0.19791329435E+03  0.10566000000E+00 0.  1.
        994    1    1    2    0    0 -0.50994298561E+00 -0.39999341774E+02  0.11610123450E+02  0.17619433121E+03  0.17120000000E+03 0.  0.
        998    1    1    2    0    0 -0.16859423099E+02 -0.70038303692E+01  0.12969253387E+04  0.12970923744E+04  0.10000000000E+02 0.  1.
</event>
<event>
 5    1  0.1247473E-008  0.3814177E+03  0.7957747E-01  0.3445009E+00
         13   -1    0    0    0    0  0.00000000000E+00  0.00000000000E+00  0.14999999963E+04  0.15000000000E+04  0.10566000000E+00 0.  1.
        994   -1    0    0    0    0 -0.00000000000E+00 -0.00000000000E+00  0.11368683772E-12  0.17120000000E+03  0.17120000000E+03 0.  0.
         13    1    1    2    0    0  0.11022783989E+02  0.13902411987E+02  0.47091775600E+02  0.50323208553E+02  0.10566000000E+00 0.  1.
        994    1    1    2    0    0  0.82578328698E+01 -0.54878554141E+01  0.37464038897E+01  0.17152779338E+03  0.17120000000E+03 0.  0.
        998    1    1    2    0    0 -0.19280616859E+02 -0.84145565725E+01  0.14491618168E+04  0.14493489981E+04  0.10000000000E+02 0.  1.
</event>
<event>
 5    1  0.1247473E-008  0.3767643E+03  0.7957747E-01  0.3465370E+00
         13   -1    0    0    0    0  0.00000000000E+00  0.00000000000E+00  0.14999999963E+04  0.15000000000E+04  0.10566000000E+00 0. -1.
        994   -1    0    0    0    0 -0.00000000000E+00 -0.00000000000E+00  0.11368683772E-12  0.17120000000E+03  0.17120000000E+03 0.  0.
         13    1    1    2    0    0  0.66978914936E+02  0.62416880864E+02  0.26674347193E+03  0.28201796582E+03  0.10566000000E+00 0. -1.
        994    1    1    2    0    0 -0.45443636757E+02 -0.48663040499E+02  0.30612576820E+02  0.18622509361E+03  0.17120000000E+03 0.  0.
        998    1    1    2    0    0 -0.21535278179E+02 -0.13753840365E+02  0.12026439475E+04  0.12029569406E+04  0.10000000000E+02 0. -1.
</event>
<event>
 5    1  0.1247473E-008  0.3820821E+03  0.7957747E-01  0.3442142E+00
         13   -1    0    0    0    0  0.00000000000E+00  0.00000000000E+00  0.14999999963E+04  0.15000000000E+04  0.10566000000E+00 0.  1.
        994   -1    0    0    0    0 -0.00000000000E+00 -0.00000000000E+00  0.11368683772E-12  0.17120000000E+03  0.17120000000E+03 0.  0.
         13    1    1    2    0    0  0.13864425488E+02  0.28900224540E+01  0.31632701993E+02  0.34658527426E+02  0.10566000000E+00 0.  1.
        994    1    1    2    0    0 -0.44239900740E+01 -0.14611009975E+02  0.38599242319E+01  0.17192263468E+03  0.17120000000E+03 0.  0.
        998    1    1    2    0    0 -0.94404354143E+01  0.11720987521E+02  0.14645073701E+04  0.14646188379E+04  0.10000000000E+02 0.  1.
</event>
<event>
 5    1  0.1247473E-008  0.3751005E+03  0.7957747E-01  0.3472773E+00
         13   -1    0    0    0    0  0.00000000000E+00  0.00000000000E+00  0.14999999963E+04  0.15000000000E+04  0.10566000000E+00 0.  1.
        994   -1    0    0    0    0 -0.00000000000E+00 -0.00000000000E+00  0.11368683772E-12  0.17120000000E+03  0.17120000000E+03 0.  0.
         13    1    1    2    0    0  0.19331796686E+01  0.52636753531E+02  0.17812497603E+03  0.18574951752E+03  0.10566000000E+00 0.  1.
        994    1    1    2    0    0  0.18604802053E+01 -0.57983176513E+02  0.18150473805E+02  0.18167110349E+03  0.17120000000E+03 0.  0.
        998    1    1    2    0    0 -0.37936598738E+01  0.53464229819E+01  0.13037245464E+04  0.13037793790E+04  0.10000000000E+02 0.  1.
</event>
<event>
 5    1  0.1247473E-008  0.3812924E+03  0.7957747E-01  0.3445550E+00
         13   -1    0    0    0    0  0.00000000000E+00  0.00000000000E+00  0.14999999963E+04  0.15000000000E+04  0.10566000000E+00 0. -1.
        994   -1    0    0    0    0 -0.00000000000E+00 -0.00000000000E+00  0.11368683772E-12  0.17120000000E+03  0.17120000000E+03 0.  0.
         13    1    1    2    0    0 -0.14784732557E+02 -0.35871899420E+02  0.21676121572E+03  0.22020630620E+03  0.10566000000E+00 0. -1.
        994    1    1    2    0    0  0.52179739317E+01  0.20997820272E+02  0.50419851341E+01  0.17263544631E+03  0.17120000000E+03 0.  0.
        998    1    1    2    0    0  0.95667586256E+01  0.14874079147E+02  0.12781967954E+04  0.12783582475E+04  0.10000000000E+02 0. -1.
</event>
<event>
 5    1  0.1247473E-008  0.3851896E+03  0.7957747E-01  0.3428868E+00
         13   -1    0    0    0    0  0.00000000000E+00  0.00000000000E+00  0.14999999963E+04  0.15000000000E+04  0.10566000000E+00 0. -1.
        994   -1    0    0    0    0 -0.00000000000E+00 -0.00000000000E+00  0.11368683772E-12  0.17120000000E+03  0.17120000000E+03 0.  0.
         13    1    1    2    0    0 -0.12766477571E+02  0.12951701535E+00  0.54030370296E+02  0.55518391571E+02  0.10566000000E+00 0. -1.
        994    1    1    2    0    0  0.57951236217E+01  0.64780087718E+01  0.17843666498E+01  0.17142978743E+03  0.17120000000E+03 0.  0.
        998    1    1    2    0    0  0.69713539496E+01 -0.66075257872E+01  0.14441852593E+04  0.14442518210E+04  0.10000000000E+02 0. -1.
</event>
<event>
 5    1  0.1247473E-008  0.3811611E+03  0.7957747E-01  0.3446118E+00
         13   -1    0    0    0    0  0.00000000000E+00  0.00000000000E+00  0.14999999963E+04  0.15000000000E+04  0.10566000000E+00 0.  1.
        994   -1    0    0    0    0 -0.00000000000E+00 -0.00000000000E+00  0.11368683772E-12  0.17120000000E+03  0.17120000000E+03 0.  0.
         13    1    1    2    0    0 -0.12343598204E+02  0.52631919882E+02  0.32249936339E+03  0.32699898159E+03  0.10566000000E+00 0.  1.
        994    1    1    2    0    0 -0.10345808664E+00 -0.56713072379E+02  0.14334275074E+02  0.18091792262E+03  0.17120000000E+03 0.  0.
        998    1    1    2    0    0  0.12447056291E+02  0.40811524965E+01  0.11631663578E+04  0.11632830958E+04  0.10000000000E+02 0.  1.
</event>
<event>
 5    1  0.1247473E-008  0.3812375E+03  0.7957747E-01  0.3445788E+00
         13   -1    0    0    0    0  0.00000000000E+00  0.00000000000E+00  0.14999999963E+04  0.15000000000E+04  0.10566000000E+00 0. -1.
        994   -1    0    0    0    0 -0.00000000000E+00 -0.00000000000E+00  0.11368683772E-12  0.17120000000E+03  0.17120000000E+03 0.  0.
         13    1    1    2    0    0  0.83186015289E+01  0.11987831724E+02  0.28784501803E+02  0.32271751563E+02  0.10566000000E+00 0. -1.
        994    1    1    2    0    0 -0.66991378460E+01 -0.10040242752E+02  0.39949536832E+01  0.17167144369E+03  0.17120000000E+03 0.  0.
        998    1    1    2    0    0 -0.16194636829E+01 -0.19475889722E+01  0.14672205408E+04  0.14672568048E+04  0.10000000000E+02 0. -1.
</event>
<event>
 5    1  0.1247473E-008  0.4085797E+03  0.7957747E-01  0.3335436E+00
         13   -1    0    0    0    0  0.00000000000E+00  0.00000000000E+00  0.14999999963E+04  0.15000000000E+04  0.10566000000E+00 0.  1.
        994   -1    0    0    0    0 -0.00000000000E+00 -0.00000000000E+00  0.11368683772E-12  0.17120000000E+03  0.17120000000E+03 0.  0.
         13    1    1    2    0    0  0.71600118625E+02  0.25664876582E+02  0.73261877779E+02  0.10560576110E+03  0.10566000000E+00 0.  1.
        994    1    1    2    0    0 -0.70471488428E+02 -0.32020878468E+02  0.57758812832E+02  0.19656319035E+03  0.17120000000E+03 0.  0.
        998    1    1    2    0    0 -0.11286301971E+01  0.63560018854E+01  0.13689793057E+04  0.13690310486E+04  0.10000000000E+02 0.  1.
</event>
<event>
 5    1  0.1272599E-008  0.3852687E+03  0.7957747E-01  0.3428533E+00
         13   -1    0    0    0    0  0.00000000000E+00  0.00000000000E+00  0.14999999963E+04  0.15000000000E+04  0.10566000000E+00 0. -1.
        994   -1    0    0    0    0 -0.00000000000E+00 -0.00000000000E+00  0.11368683772E-12  0.17120000000E+03  0.17120000000E+03 0.  0.
         13    1    1    2    0    0  0.11135301621E+02 -0.16877574230E+01  0.42939233516E+02  0.44391805621E+02  0.10566000000E+00 0. -1.
        994    1    1    2    0    0 -0.50546910499E+01  0.15355228140E+01  0.15884829094E+01  0.17128885256E+03  0.17120000000E+03 0.  0.
        998    1    1    2    0    0 -0.60806105714E+01  0.15223460899E+00  0.14554722799E+04  0.14555193418E+04  0.10000000000E+02 0. -1.
</event>
<event>
 5    1  0.1247473E-008  0.3756120E+03  0.7957747E-01  0.3470490E+00
         13   -1    0    0    0    0  0.00000000000E+00  0.00000000000E+00  0.14999999963E+04  0.15000000000E+04  0.10566000000E+00 0.  1.
        994   -1    0    0    0    0 -0.00000000000E+00 -0.00000000000E+00  0.11368683772E-12  0.17120000000E+03  0.17120000000E+03 0.  0.
         13    1    1    2    0    0  0.20480419104E+02  0.11406480789E+02  0.40189195859E+02  0.46526744980E+02  0.10566000000E+00 0.  1.
        994    1    1    2    0    0 -0.16802432171E+02 -0.97283758722E+01  0.76445334092E+01  0.17246692992E+03  0.17120000000E+03 0.  0.
        998    1    1    2    0    0 -0.36779869324E+01 -0.16781049172E+01  0.14521662670E+04  0.14522063251E+04  0.10000000000E+02 0.  1.
</event>
<event>
 5    1  0.1247473E-008  0.3818535E+03  0.7957747E-01  0.3443127E+00
         13   -1    0    0    0    0  0.00000000000E+00  0.00000000000E+00  0.14999999963E+04  0.15000000000E+04  0.10566000000E+00 0.  1.
        994   -1    0    0    0    0 -0.00000000000E+00 -0.00000000000E+00  0.11368683772E-12  0.17120000000E+03  0.17120000000E+03 0.  0.
         13    1    1    2    0    0 -0.24946790232E+02 -0.22325982192E+00  0.10299239971E+03  0.10597092880E+03  0.10566000000E+00 0.  1.
        994    1    1    2    0    0  0.37721838952E+01 -0.59944626802E+00  0.32488944299E+01  0.17127341890E+03  0.17120000000E+03 0.  0.
        998    1    1    2    0    0  0.21174606337E+02  0.82270608994E+00  0.13937587021E+04  0.13939556523E+04  0.10000000000E+02 0.  1.
</event>
<event>
 5    1  0.1247473E-008  0.3858113E+03  0.7957747E-01  0.3426239E+00
         13   -1    0    0    0    0  0.00000000000E+00  0.00000000000E+00  0.14999999963E+04  0.15000000000E+04  0.10566000000E+00 0. -1.
        994   -1    0    0    0    0 -0.00000000000E+00 -0.00000000000E+00  0.11368683772E-12  0.17120000000E+03  0.17120000000E+03 0.  0.
         13    1    1    2    0    0 -0.69865728942E+01 -0.68877110370E+02  0.10634524198E+03  0.12689440567E+03  0.10566000000E+00 0. -1.
        994    1    1    2    0    0  0.13089168341E+02  0.73845257289E+02  0.40693795792E+02  0.19128479649E+03  0.17120000000E+03 0.  0.
        998    1    1    2    0    0 -0.61025954465E+01 -0.49681469187E+01  0.13529609585E+04  0.13530207978E+04  0.10000000000E+02 0. -1.
</event>
<event>
 5    1  0.1247473E-008  0.3825675E+03  0.7957747E-01  0.3440055E+00
         13   -1    0    0    0    0  0.00000000000E+00  0.00000000000E+00  0.14999999963E+04  0.15000000000E+04  0.10566000000E+00 0. -1.
        994   -1    0    0    0    0 -0.00000000000E+00 -0.00000000000E+00  0.11368683772E-12  0.17120000000E+03  0.17120000000E+03 0.  0.
         13    1    1    2    0    0 -0.30272890610E+00 -0.13158267922E+02  0.28890344816E+02  0.31747359687E+02  0.10566000000E+00 0. -1.
        994    1    1    2    0    0  0.22313419569E+01  0.14586749540E+02  0.35647980380E+01  0.17187175432E+03  0.17120000000E+03 0.  0.
        998    1    1    2    0    0 -0.19286130508E+01 -0.14284816179E+01  0.14675448534E+04  0.14675808860E+04  0.10000000000E+02 0. -1.
</event>
<event>
 5    1  0.1247473E-008  0.3686455E+03  0.7957747E-01  0.3502139E+00
         13   -1    0    0    0    0  0.00000000000E+00  0.00000000000E+00  0.14999999963E+04  0.15000000000E+04  0.10566000000E+00 0.  1.
        994   -1    0    0    0    0 -0.00000000000E+00 -0.00000000000E+00  0.11368683772E-12  0.17120000000E+03  0.17120000000E+03 0.  0.
         13    1    1    2    0    0 -0.74709888563E+01  0.87843583700E+01  0.19978288468E+01  0.11703978409E+02  0.10566000000E+00 0.  1.
        994    1    1    2    0    0  0.34970770278E+01 -0.12730380108E+02  0.10584496670E+02  0.17203419339E+03  0.17120000000E+03 0.  0.
        998    1    1    2    0    0  0.39739118285E+01  0.39460217380E+01  0.14874176708E+04  0.14874618282E+04  0.10000000000E+02 0.  1.
</event>
<event>
 5    1  0.1247473E-008  0.2333408E+03  0.7957747E-01  0.4527986E+00
         13   -1    0    0    0    0  0.00000000000E+00  0.00000000000E+00  0.14999999963E+04  0.15000000000E+04  0.10566000000E+00 0. -1.
        994   -1    0    0    0    0 -0.00000000000E+00 -0.00000000000E+00  0.11368683772E-12  0.17120000000E+03  0.17120000000E+03 0.  0.
         13    1    1    2    0    0  0.18459344078E+02  0.16429400955E+03  0.19181170336E+03  0.25322916433E+03  0.10566000000E+00 0. -1.
        994    1    1    2    0    0 -0.60219289469E+02 -0.13587483107E+03  0.18232299290E+03  0.29092859310E+03  0.17120000000E+03 0.  0.
        998    1    1    2    0    0  0.41759945392E+02 -0.28419178485E+02  0.11258653000E+04  0.11270422426E+04  0.10000000000E+02 0. -1.
</event>
<event>
 5    1  0.1247473E-008  0.3748131E+03  0.7957747E-01  0.3474059E+00
         13   -1    0    0    0    0  0.00000000000E+00  0.00000000000E+00  0.14999999963E+04  0.15000000000E+04  0.10566000000E+00 0. -1.
        994   -1    0    0    0    0 -0.00000000000E+00 -0.00000000000E+00  0.11368683772E-12  0.17120000000E+03  0.17120000000E+03 0.  0.
         13    1    1    2    0    0 -0.22369025534E+02 -0.20369380085E+02  0.67493225418E+02  0.73963718064E+02  0.10566000000E+00 0. -1.
        994    1    1    2    0    0  0.19574821441E+02 -0.84100948425E+01  0.83201534797E+01  0.17272107076E+03  0.17120000000E+03 0.  0.
        998    1    1    2    0    0  0.27942040927E+01  0.28779474928E+02  0.14241866174E+04  0.14245152112E+04  0.10000000000E+02 0. -1.
</event>
<event>
 5    1  0.1247473E-008  0.3840779E+03  0.7957747E-01  0.3433593E+00
         13   -1    0    0    0    0  0.00000000000E+00  0.00000000000E+00  0.14999999963E+04  0.15000000000E+04  0.10566000000E+00 0.  1.
        994   -1    0    0    0    0 -0.00000000000E+00 -0.00000000000E+00  0.11368683772E-12  0.17120000000E+03  0.17120000000E+03 0.  0.
         13    1    1    2    0    0  0.10301486178E+02 -0.21772826747E+02  0.14556612703E+03  0.14754553570E+03  0.10566000000E+00 0.  1.
        994    1    1    2    0    0 -0.81429725449E+01  0.59753702129E+01  0.24252195221E+01  0.17151482368E+03  0.17120000000E+03 0.  0.
        998    1    1    2    0    0 -0.21585136332E+01  0.15797456534E+02  0.13520086497E+04  0.13521396406E+04  0.10000000000E+02 0.  1.
</event>
<event>
 5    1  0.1247473E-008  0.3808370E+03  0.7957747E-01  0.3447522E+00
         13   -1    0    0    0    0  0.00000000000E+00  0.00000000000E+00  0.14999999963E+04  0.15000000000E+04  0.10566000000E+00 0. -1.
        994   -1    0    0    0    0 -0.00000000000E+00 -0.00000000000E+00  0.11368683772E-12  0.17120000000E+03  0.17120000000E+03 0.  0.
         13    1    1    2    0    0  0.17238465739E+02  0.21082253933E+01  0.38297338284E+02  0.42051237782E+02  0.10566000000E+00 0. -1.
        994    1    1    2    0    0 -0.18363716757E+02 -0.27209541376E+01  0.48609435016E+01  0.17227216390E+03  0.17120000000E+03 0.  0.
        998    1    1    2    0    0  0.11252510185E+01  0.61272874431E+00  0.14568417145E+04  0.14568765983E+04  0.10000000000E+02 0. -1.
</event>
<event>
 5    1  0.1247473E-008  0.3849965E+03  0.7957747E-01  0.3429687E+00
         13   -1    0    0    0    0  0.00000000000E+00  0.00000000000E+00  0.14999999963E+04  0.15000000000E+04  0.10566000000E+00 0.  1.
        994   -1    0    0    0    0 -0.00000000000E+00 -0.00000000000E+00  0.11368683772E-12  0.17120000000E+03  0.17120000000E+03 0.  0.
         13    1    1    2    0    0 -0.15452456331E+03 -0.16038286343E+03  0.10458549328E+04  0.10693049402E+04  0.10566000000E+00 0.  1.
        994    1    1    2    0    0  0.15956585306E+03  0.18308458749E+03  0.22850688138E+03  0.37484138309E+03  0.17120000000E+03 0.  0.
        998    1    1    2    0    0 -0.50412897454E+01 -0.22701724061E+02  0.22563818209E+03  0.22705367668E+03  0.10000000000E+02 0.  1.
</event>
<event>
 5    1  0.1247473E-008  0.3838523E+03  0.7957747E-01  0.3434554E+00
         13   -1    0    0    0    0  0.00000000000E+00  0.00000000000E+00  0.14999999963E+04  0.15000000000E+04  0.10566000000E+00 0.  1.
        994   -1    0    0    0    0 -0.00000000000E+00 -0.00000000000E+00  0.11368683772E-12  0.17120000000E+03  0.17120000000E+03 0.  0.
         13    1    1    2    0    0 -0.39834216491E+01 -0.19098067591E+02  0.84911072412E+02  0.87123505531E+02  0.10566000000E+00 0.  1.
        994    1    1    2    0    0 -0.29163843066E+01  0.15364824631E+02  0.30087926721E+01  0.17193916356E+03  0.17120000000E+03 0.  0.
        998    1    1    2    0    0  0.68998059557E+01  0.37332429600E+01  0.14120801312E+04  0.14121373309E+04  0.10000000000E+02 0.  1.
</event>
<event>
 5    1  0.1247473E-008  0.3772912E+03  0.7957747E-01  0.3463039E+00
         13   -1    0    0    0    0  0.00000000000E+00  0.00000000000E+00  0.14999999963E+04  0.15000000000E+04  0.10566000000E+00 0.  1.
        994   -1    0    0    0    0 -0.00000000000E+00 -0.00000000000E+00  0.11368683772E-12  0.17120000000E+03  0.17120000000E+03 0.  0.
         13    1    1    2    0    0  0.15092619076E+02 -0.11195725537E+02  0.29950987497E+02  0.35358227288E+02  0.10566000000E+00 0.  1.
        994    1    1    2    0    0 -0.13381325598E+02  0.65833244661E+00  0.61124862039E+01  0.17183217325E+03  0.17120000000E+03 0.  0.
        998    1    1    2    0    0 -0.17112934775E+01  0.10537393091E+02  0.14639365226E+04  0.14640095995E+04  0.10000000000E+02 0.  1.
</event>
<event>
 5    1  0.1247473E-008  0.3819694E+03  0.7957747E-01  0.3442628E+00
         13   -1    0    0    0    0  0.00000000000E+00  0.00000000000E+00  0.14999999963E+04  0.15000000000E+04  0.10566000000E+00 0. -1.
        994   -1    0    0    0    0 -0.00000000000E+00 -0.00000000000E+00  0.11368683772E-12  0.17120000000E+03  0.17120000000E+03 0.  0.
         13    1    1    2    0    0 -0.38027952451E+02 -0.98083426204E+01  0.23418019455E+03  0.23745042312E+03  0.10566000000E+00 0. -1.
        994    1    1    2    0    0  0.26269390293E+02  0.73687463274E+01  0.56185131031E+01  0.17345139659E+03  0.17120000000E+03 0.  0.
        998    1    1    2    0    0  0.11758562159E+02  0.24395962930E+01  0.12602012886E+04  0.12602981803E+04  0.10000000000E+02 0. -1.
</event>
<event>
 5    1  0.1247473E-008  0.3836342E+03  0.7957747E-01  0.3435485E+00
         13   -1    0    0    0    0  0.00000000000E+00  0.00000000000E+00  0.14999999963E+04  0.15000000000E+04  0.10566000000E+00 0.  1.
        994   -1    0    0    0    0 -0.00000000000E+00 -0.00000000000E+00  0.11368683772E-12  0.17120000000E+03  0.17120000000E+03 0.  0.
         13    1    1    2    0    0  0.10547988687E+02  0.24099984921E+02  0.14029358619E+03  0.14273882033E+03  0.10566000000E+00 0.  1.
        994    1    1    2    0    0 -0.59984288299E+01 -0.23282184247E+02  0.42214945158E+01  0.17293149588E+03  0.17120000000E+03 0.  0.
        998    1    1    2    0    0 -0.45495598571E+01 -0.81780067367E+00  0.13554849156E+04  0.13555296838E+04  0.10000000000E+02 0.  0.
</event>
<event>
 5    1  0.1247473E-008  0.3770303E+03  0.7957747E-01  0.3464192E+00
         13   -1    0    0    0    0  0.00000000000E+00  0.00000000000E+00  0.14999999963E+04  0.15000000000E+04  0.10566000000E+00 0. -1.
        994   -1    0    0    0    0 -0.00000000000E+00 -0.00000000000E+00  0.11368683772E-12  0.17120000000E+03  0.17120000000E+03 0.  0.
         13    1    1    2    0    0  0.49475433954E+01 -0.27463949826E+02  0.75066961405E+02  0.80086244664E+02  0.10566000000E+00 0. -1.
        994    1    1    2    0    0 -0.21975641574E+02 -0.14957010559E+02  0.80291498220E+01  0.17343744761E+03  0.17120000000E+03 0.  0.
        998    1    1    2    0    0  0.17028098179E+02  0.42420960385E+02  0.14169038851E+04  0.14176763077E+04  0.10000000000E+02 0. -1.
</event>
<event>
 5    1  0.1247473E-008  0.3839249E+03  0.7957747E-01  0.3434245E+00
         13   -1    0    0    0    0  0.00000000000E+00  0.00000000000E+00  0.14999999963E+04  0.15000000000E+04  0.10566000000E+00 0. -1.
        994   -1    0    0    0    0 -0.00000000000E+00 -0.00000000000E+00  0.11368683772E-12  0.17120000000E+03  0.17120000000E+03 0.  0.
         13    1    1    2    0    0 -0.10290451233E+02  0.14858372615E+02  0.80652573114E+02  0.82652969319E+02  0.10566000000E+00 0. -1.
        994    1    1    2    0    0  0.97523931968E+01  0.65773905227E+01  0.26216103141E+01  0.17162366993E+03  0.17120000000E+03 0.  0.
        998    1    1    2    0    0  0.53805803584E+00 -0.21435763138E+02  0.14167258129E+04  0.14169233608E+04  0.10000000000E+02 0. -1.
</event>
<event>
 5    1  0.1247473E-008  0.3827394E+03  0.7957747E-01  0.3439317E+00
         13   -1    0    0    0    0  0.00000000000E+00  0.00000000000E+00  0.14999999963E+04  0.15000000000E+04  0.10566000000E+00 0.  1.
        994   -1    0    0    0    0 -0.00000000000E+00 -0.00000000000E+00  0.11368683772E-12  0.17120000000E+03  0.17120000000E+03 0.  0.
         13    1    1    2    0    0 -0.70216341858E+01  0.31760405815E+02  0.17192723107E+03  0.17497717185E+03  0.10566000000E+00 0.  1.
        994    1    1    2    0    0  0.23631102206E+02 -0.28282161395E+02  0.72697247431E+01  0.17527292587E+03  0.17120000000E+03 0.  0.
        998    1    1    2    0    0 -0.16609468020E+02 -0.34782444202E+01  0.13208030405E+04  0.13209499023E+04  0.10000000000E+02 0.  1.
</event>
<event>
 5    1  0.1247473E-008  0.3821400E+03  0.7957747E-01  0.3441893E+00
         13   -1    0    0    0    0  0.00000000000E+00  0.00000000000E+00  0.14999999963E+04  0.15000000000E+04  0.10566000000E+00 0.  1.
        994   -1    0    0    0    0 -0.00000000000E+00 -0.00000000000E+00  0.11368683772E-12  0.17120000000E+03  0.17120000000E+03 0.  0.
         13    1    1    2    0    0  0.32416891946E+02 -0.23506411102E+02  0.22799346808E+03  0.23148312875E+03  0.10566000000E+00 0.  1.
        994    1    1    2    0    0 -0.36675818853E+02  0.14988787077E+02  0.82851494018E+01  0.17592004754E+03  0.17120000000E+03 0.  0.
        998    1    1    2    0    0  0.42589269073E+01  0.85176240249E+01  0.12637213788E+04  0.12637968237E+04  0.10000000000E+02 0.  1.
</event>
<event>
 5    1  0.1247473E-008  0.3721220E+03  0.7957747E-01  0.3486195E+00
         13   -1    0    0    0    0  0.00000000000E+00  0.00000000000E+00  0.14999999963E+04  0.15000000000E+04  0.10566000000E+00 0. -1.
        994   -1    0    0    0    0 -0.00000000000E+00 -0.00000000000E+00  0.11368683772E-12  0.17120000000E+03  0.17120000000E+03 0.  0.
         13    1    1    2    0    0  0.34075185747E+00  0.36883511282E+02  0.80150292954E+02  0.88230324384E+02  0.10566000000E+00 0. -1.
        994    1    1    2    0    0  0.43770767009E+01 -0.24121173571E+02  0.10229764535E+02  0.17324860143E+03  0.17120000000E+03 0.  0.
        998    1    1    2    0    0 -0.47178285584E+01 -0.12762337711E+02  0.14096199388E+04  0.14097210742E+04  0.10000000000E+02 0. -1.
</event>
<event>
 5    1  0.1247473E-008  0.3854400E+03  0.7957747E-01  0.3427808E+00
         13   -1    0    0    0    0  0.00000000000E+00  0.00000000000E+00  0.14999999963E+04  0.15000000000E+04  0.10566000000E+00 0. -1.
        994   -1    0    0    0    0 -0.00000000000E+00 -0.00000000000E+00  0.11368683772E-12  0.17120000000E+03  0.17120000000E+03 0.  0.
         13    1    1    2    0    0  0.68258243745E+01  0.80024524439E+01  0.40354803355E+02  0.41703146660E+02  0.10566000000E+00 0. -1.
        994    1    1    2    0    0  0.75095669431E+01 -0.92241018698E+01  0.18765888978E+01  0.17162295661E+03  0.17120000000E+03 0.  0.
        998    1    1    2    0    0 -0.14335391318E+02  0.12216494259E+01  0.14577686040E+04  0.14578738967E+04  0.10000000000E+02 0. -1.
</event>
<event>
 5    1  0.1247473E-008  0.3773189E+03  0.7957747E-01  0.3462917E+00
         13   -1    0    0    0    0  0.00000000000E+00  0.00000000000E+00  0.14999999963E+04  0.15000000000E+04  0.10566000000E+00 0.  1.
        994   -1    0    0    0    0 -0.00000000000E+00 -0.00000000000E+00  0.11368683772E-12  0.17120000000E+03  0.17120000000E+03 0.  0.
         13    1    1    2    0    0 -0.91114627265E+01  0.87202220796E+01  0.12075646244E+02  0.17461197622E+02  0.10566000000E+00 0.  1.
        994    1    1    2    0    0  0.53247650267E+01 -0.59546718258E+01  0.57079860128E+01  0.17148128861E+03  0.17120000000E+03 0.  0.
        998    1    1    2    0    0  0.37866976998E+01 -0.27655502537E+01  0.14822163640E+04  0.14822575138E+04  0.10000000000E+02 0.  1.
</event>
<event>
 5    1  0.1247473E-008  0.3846304E+03  0.7957747E-01  0.3431241E+00
         13   -1    0    0    0    0  0.00000000000E+00  0.00000000000E+00  0.14999999963E+04  0.15000000000E+04  0.10566000000E+00 0. -1.
        994   -1    0    0    0    0 -0.00000000000E+00 -0.00000000000E+00  0.11368683772E-12  0.17120000000E+03  0.17120000000E+03 0.  0.
         13    1    1    2    0    0  0.52389804494E+01 -0.85426610066E+01  0.26574284552E+02  0.28401192523E+02  0.10566000000E+00 0. -1.
        994    1    1    2    0    0 -0.86610396921E+01  0.10416897894E+02  0.24182542602E+01  0.17175218579E+03  0.17120000000E+03 0.  0.
        998    1    1    2    0    0  0.34220592428E+01 -0.18742368872E+01  0.14710074575E+04  0.14710466217E+04  0.10000000000E+02 0. -1.
</event>
<event>
 5    1  0.1247473E-008  0.3761144E+03  0.7957747E-01  0.3468254E+00
         13   -1    0    0    0    0  0.00000000000E+00  0.00000000000E+00  0.14999999963E+04  0.15000000000E+04  0.10566000000E+00 0.  1.
        994   -1    0    0    0    0 -0.00000000000E+00 -0.00000000000E+00  0.11368683772E-12  0.17120000000E+03  0.17120000000E+03 0.  0.
         13    1    1    2    0    0 -0.23060956994E+02 -0.16860755064E+02  0.64035959853E+02  0.70119242132E+02  0.10566000000E+00 0.  1.
        994    1    1    2    0    0  0.23848561929E+02  0.18486007983E+01  0.80476323802E+01  0.17305021126E+03  0.17120000000E+03 0.  0.
        998    1    1    2    0    0 -0.78760493461E+00  0.15012154266E+02  0.14279164040E+04  0.14280305466E+04  0.10000000000E+02 0.  1.
</event>
<event>
 5    1  0.1247473E-008  0.3795165E+03  0.7957747E-01  0.3453267E+00
         13   -1    0    0    0    0  0.00000000000E+00  0.00000000000E+00  0.14999999963E+04  0.15000000000E+04  0.10566000000E+00 0. -1.
        994   -1    0    0    0    0 -0.00000000000E+00 -0.00000000000E+00  0.11368683772E-12  0.17120000000E+03  0.17120000000E+03 0.  0.
         13    1    1    2    0    0 -0.25577375444E+02  0.19200942791E+02  0.14665358930E+03  0.15010051551E+03  0.10566000000E+00 0. -1.
        994    1    1    2    0    0 -0.16378791226E+02  0.96520819687E+01  0.55885205497E+01  0.17234296925E+03  0.17120000000E+03 0.  0.
        998    1    1    2    0    0  0.41956166670E+02 -0.28853024760E+02  0.13477578864E+04  0.13487565152E+04  0.10000000000E+02 0. -1.
</event>
<event>
 5    1  0.1247473E-008  0.3809368E+03  0.7957747E-01  0.3447090E+00
         13   -1    0    0    0    0  0.00000000000E+00  0.00000000000E+00  0.14999999963E+04  0.15000000000E+04  0.10566000000E+00 0.  1.
        994   -1    0    0    0    0 -0.00000000000E+00 -0.00000000000E+00  0.11368683772E-12  0.17120000000E+03  0.17120000000E+03 0.  0.
         13    1    1    2    0    0 -0.47146974068E+01 -0.28122507356E+02  0.11493048130E+03  0.11841507711E+03  0.10566000000E+00 0.  1.
        994    1    1    2    0    0  0.12414512606E+02  0.76269415674E+01  0.43688025781E+01  0.17187442159E+03  0.17120000000E+03 0.  0.
        998    1    1    2    0    0 -0.76998151991E+01  0.20495565788E+02  0.13807007124E+04  0.13809105013E+04  0.10000000000E+02 0.  1.
</event>
<event>
 5    1  0.1247473E-008  0.3780655E+03  0.7957747E-01  0.3459625E+00
         13   -1    0    0    0    0  0.00000000000E+00  0.00000000000E+00  0.14999999963E+04  0.15000000000E+04  0.10566000000E+00 0.  1.
        994   -1    0    0    0    0 -0.00000000000E+00 -0.00000000000E+00  0.11368683772E-12  0.17120000000E+03  0.17120000000E+03 0.  0.
         13    1    1    2    0    0  0.14544072816E+02 -0.53212760280E+01  0.21595376305E+02  0.26574752575E+02  0.10566000000E+00 0.  1.
        994    1    1    2    0    0 -0.75963870539E+01 -0.47703044390E+01  0.53836075715E+01  0.17151934040E+03  0.17120000000E+03 0.  0.
        998    1    1    2    0    0 -0.69476857620E+01  0.10091580467E+02  0.14730210124E+04  0.14731059070E+04  0.10000000000E+02 0.  1.
</event>
<event>
 5    1  0.1247473E-008  0.3853062E+03  0.7957747E-01  0.3428375E+00
         13   -1    0    0    0    0  0.00000000000E+00  0.00000000000E+00  0.14999999963E+04  0.15000000000E+04  0.10566000000E+00 0.  1.
        994   -1    0    0    0    0 -0.00000000000E+00 -0.00000000000E+00  0.11368683772E-12  0.17120000000E+03  0.17120000000E+03 0.  0.
         13    1    1    2    0    0 -0.16358640881E+02  0.11633549928E+02  0.11444348658E+03  0.11619065108E+03  0.10566000000E+00 0.  1.
        994    1    1    2    0    0  0.27534162912E+02 -0.18854293122E+02  0.51454379855E+01  0.17449793703E+03  0.17120000000E+03 0.  0.
        998    1    1    2    0    0 -0.11175522030E+02  0.72207431935E+01  0.13804110717E+04  0.13805114119E+04  0.10000000000E+02 0.  1.
</event>
<event>
 5    1  0.1247473E-008  0.3725992E+03  0.7957747E-01  0.3484030E+00
         13   -1    0    0    0    0  0.00000000000E+00  0.00000000000E+00  0.14999999963E+04  0.15000000000E+04  0.10566000000E+00 0.  1.
        994   -1    0    0    0    0 -0.00000000000E+00 -0.00000000000E+00  0.11368683772E-12  0.17120000000E+03  0.17120000000E+03 0.  0.
         13    1    1    2    0    0 -0.13930631183E+02 -0.11851547829E+02  0.17517051153E+02  0.25325479586E+02  0.10566000000E+00 0.  1.
        994    1    1    2    0    0  0.24554609651E+01  0.23859093892E+02  0.98907446935E+01  0.17315470678E+03  0.17120000000E+03 0.  0.
        998    1    1    2    0    0  0.11475170218E+02 -0.12007546063E+02  0.14725922004E+04  0.14727198136E+04  0.10000000000E+02 0.  1.
</event>
<event>
 5    1  0.1247473E-008  0.3831820E+03  0.7957747E-01  0.3437419E+00
         13   -1    0    0    0    0  0.00000000000E+00  0.00000000000E+00  0.14999999963E+04  0.15000000000E+04  0.10566000000E+00 0. -1.
        994   -1    0    0    0    0 -0.00000000000E+00 -0.00000000000E+00  0.11368683772E-12  0.17120000000E+03  0.17120000000E+03 0.  0.
         13    1    1    2    0    0 -0.60386869136E+01  0.11143587234E+02  0.31299103407E+02  0.33768184941E+02  0.10566000000E+00 0. -1.
        994    1    1    2    0    0 -0.17832945941E+01 -0.64143239471E+01  0.26820708020E+01  0.17135039304E+03  0.17120000000E+03 0.  0.
        998    1    1    2    0    0  0.78219815078E+01 -0.47292632869E+01  0.14660188221E+04  0.14660814220E+04  0.10000000000E+02 0. -1.
</event>
<event>
 5    1  0.1247473E-008  0.3804586E+03  0.7957747E-01  0.3449164E+00
         13   -1    0    0    0    0  0.00000000000E+00  0.00000000000E+00  0.14999999963E+04  0.15000000000E+04  0.10566000000E+00 0.  1.
        994   -1    0    0    0    0 -0.00000000000E+00 -0.00000000000E+00  0.11368683772E-12  0.17120000000E+03  0.17120000000E+03 0.  0.
         13    1    1    2    0    0 -0.18532052716E+02 -0.25139677902E+02  0.11395926377E+03  0.11816160690E+03  0.10566000000E+00 0.  1.
        994    1    1    2    0    0  0.19453764793E+02  0.27187153721E+02  0.76411802901E+01  0.17460073862E+03  0.17120000000E+03 0.  0.
        998    1    1    2    0    0 -0.92171207646E+00 -0.20474758188E+01  0.13783995522E+04  0.13784376545E+04  0.10000000000E+02 0.  1.
</event>
<event>
 5    1  0.1247473E-008  0.3804319E+03  0.7957747E-01  0.3449280E+00
         13   -1    0    0    0    0  0.00000000000E+00  0.00000000000E+00  0.14999999963E+04  0.15000000000E+04  0.10566000000E+00 0.  1.
        994   -1    0    0    0    0 -0.00000000000E+00 -0.00000000000E+00  0.11368683772E-12  0.17120000000E+03  0.17120000000E+03 0.  0.
         13    1    1    2    0    0  0.36288214454E+01  0.38704476819E+02  0.21346610078E+03  0.21697693937E+03  0.10566000000E+00 0.  1.
        994    1    1    2    0    0  0.51204820188E+01 -0.95628773815E+01  0.43081753778E+01  0.17159740189E+03  0.17120000000E+03 0.  0.
        998    1    1    2    0    0 -0.87493034642E+01 -0.29141599437E+02  0.12822257201E+04  0.12826256587E+04  0.10000000000E+02 0.  1.
</event>
<event>
 5    1  0.1247473E-008  0.3838928E+03  0.7957747E-01  0.3434382E+00
         13   -1    0    0    0    0  0.00000000000E+00  0.00000000000E+00  0.14999999963E+04  0.15000000000E+04  0.10566000000E+00 0.  1.
        994   -1    0    0    0    0 -0.00000000000E+00 -0.00000000000E+00  0.11368683772E-12  0.17120000000E+03  0.17120000000E+03 0.  0.
         13    1    1    2    0    0  0.21518517307E+01 -0.99104771483E+01  0.24550482571E+02  0.26562857182E+02  0.10566000000E+00 0.  1.
        994    1    1    2    0    0  0.35628663383E+01 -0.11937057640E+02  0.26932042142E+01  0.17167376244E+03  0.17120000000E+03 0.  0.
        998    1    1    2    0    0 -0.57147180690E+01  0.21847534789E+02  0.14727563095E+04  0.14729633804E+04  0.10000000000E+02 0.  1.
</event>
<event>
 5    1  0.1247473E-008  0.3772590E+03  0.7957747E-01  0.3463181E+00
         13   -1    0    0    0    0  0.00000000000E+00  0.00000000000E+00  0.14999999963E+04  0.15000000000E+04  0.10566000000E+00 0. -1.
        994   -1    0    0    0    0 -0.00000000000E+00 -0.00000000000E+00  0.11368683772E-12  0.17120000000E+03  0.17120000000E+03 0.  0.
         13    1    1    2    0    0  0.29117087305E+02 -0.19771042386E+02  0.10335124238E+03  0.10917961969E+03  0.10566000000E+00 0. -1.
        994    1    1    2    0    0 -0.31546926270E+02  0.16284517554E+02  0.97869509888E+01  0.17511601434E+03  0.17120000000E+03 0.  0.
        998    1    1    2    0    0  0.24298389644E+01  0.34865248317E+01  0.13868618029E+04  0.13869043660E+04  0.10000000000E+02 0. -1.
</event>
<event>
 5    1  0.1247473E-008  0.3827158E+03  0.7957747E-01  0.3439418E+00
         13   -1    0    0    0    0  0.00000000000E+00  0.00000000000E+00  0.14999999963E+04  0.15000000000E+04  0.10566000000E+00 0.  1.
        994   -1    0    0    0    0 -0.00000000000E+00 -0.00000000000E+00  0.11368683772E-12  0.17120000000E+03  0.17120000000E+03 0.  0.
         13    1    1    2    0    0  0.17054444057E+02  0.13097863608E+02  0.87401189970E+02  0.90007706700E+02  0.10566000000E+00 0.  1.
        994    1    1    2    0    0 -0.25299085491E+01 -0.31795898835E+01  0.28231644621E+01  0.17127148183E+03  0.17120000000E+03 0.  0.
        998    1    1    2    0    0 -0.14524535508E+02 -0.99182737245E+01  0.14097756418E+04  0.14099208115E+04  0.10000000000E+02 0.  1.
</event>
<event>
 5    1  0.1247473E-008  0.3858120E+03  0.7957747E-01  0.3426236E+00
         13   -1    0    0    0    0  0.00000000000E+00  0.00000000000E+00  0.14999999963E+04  0.15000000000E+04  0.10566000000E+00 0. -1.
        994   -1    0    0    0    0 -0.00000000000E+00 -0.00000000000E+00  0.11368683772E-12  0.17120000000E+03  0.17120000000E+03 0.  0.
         13    1    1    2    0    0  0.10898509626E+02 -0.24959212284E+01  0.53334967490E+02  0.54494376370E+02  0.10566000000E+00 0. -1.
        994    1    1    2    0    0 -0.28664520423E+01 -0.42078513627E+01  0.13125824178E+01  0.17128072114E+03  0.17120000000E+03 0.  0.
        998    1    1    2    0    0 -0.80320575839E+01  0.67037725911E+01  0.14453524464E+04  0.14454249025E+04  0.10000000000E+02 0. -1.
</event>
<event>
 5    1  0.1247473E-008  0.3957586E+03  0.7957747E-01  0.3385287E+00
         13   -1    0    0    0    0  0.00000000000E+00  0.00000000000E+00  0.14999999963E+04  0.15000000000E+04  0.10566000000E+00 0. -1.
        994   -1    0    0    0    0 -0.00000000000E+00 -0.00000000000E+00  0.11368683772E-12  0.17120000000E+03  0.17120000000E+03 0.  0.
         13    1    1    2    0    0 -0.20812618771E+02  0.64794650483E+02  0.82435559900E+02  0.10689782286E+03  0.10566000000E+00 0. -1.
        994    1    1    2    0    0 -0.24827158455E+02 -0.63238352239E+02  0.43255259289E+02  0.18919813542E+03  0.17120000000E+03 0.  0.
        998    1    1    2    0    0  0.45639777226E+02 -0.15562982439E+01  0.13743091771E+04  0.13751040417E+04  0.10000000000E+02 0. -1.
</event>
<event>
 5    1  0.1247473E-008  0.3782155E+03  0.7957747E-01  0.3458966E+00
         13   -1    0    0    0    0  0.00000000000E+00  0.00000000000E+00  0.14999999963E+04  0.15000000000E+04  0.10566000000E+00 0. -1.
        994   -1    0    0    0    0 -0.00000000000E+00 -0.00000000000E+00  0.11368683772E-12  0.17120000000E+03  0.17120000000E+03 0.  0.
         13    1    1    2    0    0 -0.15350036635E+02  0.35142598912E+02  0.12293004761E+03  0.12877279857E+03  0.10566000000E+00 0. -1.
        994    1    1    2    0    0  0.91522641560E+02 -0.23114545420E+02  0.35611310410E+02  0.19871658601E+03  0.17120000000E+03 0.  0.
        998    1    1    2    0    0 -0.76172604924E+02 -0.12028053492E+02  0.13414586383E+04  0.13437106154E+04  0.10000000000E+02 0. -1.
</event>
<event>
 5    1  0.1247473E-008  0.3790299E+03  0.7957747E-01  0.3455393E+00
         13   -1    0    0    0    0  0.00000000000E+00  0.00000000000E+00  0.14999999963E+04  0.15000000000E+04  0.10566000000E+00 0. -1.
        994   -1    0    0    0    0 -0.00000000000E+00 -0.00000000000E+00  0.11368683772E-12  0.17120000000E+03  0.17120000000E+03 0.  0.
         13    1    1    2    0    0 -0.92766959794E+01  0.16127366287E+02  0.36298461203E+02  0.40788950482E+02  0.10566000000E+00 0. -1.
        994    1    1    2    0    0 -0.20075077834E+02 -0.18929881643E+02  0.71811594347E+01  0.17355793909E+03  0.17120000000E+03 0.  0.
        998    1    1    2    0    0  0.29351773813E+02  0.28025153553E+01  0.14565203756E+04  0.14568531104E+04  0.10000000000E+02 0. -1.
</event>
<event>
 5    1  0.1247473E-008  0.3811039E+03  0.7957747E-01  0.3446366E+00
         13   -1    0    0    0    0  0.00000000000E+00  0.00000000000E+00  0.14999999963E+04  0.15000000000E+04  0.10566000000E+00 0. -1.
        994   -1    0    0    0    0 -0.00000000000E+00 -0.00000000000E+00  0.11368683772E-12  0.17120000000E+03  0.17120000000E+03 0.  0.
         13    1    1    2    0    0  0.49454127839E+02 -0.17843333715E+02  0.31228319777E+03  0.31667791538E+03  0.10566000000E+00 0. -1.
        994    1    1    2    0    0 -0.47123344674E+02  0.20223448729E+02  0.12385606762E+02  0.17914363161E+03  0.17120000000E+03 0.  0.
        998    1    1    2    0    0 -0.23307831641E+01 -0.23801150140E+01  0.11753311917E+04  0.11753784530E+04  0.10000000000E+02 0.  0.
</event>
<event>
 5    1  0.1247473E-008  0.3863949E+03  0.7957747E-01  0.3423778E+00
         13   -1    0    0    0    0  0.00000000000E+00  0.00000000000E+00  0.14999999963E+04  0.15000000000E+04  0.10566000000E+00 0. -1.
        994   -1    0    0    0    0 -0.00000000000E+00 -0.00000000000E+00  0.11368683772E-12  0.17120000000E+03  0.17120000000E+03 0.  0.
         13    1    1    2    0    0 -0.44096233371E+02 -0.40981155639E+02  0.93747708173E+02  0.11141174474E+03  0.10566000000E+00 0. -1.
        994    1    1    2    0    0  0.29266747190E+02 -0.23079245115E+02  0.25057456800E+02  0.17699296649E+03  0.17120000000E+03 0.  0.
        998    1    1    2    0    0  0.14829486181E+02  0.64060400753E+02  0.13811948313E+04  0.13827952888E+04  0.10000000000E+02 0. -1.
</event>
<event>
 5    1  0.1247473E-008  0.3847215E+03  0.7957747E-01  0.3430854E+00
         13   -1    0    0    0    0  0.00000000000E+00  0.00000000000E+00  0.14999999963E+04  0.15000000000E+04  0.10566000000E+00 0. -1.
        994   -1    0    0    0    0 -0.00000000000E+00 -0.00000000000E+00  0.11368683772E-12  0.17120000000E+03  0.17120000000E+03 0.  0.
         13    1    1    2    0    0 -0.15592643797E+02 -0.60547493903E+01  0.72853106004E+02  0.74748757509E+02  0.10566000000E+00 0. -1.
        994    1    1    2    0    0  0.22872829899E+02  0.63102668649E+01  0.36238089331E+01  0.17287439893E+03  0.17120000000E+03 0.  0.
        998    1    1    2    0    0 -0.72801861024E+01 -0.25551747463E+00  0.14235230813E+04  0.14235768436E+04  0.10000000000E+02 0. -1.
</event>
<event>
 5    1  0.1247473E-008  0.3851999E+03  0.7957747E-01  0.3428825E+00
         13   -1    0    0    0    0  0.00000000000E+00  0.00000000000E+00  0.14999999963E+04  0.15000000000E+04  0.10566000000E+00 0.  1.
        994   -1    0    0    0    0 -0.00000000000E+00 -0.00000000000E+00  0.11368683772E-12  0.17120000000E+03  0.17120000000E+03 0.  0.
         13    1    1    2    0    0 -0.12083251236E+02  0.14917163156E+02  0.91254221548E+02  0.93251653237E+02  0.10566000000E+00 0.  1.
        994    1    1    2    0    0  0.41152727811E+02 -0.31512674783E+02  0.10410817799E+02  0.17917706551E+03  0.17120000000E+03 0.  0.
        998    1    1    2    0    0 -0.29069476575E+02  0.16595511627E+02  0.13983349569E+04  0.13987712813E+04  0.10000000000E+02 0.  1.
</event>
<event>
 5    1  0.1247473E-008  0.3745584E+03  0.7957747E-01  0.3475200E+00
         13   -1    0    0    0    0  0.00000000000E+00  0.00000000000E+00  0.14999999963E+04  0.15000000000E+04  0.10566000000E+00 0.  1.
        994   -1    0    0    0    0 -0.00000000000E+00 -0.00000000000E+00  0.11368683772E-12  0.17120000000E+03  0.17120000000E+03 0.  0.
         13    1    1    2    0    0  0.24647760854E+02 -0.29479517756E+02  0.48336187072E+02  0.61749107094E+02  0.10566000000E+00 0.  1.
        994    1    1    2    0    0 -0.24607845312E+02  0.32283711759E+02  0.19246790470E+02  0.17699622323E+03  0.17120000000E+03 0.  0.
        998    1    1    2    0    0 -0.39915541637E-01 -0.28041940035E+01  0.14324170187E+04  0.14324546697E+04  0.10000000000E+02 0.  1.
</event>
<event>
 5    1  0.1247473E-008  0.3840719E+03  0.7957747E-01  0.3433618E+00
         13   -1    0    0    0    0  0.00000000000E+00  0.00000000000E+00  0.14999999963E+04  0.15000000000E+04  0.10566000000E+00 0. -1.
        994   -1    0    0    0    0 -0.00000000000E+00 -0.00000000000E+00  0.11368683772E-12  0.17120000000E+03  0.17120000000E+03 0.  0.
         13    1    1    2    0    0 -0.17225018798E+03 -0.19073704470E+03  0.10897662229E+04  0.11196611894E+04  0.10566000000E+00 0. -1.
        994    1    1    2    0    0  0.17804971617E+03  0.19313257565E+03  0.27878863266E+03  0.41956457775E+03  0.17120000000E+03 0.  0.
        998    1    1    2    0    0 -0.57995281955E+01 -0.23955309450E+01  0.13144514077E+03  0.13197423282E+03  0.10000000000E+02 0.  1.
</event>
<event>
 5    1  0.1247473E-008  0.3803502E+03  0.7957747E-01  0.3449635E+00
         13   -1    0    0    0    0  0.00000000000E+00  0.00000000000E+00  0.14999999963E+04  0.15000000000E+04  0.10566000000E+00 0.  1.
        994   -1    0    0    0    0 -0.00000000000E+00 -0.00000000000E+00  0.11368683772E-12  0.17120000000E+03  0.17120000000E+03 0.  0.
         13    1    1    2    0    0  0.16084662277E+02  0.32112140266E+02  0.19119835114E+03  0.19454235157E+03  0.10566000000E+00 0.  1.
        994    1    1    2    0    0 -0.71848847327E+01  0.48624790573E+01  0.42078252264E+01  0.17147131557E+03  0.17120000000E+03 0.  0.
        998    1    1    2    0    0 -0.88997775441E+01 -0.36974619323E+02  0.13045938199E+04  0.13051863329E+04  0.10000000000E+02 0.  1.
</event>
<event>
 5    1  0.1247473E-008  0.3860774E+03  0.7957747E-01  0.3425116E+00
         13   -1    0    0    0    0  0.00000000000E+00  0.00000000000E+00  0.14999999963E+04  0.15000000000E+04  0.10566000000E+00 0. -1.
        994   -1    0    0    0    0 -0.00000000000E+00 -0.00000000000E+00  0.11368683772E-12  0.17120000000E+03  0.17120000000E+03 0.  0.
         13    1    1    2    0    0 -0.70243263264E+01 -0.11915007880E+02  0.81920680950E+02  0.83080188399E+02  0.10566000000E+00 0. -1.
        994    1    1    2    0    0 -0.28485723319E-01  0.21088524466E+02  0.25550020526E+01  0.17251288274E+03  0.17120000000E+03 0.  0.
        998    1    1    2    0    0  0.70528120497E+01 -0.91735165864E+01  0.14155243133E+04  0.14156069289E+04  0.10000000000E+02 0. -1.
</event>
<event>
 5    1  0.1247473E-008  0.3841014E+03  0.7957747E-01  0.3433492E+00
         13   -1    0    0    0    0  0.00000000000E+00  0.00000000000E+00  0.14999999963E+04  0.15000000000E+04  0.10566000000E+00 0.  1.
        994   -1    0    0    0    0 -0.00000000000E+00 -0.00000000000E+00  0.11368683772E-12  0.17120000000E+03  0.17120000000E+03 0.  0.
         13    1    1    2    0    0  0.90765394892E+01  0.93495329300E+01  0.40232549430E+02  0.42290265225E+02  0.10566000000E+00 0.  1.
        994    1    1    2    0    0 -0.25850200788E+02  0.11068330046E+02  0.46893825206E+01  0.17355740007E+03  0.17120000000E+03 0.  0.
        998    1    1    2    0    0  0.16773661299E+02 -0.20417862976E+02  0.14550780643E+04  0.14553523347E+04  0.10000000000E+02 0.  1.
</event>
<event>
 5    1  0.1247473E-008  0.3836832E+03  0.7957747E-01  0.3435276E+00
         13   -1    0    0    0    0  0.00000000000E+00  0.00000000000E+00  0.14999999963E+04  0.15000000000E+04  0.10566000000E+00 0. -1.
        994   -1    0    0    0    0 -0.00000000000E+00 -0.00000000000E+00  0.11368683772E-12  0.17120000000E+03  0.17120000000E+03 0.  0.
         13    1    1    2    0    0  0.22618586658E+02 -0.66855584584E-02  0.11117756900E+03  0.11345511676E+03  0.10566000000E+00 0. -1.
        994    1    1    2    0    0 -0.14258009055E+02  0.15413723947E+01  0.29648836054E+01  0.17182519369E+03  0.17120000000E+03 0.  0.
        998    1    1    2    0    0 -0.83605776033E+01 -0.15346868362E+01  0.13858575437E+04  0.13859196896E+04  0.10000000000E+02 0. -1.
</event>
<event>
 5    1  0.1270415E-008  0.3842448E+03  0.7957747E-01  0.3432881E+00
         13   -1    0    0    0    0  0.00000000000E+00  0.00000000000E+00  0.14999999963E+04  0.15000000000E+04  0.10566000000E+00 0. -1.
        994   -1    0    0    0    0 -0.00000000000E+00 -0.00000000000E+00  0.11368683772E-12  0.17120000000E+03  0.17120000000E+03 0.  0.
         13    1    1    2    0    0 -0.11362854251E+02 -0.82859491955E+01  0.49212719578E+02  0.51182754353E+02  0.10566000000E+00 0. -1.
        994    1    1    2    0    0  0.59757394431E+01  0.57080370700E+01  0.22307062582E+01  0.17141384775E+03  0.17120000000E+03 0.  0.
        998    1    1    2    0    0  0.53871148075E+01  0.25779121255E+01  0.14485565704E+04  0.14486033979E+04  0.10000000000E+02 0. -1.
</event>
<event>
 5    1  0.1247473E-008  0.3725342E+03  0.7957747E-01  0.3484325E+00
         13   -1    0    0    0    0  0.00000000000E+00  0.00000000000E+00  0.14999999963E+04  0.15000000000E+04  0.10566000000E+00 0. -1.
        994   -1    0    0    0    0 -0.00000000000E+00 -0.00000000000E+00  0.11368683772E-12  0.17120000000E+03  0.17120000000E+03 0.  0.
         13    1    1    2    0    0 -0.14064917410E+02 -0.30486868414E+02  0.64238273259E+02  0.72483363351E+02  0.10566000000E+00 0. -1.
        994    1    1    2    0    0  0.16802330181E+02  0.34674741808E+02  0.13056551375E+02  0.17596752414E+03  0.17120000000E+03 0.  0.
        998    1    1    2    0    0 -0.27374127706E+01 -0.41878733946E+01  0.14227051716E+04  0.14227491125E+04  0.10000000000E+02 0. -1.
</event>
<event>
 5    1  0.1247473E-008  0.3855105E+03  0.7957747E-01  0.3427510E+00
         13   -1    0    0    0    0  0.00000000000E+00  0.00000000000E+00  0.14999999963E+04  0.15000000000E+04  0.10566000000E+00 0. -1.
        994   -1    0    0    0    0 -0.00000000000E+00 -0.00000000000E+00  0.11368683772E-12  0.17120000000E+03  0.17120000000E+03 0.  0.
         13    1    1    2    0    0  0.11047621433E+02 -0.61158582414E+00  0.43392227086E+02  0.44780805174E+02  0.10566000000E+00 0. -1.
        994    1    1    2    0    0 -0.12869735826E+02 -0.62009922951E+01  0.20472419985E+01  0.17180719893E+03  0.17120000000E+03 0.  0.
        998    1    1    2    0    0  0.18221143930E+01  0.68125781192E+01  0.14545605272E+04  0.14546119959E+04  0.10000000000E+02 0. -1.
</event>
<event>
 5    1  0.1247473E-008  0.3684181E+03  0.7957747E-01  0.3503193E+00
         13   -1    0    0    0    0  0.00000000000E+00  0.00000000000E+00  0.14999999963E+04  0.15000000000E+04  0.10566000000E+00 0. -1.
        994   -1    0    0    0    0 -0.00000000000E+00 -0.00000000000E+00  0.11368683772E-12  0.17120000000E+03  0.17120000000E+03 0.  0.
         13    1    1    2    0    0  0.71310426119E+02 -0.10789503192E+03  0.54452733441E+03  0.55967539152E+03  0.10566000000E+00 0. -1.
        994    1    1    2    0    0 -0.11077130554E+03  0.77494943249E+02  0.76620805497E+02  0.23120539828E+03  0.17120000000E+03 0.  0.
        998    1    1    2    0    0  0.39460879424E+02  0.30400088669E+02  0.87885185637E+03  0.88031921020E+03  0.10000000000E+02 0. -1.
</event>
<event>
 5    1  0.1247473E-008  0.3742403E+03  0.7957747E-01  0.3476628E+00
         13   -1    0    0    0    0  0.00000000000E+00  0.00000000000E+00  0.14999999963E+04  0.15000000000E+04  0.10566000000E+00 0.  1.
        994   -1    0    0    0    0 -0.00000000000E+00 -0.00000000000E+00  0.11368683772E-12  0.17120000000E+03  0.17120000000E+03 0.  0.
         13    1    1    2    0    0 -0.11640158789E+02  0.48344173114E+02  0.16053488993E+03  0.16805985369E+03  0.10566000000E+00 0.  1.
        994    1    1    2    0    0  0.79781637730E+01 -0.42545237820E+02  0.13481930557E+02  0.17710152684E+03  0.17120000000E+03 0.  0.
        998    1    1    2    0    0  0.36619950160E+01 -0.57989352940E+01  0.13259831758E+04  0.13260386195E+04  0.10000000000E+02 0.  1.
</event>
<event>
 5    1  0.2574326E-008  0.3865423E+03  0.7957747E-01  0.3423157E+00
         13   -1    0    0    0    0  0.00000000000E+00  0.00000000000E+00  0.14999999963E+04  0.15000000000E+04  0.10566000000E+00 0. -1.
        994   -1    0    0    0    0 -0.00000000000E+00 -0.00000000000E+00  0.11368683772E-12  0.17120000000E+03  0.17120000000E+03 0.  0.
         13    1    1    2    0    0 -0.80172077963E+01 -0.70450623386E+01  0.64552048056E+02  0.65428484596E+02  0.10566000000E+00 0. -1.
        994    1    1    2    0    0  0.12811494584E+02  0.35839434542E+01  0.14456763248E+01  0.17172218559E+03  0.17120000000E+03 0.  0.
        998    1    1    2    0    0 -0.47942867881E+01  0.34611188844E+01  0.14340022719E+04  0.14340493298E+04  0.10000000000E+02 0. -1.
</event>
<event>
 5    1  0.1247473E-008  0.3825588E+03  0.7957747E-01  0.3440092E+00
         13   -1    0    0    0    0  0.00000000000E+00  0.00000000000E+00  0.14999999963E+04  0.15000000000E+04  0.10566000000E+00 0. -1.
        994   -1    0    0    0    0 -0.00000000000E+00 -0.00000000000E+00  0.11368683772E-12  0.17120000000E+03  0.17120000000E+03 0.  0.
         13    1    1    2    0    0  0.28478366732E+01  0.11244057547E+02  0.23178659995E+02  0.25919113546E+02  0.10566000000E+00 0. -1.
        994    1    1    2    0    0  0.55027376963E+01 -0.95403845551E+00  0.29504248670E+01  0.17131647708E+03  0.17120000000E+03 0.  0.
        998    1    1    2    0    0 -0.83505743695E+01 -0.10290019092E+02  0.14738709114E+04  0.14739644094E+04  0.10000000000E+02 0. -1.
</event>
<event>
 5    1  0.1247473E-008  0.3839974E+03  0.7957747E-01  0.3433935E+00
         13   -1    0    0    0    0  0.00000000000E+00  0.00000000000E+00  0.14999999963E+04  0.15000000000E+04  0.10566000000E+00 0.  1.
        994   -1    0    0    0    0 -0.00000000000E+00 -0.00000000000E+00  0.11368683772E-12  0.17120000000E+03  0.17120000000E+03 0.  0.
         13    1    1    2    0    0  0.17313367627E+02  0.60766853021E+01  0.56357211895E+02  0.59269092278E+02  0.10566000000E+00 0.  1.
        994    1    1    2    0    0 -0.71717186882E+02 -0.31089823100E+02  0.22555081406E+02  0.18954710151E+03  0.17120000000E+03 0.  0.
        998    1    1    2    0    0  0.54403819255E+02  0.25013137798E+02  0.14210877030E+04  0.14223838062E+04  0.10000000000E+02 0.  1.
</event>
<event>
 5    1  0.1247473E-008  0.3845135E+03  0.7957747E-01  0.3431738E+00
         13   -1    0    0    0    0  0.00000000000E+00  0.00000000000E+00  0.14999999963E+04  0.15000000000E+04  0.10566000000E+00 0.  1.
        994   -1    0    0    0    0 -0.00000000000E+00 -0.00000000000E+00  0.11368683772E-12  0.17120000000E+03  0.17120000000E+03 0.  0.
         13    1    1    2    0    0 -0.15445080448E+02  0.16186928822E+02  0.12162018709E+03  0.12366102153E+03  0.10566000000E+00 0.  1.
        994    1    1    2    0    0  0.17563855663E+02 -0.18434413033E+02  0.40102238391E+01  0.17312954255E+03  0.17120000000E+03 0.  0.
        998    1    1    2    0    0 -0.21187752157E+01  0.22474842110E+01  0.13743695853E+04  0.13744094359E+04  0.10000000000E+02 0.  1.
</event>
<event>
 5    1  0.1247473E-008  0.3718394E+03  0.7957747E-01  0.3487480E+00
         13   -1    0    0    0    0  0.00000000000E+00  0.00000000000E+00  0.14999999963E+04  0.15000000000E+04  0.10566000000E+00 0.  1.
        994   -1    0    0    0    0 -0.00000000000E+00 -0.00000000000E+00  0.11368683772E-12  0.17120000000E+03  0.17120000000E+03 0.  0.
         13    1    1    2    0    0 -0.60481331385E+02 -0.65731260854E+02  0.36695647169E+03  0.37767135631E+03  0.10566000000E+00 0.  1.
        994    1    1    2    0    0  0.57047700706E+02  0.64533785412E+02  0.34249528159E+02  0.19468312663E+03  0.17120000000E+03 0.  0.
        998    1    1    2    0    0  0.34336306790E+01  0.11974754423E+01  0.10987939964E+04  0.10988455171E+04  0.10000000000E+02 0.  0.
</event>
<event>
 5    1  0.1247473E-008  0.3803429E+03  0.7957747E-01  0.3449667E+00
         13   -1    0    0    0    0  0.00000000000E+00  0.00000000000E+00  0.14999999963E+04  0.15000000000E+04  0.10566000000E+00 0.  1.
        994   -1    0    0    0    0 -0.00000000000E+00 -0.00000000000E+00  0.11368683772E-12  0.17120000000E+03  0.17120000000E+03 0.  0.
         13    1    1    2    0    0  0.11861479113E+02 -0.85526125247E+01  0.26492209008E+02  0.30260372930E+02  0.10566000000E+00 0.  1.
        994    1    1    2    0    0  0.58150877648E+00 -0.59816917042E+01  0.40807956038E+01  0.17135405359E+03  0.17120000000E+03 0.  0.
        998    1    1    2    0    0 -0.12442987889E+02  0.14534304229E+02  0.14694269917E+04  0.14695855735E+04  0.10000000000E+02 0.  1.
</event>
<event>
 5    1  0.1247473E-008  0.3840237E+03  0.7957747E-01  0.3433823E+00
         13   -1    0    0    0    0  0.00000000000E+00  0.00000000000E+00  0.14999999963E+04  0.15000000000E+04  0.10566000000E+00 0.  1.
        994   -1    0    0    0    0 -0.00000000000E+00 -0.00000000000E+00  0.11368683772E-12  0.17120000000E+03  0.17120000000E+03 0.  0.
         13    1    1    2    0    0 -0.10308037958E+02  0.10561718457E+02  0.56682748539E+02  0.58572610402E+02  0.10566000000E+00 0.  1.
        994    1    1    2    0    0 -0.12480405415E+02  0.15976009274E+01  0.26380932282E+01  0.17168200949E+03  0.17120000000E+03 0.  0.
        998    1    1    2    0    0  0.22788443373E+02 -0.12159319385E+02  0.14406791545E+04  0.14409453801E+04  0.10000000000E+02 0.  1.
</event>
<event>
 5    1  0.1247473E-008  0.3805935E+03  0.7957747E-01  0.3448578E+00
         13   -1    0    0    0    0  0.00000000000E+00  0.00000000000E+00  0.14999999963E+04  0.15000000000E+04  0.10566000000E+00 0.  1.
        994   -1    0    0    0    0 -0.00000000000E+00 -0.00000000000E+00  0.11368683772E-12  0.17120000000E+03  0.17120000000E+03 0.  0.
         13    1    1    2    0    0  0.32045004497E+02  0.16856769551E+02  0.18671178804E+03  0.19019026250E+03  0.10566000000E+00 0.  1.
        994    1    1    2    0    0 -0.46814109524E+01 -0.90043879633E+01  0.41775626075E+01  0.17155141107E+03  0.17120000000E+03 0.  0.
        998    1    1    2    0    0 -0.27363593545E+02 -0.78523815872E+01  0.13091106456E+04  0.13094583264E+04  0.10000000000E+02 0.  1.
</event>
<event>
 5    1  0.1247473E-008  0.3712987E+03  0.7957747E-01  0.3489943E+00
         13   -1    0    0    0    0  0.00000000000E+00  0.00000000000E+00  0.14999999963E+04  0.15000000000E+04  0.10566000000E+00 0. -1.
        994   -1    0    0    0    0 -0.00000000000E+00 -0.00000000000E+00  0.11368683772E-12  0.17120000000E+03  0.17120000000E+03 0.  0.
         13    1    1    2    0    0 -0.60232363939E+02 -0.26921475039E+02  0.16503017206E+03  0.17772921071E+03  0.10566000000E+00 0. -1.
        994    1    1    2    0    0  0.56639939603E+02  0.31033962145E+02  0.26423866952E+02  0.18487522903E+03  0.17120000000E+03 0.  0.
        998    1    1    2    0    0  0.35924243358E+01 -0.41124871055E+01  0.13085459573E+04  0.13085955603E+04  0.10000000000E+02 0. -1.
</event>
<event>
 5    1  0.1247473E-008  0.3694914E+03  0.7957747E-01  0.3498232E+00
         13   -1    0    0    0    0  0.00000000000E+00  0.00000000000E+00  0.14999999963E+04  0.15000000000E+04  0.10566000000E+00 0.  1.
        994   -1    0    0    0    0 -0.00000000000E+00 -0.00000000000E+00  0.11368683772E-12  0.17120000000E+03  0.17120000000E+03 0.  0.
         13    1    1    2    0    0  0.84242352216E+02  0.40197271402E+02  0.39673884464E+03  0.40757124107E+03  0.10566000000E+00 0.  1.
        994    1    1    2    0    0 -0.79214914793E+02 -0.30843794355E+01  0.31629911473E+02  0.19129664770E+03  0.17120000000E+03 0.  0.
        998    1    1    2    0    0 -0.50274374227E+01 -0.37112891967E+02  0.10716312402E+04  0.10723321112E+04  0.10000000000E+02 0.  1.
</event>
<event>
 5    1  0.1247473E-008  0.3974152E+03  0.7957747E-01  0.3378666E+00
         13   -1    0    0    0    0  0.00000000000E+00  0.00000000000E+00  0.14999999963E+04  0.15000000000E+04  0.10566000000E+00 0.  1.
        994   -1    0    0    0    0 -0.00000000000E+00 -0.00000000000E+00  0.11368683772E-12  0.17120000000E+03  0.17120000000E+03 0.  0.
         13    1    1    2    0    0  0.14719921183E+02 -0.59894050569E+02  0.60727406262E+02  0.86555198623E+02  0.10566000000E+00 0.  1.
        994    1    1    2    0    0 -0.12569999055E+02  0.62338892376E+02  0.42082800093E+02  0.18741543278E+03  0.17120000000E+03 0.  0.
        998    1    1    2    0    0 -0.21499221276E+01 -0.24448418062E+01  0.13971897899E+04  0.13972293686E+04  0.10000000000E+02 0.  1.
</event>
<event>
 5    1  0.1247473E-008  0.3728764E+03  0.7957747E-01  0.3482775E+00
         13   -1    0    0    0    0  0.00000000000E+00  0.00000000000E+00  0.14999999963E+04  0.15000000000E+04  0.10566000000E+00 0. -1.
        994   -1    0    0    0    0 -0.00000000000E+00 -0.00000000000E+00  0.11368683772E-12  0.17120000000E+03  0.17120000000E+03 0.  0.
         13    1    1    2    0    0  0.13255664893E+02  0.65636877004E+01  0.30180831286E+01  0.15096841980E+02  0.10566000000E+00 0. -1.
        994    1    1    2    0    0 -0.16174839344E+02 -0.45307186430E+01  0.13464972662E+02  0.17254824928E+03  0.17120000000E+03 0.  0.
        998    1    1    2    0    0  0.29191744513E+01 -0.20329690574E+01  0.14835169405E+04  0.14835549087E+04  0.10000000000E+02 0. -1.
</event>
<event>
 5    1  0.1247473E-008  0.3858714E+03  0.7957747E-01  0.3425985E+00
         13   -1    0    0    0    0  0.00000000000E+00  0.00000000000E+00  0.14999999963E+04  0.15000000000E+04  0.10566000000E+00 0. -1.
        994   -1    0    0    0    0 -0.00000000000E+00 -0.00000000000E+00  0.11368683772E-12  0.17120000000E+03  0.17120000000E+03 0.  0.
         13    1    1    2    0    0  0.13070760176E+02 -0.50571065255E+01  0.74171832933E+02  0.75484376282E+02  0.10566000000E+00 0. -1.
        994    1    1    2    0    0 -0.22613841788E+02  0.65769836406E+01  0.30191419138E+01  0.17283864664E+03  0.17120000000E+03 0.  0.
        998    1    1    2    0    0  0.95430816112E+01 -0.15198771151E+01  0.14228090214E+04  0.14228769771E+04  0.10000000000E+02 0. -1.
</event>
<event>
 5    1  0.1373021E-008  0.3831701E+03  0.7957747E-01  0.3437470E+00
         13   -1    0    0    0    0  0.00000000000E+00  0.00000000000E+00  0.14999999963E+04  0.15000000000E+04  0.10566000000E+00 0. -1.
        994   -1    0    0    0    0 -0.00000000000E+00 -0.00000000000E+00  0.11368683772E-12  0.17120000000E+03  0.17120000000E+03 0.  0.
         13    1    1    2    0    0  0.54153701073E+01  0.90231963724E+01  0.20688095662E+02  0.23211048497E+02  0.10566000000E+00 0. -1.
        994    1    1    2    0    0 -0.35681400265E+01 -0.96041797654E+01  0.28887128362E+01  0.17153062862E+03  0.17120000000E+03 0.  0.
        998    1    1    2    0    0 -0.18472300808E+01  0.58098339301E+00  0.14764231878E+04  0.14764583229E+04  0.10000000000E+02 0. -1.
</event>
<event>
 5    1  0.1247473E-008  0.3835739E+03  0.7957747E-01  0.3435743E+00
         13   -1    0    0    0    0  0.00000000000E+00  0.00000000000E+00  0.14999999963E+04  0.15000000000E+04  0.10566000000E+00 0. -1.
        994   -1    0    0    0    0 -0.00000000000E+00 -0.00000000000E+00  0.11368683772E-12  0.17120000000E+03  0.17120000000E+03 0.  0.
         13    1    1    2    0    0  0.83520039478E+01 -0.59404544991E+01  0.21648181767E+02  0.23952033472E+02  0.10566000000E+00 0. -1.
        994    1    1    2    0    0 -0.79160763203E+01  0.11717010728E+01  0.25514088198E+01  0.17140591248E+03  0.17120000000E+03 0.  0.
        998    1    1    2    0    0 -0.43592762753E+00  0.47687534263E+01  0.14758004057E+04  0.14758420540E+04  0.10000000000E+02 0. -1.
</event>
<event>
 5    1  0.1247473E-008  0.3847781E+03  0.7957747E-01  0.3430614E+00
         13   -1    0    0    0    0  0.00000000000E+00  0.00000000000E+00  0.14999999963E+04  0.15000000000E+04  0.10566000000E+00 0.  1.
        994   -1    0    0    0    0 -0.00000000000E+00 -0.00000000000E+00  0.11368683772E-12  0.17120000000E+03  0.17120000000E+03 0.  0.
         13    1    1    2    0    0 -0.85536086006E+01  0.13668756386E+02  0.78008580832E+02  0.79657698741E+02  0.10566000000E+00 0.  1.
        994    1    1    2    0    0 -0.29676260817E+01 -0.65450668031E+01  0.19103375916E+01  0.17136141367E+03  0.17120000000E+03 0.  0.
        998    1    1    2    0    0  0.11521234682E+02 -0.71236895827E+01  0.14200810779E+04  0.14201808876E+04  0.10000000000E+02 0.  1.
</event>
<event>
 5    1  0.1247473E-008  0.3822883E+03  0.7957747E-01  0.3441255E+00
         13   -1    0    0    0    0  0.00000000000E+00  0.00000000000E+00  0.14999999963E+04  0.15000000000E+04  0.10566000000E+00 0.  1.
        994   -1    0    0    0    0 -0.00000000000E+00 -0.00000000000E+00  0.11368683772E-12  0.17120000000E+03  0.17120000000E+03 0.  0.
         13    1    1    2    0    0  0.31163685914E+01  0.16484693606E+02  0.48057073492E+02  0.50901378695E+02  0.10566000000E+00 0.  1.
        994    1    1    2    0    0  0.60570007850E+01 -0.28742552177E+01  0.31316204569E+01  0.17135984258E+03  0.17120000000E+03 0.  0.
        998    1    1    2    0    0 -0.91733693765E+01 -0.13610438388E+02  0.14488113023E+04  0.14489387787E+04  0.10000000000E+02 0.  1.
</event>
<event>
 5    1  0.1247473E-008  0.3707840E+03  0.7957747E-01  0.3492296E+00
         13   -1    0    0    0    0  0.00000000000E+00  0.00000000000E+00  0.14999999963E+04  0.15000000000E+04  0.10566000000E+00 0. -1.
        994   -1    0    0    0    0 -0.00000000000E+00 -0.00000000000E+00  0.11368683772E-12  0.17120000000E+03  0.17120000000E+03 0.  0.
         13    1    1    2    0    0  0.40745374105E+02 -0.58052636272E+02  0.24132974849E+03  0.25153598701E+03  0.10566000000E+00 0. -1.
        994    1    1    2    0    0 -0.38757286843E+02  0.55122053979E+02  0.24684022033E+02  0.18563218757E+03  0.17120000000E+03 0.  0.
        998    1    1    2    0    0 -0.19880872621E+01  0.29305822932E+01  0.12339862258E+04  0.12340318254E+04  0.10000000000E+02 0. -1.
</event>
<event>
 5    1  0.1247473E-008  0.3847863E+03  0.7957747E-01  0.3430579E+00
         13   -1    0    0    0    0  0.00000000000E+00  0.00000000000E+00  0.14999999963E+04  0.15000000000E+04  0.10566000000E+00 0.  1.
        994   -1    0    0    0    0 -0.00000000000E+00 -0.00000000000E+00  0.11368683772E-12  0.17120000000E+03  0.17120000000E+03 0.  0.
         13    1    1    2    0    0 -0.15547603630E+02 -0.96842689355E+01  0.10813610978E+03  0.10967653553E+03  0.10566000000E+00 0.  1.
        994    1    1    2    0    0 -0.44557844129E+01  0.28768988470E+01  0.18288782440E+01  0.17129190103E+03  0.17120000000E+03 0.  0.
        998    1    1    2    0    0  0.20003388043E+02  0.68073700885E+01  0.13900350083E+04  0.13902315634E+04  0.10000000000E+02 0.  1.
</event>
<event>
 5    1  0.1247473E-008  0.3781748E+03  0.7957747E-01  0.3459144E+00
         13   -1    0    0    0    0  0.00000000000E+00  0.00000000000E+00  0.14999999963E+04  0.15000000000E+04  0.10566000000E+00 0. -1.
        994   -1    0    0    0    0 -0.00000000000E+00 -0.00000000000E+00  0.11368683772E-12  0.17120000000E+03  0.17120000000E+03 0.  0.
         13    1    1    2    0    0  0.20638465688E+02  0.39072025001E+02  0.21923084663E+03  0.22363976543E+03  0.10566000000E+00 0. -1.
        994    1    1    2    0    0 -0.47726029078E+00 -0.73642834066E+01  0.52405114225E+01  0.17143909533E+03  0.17120000000E+03 0.  0.
        998    1    1    2    0    0 -0.20161205397E+02 -0.31707741594E+02  0.12755286382E+04  0.12761211392E+04  0.10000000000E+02 0. -1.
</event>
<event>
 5    1  0.1247473E-008  0.3769842E+03  0.7957747E-01  0.3464396E+00
         13   -1    0    0    0    0  0.00000000000E+00  0.00000000000E+00  0.14999999963E+04  0.15000000000E+04  0.10566000000E+00 0. -1.
        994   -1    0    0    0    0 -0.00000000000E+00 -0.00000000000E+00  0.11368683772E-12  0.17120000000E+03  0.17120000000E+03 0.  0.
         13    1    1    2    0    0  0.36669318909E+02  0.83297009690E+01  0.11384787401E+03  0.11989734129E+03  0.10566000000E+00 0. -1.
        994    1    1    2    0    0 -0.36572023808E+02 -0.13218067090E+02  0.10786577987E+02  0.17589207057E+03  0.17120000000E+03 0.  0.
        998    1    1    2    0    0 -0.97295100596E-01  0.48883661208E+01  0.13753655443E+04  0.13754105881E+04  0.10000000000E+02 0. -1.
</event>
<event>
 5    1  0.1247473E-008  0.3786147E+03  0.7957747E-01  0.3457213E+00
         13   -1    0    0    0    0  0.00000000000E+00  0.00000000000E+00  0.14999999963E+04  0.15000000000E+04  0.10566000000E+00 0.  1.
        994   -1    0    0    0    0 -0.00000000000E+00 -0.00000000000E+00  0.11368683772E-12  0.17120000000E+03  0.17120000000E+03 0.  0.
         13    1    1    2    0    0 -0.12406710078E+02 -0.36931711909E+02  0.13987810345E+03  0.14520252335E+03  0.10566000000E+00 0.  1.
        994    1    1    2    0    0 -0.53330035229E+00  0.44286667224E+02  0.11450101225E+02  0.17720648442E+03  0.17120000000E+03 0.  0.
        998    1    1    2    0    0  0.12940010430E+02 -0.73549553155E+01  0.13486717916E+04  0.13487909922E+04  0.10000000000E+02 0.  1.
</event>
<event>
 5    1  0.1247473E-008  0.3786573E+03  0.7957747E-01  0.3457026E+00
         13   -1    0    0    0    0  0.00000000000E+00  0.00000000000E+00  0.14999999963E+04  0.15000000000E+04  0.10566000000E+00 0. -1.
        994   -1    0    0    0    0 -0.00000000000E+00 -0.00000000000E+00  0.11368683772E-12  0.17120000000E+03  0.17120000000E+03 0.  0.
         13    1    1    2    0    0 -0.55470688943E+02 -0.27205074575E+02  0.32602440851E+03  0.33182682158E+03  0.10566000000E+00 0. -1.
        994    1    1    2    0    0  0.46679130036E+02  0.33912442649E+02  0.16073081389E+02  0.18137469199E+03  0.17120000000E+03 0.  0.
        998    1    1    2    0    0  0.87915589067E+01 -0.67073680737E+01  0.11579025064E+04  0.11579984864E+04  0.10000000000E+02 0. -1.
</event>
<event>
 5    1  0.1247473E-008  0.3841820E+03  0.7957747E-01  0.3433149E+00
         13   -1    0    0    0    0  0.00000000000E+00  0.00000000000E+00  0.14999999963E+04  0.15000000000E+04  0.10566000000E+00 0.  1.
        994   -1    0    0    0    0 -0.00000000000E+00 -0.00000000000E+00  0.11368683772E-12  0.17120000000E+03  0.17120000000E+03 0.  0.
         13    1    1    2    0    0  0.12582265448E+02 -0.79473102082E+01  0.58274935034E+02  0.60145260500E+02  0.10566000000E+00 0.  1.
        994    1    1    2    0    0 -0.94844362910E+01 -0.21749031804E+02  0.38953324543E+01  0.17288027224E+03  0.17120000000E+03 0.  0.
        998    1    1    2    0    0 -0.30978291568E+01  0.29696342013E+02  0.14378297288E+04  0.14381744673E+04  0.10000000000E+02 0.  1.
</event>
<event>
 5    1  0.1247473E-008  0.3789458E+03  0.7957747E-01  0.3455761E+00
         13   -1    0    0    0    0  0.00000000000E+00  0.00000000000E+00  0.14999999963E+04  0.15000000000E+04  0.10566000000E+00 0.  1.
        994   -1    0    0    0    0 -0.00000000000E+00 -0.00000000000E+00  0.11368683772E-12  0.17120000000E+03  0.17120000000E+03 0.  0.
         13    1    1    2    0    0 -0.11292567017E+03  0.45465544306E+02  0.72729287880E+03  0.73741051350E+03  0.10566000000E+00 0.  1.
        994    1    1    2    0    0  0.12045260325E+03 -0.37381456180E+02  0.60021954651E+02  0.22094858664E+03  0.17120000000E+03 0.  0.
        998    1    1    2    0    0 -0.75269330839E+01 -0.80840881258E+01  0.71268516283E+03  0.71284089986E+03  0.10000000000E+02 0.  1.
</event>
<event>
 5    1  0.1247473E-008  0.3794631E+03  0.7957747E-01  0.3453500E+00
         13   -1    0    0    0    0  0.00000000000E+00  0.00000000000E+00  0.14999999963E+04  0.15000000000E+04  0.10566000000E+00 0. -1.
        994   -1    0    0    0    0 -0.00000000000E+00 -0.00000000000E+00  0.11368683772E-12  0.17120000000E+03  0.17120000000E+03 0.  0.
         13    1    1    2    0    0 -0.14197960517E+02  0.25614136105E+02  0.98162497782E+02  0.10243804560E+03  0.10566000000E+00 0. -1.
        994    1    1    2    0    0  0.15843803730E+02 -0.62061124113E+01  0.53746528752E+01  0.17212747846E+03  0.17120000000E+03 0.  0.
        998    1    1    2    0    0 -0.16458432130E+01 -0.19408023694E+02  0.13964628456E+04  0.13966344759E+04  0.10000000000E+02 0. -1.
</event>
<event>
 5    1  0.1247473E-008  0.3802364E+03  0.7957747E-01  0.3450130E+00
         13   -1    0    0    0    0  0.00000000000E+00  0.00000000000E+00  0.14999999963E+04  0.15000000000E+04  0.10566000000E+00 0.  1.
        994   -1    0    0    0    0 -0.00000000000E+00 -0.00000000000E+00  0.11368683772E-12  0.17120000000E+03  0.17120000000E+03 0.  0.
         13    1    1    2    0    0 -0.21591873970E+02  0.27160755528E+02  0.14347296967E+03  0.14760901006E+03  0.10566000000E+00 0.  1.
        994    1    1    2    0    0  0.19877249695E+02 -0.17579994044E+02  0.63695410840E+01  0.17336139218E+03  0.17120000000E+03 0.  0.
        998    1    1    2    0    0  0.17146242749E+01 -0.95807614833E+01  0.13501574855E+04  0.13502295978E+04  0.10000000000E+02 0.  1.
</event>
<event>
 5    1  0.1247473E-008  0.4088018E+03  0.7957747E-01  0.3334600E+00
         13   -1    0    0    0    0  0.00000000000E+00  0.00000000000E+00  0.14999999963E+04  0.15000000000E+04  0.10566000000E+00 0.  1.
        994   -1    0    0    0    0 -0.00000000000E+00 -0.00000000000E+00  0.11368683772E-12  0.17120000000E+03  0.17120000000E+03 0.  0.
         13    1    1    2    0    0 -0.21241308088E+02  0.40398323398E+02  0.18148392272E+02  0.49118153556E+02  0.10566000000E+00 0.  1.
        994    1    1    2    0    0  0.14450933840E+02 -0.48448418194E+02  0.43599545141E+02  0.18375646669E+03  0.17120000000E+03 0.  0.
        998    1    1    2    0    0  0.67903742483E+01  0.80500947958E+01  0.14382520589E+04  0.14383253798E+04  0.10000000000E+02 0.  1.
</event>
<event>
 5    1  0.1247473E-008  0.3810248E+03  0.7957747E-01  0.3446708E+00
         13   -1    0    0    0    0  0.00000000000E+00  0.00000000000E+00  0.14999999963E+04  0.15000000000E+04  0.10566000000E+00 0.  1.
        994   -1    0    0    0    0 -0.00000000000E+00 -0.00000000000E+00  0.11368683772E-12  0.17120000000E+03  0.17120000000E+03 0.  0.
         13    1    1    2    0    0  0.21605426249E+00 -0.19763405548E+02  0.56138917339E+02  0.59516620219E+02  0.10566000000E+00 0.  1.
        994    1    1    2    0    0 -0.18766649033E+01 -0.22394590495E+01  0.36451604179E+01  0.17126372717E+03  0.17120000000E+03 0.  0.
        998    1    1    2    0    0  0.16606106408E+01  0.22002864597E+02  0.14402159185E+04  0.14404196526E+04  0.10000000000E+02 0.  1.
</event>
<event>
 5    1  0.1247473E-008  0.3828878E+03  0.7957747E-01  0.3438680E+00
         13   -1    0    0    0    0  0.00000000000E+00  0.00000000000E+00  0.14999999963E+04  0.15000000000E+04  0.10566000000E+00 0.  1.
        994   -1    0    0    0    0 -0.00000000000E+00 -0.00000000000E+00  0.11368683772E-12  0.17120000000E+03  0.17120000000E+03 0.  0.
         13    1    1    2    0    0  0.15602151571E+02  0.23362778382E+01  0.43399746678E+02  0.46178290392E+02  0.10566000000E+00 0.  1.
        994    1    1    2    0    0 -0.20667663491E+02 -0.11021414048E+02  0.45012588653E+01  0.17285347903E+03  0.17120000000E+03 0.  0.
        998    1    1    2    0    0  0.50655119200E+01  0.86851362098E+01  0.14520989907E+04  0.14521682306E+04  0.10000000000E+02 0.  1.
</event>
<event>
 5    1  0.1247473E-008  0.3780369E+03  0.7957747E-01  0.3459751E+00
         13   -1    0    0    0    0  0.00000000000E+00  0.00000000000E+00  0.14999999963E+04  0.15000000000E+04  0.10566000000E+00 0.  1.
        994   -1    0    0    0    0 -0.00000000000E+00 -0.00000000000E+00  0.11368683772E-12  0.17120000000E+03  0.17120000000E+03 0.  0.
         13    1    1    2    0    0 -0.68400605885E+01 -0.30628510370E+02  0.94647235579E+02  0.99714604964E+02  0.10566000000E+00 0.  1.
        994    1    1    2    0    0  0.70121374805E-01  0.18657483501E+02  0.62995401275E+01  0.17232884498E+03  0.17120000000E+03 0.  0.
        998    1    1    2    0    0  0.67699392137E+01  0.11971026869E+02  0.13990532206E+04  0.13991565501E+04  0.10000000000E+02 0.  1.
</event>
<event>
 5    1  0.1247473E-008  0.3745717E+03  0.7957747E-01  0.3475140E+00
         13   -1    0    0    0    0  0.00000000000E+00  0.00000000000E+00  0.14999999963E+04  0.15000000000E+04  0.10566000000E+00 0. -1.
        994   -1    0    0    0    0 -0.00000000000E+00 -0.00000000000E+00  0.11368683772E-12  0.17120000000E+03  0.17120000000E+03 0.  0.
         13    1    1    2    0    0 -0.10381982601E+02  0.29009383362E+02  0.74702740259E+02  0.80807428199E+02  0.10566000000E+00 0. -1.
        994    1    1    2    0    0  0.20078516308E+02  0.20927866557E+02  0.97674168268E+01  0.17391367067E+03  0.17120000000E+03 0.  0.
        998    1    1    2    0    0 -0.96965337075E+01 -0.49937249919E+02  0.14155298392E+04  0.14164789011E+04  0.10000000000E+02 0. -1.
</event>
<event>
 5    1  0.1247473E-008  0.3734816E+03  0.7957747E-01  0.3480042E+00
         13   -1    0    0    0    0  0.00000000000E+00  0.00000000000E+00  0.14999999963E+04  0.15000000000E+04  0.10566000000E+00 0. -1.
        994   -1    0    0    0    0 -0.00000000000E+00 -0.00000000000E+00  0.11368683772E-12  0.17120000000E+03  0.17120000000E+03 0.  0.
         13    1    1    2    0    0 -0.76284087662E+02 -0.11680822750E+03  0.79553104650E+03  0.80767139429E+03  0.10566000000E+00 0. -1.
        994    1    1    2    0    0  0.60449406391E+02  0.10398007912E+03  0.58622413205E+02  0.21728325964E+03  0.17120000000E+03 0.  0.
        998    1    1    2    0    0  0.15834681271E+02  0.12828148372E+02  0.64584653657E+03  0.64624534608E+03  0.10000000000E+02 0.  0.
</event>
<event>
 5    1  0.1247473E-008  0.3818550E+03  0.7957747E-01  0.3443121E+00
         13   -1    0    0    0    0  0.00000000000E+00  0.00000000000E+00  0.14999999963E+04  0.15000000000E+04  0.10566000000E+00 0. -1.
        994   -1    0    0    0    0 -0.00000000000E+00 -0.00000000000E+00  0.11368683772E-12  0.17120000000E+03  0.17120000000E+03 0.  0.
         13    1    1    2    0    0 -0.13084120265E+01 -0.14275605041E+02  0.28474878613E+02  0.31880004978E+02  0.10566000000E+00 0. -1.
        994    1    1    2    0    0 -0.22661067033E+02  0.36922676329E+02  0.94606630509E+01  0.17684951832E+03  0.17120000000E+03 0.  0.
        998    1    1    2    0    0  0.23969479059E+02 -0.22647071288E+02  0.14620644546E+04  0.14624704767E+04  0.10000000000E+02 0. -1.
</event>
<event>
 5    1  0.1247473E-008  0.3688285E+03  0.7957747E-01  0.3501292E+00
         13   -1    0    0    0    0  0.00000000000E+00  0.00000000000E+00  0.14999999963E+04  0.15000000000E+04  0.10566000000E+00 0.  1.
        994   -1    0    0    0    0 -0.00000000000E+00 -0.00000000000E+00  0.11368683772E-12  0.17120000000E+03  0.17120000000E+03 0.  0.
         13    1    1    2    0    0  0.67080392445E+00 -0.40819777332E+02  0.56818599015E+02  0.69964766543E+02  0.10566000000E+00 0.  1.
        994    1    1    2    0    0 -0.43769572086E+00  0.13619371347E+03  0.77344006110E+02  0.23203545946E+03  0.17120000000E+03 0.  0.
        998    1    1    2    0    0 -0.23310820359E+00 -0.95373936139E+02  0.13658373912E+04  0.13691997740E+04  0.10000000000E+02 0.  1.
</event>
<event>
 5    1  0.1247473E-008  0.3838674E+03  0.7957747E-01  0.3434490E+00
         13   -1    0    0    0    0  0.00000000000E+00  0.00000000000E+00  0.14999999963E+04  0.15000000000E+04  0.10566000000E+00 0. -1.
        994   -1    0    0    0    0 -0.00000000000E+00 -0.00000000000E+00  0.11368683772E-12  0.17120000000E+03  0.17120000000E+03 0.  0.
         13    1    1    2    0    0 -0.54186703391E+02 -0.18625902484E+03  0.10713269316E+04  0.10887469994E+04  0.10566000000E+00 0. -1.
        994    1    1    2    0    0  0.70955800723E+02  0.19412898182E+03  0.15897519728E+03  0.31193483388E+03  0.17120000000E+03 0.  0.
        998    1    1    2    0    0 -0.16769097332E+02 -0.78699569800E+01  0.26969786737E+03  0.27051816670E+03  0.10000000000E+02 0. -1.
</event>
<event>
 5    1  0.1247473E-008  0.3851988E+03  0.7957747E-01  0.3428830E+00
         13   -1    0    0    0    0  0.00000000000E+00  0.00000000000E+00  0.14999999963E+04  0.15000000000E+04  0.10566000000E+00 0. -1.
        994   -1    0    0    0    0 -0.00000000000E+00 -0.00000000000E+00  0.11368683772E-12  0.17120000000E+03  0.17120000000E+03 0.  0.
         13    1    1    2    0    0 -0.13680739668E+02  0.85036073122E+01  0.90327851303E+02  0.91752961043E+02  0.10566000000E+00 0. -1.
        994    1    1    2    0    0 -0.35971519025E+01 -0.10845784734E+02  0.19607160376E+01  0.17159211799E+03  0.17120000000E+03 0.  0.
        998    1    1    2    0    0  0.17277891570E+02  0.23421774222E+01  0.14077114289E+04  0.14078549210E+04  0.10000000000E+02 0. -1.
</event>
<event>
 5    1  0.1247473E-008  0.3772531E+03  0.7957747E-01  0.3463207E+00
         13   -1    0    0    0    0  0.00000000000E+00  0.00000000000E+00  0.14999999963E+04  0.15000000000E+04  0.10566000000E+00 0.  1.
        994   -1    0    0    0    0 -0.00000000000E+00 -0.00000000000E+00  0.11368683772E-12  0.17120000000E+03  0.17120000000E+03 0.  0.
         13    1    1    2    0    0  0.10556347408E+02  0.32107979060E+02  0.13246038052E+03  0.13670450746E+03  0.10566000000E+00 0.  1.
        994    1    1    2    0    0 -0.24142718872E+01  0.31075679054E+02  0.88107226184E+01  0.17423718137E+03  0.17120000000E+03 0.  0.
        998    1    1    2    0    0 -0.81420755205E+01 -0.63183658115E+02  0.13587288931E+04  0.13602583112E+04  0.10000000000E+02 0.  1.
</event>
<event>
 5    1  0.1247473E-008  0.3845606E+03  0.7957747E-01  0.3431538E+00
         13   -1    0    0    0    0  0.00000000000E+00  0.00000000000E+00  0.14999999963E+04  0.15000000000E+04  0.10566000000E+00 0. -1.
        994   -1    0    0    0    0 -0.00000000000E+00 -0.00000000000E+00  0.11368683772E-12  0.17120000000E+03  0.17120000000E+03 0.  0.
         13    1    1    2    0    0 -0.17598690248E+02  0.51494244203E+00  0.97419627143E+02  0.98997848365E+02  0.10566000000E+00 0. -1.
        994    1    1    2    0    0 -0.90127099262E+01 -0.30535799650E+01  0.21467302473E+01  0.17147770042E+03  0.17120000000E+03 0.  0.
        998    1    1    2    0    0  0.26611400175E+02  0.25386375230E+01  0.14004336389E+04  0.14007244512E+04  0.10000000000E+02 0. -1.
</event>
<event>
 5    1  0.1247473E-008  0.3760024E+03  0.7957747E-01  0.3468752E+00
         13   -1    0    0    0    0  0.00000000000E+00  0.00000000000E+00  0.14999999963E+04  0.15000000000E+04  0.10566000000E+00 0.  1.
        994   -1    0    0    0    0 -0.00000000000E+00 -0.00000000000E+00  0.11368683772E-12  0.17120000000E+03  0.17120000000E+03 0.  0.
         13    1    1    2    0    0  0.10012328552E+02 -0.61166077274E+02  0.31636376385E+03  0.32237800479E+03  0.10566000000E+00 0.  1.
        994    1    1    2    0    0  0.18600812171E+02  0.37085479812E+02  0.12018632434E+02  0.17656503208E+03  0.17120000000E+03 0.  0.
        998    1    1    2    0    0 -0.28613140724E+02  0.24080597462E+02  0.11716176000E+04  0.11722569631E+04  0.10000000000E+02 0.  1.
</event>
<event>
 5    1  0.1247473E-008  0.3774709E+03  0.7957747E-01  0.3462245E+00
         13   -1    0    0    0    0  0.00000000000E+00  0.00000000000E+00  0.14999999963E+04  0.15000000000E+04  0.10566000000E+00 0.  1.
        994   -1    0    0    0    0 -0.00000000000E+00 -0.00000000000E+00  0.11368683772E-12  0.17120000000E+03  0.17120000000E+03 0.  0.
         13    1    1    2    0    0 -0.21359635785E+02  0.21143800276E+02  0.75849115954E+02  0.81586726163E+02  0.10566000000E+00 0.  1.
        994    1    1    2    0    0  0.16376304898E+02 -0.35181407716E+02  0.10508748654E+02  0.17585729615E+03  0.17120000000E+03 0.  0.
        998    1    1    2    0    0  0.49833308868E+01  0.14037607440E+02  0.14136421317E+04  0.14137559777E+04  0.10000000000E+02 0.  1.
</event>
<event>
 5    1  0.1247473E-008  0.3765941E+03  0.7957747E-01  0.3466124E+00
         13   -1    0    0    0    0  0.00000000000E+00  0.00000000000E+00  0.14999999963E+04  0.15000000000E+04  0.10566000000E+00 0. -1.
        994   -1    0    0    0    0 -0.00000000000E+00 -0.00000000000E+00  0.11368683772E-12  0.17120000000E+03  0.17120000000E+03 0.  0.
         13    1    1    2    0    0  0.34190995950E+02 -0.29055843637E+02  0.15979068031E+03  0.16597089785E+03  0.10566000000E+00 0. -1.
        994    1    1    2    0    0 -0.31653023338E+02  0.20094687233E+02  0.10629893417E+02  0.17557945488E+03  0.17120000000E+03 0.  0.
        998    1    1    2    0    0 -0.25379726116E+01  0.89611564038E+01  0.13295794225E+04  0.13296496473E+04  0.10000000000E+02 0. -1.
</event>
<event>
 5    1  0.1247473E-008  0.3850225E+03  0.7957747E-01  0.3429577E+00
         13   -1    0    0    0    0  0.00000000000E+00  0.00000000000E+00  0.14999999963E+04  0.15000000000E+04  0.10566000000E+00 0.  1.
        994   -1    0    0    0    0 -0.00000000000E+00 -0.00000000000E+00  0.11368683772E-12  0.17120000000E+03  0.17120000000E+03 0.  0.
         13    1    1    2    0    0  0.16091527964E+02 -0.10346325750E+02  0.11268850494E+03  0.11430089255E+03  0.10566000000E+00 0.  1.
        994    1    1    2    0    0 -0.15072015053E+02 -0.48415595296E-01  0.23663359155E+01  0.17187846732E+03  0.17120000000E+03 0.  0.
        998    1    1    2    0    0 -0.10195129113E+01  0.10394741346E+02  0.13849451554E+04  0.13850206401E+04  0.10000000000E+02 0.  1.
</event>
<event>
 5    1  0.1247473E-008  0.3817448E+03  0.7957747E-01  0.3443596E+00
         13   -1    0    0    0    0  0.00000000000E+00  0.00000000000E+00  0.14999999963E+04  0.15000000000E+04  0.10566000000E+00 0. -1.
        994   -1    0    0    0    0 -0.00000000000E+00 -0.00000000000E+00  0.11368683772E-12  0.17120000000E+03  0.17120000000E+03 0.  0.
         13    1    1    2    0    0  0.40295830615E+02  0.63692669975E+01  0.43394670943E+02  0.59560306894E+02  0.10566000000E+00 0. -1.
        994    1    1    2    0    0 -0.12173846369E+02 -0.34130400071E+01  0.17872291131E+02  0.17259406180E+03  0.17120000000E+03 0.  0.
        998    1    1    2    0    0 -0.28121984245E+02 -0.29562269904E+01  0.14387330342E+04  0.14390456313E+04  0.10000000000E+02 0. -1.
</event>
<event>
 5    1  0.1247473E-008  0.3845438E+03  0.7957747E-01  0.3431609E+00
         13   -1    0    0    0    0  0.00000000000E+00  0.00000000000E+00  0.14999999963E+04  0.15000000000E+04  0.10566000000E+00 0. -1.
        994   -1    0    0    0    0 -0.00000000000E+00 -0.00000000000E+00  0.11368683772E-12  0.17120000000E+03  0.17120000000E+03 0.  0.
         13    1    1    2    0    0 -0.12476160031E+02 -0.60679356880E+01  0.49716501708E+02  0.51616045168E+02  0.10566000000E+00 0. -1.
        994    1    1    2    0    0  0.10466915386E+02  0.15850391463E+02  0.30459622266E+01  0.17227741905E+03  0.17120000000E+03 0.  0.
        998    1    1    2    0    0  0.20092446447E+01 -0.97824557749E+01  0.14472375323E+04  0.14473065358E+04  0.10000000000E+02 0. -1.
</event>
<event>
 5    1  0.1247473E-008  0.3856263E+03  0.7957747E-01  0.3427020E+00
         13   -1    0    0    0    0  0.00000000000E+00  0.00000000000E+00  0.14999999963E+04  0.15000000000E+04  0.10566000000E+00 0.  1.
        994   -1    0    0    0    0 -0.00000000000E+00 -0.00000000000E+00  0.11368683772E-12  0.17120000000E+03  0.17120000000E+03 0.  0.
         13    1    1    2    0    0  0.56782692334E+01  0.13668943705E+02 -0.27745908365E+01  0.15059624227E+02  0.10566000000E+00 0.  1.
        994    1    1    2    0    0  0.35355681591E+02  0.43924322953E+02  0.31312553175E+02  0.18294612965E+03  0.17120000000E+03 0.  0.
        998    1    1    2    0    0 -0.41033950824E+02 -0.57593266658E+02  0.14714620339E+04  0.14731942461E+04  0.10000000000E+02 0.  1.
</event>
<event>
 5    1  0.1247473E-008  0.3730737E+03  0.7957747E-01  0.3481883E+00
         13   -1    0    0    0    0  0.00000000000E+00  0.00000000000E+00  0.14999999963E+04  0.15000000000E+04  0.10566000000E+00 0. -1.
        994   -1    0    0    0    0 -0.00000000000E+00 -0.00000000000E+00  0.11368683772E-12  0.17120000000E+03  0.17120000000E+03 0.  0.
         13    1    1    2    0    0 -0.73804938829E+02  0.44405304980E+02  0.36788178425E+03  0.37783067431E+03  0.10566000000E+00 0. -1.
        994    1    1    2    0    0  0.73808787411E+02 -0.39777284684E+02  0.32120177246E+02  0.19331610192E+03  0.17120000000E+03 0.  0.
        998    1    1    2    0    0 -0.38485818472E-02 -0.46280202961E+01  0.10999980348E+04  0.11000532238E+04  0.10000000000E+02 0. -1.
</event>
<event>
 5    1  0.1247473E-008  0.3730545E+03  0.7957747E-01  0.3481970E+00
         13   -1    0    0    0    0  0.00000000000E+00  0.00000000000E+00  0.14999999963E+04  0.15000000000E+04  0.10566000000E+00 0. -1.
        994   -1    0    0    0    0 -0.00000000000E+00 -0.00000000000E+00  0.11368683772E-12  0.17120000000E+03  0.17120000000E+03 0.  0.
         13    1    1    2    0    0  0.45244873113E+02 -0.74345876030E+01  0.13707869068E+03  0.14454393878E+03  0.10566000000E+00 0. -1.
        994    1    1    2    0    0 -0.23706386270E+02 -0.22057358609E+01  0.96231954574E+01  0.17311529081E+03  0.17120000000E+03 0.  0.
        998    1    1    2    0    0 -0.21538486844E+02  0.96403234639E+01  0.13532981101E+04  0.13535407704E+04  0.10000000000E+02 0. -1.
</event>
<event>
 5    1  0.1247473E-008  0.3833743E+03  0.7957747E-01  0.3436596E+00
         13   -1    0    0    0    0  0.00000000000E+00  0.00000000000E+00  0.14999999963E+04  0.15000000000E+04  0.10566000000E+00 0.  1.
        994   -1    0    0    0    0 -0.00000000000E+00 -0.00000000000E+00  0.11368683772E-12  0.17120000000E+03  0.17120000000E+03 0.  0.
         13    1    1    2    0    0  0.10115518150E+02 -0.59387196814E+01  0.27119963871E+02  0.29548192894E+02  0.10566000000E+00 0.  1.
        994    1    1    2    0    0 -0.13130204204E+02 -0.76864065720E+00  0.30115374082E+01  0.17173090120E+03  0.17120000000E+03 0.  0.
        998    1    1    2    0    0  0.30146860543E+01  0.67073603386E+01  0.14698684950E+04  0.14699209059E+04  0.10000000000E+02 0.  1.
</event>
<event>
 5    1  0.1247473E-008  0.3695729E+03  0.7957747E-01  0.3497856E+00
         13   -1    0    0    0    0  0.00000000000E+00  0.00000000000E+00  0.14999999963E+04  0.15000000000E+04  0.10566000000E+00 0. -1.
        994   -1    0    0    0    0 -0.00000000000E+00 -0.00000000000E+00  0.11368683772E-12  0.17120000000E+03  0.17120000000E+03 0.  0.
         13    1    1    2    0    0 -0.65180928352E+02 -0.22133790020E+02  0.29240160114E+03  0.30039501593E+03  0.10566000000E+00 0. -1.
        994    1    1    2    0    0  0.24263440911E+02 -0.24797213215E+02  0.13671740418E+02  0.17521407716E+03  0.17120000000E+03 0.  0.
        998    1    1    2    0    0  0.40917487441E+02  0.46931003234E+02  0.11939266547E+04  0.11955909069E+04  0.10000000000E+02 0. -1.
</event>
<event>
 5    1  0.1247473E-008  0.3781580E+03  0.7957747E-01  0.3459218E+00
         13   -1    0    0    0    0  0.00000000000E+00  0.00000000000E+00  0.14999999963E+04  0.15000000000E+04  0.10566000000E+00 0.  1.
        994   -1    0    0    0    0 -0.00000000000E+00 -0.00000000000E+00  0.11368683772E-12  0.17120000000E+03  0.17120000000E+03 0.  0.
         13    1    1    2    0    0 -0.70881061364E+01  0.17135765392E+02  0.32585046304E+02  0.37492294019E+02  0.10566000000E+00 0.  1.
        994    1    1    2    0    0  0.28107575195E+01 -0.46393173799E+01  0.51648515796E+01  0.17136376313E+03  0.17120000000E+03 0.  0.
        998    1    1    2    0    0  0.42773486169E+01 -0.12496448012E+02  0.14622500984E+04  0.14623439428E+04  0.10000000000E+02 0.  1.
</event>
<event>
 5    1  0.1247473E-008  0.3811095E+03  0.7957747E-01  0.3446342E+00
         13   -1    0    0    0    0  0.00000000000E+00  0.00000000000E+00  0.14999999963E+04  0.15000000000E+04  0.10566000000E+00 0.  1.
        994   -1    0    0    0    0 -0.00000000000E+00 -0.00000000000E+00  0.11368683772E-12  0.17120000000E+03  0.17120000000E+03 0.  0.
         13    1    1    2    0    0  0.30917590451E+02  0.16664697240E+02  0.16533912457E+03  0.16902853845E+03  0.10566000000E+00 0.  1.
        994    1    1    2    0    0 -0.16854203146E+02 -0.23169579715E+02  0.63130958998E+01  0.17369567861E+03  0.17120000000E+03 0.  0.
        998    1    1    2    0    0 -0.14063387305E+02  0.65048824750E+01  0.13283477758E+04  0.13284757829E+04  0.10000000000E+02 0.  1.
</event>
<event>
 5    1  0.1247473E-008  0.3828588E+03  0.7957747E-01  0.3438804E+00
         13   -1    0    0    0    0  0.00000000000E+00  0.00000000000E+00  0.14999999963E+04  0.15000000000E+04  0.10566000000E+00 0.  1.
        994   -1    0    0    0    0 -0.00000000000E+00 -0.00000000000E+00  0.11368683772E-12  0.17120000000E+03  0.17120000000E+03 0.  0.
         13    1    1    2    0    0  0.25524514973E+02  0.76732687334E+01  0.11719130259E+03  0.12018399429E+03  0.10566000000E+00 0.  1.
        994    1    1    2    0    0 -0.32815487425E+02 -0.50972408093E+01  0.63577497118E+01  0.17450701722E+03  0.17120000000E+03 0.  0.
        998    1    1    2    0    0  0.72909724517E+01 -0.25760279241E+01  0.13764509440E+04  0.13765089885E+04  0.10000000000E+02 0.  1.
</event>
<event>
 5    1  0.1247473E-008  0.3798793E+03  0.7957747E-01  0.3451684E+00
         13   -1    0    0    0    0  0.00000000000E+00  0.00000000000E+00  0.14999999963E+04  0.15000000000E+04  0.10566000000E+00 0. -1.
        994   -1    0    0    0    0 -0.00000000000E+00 -0.00000000000E+00  0.11368683772E-12  0.17120000000E+03  0.17120000000E+03 0.  0.
         13    1    1    2    0    0  0.99615275385E+01 -0.20597801871E+02  0.58193625613E+02  0.62530078354E+02  0.10566000000E+00 0. -1.
        994    1    1    2    0    0 -0.11997893157E+02  0.23080507091E+02  0.64602886194E+01  0.17328541363E+03  0.17120000000E+03 0.  0.
        998    1    1    2    0    0  0.20363656180E+01 -0.24827052197E+01  0.14353460820E+04  0.14353845080E+04  0.10000000000E+02 0. -1.
</event>
<event>
 5    1  0.1247473E-008  0.3847590E+03  0.7957747E-01  0.3430695E+00
         13   -1    0    0    0    0  0.00000000000E+00  0.00000000000E+00  0.14999999963E+04  0.15000000000E+04  0.10566000000E+00 0. -1.
        994   -1    0    0    0    0 -0.00000000000E+00 -0.00000000000E+00  0.11368683772E-12  0.17120000000E+03  0.17120000000E+03 0.  0.
         13    1    1    2    0    0 -0.92852245229E+01  0.37442455243E+01  0.28615272275E+02  0.30316327950E+02  0.10566000000E+00 0. -1.
        994    1    1    2    0    0  0.19985016374E+01 -0.61890248912E+01  0.18890800889E+01  0.17133390400E+03  0.17120000000E+03 0.  0.
        998    1    1    2    0    0  0.72867228855E+01  0.24447793669E+01  0.14694956439E+04  0.14695497680E+04  0.10000000000E+02 0. -1.
</event>
<event>
 5    1  0.1247473E-008  0.3827688E+03  0.7957747E-01  0.3439190E+00
         13   -1    0    0    0    0  0.00000000000E+00  0.00000000000E+00  0.14999999963E+04  0.15000000000E+04  0.10566000000E+00 0.  1.
        994   -1    0    0    0    0 -0.00000000000E+00 -0.00000000000E+00  0.11368683772E-12  0.17120000000E+03  0.17120000000E+03 0.  0.
         13    1    1    2    0    0 -0.77179183453E+01  0.77787768330E+01  0.21451649574E+02  0.24088587880E+02  0.10566000000E+00 0.  1.
        994    1    1    2    0    0  0.13775704036E+01  0.29828072745E+01  0.27777231034E+01  0.17125405276E+03  0.17120000000E+03 0.  0.
        998    1    1    2    0    0  0.63403479417E+01 -0.10761584108E+02  0.14757706236E+04  0.14758573594E+04  0.10000000000E+02 0.  1.
</event>
<event>
 5    1  0.1247473E-008  0.3810463E+03  0.7957747E-01  0.3446615E+00
         13   -1    0    0    0    0  0.00000000000E+00  0.00000000000E+00  0.14999999963E+04  0.15000000000E+04  0.10566000000E+00 0. -1.
        994   -1    0    0    0    0 -0.00000000000E+00 -0.00000000000E+00  0.11368683772E-12  0.17120000000E+03  0.17120000000E+03 0.  0.
         13    1    1    2    0    0  0.24078062281E+02  0.99985428704E+00  0.83156038166E+02  0.86577656698E+02  0.10566000000E+00 0. -1.
        994    1    1    2    0    0 -0.54155470871E+01 -0.40234314930E+01  0.37575409078E+01  0.17137407991E+03  0.17120000000E+03 0.  0.
        998    1    1    2    0    0 -0.18662515194E+02  0.30235772060E+01  0.14130864172E+04  0.14132482634E+04  0.10000000000E+02 0. -1.
</event>
<event>
 5    1  0.1247473E-008  0.2770926E+03  0.7957747E-01  0.4074472E+00
         13   -1    0    0    0    0  0.00000000000E+00  0.00000000000E+00  0.14999999963E+04  0.15000000000E+04  0.10566000000E+00 0. -1.
        994   -1    0    0    0    0 -0.00000000000E+00 -0.00000000000E+00  0.11368683772E-12  0.17120000000E+03  0.17120000000E+03 0.  0.
         13    1    1    2    0    0  0.18541762776E+03 -0.41224376837E+02  0.45250833882E+03  0.49075753056E+03  0.10566000000E+00 0. -1.
        994    1    1    2    0    0 -0.18210705622E+03  0.50184083133E+02  0.17819890149E+03  0.31103972514E+03  0.17120000000E+03 0.  0.
        998    1    1    2    0    0 -0.33105715386E+01 -0.89597062959E+01  0.86929275596E+03  0.86940274430E+03  0.10000000000E+02 0.  0.
</event>
<event>
 5    1  0.1247473E-008  0.3687274E+03  0.7957747E-01  0.3501760E+00
         13   -1    0    0    0    0  0.00000000000E+00  0.00000000000E+00  0.14999999963E+04  0.15000000000E+04  0.10566000000E+00 0.  1.
        994   -1    0    0    0    0 -0.00000000000E+00 -0.00000000000E+00  0.11368683772E-12  0.17120000000E+03  0.17120000000E+03 0.  0.
         13    1    1    2    0    0  0.78159917967E+01  0.31289025487E+02  0.47706257120E+02  0.57584641843E+02  0.10566000000E+00 0.  1.
        994    1    1    2    0    0 -0.24057669658E+02 -0.22362272976E+02  0.13691726050E+02  0.17485921790E+03  0.17120000000E+03 0.  0.
        998    1    1    2    0    0  0.16241677861E+02 -0.89267525113E+01  0.14386020131E+04  0.14387561403E+04  0.10000000000E+02 0.  1.
</event>
<event>
 5    1  0.1247473E-008  0.3856591E+03  0.7957747E-01  0.3426882E+00
         13   -1    0    0    0    0  0.00000000000E+00  0.00000000000E+00  0.14999999963E+04  0.15000000000E+04  0.10566000000E+00 0.  1.
        994   -1    0    0    0    0 -0.00000000000E+00 -0.00000000000E+00  0.11368683772E-12  0.17120000000E+03  0.17120000000E+03 0.  0.
         13    1    1    2    0    0  0.28067615421E+01 -0.12822489876E+02  0.73409364564E+02  0.74573722763E+02  0.10566000000E+00 0.  1.
        994    1    1    2    0    0  0.93977342651E+01 -0.20594645683E+01  0.16070484034E+01  0.17147764113E+03  0.17120000000E+03 0.  0.
        998    1    1    2    0    0 -0.12204495807E+02  0.14881954444E+02  0.14249835833E+04  0.14251486361E+04  0.10000000000E+02 0.  1.
</event>
<event>
 5    1  0.1247473E-008  0.3801699E+03  0.7957747E-01  0.3450419E+00
         13   -1    0    0    0    0  0.00000000000E+00  0.00000000000E+00  0.14999999963E+04  0.15000000000E+04  0.10566000000E+00 0.  1.
        994   -1    0    0    0    0 -0.00000000000E+00 -0.00000000000E+00  0.11368683772E-12  0.17120000000E+03  0.17120000000E+03 0.  0.
         13    1    1    2    0    0  0.29236265838E+02  0.12820458898E+03  0.71664814323E+03  0.72861220703E+03  0.10566000000E+00 0.  1.
        994    1    1    2    0    0 -0.64125480505E+02 -0.14488749714E+03  0.93066899505E+02  0.25114806760E+03  0.17120000000E+03 0.  0.
        998    1    1    2    0    0  0.34889214666E+02  0.16682908166E+02  0.69028495354E+03  0.69143972536E+03  0.10000000000E+02 0.  1.
</event>
<event>
 5    1  0.1247473E-008  0.3775817E+03  0.7957747E-01  0.3461756E+00
         13   -1    0    0    0    0  0.00000000000E+00  0.00000000000E+00  0.14999999963E+04  0.15000000000E+04  0.10566000000E+00 0.  1.
        994   -1    0    0    0    0 -0.00000000000E+00 -0.00000000000E+00  0.11368683772E-12  0.17120000000E+03  0.17120000000E+03 0.  0.
         13    1    1    2    0    0 -0.67059600145E+01  0.18062920700E+03  0.82843546746E+03  0.84792524153E+03  0.10566000000E+00 0.  1.
        994    1    1    2    0    0  0.22441460172E+01 -0.19543359590E+03  0.14727409244E+03  0.29866105354E+03  0.17120000000E+03 0.  0.
        998    1    1    2    0    0  0.44618139973E+01  0.14804388905E+02  0.52429043638E+03  0.52461370492E+03  0.10000000000E+02 0.  1.
</event>
<event>
 5    1  0.1247473E-008  0.3718170E+03  0.7957747E-01  0.3487582E+00
         13   -1    0    0    0    0  0.00000000000E+00  0.00000000000E+00  0.14999999963E+04  0.15000000000E+04  0.10566000000E+00 0.  1.
        994   -1    0    0    0    0 -0.00000000000E+00 -0.00000000000E+00  0.11368683772E-12  0.17120000000E+03  0.17120000000E+03 0.  0.
         13    1    1    2    0    0 -0.27016511090E+02  0.49398648746E+00  0.42563392642E+02  0.50416162600E+02  0.10566000000E+00 0.  1.
        994    1    1    2    0    0 -0.84097508402E+00 -0.51536569017E+02  0.17507069490E+02  0.17964593696E+03  0.17120000000E+03 0.  0.
        998    1    1    2    0    0  0.27857486174E+02  0.51042582529E+02  0.14399295341E+04  0.14411379004E+04  0.10000000000E+02 0.  1.
</event>
<event>
 5    1  0.1247473E-008  0.3855749E+03  0.7957747E-01  0.3427238E+00
         13   -1    0    0    0    0  0.00000000000E+00  0.00000000000E+00  0.14999999963E+04  0.15000000000E+04  0.10566000000E+00 0.  1.
        994   -1    0    0    0    0 -0.00000000000E+00 -0.00000000000E+00  0.11368683772E-12  0.17120000000E+03  0.17120000000E+03 0.  0.
         13    1    1    2    0    0 -0.28200929168E+01 -0.15190778931E+02  0.84666625662E+02  0.86064867127E+02  0.10566000000E+00 0.  1.
        994    1    1    2    0    0  0.26730455299E+01  0.16551872354E+02  0.22682774854E+01  0.17203399296E+03  0.17120000000E+03 0.  0.
        998    1    1    2    0    0  0.14704738682E+00 -0.13610934224E+01  0.14130650931E+04  0.14131011399E+04  0.10000000000E+02 0.  1.
</event>
<event>
 5    1  0.1247473E-008  0.3811880E+03  0.7957747E-01  0.3446002E+00
         13   -1    0    0    0    0  0.00000000000E+00  0.00000000000E+00  0.14999999963E+04  0.15000000000E+04  0.10566000000E+00 0.  1.
        994   -1    0    0    0    0 -0.00000000000E+00 -0.00000000000E+00  0.11368683772E-12  0.17120000000E+03  0.17120000000E+03 0.  0.
         13    1    1    2    0    0 -0.93107284985E+01  0.13922336326E+02  0.38176440136E+02  0.41689001660E+02  0.10566000000E+00 0.  1.
        994    1    1    2    0    0  0.64466405533E+01 -0.10888612541E+02  0.40680268191E+01  0.17171519997E+03  0.17120000000E+03 0.  0.
        998    1    1    2    0    0  0.28640879451E+01 -0.30337237843E+01  0.14577555293E+04  0.14577957984E+04  0.10000000000E+02 0.  1.
</event>
<event>
 5    1  0.1247473E-008  0.3733186E+03  0.7957747E-01  0.3480777E+00
         13   -1    0    0    0    0  0.00000000000E+00  0.00000000000E+00  0.14999999963E+04  0.15000000000E+04  0.10566000000E+00 0. -1.
        994   -1    0    0    0    0 -0.00000000000E+00 -0.00000000000E+00  0.11368683772E-12  0.17120000000E+03  0.17120000000E+03 0.  0.
         13    1    1    2    0    0  0.58020995203E+02  0.69891873306E+01  0.20060128200E+03  0.20894058995E+03  0.10566000000E+00 0. -1.
        994    1    1    2    0    0 -0.53246651431E+02 -0.53955665628E+01  0.17400675536E+02  0.18021248996E+03  0.17120000000E+03 0.  0.
        998    1    1    2    0    0 -0.47743437714E+01 -0.15936207678E+01  0.12819980387E+04  0.12820469201E+04  0.10000000000E+02 0. -1.
</event>
<event>
 5    1  0.1247473E-008  0.3779375E+03  0.7957747E-01  0.3460189E+00
         13   -1    0    0    0    0  0.00000000000E+00  0.00000000000E+00  0.14999999963E+04  0.15000000000E+04  0.10566000000E+00 0. -1.
        994   -1    0    0    0    0 -0.00000000000E+00 -0.00000000000E+00  0.11368683772E-12  0.17120000000E+03  0.17120000000E+03 0.  0.
         13    1    1    2    0    0  0.91022721510E+01 -0.53613899013E+02  0.26767073301E+03  0.27313903786E+03  0.10566000000E+00 0. -1.
        994    1    1    2    0    0 -0.64613223635E+01  0.37953850112E+02  0.10183208207E+02  0.17577081997E+03  0.17120000000E+03 0.  0.
        998    1    1    2    0    0 -0.26409497875E+01  0.15660048901E+02  0.12221460551E+04  0.12222901422E+04  0.10000000000E+02 0. -1.
</event>
<event>
 5    1  0.1247473E-008  0.3792753E+03  0.7957747E-01  0.3454320E+00
         13   -1    0    0    0    0  0.00000000000E+00  0.00000000000E+00  0.14999999963E+04  0.15000000000E+04  0.10566000000E+00 0.  1.
        994   -1    0    0    0    0 -0.00000000000E+00 -0.00000000000E+00  0.11368683772E-12  0.17120000000E+03  0.17120000000E+03 0.  0.
         13    1    1    2    0    0 -0.15810652403E+02  0.79627236411E+01  0.34370141753E+02  0.38661343812E+02  0.10566000000E+00 0.  1.
        994    1    1    2    0    0 -0.53117081091E+01 -0.91239471821E+01  0.48730157647E+01  0.17159442572E+03  0.17120000000E+03 0.  0.
        998    1    1    2    0    0  0.21122360512E+02  0.11612235410E+01  0.14607568388E+04  0.14609442305E+04  0.10000000000E+02 0.  1.
</event>
<event>
 5    1  0.1247473E-008  0.3830336E+03  0.7957747E-01  0.3438055E+00
         13   -1    0    0    0    0  0.00000000000E+00  0.00000000000E+00  0.14999999963E+04  0.15000000000E+04  0.10566000000E+00 0. -1.
        994   -1    0    0    0    0 -0.00000000000E+00 -0.00000000000E+00  0.11368683772E-12  0.17120000000E+03  0.17120000000E+03 0.  0.
         13    1    1    2    0    0  0.26819114108E+01  0.13225851273E+02  0.34512611130E+02  0.37057351251E+02  0.10566000000E+00 0. -1.
        994    1    1    2    0    0 -0.14246130661E+02 -0.28702916051E+01  0.33088750720E+01  0.17184754717E+03  0.17120000000E+03 0.  0.
        998    1    1    2    0    0  0.11564219251E+02 -0.10355559668E+02  0.14621785101E+04  0.14622951016E+04  0.10000000000E+02 0. -1.
</event>
<event>
 5    1  0.1247473E-008  0.3827395E+03  0.7957747E-01  0.3439316E+00
         13   -1    0    0    0    0  0.00000000000E+00  0.00000000000E+00  0.14999999963E+04  0.15000000000E+04  0.10566000000E+00 0.  1.
        994   -1    0    0    0    0 -0.00000000000E+00 -0.00000000000E+00  0.11368683772E-12  0.17120000000E+03  0.17120000000E+03 0.  0.
         13    1    1    2    0    0  0.21455895171E+02 -0.70206471074E+01  0.93741527730E+02  0.96421626768E+02  0.10566000000E+00 0.  1.
        994    1    1    2    0    0 -0.11390571367E+02 -0.17970345348E+01  0.31972448820E+01  0.17161770545E+03  0.17120000000E+03 0.  0.
        998    1    1    2    0    0 -0.10065323803E+02  0.88176816422E+01  0.14030612237E+04  0.14031606678E+04  0.10000000000E+02 0.  1.
</event>
<event>
 5    1  0.1247473E-008  0.3849474E+03  0.7957747E-01  0.3429895E+00
         13   -1    0    0    0    0  0.00000000000E+00  0.00000000000E+00  0.14999999963E+04  0.15000000000E+04  0.10566000000E+00 0. -1.
        994   -1    0    0    0    0 -0.00000000000E+00 -0.00000000000E+00  0.11368683772E-12  0.17120000000E+03  0.17120000000E+03 0.  0.
         13    1    1    2    0    0 -0.16920733773E+02  0.10980417409E+02  0.11315018026E+03  0.11493413442E+03  0.10566000000E+00 0. -1.
        994    1    1    2    0    0  0.17374582539E+02 -0.15005786802E+02  0.33917407550E+01  0.17276571900E+03  0.17120000000E+03 0.  0.
        998    1    1    2    0    0 -0.45384876544E+00  0.40253693932E+01  0.13834580753E+04  0.13835001466E+04  0.10000000000E+02 0. -1.
</event>
<event>
 5    1  0.1247473E-008  0.3717633E+03  0.7957747E-01  0.3487826E+00
         13   -1    0    0    0    0  0.00000000000E+00  0.00000000000E+00  0.14999999963E+04  0.15000000000E+04  0.10566000000E+00 0.  1.
        994   -1    0    0    0    0 -0.00000000000E+00 -0.00000000000E+00  0.11368683772E-12  0.17120000000E+03  0.17120000000E+03 0.  0.
         13    1    1    2    0    0 -0.19589706801E+02  0.15443892414E+02  0.34504910694E+02  0.42577816425E+02  0.10566000000E+00 0.  1.
        994    1    1    2    0    0  0.12718506286E+02 -0.14503734039E+00  0.89064991742E+01  0.17190272588E+03  0.17120000000E+03 0.  0.
        998    1    1    2    0    0  0.68712005152E+01 -0.15298855074E+02  0.14565885864E+04  0.14567194577E+04  0.10000000000E+02 0.  1.
</event>
<event>
 5    1  0.1247473E-008  0.3835883E+03  0.7957747E-01  0.3435682E+00
         13   -1    0    0    0    0  0.00000000000E+00  0.00000000000E+00  0.14999999963E+04  0.15000000000E+04  0.10566000000E+00 0.  1.
        994   -1    0    0    0    0 -0.00000000000E+00 -0.00000000000E+00  0.11368683772E-12  0.17120000000E+03  0.17120000000E+03 0.  0.
         13    1    1    2    0    0 -0.17951583197E+02  0.12394860027E+02  0.10116367524E+03  0.10348909240E+03  0.10566000000E+00 0.  1.
        994    1    1    2    0    0  0.12298830166E+02 -0.68304589724E+01  0.29867884648E+01  0.17180301889E+03  0.17120000000E+03 0.  0.
        998    1    1    2    0    0  0.56527530316E+01 -0.55644010543E+01  0.13958495326E+04  0.13959078887E+04  0.10000000000E+02 0.  1.
</event>
<event>
 5    1  0.1247473E-008  0.3780723E+03  0.7957747E-01  0.3459595E+00
         13   -1    0    0    0    0  0.00000000000E+00  0.00000000000E+00  0.14999999963E+04  0.15000000000E+04  0.10566000000E+00 0. -1.
        994   -1    0    0    0    0 -0.00000000000E+00 -0.00000000000E+00  0.11368683772E-12  0.17120000000E+03  0.17120000000E+03 0.  0.
         13    1    1    2    0    0 -0.20389890078E+02  0.37492046240E+02  0.12793011275E+03  0.13486113621E+03  0.10566000000E+00 0. -1.
        994    1    1    2    0    0  0.78419706342E+02 -0.58138864992E+02  0.37872041967E+02  0.20068260893E+03  0.17120000000E+03 0.  0.
        998    1    1    2    0    0 -0.58029816264E+02  0.20646818751E+02  0.13341978416E+04  0.13356562549E+04  0.10000000000E+02 0. -1.
</event>
<event>
 5    1  0.1247473E-008  0.3707159E+03  0.7957747E-01  0.3492607E+00
         13   -1    0    0    0    0  0.00000000000E+00  0.00000000000E+00  0.14999999963E+04  0.15000000000E+04  0.10566000000E+00 0. -1.
        994   -1    0    0    0    0 -0.00000000000E+00 -0.00000000000E+00  0.11368683772E-12  0.17120000000E+03  0.17120000000E+03 0.  0.
         13    1    1    2    0    0 -0.71929830271E+02 -0.12332953626E+03  0.61531754344E+03  0.63166428221E+03  0.10566000000E+00 0. -1.
        994    1    1    2    0    0  0.45453798898E+02  0.11732026537E+03  0.69063688913E+02  0.22340395168E+03  0.17120000000E+03 0.  0.
        998    1    1    2    0    0  0.26476031374E+02  0.60092708838E+01  0.81561876393E+03  0.81613176610E+03  0.10000000000E+02 0. -1.
</event>
<event>
 5    1  0.1247473E-008  0.3774385E+03  0.7957747E-01  0.3462388E+00
         13   -1    0    0    0    0  0.00000000000E+00  0.00000000000E+00  0.14999999963E+04  0.15000000000E+04  0.10566000000E+00 0.  1.
        994   -1    0    0    0    0 -0.00000000000E+00 -0.00000000000E+00  0.11368683772E-12  0.17120000000E+03  0.17120000000E+03 0.  0.
         13    1    1    2    0    0  0.21530782921E+02 -0.48030509295E+02  0.21812678968E+03  0.22438763776E+03  0.10566000000E+00 0.  1.
        994    1    1    2    0    0 -0.14730515114E+02  0.50910314033E+02  0.14960980274E+02  0.17983914780E+03  0.17120000000E+03 0.  0.
        998    1    1    2    0    0 -0.68002678070E+01 -0.28798047377E+01  0.12669122263E+04  0.12669732144E+04  0.10000000000E+02 0.  1.
</event>
<event>
 5    1  0.1247473E-008  0.3742357E+03  0.7957747E-01  0.3476648E+00
         13   -1    0    0    0    0  0.00000000000E+00  0.00000000000E+00  0.14999999963E+04  0.15000000000E+04  0.10566000000E+00 0. -1.
        994   -1    0    0    0    0 -0.00000000000E+00 -0.00000000000E+00  0.11368683772E-12  0.17120000000E+03  0.17120000000E+03 0.  0.
         13    1    1    2    0    0 -0.12313841441E+01 -0.13938388154E+02  0.10570444172E+02  0.17536830537E+02  0.10566000000E+00 0. -1.
        994    1    1    2    0    0 -0.26453501965E+01  0.14875227189E+02  0.78500673434E+01  0.17204456928E+03  0.17120000000E+03 0.  0.
        998    1    1    2    0    0  0.38767343406E+01 -0.93683903484E+00  0.14815794848E+04  0.14816186002E+04  0.10000000000E+02 0. -1.
</event>
<event>
 5    1  0.1247473E-008  0.3787501E+03  0.7957747E-01  0.3456619E+00
         13   -1    0    0    0    0  0.00000000000E+00  0.00000000000E+00  0.14999999963E+04  0.15000000000E+04  0.10566000000E+00 0.  1.
        994   -1    0    0    0    0 -0.00000000000E+00 -0.00000000000E+00  0.11368683772E-12  0.17120000000E+03  0.17120000000E+03 0.  0.
         13    1    1    2    0    0 -0.11330581724E+02 -0.12203408385E+02  0.26591548173E+02  0.31375577392E+02  0.10566000000E+00 0.  1.
        994    1    1    2    0    0  0.15474301034E+02  0.11154133414E+02  0.59877837147E+01  0.17236345970E+03  0.17120000000E+03 0.  0.
        998    1    1    2    0    0 -0.41437193095E+01  0.10492749704E+01  0.14674206644E+04  0.14674609629E+04  0.10000000000E+02 0.  1.
</event>
<event>
 5    1  0.1247473E-008  0.3751535E+03  0.7957747E-01  0.3472537E+00
         13   -1    0    0    0    0  0.00000000000E+00  0.00000000000E+00  0.14999999963E+04  0.15000000000E+04  0.10566000000E+00 0. -1.
        994   -1    0    0    0    0 -0.00000000000E+00 -0.00000000000E+00  0.11368683772E-12  0.17120000000E+03  0.17120000000E+03 0.  0.
         13    1    1    2    0    0  0.60123070075E+02  0.36720403357E+02  0.25456163842E+03  0.26413029076E+03  0.10566000000E+00 0. -1.
        994    1    1    2    0    0  0.18478404013E+02  0.19663041656E+02  0.16286668152E+02  0.17407694328E+03  0.17120000000E+03 0.  0.
        998    1    1    2    0    0 -0.78601474089E+02 -0.56383445013E+02  0.12291516897E+04  0.12329927660E+04  0.10000000000E+02 0. -1.
</event>
<event>
 5    1  0.1247473E-008  0.3837826E+03  0.7957747E-01  0.3434852E+00
         13   -1    0    0    0    0  0.00000000000E+00  0.00000000000E+00  0.14999999963E+04  0.15000000000E+04  0.10566000000E+00 0.  1.
        994   -1    0    0    0    0 -0.00000000000E+00 -0.00000000000E+00  0.11368683772E-12  0.17120000000E+03  0.17120000000E+03 0.  0.
         13    1    1    2    0    0 -0.49566682185E+01 -0.18247565566E+02  0.80109482817E+02  0.82310889985E+02  0.10566000000E+00 0.  1.
        994    1    1    2    0    0 -0.14741138449E+01  0.11553746846E+02  0.26838197788E+01  0.17161673860E+03  0.17120000000E+03 0.  0.
        998    1    1    2    0    0  0.64307820634E+01  0.66938187196E+01  0.14172066937E+04  0.14172723714E+04  0.10000000000E+02 0.  1.
</event>
<event>
 5    1  0.1247473E-008  0.3852405E+03  0.7957747E-01  0.3428653E+00
         13   -1    0    0    0    0  0.00000000000E+00  0.00000000000E+00  0.14999999963E+04  0.15000000000E+04  0.10566000000E+00 0.  1.
        994   -1    0    0    0    0 -0.00000000000E+00 -0.00000000000E+00  0.11368683772E-12  0.17120000000E+03  0.17120000000E+03 0.  0.
         13    1    1    2    0    0 -0.94560279437E+01 -0.66740370701E+01  0.47117520287E+02  0.48518358560E+02  0.10566000000E+00 0.  1.
        994    1    1    2    0    0 -0.47296556720E+01  0.18132753982E+01  0.15950974652E+01  0.17128234569E+03  0.17120000000E+03 0.  0.
        998    1    1    2    0    0  0.14185683616E+02  0.48607616719E+01  0.14512873785E+04  0.14513992957E+04  0.10000000000E+02 0.  1.
</event>
<event>
 5    1  0.1247473E-008  0.3782649E+03  0.7957747E-01  0.3458748E+00
         13   -1    0    0    0    0  0.00000000000E+00  0.00000000000E+00  0.14999999963E+04  0.15000000000E+04  0.10566000000E+00 0.  1.
        994   -1    0    0    0    0 -0.00000000000E+00 -0.00000000000E+00  0.11368683772E-12  0.17120000000E+03  0.17120000000E+03 0.  0.
         13    1    1    2    0    0 -0.65710513159E+02 -0.25424426903E+02  0.33729975694E+03  0.34458004907E+03  0.10566000000E+00 0.  1.
        994    1    1    2    0    0  0.83456717788E+02  0.17869586781E+02  0.29907402532E+02  0.19361879713E+03  0.17120000000E+03 0.  0.
        998    1    1    2    0    0 -0.17746204629E+02  0.75548401222E+01  0.11327928368E+04  0.11330011538E+04  0.10000000000E+02 0.  1.
</event>
<event>
 5    1  0.1247473E-008  0.3805511E+03  0.7957747E-01  0.3448762E+00
         13   -1    0    0    0    0  0.00000000000E+00  0.00000000000E+00  0.14999999963E+04  0.15000000000E+04  0.10566000000E+00 0. -1.
        994   -1    0    0    0    0 -0.00000000000E+00 -0.00000000000E+00  0.11368683772E-12  0.17120000000E+03  0.17120000000E+03 0.  0.
         13    1    1    2    0    0 -0.20846061904E+02 -0.64192010250E+01  0.58513914002E+02  0.62447207581E+02  0.10566000000E+00 0. -1.
        994    1    1    2    0    0  0.32448060371E+02 -0.30750266948E+02  0.10552679337E+02  0.17725477308E+03  0.17120000000E+03 0.  0.
        998    1    1    2    0    0 -0.11601998467E+02  0.37169467973E+02  0.14309334029E+04  0.14314980193E+04  0.10000000000E+02 0. -1.
</event>
<event>
 5    1  0.1247473E-008  0.3809454E+03  0.7957747E-01  0.3447052E+00
         13   -1    0    0    0    0  0.00000000000E+00  0.00000000000E+00  0.14999999963E+04  0.15000000000E+04  0.10566000000E+00 0. -1.
        994   -1    0    0    0    0 -0.00000000000E+00 -0.00000000000E+00  0.11368683772E-12  0.17120000000E+03  0.17120000000E+03 0.  0.
         13    1    1    2    0    0  0.22998648394E+02  0.37518445217E+01  0.76880289927E+02  0.80334328332E+02  0.10566000000E+00 0. -1.
        994    1    1    2    0    0 -0.31705351008E+01 -0.44932921189E+01  0.37574497577E+01  0.17132950825E+03  0.17120000000E+03 0.  0.
        998    1    1    2    0    0 -0.19828113293E+02  0.74144759728E+00  0.14193622566E+04  0.14195361634E+04  0.10000000000E+02 0. -1.
</event>
<event>
 5    1  0.1247473E-008  0.3860221E+03  0.7957747E-01  0.3425349E+00
         13   -1    0    0    0    0  0.00000000000E+00  0.00000000000E+00  0.14999999963E+04  0.15000000000E+04  0.10566000000E+00 0.  1.
        994   -1    0    0    0    0 -0.00000000000E+00 -0.00000000000E+00  0.11368683772E-12  0.17120000000E+03  0.17120000000E+03 0.  0.
         13    1    1    2    0    0  0.73586345473E+01  0.77637806381E+01  0.46895671158E+02  0.48100321513E+02  0.10566000000E+00 0.  1.
        994    1    1    2    0    0 -0.24574144122E+02 -0.74146139738E+01  0.32861277947E+01  0.17314474781E+03  0.17120000000E+03 0.  0.
        998    1    1    2    0    0  0.17215509575E+02 -0.34916666434E+00  0.14498181973E+04  0.14499549307E+04  0.10000000000E+02 0.  1.
</event>
<event>
 5    1  0.1247473E-008  0.3838059E+03  0.7957747E-01  0.3434752E+00
         13   -1    0    0    0    0  0.00000000000E+00  0.00000000000E+00  0.14999999963E+04  0.15000000000E+04  0.10566000000E+00 0.  1.
        994   -1    0    0    0    0 -0.00000000000E+00 -0.00000000000E+00  0.11368683772E-12  0.17120000000E+03  0.17120000000E+03 0.  0.
         13    1    1    2    0    0  0.29815152442E+01  0.98052621734E+01  0.24463410361E+02  0.26523616080E+02  0.10566000000E+00 0.  1.
        994    1    1    2    0    0 -0.32180775080E+01  0.12947188122E+02  0.28119637957E+01  0.17174205322E+03  0.17120000000E+03 0.  0.
        998    1    1    2    0    0  0.23656226384E+00 -0.22752450295E+02  0.14727246221E+04  0.14729343307E+04  0.10000000000E+02 0.  1.
</event>
<event>
 5    1  0.1247473E-008  0.3689734E+03  0.7957747E-01  0.3500622E+00
         13   -1    0    0    0    0  0.00000000000E+00  0.00000000000E+00  0.14999999963E+04  0.15000000000E+04  0.10566000000E+00 0.  1.
        994   -1    0    0    0    0 -0.00000000000E+00 -0.00000000000E+00  0.11368683772E-12  0.17120000000E+03  0.17120000000E+03 0.  0.
         13    1    1    2    0    0 -0.48634005896E+02 -0.22073135185E+02  0.11214789272E+03  0.12421614561E+03  0.10566000000E+00 0.  1.
        994    1    1    2    0    0  0.88821899821E+02 -0.41024645203E+01  0.38468953956E+02  0.19671161766E+03  0.17120000000E+03 0.  0.
        998    1    1    2    0    0 -0.40187893925E+02  0.26175599706E+02  0.13493831496E+04  0.13502722367E+04  0.10000000000E+02 0.  1.
</event>
<event>
 5    1  0.1247473E-008  0.3804109E+03  0.7957747E-01  0.3449371E+00
         13   -1    0    0    0    0  0.00000000000E+00  0.00000000000E+00  0.14999999963E+04  0.15000000000E+04  0.10566000000E+00 0. -1.
        994   -1    0    0    0    0 -0.00000000000E+00 -0.00000000000E+00  0.11368683772E-12  0.17120000000E+03  0.17120000000E+03 0.  0.
         13    1    1    2    0    0  0.92811879021E+01 -0.52153945053E+01  0.12826934798E+02  0.16669799311E+02  0.10566000000E+00 0. -1.
        994    1    1    2    0    0 -0.74628145982E+01 -0.37255467547E+01  0.41581437139E+01  0.17145350232E+03  0.17120000000E+03 0.  0.
        998    1    1    2    0    0 -0.18183733038E+01  0.89409412599E+01  0.14830149178E+04  0.14830766984E+04  0.10000000000E+02 0. -1.
</event>
<event>
 5    1  0.1247473E-008  0.3807444E+03  0.7957747E-01  0.3447924E+00
         13   -1    0    0    0    0  0.00000000000E+00  0.00000000000E+00  0.14999999963E+04  0.15000000000E+04  0.10566000000E+00 0.  1.
        994   -1    0    0    0    0 -0.00000000000E+00 -0.00000000000E+00  0.11368683772E-12  0.17120000000E+03  0.17120000000E+03 0.  0.
         13    1    1    2    0    0  0.16448018854E+02 -0.12414353524E+02  0.57494094425E+02  0.61075654359E+02  0.10566000000E+00 0.  1.
        994    1    1    2    0    0  0.60125256066E+00  0.63026992758E+01  0.38915386634E+01  0.17136122547E+03  0.17120000000E+03 0.  0.
        998    1    1    2    0    0 -0.17049271415E+02  0.61116542487E+01  0.14386143632E+04  0.14387631202E+04  0.10000000000E+02 0.  1.
</event>
<event>
 5    1  0.1247473E-008  0.3807596E+03  0.7957747E-01  0.3447858E+00
         13   -1    0    0    0    0  0.00000000000E+00  0.00000000000E+00  0.14999999963E+04  0.15000000000E+04  0.10566000000E+00 0. -1.
        994   -1    0    0    0    0 -0.00000000000E+00 -0.00000000000E+00  0.11368683772E-12  0.17120000000E+03  0.17120000000E+03 0.  0.
         13    1    1    2    0    0 -0.10170544233E+02 -0.28769883937E+01  0.13288389241E+02  0.16979678586E+02  0.10566000000E+00 0. -1.
        994    1    1    2    0    0  0.75924367443E+01  0.61481222593E+00  0.39437213681E+01  0.17141474857E+03  0.17120000000E+03 0.  0.
        998    1    1    2    0    0  0.25781074887E+01  0.22621761678E+01  0.14827678857E+04  0.14828055728E+04  0.10000000000E+02 0. -1.
</event>
<event>
 5    1  0.1247473E-008  0.4084798E+03  0.7957747E-01  0.3335813E+00
         13   -1    0    0    0    0  0.00000000000E+00  0.00000000000E+00  0.14999999963E+04  0.15000000000E+04  0.10566000000E+00 0.  1.
        994   -1    0    0    0    0 -0.00000000000E+00 -0.00000000000E+00  0.11368683772E-12  0.17120000000E+03  0.17120000000E+03 0.  0.
         13    1    1    2    0    0 -0.91091153128E+02 -0.35532150887E+02  0.15304396952E+03  0.18161112217E+03  0.10566000000E+00 0.  1.
        994    1    1    2    0    0  0.11964113899E+02  0.55560000324E+02  0.46164364640E+02  0.18620054302E+03  0.17120000000E+03 0.  0.
        998    1    1    2    0    0  0.79127039229E+02 -0.20027849436E+02  0.13007916621E+04  0.13033883348E+04  0.10000000000E+02 0.  1.
</event>
<event>
 5    1  0.1247473E-008  0.2844794E+03  0.7957747E-01  0.4013456E+00
         13   -1    0    0    0    0  0.00000000000E+00  0.00000000000E+00  0.14999999963E+04  0.15000000000E+04  0.10566000000E+00 0.  1.
        994   -1    0    0    0    0 -0.00000000000E+00 -0.00000000000E+00  0.11368683772E-12  0.17120000000E+03  0.17120000000E+03 0.  0.
         13    1    1    2    0    0  0.90749438034E+02 -0.17117589220E+03  0.69239385614E+03  0.71898950601E+03  0.10566000000E+00 0.  1.
        994    1    1    2    0    0  0.61814595496E+02  0.15514582576E+03  0.16276401634E+03  0.28929714219E+03  0.17120000000E+03 0.  0.
        998    1    1    2    0    0 -0.15256403353E+03  0.16030066446E+02  0.64484212380E+03  0.66291335180E+03  0.10000000000E+02 0. -1.
</event>
<event>
 5    1  0.1247473E-008  0.3749838E+03  0.7957747E-01  0.3473295E+00
         13   -1    0    0    0    0  0.00000000000E+00  0.00000000000E+00  0.14999999963E+04  0.15000000000E+04  0.10566000000E+00 0.  1.
        994   -1    0    0    0    0 -0.00000000000E+00 -0.00000000000E+00  0.11368683772E-12  0.17120000000E+03  0.17120000000E+03 0.  0.
         13    1    1    2    0    0  0.10518619723E+03  0.18301979537E+02  0.42146271948E+03  0.43477572796E+03  0.10566000000E+00 0.  1.
        994    1    1    2    0    0 -0.13671154394E+03 -0.57354372334E+02  0.85505610010E+02  0.24207482235E+03  0.17120000000E+03 0.  0.
        998    1    1    2    0    0  0.31525346706E+02  0.39052392797E+02  0.99303166679E+03  0.99434944970E+03  0.10000000000E+02 0.  1.
</event>
<event>
 5    1  0.1247473E-008  0.3818924E+03  0.7957747E-01  0.3442960E+00
         13   -1    0    0    0    0  0.00000000000E+00  0.00000000000E+00  0.14999999963E+04  0.15000000000E+04  0.10566000000E+00 0. -1.
        994   -1    0    0    0    0 -0.00000000000E+00 -0.00000000000E+00  0.11368683772E-12  0.17120000000E+03  0.17120000000E+03 0.  0.
         13    1    1    2    0    0 -0.59136647821E+01  0.19834367251E+02  0.68922427414E+02  0.71963085816E+02  0.10566000000E+00 0. -1.
        994    1    1    2    0    0 -0.15453479852E+01 -0.58369905189E+01  0.33020328664E+01  0.17133826770E+03  0.17120000000E+03 0.  0.
        998    1    1    2    0    0  0.74590127673E+01 -0.13997376732E+02  0.14277755360E+04  0.14278986465E+04  0.10000000000E+02 0. -1.
</event>
<event>
 5    1  0.1247473E-008  0.3815473E+03  0.7957747E-01  0.3444449E+00
         13   -1    0    0    0    0  0.00000000000E+00  0.00000000000E+00  0.14999999963E+04  0.15000000000E+04  0.10566000000E+00 0. -1.
        994   -1    0    0    0    0 -0.00000000000E+00 -0.00000000000E+00  0.11368683772E-12  0.17120000000E+03  0.17120000000E+03 0.  0.
         13    1    1    2    0    0 -0.60403987172E+01  0.14596741370E+02  0.36965176649E+02  0.40199337358E+02  0.10566000000E+00 0. -1.
        994    1    1    2    0    0 -0.17287593551E+01 -0.39807187975E+01  0.34167724779E+01  0.17128908040E+03  0.17120000000E+03 0.  0.
        998    1    1    2    0    0  0.77691580723E+01 -0.10616022573E+02  0.14596180472E+04  0.14597115822E+04  0.10000000000E+02 0. -1.
</event>
<event>
 5    1  0.1247473E-008  0.3850366E+03  0.7957747E-01  0.3429517E+00
         13   -1    0    0    0    0  0.00000000000E+00  0.00000000000E+00  0.14999999963E+04  0.15000000000E+04  0.10566000000E+00 0. -1.
        994   -1    0    0    0    0 -0.00000000000E+00 -0.00000000000E+00  0.11368683772E-12  0.17120000000E+03  0.17120000000E+03 0.  0.
         13    1    1    2    0    0 -0.17524507761E+02  0.72112614952E+00  0.92685034233E+02  0.94330033022E+02  0.10566000000E+00 0. -1.
        994    1    1    2    0    0  0.15105983336E+02 -0.35464494733E+01  0.24040556454E+01  0.17191854909E+03  0.17120000000E+03 0.  0.
        998    1    1    2    0    0  0.24185244248E+01  0.28253233237E+01  0.14049109064E+04  0.14049514179E+04  0.10000000000E+02 0. -1.
</event>
<event>
 5    1  0.1247473E-008  0.3841388E+03  0.7957747E-01  0.3433333E+00
         13   -1    0    0    0    0  0.00000000000E+00  0.00000000000E+00  0.14999999963E+04  0.15000000000E+04  0.10566000000E+00 0. -1.
        994   -1    0    0    0    0 -0.00000000000E+00 -0.00000000000E+00  0.11368683772E-12  0.17120000000E+03  0.17120000000E+03 0.  0.
         13    1    1    2    0    0 -0.19375254349E+02  0.11908004426E+02  0.13230667430E+03  0.13424704198E+03  0.10566000000E+00 0. -1.
        994    1    1    2    0    0  0.72409421173E+01 -0.22153462068E+01  0.22474116507E+01  0.17138211651E+03  0.17120000000E+03 0.  0.
        998    1    1    2    0    0  0.12134312231E+02 -0.96926582197E+01  0.13654459103E+04  0.13655708415E+04  0.10000000000E+02 0. -1.
</event>
<event>
 5    1  0.1247473E-008  0.3849038E+03  0.7957747E-01  0.3430080E+00
         13   -1    0    0    0    0  0.00000000000E+00  0.00000000000E+00  0.14999999963E+04  0.15000000000E+04  0.10566000000E+00 0.  1.
        994   -1    0    0    0    0 -0.00000000000E+00 -0.00000000000E+00  0.11368683772E-12  0.17120000000E+03  0.17120000000E+03 0.  0.
         13    1    1    2    0    0  0.10982867500E+02  0.55347933240E+01  0.48243604126E+02  0.49786683147E+02  0.10566000000E+00 0.  1.
        994    1    1    2    0    0  0.33277032102E+01  0.38211660517E+01  0.17623903717E+01  0.17128403585E+03  0.17120000000E+03 0.  0.
        998    1    1    2    0    0 -0.14310570710E+02 -0.93559593757E+01  0.14499940018E+04  0.14501292810E+04  0.10000000000E+02 0.  1.
</event>
<event>
 5    1  0.1247473E-008  0.3115258E+03  0.7957747E-01  0.3817023E+00
         13   -1    0    0    0    0  0.00000000000E+00  0.00000000000E+00  0.14999999963E+04  0.15000000000E+04  0.10566000000E+00 0. -1.
        994   -1    0    0    0    0 -0.00000000000E+00 -0.00000000000E+00  0.11368683772E-12  0.17120000000E+03  0.17120000000E+03 0.  0.
         13    1    1    2    0    0 -0.11822250503E+03 -0.10184919184E+03  0.82803805458E+03  0.84261310788E+03  0.10566000000E+00 0. -1.
        994    1    1    2    0    0  0.11850436827E+03  0.42570139851E+02  0.70178177366E+02  0.22380777173E+03  0.17120000000E+03 0.  0.
        998    1    1    2    0    0 -0.28186323675E+00  0.59279051985E+02  0.60178376433E+03  0.60477912039E+03  0.10000000000E+02 0. -1.
</event>
<event>
 5    1  0.1247473E-008  0.3844116E+03  0.7957747E-01  0.3432171E+00
         13   -1    0    0    0    0  0.00000000000E+00  0.00000000000E+00  0.14999999963E+04  0.15000000000E+04  0.10566000000E+00 0. -1.
        994   -1    0    0    0    0 -0.00000000000E+00 -0.00000000000E+00  0.11368683772E-12  0.17120000000E+03  0.17120000000E+03 0.  0.
         13    1    1    2    0    0 -0.19666469686E+02 -0.10252273109E+02  0.11869572297E+03  0.12075001014E+03  0.10566000000E+00 0. -1.
        994    1    1    2    0    0  0.22050561320E+02  0.75453609889E+01  0.37142680432E+01  0.17281896746E+03  0.17120000000E+03 0.  0.
        998    1    1    2    0    0 -0.23840916338E+01  0.27069121202E+01  0.13775900053E+04  0.13776310224E+04  0.10000000000E+02 0. -1.
</event>
<event>
 5    1  0.1247473E-008  0.3789399E+03  0.7957747E-01  0.3455787E+00
         13   -1    0    0    0    0  0.00000000000E+00  0.00000000000E+00  0.14999999963E+04  0.15000000000E+04  0.10566000000E+00 0.  1.
        994   -1    0    0    0    0 -0.00000000000E+00 -0.00000000000E+00  0.11368683772E-12  0.17120000000E+03  0.17120000000E+03 0.  0.
         13    1    1    2    0    0 -0.13594355959E+01  0.44729493445E+02  0.19787781235E+03  0.20287487630E+03  0.10566000000E+00 0.  1.
        994    1    1    2    0    0  0.15729109957E+02 -0.36232369810E+02  0.99210107450E+01  0.17597743030E+03  0.17120000000E+03 0.  0.
        998    1    1    2    0    0 -0.14369674361E+02 -0.84971236358E+01  0.12922011732E+04  0.12923476934E+04  0.10000000000E+02 0.  1.
</event>
<event>
 5    1  0.1247473E-008  0.3746053E+03  0.7957747E-01  0.3474990E+00
         13   -1    0    0    0    0  0.00000000000E+00  0.00000000000E+00  0.14999999963E+04  0.15000000000E+04  0.10566000000E+00 0. -1.
        994   -1    0    0    0    0 -0.00000000000E+00 -0.00000000000E+00  0.11368683772E-12  0.17120000000E+03  0.17120000000E+03 0.  0.
         13    1    1    2    0    0  0.32386357158E+02 -0.76186840745E+02  0.44138032287E+03  0.44907673221E+03  0.10566000000E+00 0. -1.
        994    1    1    2    0    0 -0.49106556976E+02  0.45688610216E+02  0.22352244321E+02  0.18522409635E+03  0.17120000000E+03 0.  0.
        998    1    1    2    0    0  0.16720199818E+02  0.30498230530E+02  0.10362674291E+04  0.10368991714E+04  0.10000000000E+02 0. -1.
</event>
<event>
 5    1  0.1247473E-008  0.3726303E+03  0.7957747E-01  0.3483889E+00
         13   -1    0    0    0    0  0.00000000000E+00  0.00000000000E+00  0.14999999963E+04  0.15000000000E+04  0.10566000000E+00 0. -1.
        994   -1    0    0    0    0 -0.00000000000E+00 -0.00000000000E+00  0.11368683772E-12  0.17120000000E+03  0.17120000000E+03 0.  0.
         13    1    1    2    0    0  0.20237227500E+02 -0.87010294814E+01  0.26672162976E+02  0.34592900034E+02  0.10566000000E+00 0. -1.
        994    1    1    2    0    0 -0.24319235478E+02  0.99377541598E+01  0.10269287417E+02  0.17350816245E+03  0.17120000000E+03 0.  0.
        998    1    1    2    0    0  0.40820079784E+01 -0.12367246784E+01  0.14630585459E+04  0.14630989375E+04  0.10000000000E+02 0. -1.
</event>
<event>
 5    1  0.1247473E-008  0.3765786E+03  0.7957747E-01  0.3466193E+00
         13   -1    0    0    0    0  0.00000000000E+00  0.00000000000E+00  0.14999999963E+04  0.15000000000E+04  0.10566000000E+00 0.  1.
        994   -1    0    0    0    0 -0.00000000000E+00 -0.00000000000E+00  0.11368683772E-12  0.17120000000E+03  0.17120000000E+03 0.  0.
         13    1    1    2    0    0 -0.19483714180E+01  0.14284668051E+02  0.14977125320E+02  0.20788779171E+02  0.10566000000E+00 0.  1.
        994    1    1    2    0    0 -0.14060366721E+00 -0.14944350100E+02  0.66258574180E+01  0.17197876426E+03  0.17120000000E+03 0.  0.
        998    1    1    2    0    0  0.20889750852E+01  0.65968204877E+00  0.14783970135E+04  0.14784324566E+04  0.10000000000E+02 0.  1.
</event>
<event>
 5    1  0.1247473E-008  0.3795749E+03  0.7957747E-01  0.3453011E+00
         13   -1    0    0    0    0  0.00000000000E+00  0.00000000000E+00  0.14999999963E+04  0.15000000000E+04  0.10566000000E+00 0. -1.
        994   -1    0    0    0    0 -0.00000000000E+00 -0.00000000000E+00  0.11368683772E-12  0.17120000000E+03  0.17120000000E+03 0.  0.
         13    1    1    2    0    0  0.38018763031E+02 -0.15399493855E+02  0.18591491953E+03  0.19038628948E+03  0.10566000000E+00 0. -1.
        994    1    1    2    0    0 -0.34958968267E+02 -0.89657247050E+01  0.87205334158E+01  0.17517991148E+03  0.17120000000E+03 0.  0.
        998    1    1    2    0    0 -0.30597947643E+01  0.24365218560E+02  0.13053645433E+04  0.13056337990E+04  0.10000000000E+02 0. -1.
</event>
<event>
 5    1  0.1247473E-008  0.3795402E+03  0.7957747E-01  0.3453163E+00
         13   -1    0    0    0    0  0.00000000000E+00  0.00000000000E+00  0.14999999963E+04  0.15000000000E+04  0.10566000000E+00 0. -1.
        994   -1    0    0    0    0 -0.00000000000E+00 -0.00000000000E+00  0.11368683772E-12  0.17120000000E+03  0.17120000000E+03 0.  0.
         13    1    1    2    0    0 -0.46948778519E+02  0.16461588461E+02  0.23307804458E+03  0.23832867585E+03  0.10566000000E+00 0. -1.
        994    1    1    2    0    0  0.48539554200E+02 -0.23284726770E+02  0.14130630699E+02  0.18002050313E+03  0.17120000000E+03 0.  0.
        998    1    1    2    0    0 -0.15907756814E+01  0.68231383088E+01  0.12527913210E+04  0.12528508210E+04  0.10000000000E+02 0. -1.
</event>
<event>
 5    1  0.1247473E-008  0.3705253E+03  0.7957747E-01  0.3493480E+00
         13   -1    0    0    0    0  0.00000000000E+00  0.00000000000E+00  0.14999999963E+04  0.15000000000E+04  0.10566000000E+00 0. -1.
        994   -1    0    0    0    0 -0.00000000000E+00 -0.00000000000E+00  0.11368683772E-12  0.17120000000E+03  0.17120000000E+03 0.  0.
         13    1    1    2    0    0  0.11513767852E+02  0.97344428293E+00  0.35372381774E+01  0.12084604333E+02  0.10566000000E+00 0. -1.
        994    1    1    2    0    0  0.21526624240E+02 -0.24303566269E+02  0.12641409189E+02  0.17470919870E+03  0.17120000000E+03 0.  0.
        998    1    1    2    0    0 -0.33040392092E+02  0.23330121986E+02  0.14838213489E+04  0.14844061970E+04  0.10000000000E+02 0. -1.
</event>
<event>
 5    1  0.1247473E-008  0.3742884E+03  0.7957747E-01  0.3476411E+00
         13   -1    0    0    0    0  0.00000000000E+00  0.00000000000E+00  0.14999999963E+04  0.15000000000E+04  0.10566000000E+00 0.  1.
        994   -1    0    0    0    0 -0.00000000000E+00 -0.00000000000E+00  0.11368683772E-12  0.17120000000E+03  0.17120000000E+03 0.  0.
         13    1    1    2    0    0 -0.11836985963E+03  0.41233918144E+02  0.33677855997E+03  0.35934867370E+03  0.10566000000E+00 0.  1.
        994    1    1    2    0    0  0.14145428939E+03 -0.99044603938E+02  0.12815736380E+03  0.27486887683E+03  0.17120000000E+03 0.  0.
        998    1    1    2    0    0 -0.23084429760E+02  0.57810685794E+02  0.10350640725E+04  0.10369824495E+04  0.10000000000E+02 0.  1.
</event>
<event>
 5    1  0.1247473E-008  0.3804004E+03  0.7957747E-01  0.3449417E+00
         13   -1    0    0    0    0  0.00000000000E+00  0.00000000000E+00  0.14999999963E+04  0.15000000000E+04  0.10566000000E+00 0. -1.
        994   -1    0    0    0    0 -0.00000000000E+00 -0.00000000000E+00  0.11368683772E-12  0.17120000000E+03  0.17120000000E+03 0.  0.
         13    1    1    2    0    0 -0.68128425307E+02 -0.74013338931E+02  0.41962157901E+03  0.43151099338E+03  0.10566000000E+00 0. -1.
        994    1    1    2    0    0  0.37005844868E+02 -0.17923835479E+02  0.22707656597E+02  0.17752682643E+03  0.17120000000E+03 0.  0.
        998    1    1    2    0    0  0.31122580439E+02  0.91937174410E+02  0.10576707607E+04  0.10621621802E+04  0.10000000000E+02 0. -1.
</event>
<event>
 5    1  0.1247473E-008  0.3780470E+03  0.7957747E-01  0.3459707E+00
         13   -1    0    0    0    0  0.00000000000E+00  0.00000000000E+00  0.14999999963E+04  0.15000000000E+04  0.10566000000E+00 0. -1.
        994   -1    0    0    0    0 -0.00000000000E+00 -0.00000000000E+00  0.11368683772E-12  0.17120000000E+03  0.17120000000E+03 0.  0.
         13    1    1    2    0    0  0.29048584538E+02  0.38588135816E+02  0.23659509670E+03  0.24147487537E+03  0.10566000000E+00 0. -1.
        994    1    1    2    0    0 -0.10294922999E+02 -0.19185552665E+02  0.67189769314E+01  0.17270974356E+03  0.17120000000E+03 0.  0.
        998    1    1    2    0    0 -0.18753661539E+02 -0.19402583151E+02  0.12566859226E+04  0.12570153811E+04  0.10000000000E+02 0. -1.
</event>
<event>
 5    1  0.1247473E-008  0.3843467E+03  0.7957747E-01  0.3432448E+00
         13   -1    0    0    0    0  0.00000000000E+00  0.00000000000E+00  0.14999999963E+04  0.15000000000E+04  0.10566000000E+00 0. -1.
        994   -1    0    0    0    0 -0.00000000000E+00 -0.00000000000E+00  0.11368683772E-12  0.17120000000E+03  0.17120000000E+03 0.  0.
         13    1    1    2    0    0  0.91498151631E+01 -0.47186745113E+01  0.26549964362E+02  0.28476249373E+02  0.10566000000E+00 0. -1.
        994    1    1    2    0    0 -0.35089534842E+01  0.96744146916E+01  0.23039319988E+01  0.17152450308E+03  0.17120000000E+03 0.  0.
        998    1    1    2    0    0 -0.56408616789E+01 -0.49557401803E+01  0.14711460999E+04  0.14711992475E+04  0.10000000000E+02 0. -1.
</event>
<event>
 5    1  0.1247473E-008  0.3738677E+03  0.7957747E-01  0.3478302E+00
         13   -1    0    0    0    0  0.00000000000E+00  0.00000000000E+00  0.14999999963E+04  0.15000000000E+04  0.10566000000E+00 0. -1.
        994   -1    0    0    0    0 -0.00000000000E+00 -0.00000000000E+00  0.11368683772E-12  0.17120000000E+03  0.17120000000E+03 0.  0.
         13    1    1    2    0    0  0.16147193282E+02  0.29550655005E+02  0.74081893112E+02  0.81376354755E+02  0.10566000000E+00 0. -1.
        994    1    1    2    0    0 -0.17115208775E+02 -0.20591861259E+02  0.97116219276E+01  0.17355319277E+03  0.17120000000E+03 0.  0.
        998    1    1    2    0    0  0.96801549247E+00 -0.89587937461E+01  0.14162064812E+04  0.14162704525E+04  0.10000000000E+02 0. -1.
</event>
<event>
 5    1  0.1247473E-008  0.3757946E+03  0.7957747E-01  0.3469677E+00
         13   -1    0    0    0    0  0.00000000000E+00  0.00000000000E+00  0.14999999963E+04  0.15000000000E+04  0.10566000000E+00 0.  1.
        994   -1    0    0    0    0 -0.00000000000E+00 -0.00000000000E+00  0.11368683772E-12  0.17120000000E+03  0.17120000000E+03 0.  0.
         13    1    1    2    0    0  0.20382082607E+02 -0.57765522616E+02  0.23516655024E+03  0.24301358482E+03  0.10566000000E+00 0.  1.
        994    1    1    2    0    0 -0.20044531581E+02  0.68193050898E+02  0.23595439477E+02  0.18686428284E+03  0.17120000000E+03 0.  0.
        998    1    1    2    0    0 -0.33755102557E+00 -0.10427528281E+02  0.12412380066E+04  0.12413221323E+04  0.10000000000E+02 0.  1.
</event>
<event>
 5    1  0.1247473E-008  0.3858231E+03  0.7957747E-01  0.3426189E+00
         13   -1    0    0    0    0  0.00000000000E+00  0.00000000000E+00  0.14999999963E+04  0.15000000000E+04  0.10566000000E+00 0.  1.
        994   -1    0    0    0    0 -0.00000000000E+00 -0.00000000000E+00  0.11368683772E-12  0.17120000000E+03  0.17120000000E+03 0.  0.
         13    1    1    2    0    0  0.89079118012E+01 -0.84720327631E+01  0.67408926066E+02  0.68520804937E+02  0.10566000000E+00 0.  1.
        994    1    1    2    0    0 -0.23893083548E+01 -0.54844662504E+01  0.13394218406E+01  0.17130972598E+03  0.17120000000E+03 0.  0.
        998    1    1    2    0    0 -0.65186034465E+01  0.13956499013E+02  0.14312516484E+04  0.14313694691E+04  0.10000000000E+02 0.  1.
</event>
<event>
 5    1  0.1247473E-008  0.3843736E+03  0.7957747E-01  0.3432333E+00
         13   -1    0    0    0    0  0.00000000000E+00  0.00000000000E+00  0.14999999963E+04  0.15000000000E+04  0.10566000000E+00 0. -1.
        994   -1    0    0    0    0 -0.00000000000E+00 -0.00000000000E+00  0.11368683772E-12  0.17120000000E+03  0.17120000000E+03 0.  0.
         13    1    1    2    0    0  0.15663709765E+02 -0.14362915508E+02  0.10883401302E+03  0.11088957886E+03  0.10566000000E+00 0. -1.
        994    1    1    2    0    0 -0.18349732309E+02  0.12338869911E+02  0.35543919958E+01  0.17265872144E+03  0.17120000000E+03 0.  0.
        998    1    1    2    0    0  0.26860225437E+01  0.20240455970E+01  0.13876115913E+04  0.13876516997E+04  0.10000000000E+02 0. -1.
</event>
<event>
 5    1  0.1247473E-008  0.3815811E+03  0.7957747E-01  0.3444303E+00
         13   -1    0    0    0    0  0.00000000000E+00  0.00000000000E+00  0.14999999963E+04  0.15000000000E+04  0.10566000000E+00 0. -1.
        994   -1    0    0    0    0 -0.00000000000E+00 -0.00000000000E+00  0.11368683772E-12  0.17120000000E+03  0.17120000000E+03 0.  0.
         13    1    1    2    0    0  0.72065307393E+02  0.65539321518E+01  0.37412710904E+03  0.38106097601E+03  0.10566000000E+00 0. -1.
        994    1    1    2    0    0 -0.11218130537E+03 -0.55923846858E+01  0.46495240916E+02  0.20996944413E+03  0.17120000000E+03 0.  0.
        998    1    1    2    0    0  0.40115997978E+02 -0.96154746592E+00  0.10793776463E+04  0.10801695799E+04  0.10000000000E+02 0. -1.
</event>
<event>
 5    1  0.1247473E-008  0.3783278E+03  0.7957747E-01  0.3458472E+00
         13   -1    0    0    0    0  0.00000000000E+00  0.00000000000E+00  0.14999999963E+04  0.15000000000E+04  0.10566000000E+00 0.  1.
        994   -1    0    0    0    0 -0.00000000000E+00 -0.00000000000E+00  0.11368683772E-12  0.17120000000E+03  0.17120000000E+03 0.  0.
         13    1    1    2    0    0  0.44537847710E+02  0.37305127558E+02  0.35009048579E+03  0.35487836201E+03  0.10566000000E+00 0.  1.
        994    1    1    2    0    0 -0.17736555700E+02 -0.24322550091E+02  0.80317520716E+01  0.17401184124E+03  0.17120000000E+03 0.  0.
        998    1    1    2    0    0 -0.26801292010E+02 -0.12982577467E+02  0.11418777584E+04  0.11423097967E+04  0.10000000000E+02 0.  1.
</event>
<event>
 5    1  0.1247473E-008  0.3818061E+03  0.7957747E-01  0.3443332E+00
         13   -1    0    0    0    0  0.00000000000E+00  0.00000000000E+00  0.14999999963E+04  0.15000000000E+04  0.10566000000E+00 0. -1.
        994   -1    0    0    0    0 -0.00000000000E+00 -0.00000000000E+00  0.11368683772E-12  0.17120000000E+03  0.17120000000E+03 0.  0.
         13    1    1    2    0    0  0.50134215071E+01  0.21167307511E+02  0.95196014761E+02  0.97649791054E+02  0.10566000000E+00 0. -1.
        994    1    1    2    0    0 -0.42148588474E+02  0.41301330030E+02  0.14883821643E+02  0.18169554623E+03  0.17120000000E+03 0.  0.
        998    1    1    2    0    0  0.37135166967E+02 -0.62468637541E+02  0.13899201599E+04  0.13918546627E+04  0.10000000000E+02 0. -1.
</event>
<event>
 5    1  0.1247473E-008  0.3828419E+03  0.7957747E-01  0.3438877E+00
         13   -1    0    0    0    0  0.00000000000E+00  0.00000000000E+00  0.14999999963E+04  0.15000000000E+04  0.10566000000E+00 0. -1.
        994   -1    0    0    0    0 -0.00000000000E+00 -0.00000000000E+00  0.11368683772E-12  0.17120000000E+03  0.17120000000E+03 0.  0.
         13    1    1    2    0    0 -0.13105136769E+02  0.42211251803E+01  0.33480867831E+02  0.36201411330E+02  0.10566000000E+00 0. -1.
        994    1    1    2    0    0  0.16224705504E+02  0.31960728147E+01  0.36115502103E+01  0.17203470361E+03  0.17120000000E+03 0.  0.
        998    1    1    2    0    0 -0.31195687347E+01 -0.74171979951E+01  0.14629075782E+04  0.14629638851E+04  0.10000000000E+02 0. -1.
</event>
<event>
 5    1  0.1247473E-008  0.3933667E+03  0.7957747E-01  0.3394945E+00
         13   -1    0    0    0    0  0.00000000000E+00  0.00000000000E+00  0.14999999963E+04  0.15000000000E+04  0.10566000000E+00 0. -1.
        994   -1    0    0    0    0 -0.00000000000E+00 -0.00000000000E+00  0.11368683772E-12  0.17120000000E+03  0.17120000000E+03 0.  0.
         13    1    1    2    0    0 -0.38571712483E+02  0.81075243623E+01  0.22726062497E+02  0.45497187120E+02  0.10566000000E+00 0. -1.
        994    1    1    2    0    0  0.39276375922E+02 -0.12248301339E+01  0.29780740153E+02  0.17815854287E+03  0.17120000000E+03 0.  0.
        998    1    1    2    0    0 -0.70466343879E+00 -0.68826942283E+01  0.14474931936E+04  0.14475442700E+04  0.10000000000E+02 0. -1.
</event>
<event>
 5    1  0.1247473E-008  0.3822599E+03  0.7957747E-01  0.3441377E+00
         13   -1    0    0    0    0  0.00000000000E+00  0.00000000000E+00  0.14999999963E+04  0.15000000000E+04  0.10566000000E+00 0. -1.
        994   -1    0    0    0    0 -0.00000000000E+00 -0.00000000000E+00  0.11368683772E-12  0.17120000000E+03  0.17120000000E+03 0.  0.
         13    1    1    2    0    0  0.29073443741E+02  0.17166010906E+02  0.18904463084E+03  0.19203598797E+03  0.10566000000E+00 0. -1.
        994    1    1    2    0    0 -0.12190916742E+02 -0.18664425048E+02  0.46474723447E+01  0.17270789852E+03  0.17120000000E+03 0.  0.
        998    1    1    2    0    0 -0.16882526999E+02  0.14984141421E+01  0.13063078931E+04  0.13064561135E+04  0.10000000000E+02 0. -1.
</event>
<event>
 5    1  0.1247473E-008  0.4392520E+03  0.7957747E-01  0.3227822E+00
         13   -1    0    0    0    0  0.00000000000E+00  0.00000000000E+00  0.14999999963E+04  0.15000000000E+04  0.10566000000E+00 0. -1.
        994   -1    0    0    0    0 -0.00000000000E+00 -0.00000000000E+00  0.11368683772E-12  0.17120000000E+03  0.17120000000E+03 0.  0.
         13    1    1    2    0    0 -0.65065413366E+02  0.35632582107E+02  0.33343550992E+02  0.81332604046E+02  0.10566000000E+00 0. -1.
        994    1    1    2    0    0  0.62516197606E+02 -0.35395897258E+02  0.78341712793E+02  0.20151428850E+03  0.17120000000E+03 0.  0.
        998    1    1    2    0    0  0.25492157602E+01 -0.23668484843E+00  0.13883147325E+04  0.13883531075E+04  0.10000000000E+02 0. -1.
</event>
<event>
 5    1  0.1247473E-008  0.3816109E+03  0.7957747E-01  0.3444174E+00
         13   -1    0    0    0    0  0.00000000000E+00  0.00000000000E+00  0.14999999963E+04  0.15000000000E+04  0.10566000000E+00 0. -1.
        994   -1    0    0    0    0 -0.00000000000E+00 -0.00000000000E+00  0.11368683772E-12  0.17120000000E+03  0.17120000000E+03 0.  0.
         13    1    1    2    0    0  0.25405806193E+02  0.56974231365E+01  0.10639594558E+03  0.10953549205E+03  0.10566000000E+00 0. -1.
        994    1    1    2    0    0 -0.77086477390E+01  0.24994845150E+01  0.35405764664E+01  0.17142825425E+03  0.17120000000E+03 0.  0.
        998    1    1    2    0    0 -0.17697158454E+02 -0.81969076515E+01  0.13900634742E+04  0.13902362537E+04  0.10000000000E+02 0. -1.
</event>
<event>
 5    1  0.1247473E-008  0.3814506E+03  0.7957747E-01  0.3444867E+00
         13   -1    0    0    0    0  0.00000000000E+00  0.00000000000E+00  0.14999999963E+04  0.15000000000E+04  0.10566000000E+00 0. -1.
        994   -1    0    0    0    0 -0.00000000000E+00 -0.00000000000E+00  0.11368683772E-12  0.17120000000E+03  0.17120000000E+03 0.  0.
         13    1    1    2    0    0  0.51006115570E+01 -0.10106365223E+02  0.16640892085E+02  0.20126731223E+02  0.10566000000E+00 0. -1.
        994    1    1    2    0    0 -0.10204385726E+02  0.22964890824E+02  0.55065653218E+01  0.17312214752E+03  0.17120000000E+03 0.  0.
        998    1    1    2    0    0  0.51037741686E+01 -0.12858525601E+02  0.14778525389E+04  0.14779511213E+04  0.10000000000E+02 0. -1.
</event>
<event>
 5    1  0.1247473E-008  0.3751902E+03  0.7957747E-01  0.3472373E+00
         13   -1    0    0    0    0  0.00000000000E+00  0.00000000000E+00  0.14999999963E+04  0.15000000000E+04  0.10566000000E+00 0.  1.
        994   -1    0    0    0    0 -0.00000000000E+00 -0.00000000000E+00  0.11368683772E-12  0.17120000000E+03  0.17120000000E+03 0.  0.
         13    1    1    2    0    0 -0.20443553393E+01  0.30025988445E+02  0.66571651032E+02  0.73058437268E+02  0.10566000000E+00 0.  1.
        994    1    1    2    0    0 -0.43081999697E+02 -0.21470851367E+02  0.14493164385E+02  0.17842799099E+03  0.17120000000E+03 0.  0.
        998    1    1    2    0    0  0.45126355037E+02 -0.85551370784E+01  0.14189351809E+04  0.14197135717E+04  0.10000000000E+02 0.  1.
</event>
<event>
 5    1  0.1247473E-008  0.3732941E+03  0.7957747E-01  0.3480887E+00
         13   -1    0    0    0    0  0.00000000000E+00  0.00000000000E+00  0.14999999963E+04  0.15000000000E+04  0.10566000000E+00 0.  1.
        994   -1    0    0    0    0 -0.00000000000E+00 -0.00000000000E+00  0.11368683772E-12  0.17120000000E+03  0.17120000000E+03 0.  0.
         13    1    1    2    0    0 -0.85159516352E+01 -0.33982998101E+02  0.77090826951E+02  0.84678051207E+02  0.10566000000E+00 0.  1.
        994    1    1    2    0    0 -0.18991026646E+02  0.32632673798E+02  0.12446768563E+02  0.17575526319E+03  0.17120000000E+03 0.  0.
        998    1    1    2    0    0  0.27506978281E+02  0.13503243038E+01  0.14104624008E+04  0.14107666856E+04  0.10000000000E+02 0.  1.
</event>
<event>
 5    1  0.1247473E-008  0.3765904E+03  0.7957747E-01  0.3466140E+00
         13   -1    0    0    0    0  0.00000000000E+00  0.00000000000E+00  0.14999999963E+04  0.15000000000E+04  0.10566000000E+00 0. -1.
        994   -1    0    0    0    0 -0.00000000000E+00 -0.00000000000E+00  0.11368683772E-12  0.17120000000E+03  0.17120000000E+03 0.  0.
         13    1    1    2    0    0 -0.19603153929E+02 -0.53021751990E+02  0.10136690204E+03  0.11606399020E+03  0.10566000000E+00 0. -1.
        994    1    1    2    0    0  0.14037966146E+02  0.47351313453E+02  0.23248141626E+02  0.17969175682E+03  0.17120000000E+03 0.  0.
        998    1    1    2    0    0  0.55651877833E+01  0.56704385370E+01  0.13753849526E+04  0.13754442530E+04  0.10000000000E+02 0. -1.
</event>
<event>
 5    1  0.1247473E-008  0.3732164E+03  0.7957747E-01  0.3481238E+00
         13   -1    0    0    0    0  0.00000000000E+00  0.00000000000E+00  0.14999999963E+04  0.15000000000E+04  0.10566000000E+00 0.  1.
        994   -1    0    0    0    0 -0.00000000000E+00 -0.00000000000E+00  0.11368683772E-12  0.17120000000E+03  0.17120000000E+03 0.  0.
         13    1    1    2    0    0  0.12282382441E+00  0.54832233223E+02  0.20775224495E+03  0.21486645930E+03  0.10566000000E+00 0.  1.
        994    1    1    2    0    0 -0.50693486589E+01 -0.21389695352E+02  0.92517501370E+01  0.17285326796E+03  0.17120000000E+03 0.  0.
        998    1    1    2    0    0  0.49465248345E+01 -0.33442537871E+02  0.12829960012E+04  0.12834802727E+04  0.10000000000E+02 0.  1.
</event>
<event>
 5    1  0.1247473E-008  0.3815147E+03  0.7957747E-01  0.3444590E+00
         13   -1    0    0    0    0  0.00000000000E+00  0.00000000000E+00  0.14999999963E+04  0.15000000000E+04  0.10566000000E+00 0.  1.
        994   -1    0    0    0    0 -0.00000000000E+00 -0.00000000000E+00  0.11368683772E-12  0.17120000000E+03  0.17120000000E+03 0.  0.
         13    1    1    2    0    0 -0.45278484243E+02 -0.19469448352E+03  0.10653725688E+04  0.10839625476E+04  0.10566000000E+00 0.  1.
        994    1    1    2    0    0  0.54385892400E+02  0.19563685793E+03  0.15547433161E+03  0.30775528146E+03  0.17120000000E+03 0.  0.
        998    1    1    2    0    0 -0.91074081566E+01 -0.94237441601E+00  0.27915309587E+03  0.27948217097E+03  0.10000000000E+02 0. -1.
</event>
<event>
 5    1  0.1247473E-008  0.3819926E+03  0.7957747E-01  0.3442528E+00
         13   -1    0    0    0    0  0.00000000000E+00  0.00000000000E+00  0.14999999963E+04  0.15000000000E+04  0.10566000000E+00 0.  1.
        994   -1    0    0    0    0 -0.00000000000E+00 -0.00000000000E+00  0.11368683772E-12  0.17120000000E+03  0.17120000000E+03 0.  0.
         13    1    1    2    0    0  0.37142871344E+01 -0.27646208190E+02  0.14031576887E+03  0.14306164725E+03  0.10566000000E+00 0.  1.
        994    1    1    2    0    0 -0.20115981129E+02 -0.37022595642E+01  0.45213065222E+01  0.17247678579E+03  0.17120000000E+03 0.  0.
        998    1    1    2    0    0  0.16401693994E+02  0.31348467755E+02  0.13551629209E+04  0.13556615670E+04  0.10000000000E+02 0.  1.
</event>
<event>
 5    1  0.1247473E-008  0.3818193E+03  0.7957747E-01  0.3443275E+00
         13   -1    0    0    0    0  0.00000000000E+00  0.00000000000E+00  0.14999999963E+04  0.15000000000E+04  0.10566000000E+00 0.  1.
        994   -1    0    0    0    0 -0.00000000000E+00 -0.00000000000E+00  0.11368683772E-12  0.17120000000E+03  0.17120000000E+03 0.  0.
         13    1    1    2    0    0 -0.34086940374E+02  0.13689289141E+02  0.18988277295E+03  0.19340319224E+03  0.10566000000E+00 0.  1.
        994    1    1    2    0    0  0.37482686917E+02  0.29959842425E+01  0.79302564942E+01  0.17546012854E+03  0.17120000000E+03 0.  0.
        998    1    1    2    0    0 -0.33957465427E+01 -0.16685273383E+02  0.13021869668E+04  0.13023366792E+04  0.10000000000E+02 0.  1.
</event>
<event>
 5    1  0.1247473E-008  0.3802088E+03  0.7957747E-01  0.3450250E+00
         13   -1    0    0    0    0  0.00000000000E+00  0.00000000000E+00  0.14999999963E+04  0.15000000000E+04  0.10566000000E+00 0.  1.
        994   -1    0    0    0    0 -0.00000000000E+00 -0.00000000000E+00  0.11368683772E-12  0.17120000000E+03  0.17120000000E+03 0.  0.
         13    1    1    2    0    0  0.16954476150E+02  0.26064939696E+02  0.11820915038E+03  0.12223031432E+03  0.10566000000E+00 0.  1.
        994    1    1    2    0    0 -0.25837600932E+02 -0.65872690863E+01  0.64065040619E+01  0.17338240115E+03  0.17120000000E+03 0.  0.
        998    1    1    2    0    0  0.88831247816E+01 -0.19477670610E+02  0.13753843418E+04  0.13755872845E+04  0.10000000000E+02 0.  1.
</event>
<event>
 5    1  0.1247473E-008  0.3831984E+03  0.7957747E-01  0.3437349E+00
         13   -1    0    0    0    0  0.00000000000E+00  0.00000000000E+00  0.14999999963E+04  0.15000000000E+04  0.10566000000E+00 0. -1.
        994   -1    0    0    0    0 -0.00000000000E+00 -0.00000000000E+00  0.11368683772E-12  0.17120000000E+03  0.17120000000E+03 0.  0.
         13    1    1    2    0    0  0.21576107151E+02 -0.59830735436E+01  0.11065921679E+03  0.11290172272E+03  0.10566000000E+00 0. -1.
        994    1    1    2    0    0  0.23826465088E+01 -0.27736527557E+01  0.25714924610E+01  0.17125835083E+03  0.17120000000E+03 0.  0.
        998    1    1    2    0    0 -0.23958753660E+02  0.87567262993E+01  0.13867692870E+04  0.13870399265E+04  0.10000000000E+02 0. -1.
</event>
<event>
 5    1  0.1478552E-008  0.3856801E+03  0.7957747E-01  0.3426793E+00
         13   -1    0    0    0    0  0.00000000000E+00  0.00000000000E+00  0.14999999963E+04  0.15000000000E+04  0.10566000000E+00 0.  1.
        994   -1    0    0    0    0 -0.00000000000E+00 -0.00000000000E+00  0.11368683772E-12  0.17120000000E+03  0.17120000000E+03 0.  0.
         13    1    1    2    0    0  0.10832491375E+02  0.12929869829E+01  0.45313836281E+02  0.46608685963E+02  0.10566000000E+00 0.  1.
        994    1    1    2    0    0 -0.11355121135E+02  0.15656060121E+01  0.17241291666E+01  0.17159196520E+03  0.17120000000E+03 0.  0.
        998    1    1    2    0    0  0.52262976010E+00 -0.28585929950E+01  0.14529620308E+04  0.14529993488E+04  0.10000000000E+02 0.  1.
</event>
<event>
 5    1  0.1247473E-008  0.3854526E+03  0.7957747E-01  0.3427755E+00
         13   -1    0    0    0    0  0.00000000000E+00  0.00000000000E+00  0.14999999963E+04  0.15000000000E+04  0.10566000000E+00 0. -1.
        994   -1    0    0    0    0 -0.00000000000E+00 -0.00000000000E+00  0.11368683772E-12  0.17120000000E+03  0.17120000000E+03 0.  0.
         13    1    1    2    0    0 -0.36697345715E+01  0.11365250662E+02  0.54219430098E+02  0.55519308701E+02  0.10566000000E+00 0. -1.
        994    1    1    2    0    0 -0.14035887709E+02 -0.27633304781E+01  0.20778913410E+01  0.17180919583E+03  0.17120000000E+03 0.  0.
        998    1    1    2    0    0  0.17705622280E+02 -0.86019201837E+01  0.14437026748E+04  0.14438714955E+04  0.10000000000E+02 0. -1.
</event>
<event>
 5    1  0.1247473E-008  0.3851617E+03  0.7957747E-01  0.3428987E+00
         13   -1    0    0    0    0  0.00000000000E+00  0.00000000000E+00  0.14999999963E+04  0.15000000000E+04  0.10566000000E+00 0.  1.
        994   -1    0    0    0    0 -0.00000000000E+00 -0.00000000000E+00  0.11368683772E-12  0.17120000000E+03  0.17120000000E+03 0.  0.
         13    1    1    2    0    0 -0.13430027952E+02 -0.13860235214E+02  0.11505205735E+03  0.11665958527E+03  0.10566000000E+00 0.  1.
        994    1    1    2    0    0  0.14401132792E+02  0.10312671933E+02  0.25818187744E+01  0.17213323217E+03  0.17120000000E+03 0.  0.
        998    1    1    2    0    0 -0.97110484040E+00  0.35475632818E+01  0.13823661202E+04  0.13824071826E+04  0.10000000000E+02 0.  0.
</event>
<event>
 5    1  0.1247473E-008  0.3778471E+03  0.7957747E-01  0.3460587E+00
         13   -1    0    0    0    0  0.00000000000E+00  0.00000000000E+00  0.14999999963E+04  0.15000000000E+04  0.10566000000E+00 0.  1.
        994   -1    0    0    0    0 -0.00000000000E+00 -0.00000000000E+00  0.11368683772E-12  0.17120000000E+03  0.17120000000E+03 0.  0.
         13    1    1    2    0    0 -0.11967339851E+01 -0.26760379354E+02  0.71086195028E+02  0.75965836815E+02  0.10566000000E+00 0.  1.
        994    1    1    2    0    0 -0.27384965695E+01  0.13234181243E+01  0.52550543005E+01  0.17130763671E+03  0.17120000000E+03 0.  0.
        998    1    1    2    0    0  0.39352305546E+01  0.25436961229E+02  0.14236587469E+04  0.14239265265E+04  0.10000000000E+02 0. -1.
</event>
<event>
 5    1  0.1247473E-008  0.4002739E+03  0.7957747E-01  0.3367369E+00
         13   -1    0    0    0    0  0.00000000000E+00  0.00000000000E+00  0.14999999963E+04  0.15000000000E+04  0.10566000000E+00 0. -1.
        994   -1    0    0    0    0 -0.00000000000E+00 -0.00000000000E+00  0.11368683772E-12  0.17120000000E+03  0.17120000000E+03 0.  0.
         13    1    1    2    0    0  0.61620801774E+02  0.29498995264E+02  0.76896395514E+02  0.10286097773E+03  0.10566000000E+00 0. -1.
        994    1    1    2    0    0 -0.31058128291E+02 -0.26030242617E+02  0.34404334102E+02  0.17926315592E+03  0.17120000000E+03 0.  0.
        998    1    1    2    0    0 -0.30562673483E+02 -0.34687526464E+01  0.13886992667E+04  0.13890758664E+04  0.10000000000E+02 0. -1.
</event>
<event>
 5    1  0.1247473E-008  0.3717895E+03  0.7957747E-01  0.3487707E+00
         13   -1    0    0    0    0  0.00000000000E+00  0.00000000000E+00  0.14999999963E+04  0.15000000000E+04  0.10566000000E+00 0.  1.
        994   -1    0    0    0    0 -0.00000000000E+00 -0.00000000000E+00  0.11368683772E-12  0.17120000000E+03  0.17120000000E+03 0.  0.
         13    1    1    2    0    0  0.12744630666E+02 -0.57699660838E+02  0.14206042046E+03  0.15385984108E+03  0.10566000000E+00 0.  1.
        994    1    1    2    0    0  0.47638515784E+01  0.40117112580E+02  0.17651860450E+02  0.17678547786E+03  0.17120000000E+03 0.  0.
        998    1    1    2    0    0 -0.17508482244E+02  0.17582548259E+02  0.13402877154E+04  0.13405546811E+04  0.10000000000E+02 0.  1.
</event>
<event>
 5    1  0.1247473E-008  0.2979980E+03  0.7957747E-01  0.3910416E+00
         13   -1    0    0    0    0  0.00000000000E+00  0.00000000000E+00  0.14999999963E+04  0.15000000000E+04  0.10566000000E+00 0. -1.
        994   -1    0    0    0    0 -0.00000000000E+00 -0.00000000000E+00  0.11368683772E-12  0.17120000000E+03  0.17120000000E+03 0.  0.
         13    1    1    2    0    0 -0.55490173440E+02  0.15826040296E+03  0.67186974962E+03  0.69248428582E+03  0.10566000000E+00 0. -1.
        994    1    1    2    0    0  0.45179598071E+02 -0.14810278752E+03  0.10199084158E+03  0.25236323726E+03  0.17120000000E+03 0.  0.
        998    1    1    2    0    0  0.10310575369E+02 -0.10157615435E+02  0.72613940508E+03  0.72635247692E+03  0.10000000000E+02 0.  1.
</event>
<event>
 5    1  0.1247473E-008  0.3773626E+03  0.7957747E-01  0.3462723E+00
         13   -1    0    0    0    0  0.00000000000E+00  0.00000000000E+00  0.14999999963E+04  0.15000000000E+04  0.10566000000E+00 0. -1.
        994   -1    0    0    0    0 -0.00000000000E+00 -0.00000000000E+00  0.11368683772E-12  0.17120000000E+03  0.17120000000E+03 0.  0.
         13    1    1    2    0    0  0.29729176114E+00 -0.10855648700E+02  0.82354313890E+01  0.13629636286E+02  0.10566000000E+00 0. -1.
        994    1    1    2    0    0  0.69882786448E+00  0.11420332530E+02  0.59120263845E+01  0.17168373368E+03  0.17120000000E+03 0.  0.
        998    1    1    2    0    0 -0.99611962562E+00 -0.56468383065E+00  0.14858525385E+04  0.14858866300E+04  0.10000000000E+02 0. -1.
</event>
<event>
 5    1  0.1316138E-008  0.3859679E+03  0.7957747E-01  0.3425577E+00
         13   -1    0    0    0    0  0.00000000000E+00  0.00000000000E+00  0.14999999963E+04  0.15000000000E+04  0.10566000000E+00 0. -1.
        994   -1    0    0    0    0 -0.00000000000E+00 -0.00000000000E+00  0.11368683772E-12  0.17120000000E+03  0.17120000000E+03 0.  0.
         13    1    1    2    0    0 -0.85545771277E+01  0.62977630366E+01  0.50546217985E+02  0.51650497826E+02  0.10566000000E+00 0. -1.
        994    1    1    2    0    0  0.12942567432E+01 -0.55049727075E+01  0.12551893851E+01  0.17129797233E+03  0.17120000000E+03 0.  0.
        998    1    1    2    0    0  0.72603203846E+01 -0.79279032915E+00  0.14481985889E+04  0.14482515298E+04  0.10000000000E+02 0. -1.
</event>
<event>
 5    1  0.1247473E-008  0.3795157E+03  0.7957747E-01  0.3453270E+00
         13   -1    0    0    0    0  0.00000000000E+00  0.00000000000E+00  0.14999999963E+04  0.15000000000E+04  0.10566000000E+00 0. -1.
        994   -1    0    0    0    0 -0.00000000000E+00 -0.00000000000E+00  0.11368683772E-12  0.17120000000E+03  0.17120000000E+03 0.  0.
         13    1    1    2    0    0  0.26376041770E+02  0.36833772938E+02  0.24415877991E+03  0.24832628411E+03  0.10566000000E+00 0. -1.
        994    1    1    2    0    0 -0.91082768487E+01 -0.18256601378E+02  0.57728204588E+01  0.17250805679E+03  0.17120000000E+03 0.  0.
        998    1    1    2    0    0 -0.17267764922E+02 -0.18577171560E+02  0.12500683959E+04  0.12503656591E+04  0.10000000000E+02 0. -1.
</event>
<event>
 5    1  0.1247473E-008  0.3825714E+03  0.7957747E-01  0.3440038E+00
         13   -1    0    0    0    0  0.00000000000E+00  0.00000000000E+00  0.14999999963E+04  0.15000000000E+04  0.10566000000E+00 0.  1.
        994   -1    0    0    0    0 -0.00000000000E+00 -0.00000000000E+00  0.11368683772E-12  0.17120000000E+03  0.17120000000E+03 0.  0.
         13    1    1    2    0    0 -0.51633654187E+01  0.16983852976E+02  0.52035511764E+02  0.54980153264E+02  0.10566000000E+00 0.  1.
        994    1    1    2    0    0  0.25247954720E+01 -0.22571001228E+02  0.45524199901E+01  0.17275991785E+03  0.17120000000E+03 0.  0.
        998    1    1    2    0    0  0.26385699467E+01  0.55871482520E+01  0.14434120645E+04  0.14434599289E+04  0.10000000000E+02 0.  1.
</event>
<event>
 5    1  0.1247473E-008  0.3755682E+03  0.7957747E-01  0.3470685E+00
         13   -1    0    0    0    0  0.00000000000E+00  0.00000000000E+00  0.14999999963E+04  0.15000000000E+04  0.10566000000E+00 0. -1.
        994   -1    0    0    0    0 -0.00000000000E+00 -0.00000000000E+00  0.11368683772E-12  0.17120000000E+03  0.17120000000E+03 0.  0.
         13    1    1    2    0    0  0.18542754567E+02 -0.45911274881E+02  0.15367309366E+03  0.16145311947E+03  0.10566000000E+00 0. -1.
        994    1    1    2    0    0 -0.31144632566E+02  0.62502295396E+02  0.23115650534E+02  0.18633383581E+03  0.17120000000E+03 0.  0.
        998    1    1    2    0    0  0.12601877999E+02 -0.16591020516E+02  0.13232112521E+04  0.13234130447E+04  0.10000000000E+02 0. -1.
</event>
<event>
 5    1  0.1247473E-008  0.3848568E+03  0.7957747E-01  0.3430280E+00
         13   -1    0    0    0    0  0.00000000000E+00  0.00000000000E+00  0.14999999963E+04  0.15000000000E+04  0.10566000000E+00 0. -1.
        994   -1    0    0    0    0 -0.00000000000E+00 -0.00000000000E+00  0.11368683772E-12  0.17120000000E+03  0.17120000000E+03 0.  0.
         13    1    1    2    0    0  0.98811956337E+01  0.86337135495E+01  0.49088050490E+02  0.50811680761E+02  0.10566000000E+00 0. -1.
        994    1    1    2    0    0 -0.88601994762E+01 -0.11067114442E+02  0.23627790027E+01  0.17180223189E+03  0.17120000000E+03 0.  0.
        998    1    1    2    0    0 -0.10209961575E+01  0.24334008921E+01  0.14485491668E+04  0.14485860874E+04  0.10000000000E+02 0. -1.
</event>
<event>
 5    1  0.1247473E-008  0.3816501E+03  0.7957747E-01  0.3444005E+00
         13   -1    0    0    0    0  0.00000000000E+00  0.00000000000E+00  0.14999999963E+04  0.15000000000E+04  0.10566000000E+00 0. -1.
        994   -1    0    0    0    0 -0.00000000000E+00 -0.00000000000E+00  0.11368683772E-12  0.17120000000E+03  0.17120000000E+03 0.  0.
         13    1    1    2    0    0  0.30291190070E+02  0.40489807495E+02  0.29617089004E+03  0.30045663244E+03  0.10566000000E+00 0. -1.
        994    1    1    2    0    0 -0.38388084107E+02 -0.41105965411E+02  0.13892231234E+02  0.18073676848E+03  0.17120000000E+03 0.  0.
        998    1    1    2    0    0  0.80968940365E+01  0.61615791534E+00  0.11899368750E+04  0.11900065991E+04  0.10000000000E+02 0. -1.
</event>
<event>
 5    1  0.1247473E-008  0.3828589E+03  0.7957747E-01  0.3438804E+00
         13   -1    0    0    0    0  0.00000000000E+00  0.00000000000E+00  0.14999999963E+04  0.15000000000E+04  0.10566000000E+00 0.  1.
        994   -1    0    0    0    0 -0.00000000000E+00 -0.00000000000E+00  0.11368683772E-12  0.17120000000E+03  0.17120000000E+03 0.  0.
         13    1    1    2    0    0  0.11182777733E+02 -0.21168807994E+02  0.11951202210E+03  0.12188645347E+03  0.10566000000E+00 0.  1.
        994    1    1    2    0    0  0.55519232263E+01 -0.72633380907E+00  0.28007439244E+01  0.17131443482E+03  0.17120000000E+03 0.  0.
        998    1    1    2    0    0 -0.16734700959E+02  0.21895141803E+02  0.13776872303E+04  0.13779991117E+04  0.10000000000E+02 0.  1.
</event>
<event>
 5    1  0.1247473E-008  0.3807561E+03  0.7957747E-01  0.3447873E+00
         13   -1    0    0    0    0  0.00000000000E+00  0.00000000000E+00  0.14999999963E+04  0.15000000000E+04  0.10566000000E+00 0.  1.
        994   -1    0    0    0    0 -0.00000000000E+00 -0.00000000000E+00  0.11368683772E-12  0.17120000000E+03  0.17120000000E+03 0.  0.
         13    1    1    2    0    0 -0.58932332076E+01 -0.11531888823E+02  0.21149285320E+02  0.24799558283E+02  0.10566000000E+00 0.  1.
        994    1    1    2    0    0 -0.18428789918E+01  0.47925592424E+01  0.38398692801E+01  0.17132002050E+03  0.17120000000E+03 0.  0.
        998    1    1    2    0    0  0.77361121994E+01  0.67393295810E+01  0.14750108417E+04  0.14750804212E+04  0.10000000000E+02 0.  1.
</event>
<event>
 5    1  0.1247473E-008  0.3756110E+03  0.7957747E-01  0.3470495E+00
         13   -1    0    0    0    0  0.00000000000E+00  0.00000000000E+00  0.14999999963E+04  0.15000000000E+04  0.10566000000E+00 0.  1.
        994   -1    0    0    0    0 -0.00000000000E+00 -0.00000000000E+00  0.11368683772E-12  0.17120000000E+03  0.17120000000E+03 0.  0.
         13    1    1    2    0    0  0.12748103244E+02  0.15305137188E+02  0.26567684186E+02  0.33205637589E+02  0.10566000000E+00 0.  1.
        994    1    1    2    0    0 -0.12524067037E+02 -0.41885333869E+02  0.12876315154E+02  0.17716227855E+03  0.17120000000E+03 0.  0.
        998    1    1    2    0    0 -0.22403620770E+00  0.26580196682E+02  0.14605559969E+04  0.14608320839E+04  0.10000000000E+02 0.  1.
</event>
<event>
 5    1  0.1247473E-008  0.3812799E+03  0.7957747E-01  0.3445604E+00
         13   -1    0    0    0    0  0.00000000000E+00  0.00000000000E+00  0.14999999963E+04  0.15000000000E+04  0.10566000000E+00 0. -1.
        994   -1    0    0    0    0 -0.00000000000E+00 -0.00000000000E+00  0.11368683772E-12  0.17120000000E+03  0.17120000000E+03 0.  0.
         13    1    1    2    0    0 -0.14255618624E+03  0.80851245908E+02  0.49276420364E+03  0.51930315015E+03  0.10566000000E+00 0. -1.
        994    1    1    2    0    0  0.13853683874E+03 -0.82103745524E+02  0.11872922982E+03  0.26332404130E+03  0.17120000000E+03 0.  0.
        998    1    1    2    0    0  0.40193475059E+01  0.12524996163E+01  0.88850656282E+03  0.88857280855E+03  0.10000000000E+02 0.  0.
</event>
<event>
 5    1  0.1247473E-008  0.3832153E+03  0.7957747E-01  0.3437277E+00
         13   -1    0    0    0    0  0.00000000000E+00  0.00000000000E+00  0.14999999963E+04  0.15000000000E+04  0.10566000000E+00 0.  1.
        994   -1    0    0    0    0 -0.00000000000E+00 -0.00000000000E+00  0.11368683772E-12  0.17120000000E+03  0.17120000000E+03 0.  0.
         13    1    1    2    0    0  0.28373769527E+01 -0.10035260950E+02  0.20359766916E+02  0.22875498754E+02  0.10566000000E+00 0.  1.
        994    1    1    2    0    0 -0.71725036457E+01  0.10638401655E+02  0.30635183947E+01  0.17170744172E+03  0.17120000000E+03 0.  0.
        998    1    1    2    0    0  0.43351266930E+01 -0.60314070511E+00  0.14765767110E+04  0.14766170595E+04  0.10000000000E+02 0.  1.
</event>
<event>
 5    1  0.1247473E-008  0.3844971E+03  0.7957747E-01  0.3431808E+00
         13   -1    0    0    0    0  0.00000000000E+00  0.00000000000E+00  0.14999999963E+04  0.15000000000E+04  0.10566000000E+00 0.  1.
        994   -1    0    0    0    0 -0.00000000000E+00 -0.00000000000E+00  0.11368683772E-12  0.17120000000E+03  0.17120000000E+03 0.  0.
         13    1    1    2    0    0 -0.22792853888E+02  0.10009907144E+02  0.14884318227E+03  0.15091062422E+03  0.10566000000E+00 0.  1.
        994    1    1    2    0    0  0.25954486439E+02 -0.66693284097E+01  0.42491090194E+01  0.17333669616E+03  0.17120000000E+03 0.  0.
        998    1    1    2    0    0 -0.31616325506E+01 -0.33405787341E+01  0.13469077050E+04  0.13469526796E+04  0.10000000000E+02 0.  1.
</event>
<event>
 5    1  0.1247473E-008  0.3802461E+03  0.7957747E-01  0.3450087E+00
         13   -1    0    0    0    0  0.00000000000E+00  0.00000000000E+00  0.14999999963E+04  0.15000000000E+04  0.10566000000E+00 0. -1.
        994   -1    0    0    0    0 -0.00000000000E+00 -0.00000000000E+00  0.11368683772E-12  0.17120000000E+03  0.17120000000E+03 0.  0.
         13    1    1    2    0    0  0.25214619309E+02  0.37120372436E+02  0.21495379655E+03  0.21958789788E+03  0.10566000000E+00 0. -1.
        994    1    1    2    0    0 -0.15567235982E+02 -0.44702730810E+02  0.11529797975E+02  0.17799732925E+03  0.17120000000E+03 0.  0.
        998    1    1    2    0    0 -0.96473833266E+01  0.75823583749E+01  0.12735164017E+04  0.12736147729E+04  0.10000000000E+02 0. -1.
</event>
<event>
 5    1  0.1247473E-008  0.3851026E+03  0.7957747E-01  0.3429237E+00
         13   -1    0    0    0    0  0.00000000000E+00  0.00000000000E+00  0.14999999963E+04  0.15000000000E+04  0.10566000000E+00 0.  1.
        994   -1    0    0    0    0 -0.00000000000E+00 -0.00000000000E+00  0.11368683772E-12  0.17120000000E+03  0.17120000000E+03 0.  0.
         13    1    1    2    0    0 -0.19662624408E+02  0.95744238298E+01  0.11680071296E+03  0.11883057731E+03  0.10566000000E+00 0.  1.
        994    1    1    2    0    0  0.48384391372E+02 -0.51966939218E+01  0.94033893943E+01  0.17822996013E+03  0.17120000000E+03 0.  0.
        998    1    1    2    0    0 -0.28721766964E+02 -0.43777299080E+01  0.13737958939E+04  0.13741394626E+04  0.10000000000E+02 0.  1.
</event>
<event>
 5    1  0.1247473E-008  0.3838471E+03  0.7957747E-01  0.3434576E+00
         13   -1    0    0    0    0  0.00000000000E+00  0.00000000000E+00  0.14999999963E+04  0.15000000000E+04  0.10566000000E+00 0. -1.
        994   -1    0    0    0    0 -0.00000000000E+00 -0.00000000000E+00  0.11368683772E-12  0.17120000000E+03  0.17120000000E+03 0.  0.
         13    1    1    2    0    0 -0.19023638374E+02 -0.89290391787E+01  0.10670836048E+03  0.10875804300E+03  0.10566000000E+00 0. -1.
        994    1    1    2    0    0  0.29149701651E+01  0.23963402461E+01  0.22505980585E+01  0.17125637124E+03  0.17120000000E+03 0.  0.
        998    1    1    2    0    0  0.16108668209E+02  0.65326989326E+01  0.13910410377E+04  0.13911855858E+04  0.10000000000E+02 0. -1.
</event>
<event>
 5    1  0.1247473E-008  0.3798201E+03  0.7957747E-01  0.3451942E+00
         13   -1    0    0    0    0  0.00000000000E+00  0.00000000000E+00  0.14999999963E+04  0.15000000000E+04  0.10566000000E+00 0.  1.
        994   -1    0    0    0    0 -0.00000000000E+00 -0.00000000000E+00  0.11368683772E-12  0.17120000000E+03  0.17120000000E+03 0.  0.
         13    1    1    2    0    0  0.56774565637E+02  0.10624153313E+03  0.69875226594E+03  0.70905948621E+03  0.10566000000E+00 0.  1.
        994    1    1    2    0    0 -0.65344437939E+02 -0.11586438454E+03  0.65880527571E+02  0.22659244270E+03  0.17120000000E+03 0.  0.
        998    1    1    2    0    0  0.85698723020E+01  0.96228514126E+01  0.73536720277E+03  0.73554807109E+03  0.10000000000E+02 0.  1.
</event>
<event>
 5    1  0.1247473E-008  0.3843841E+03  0.7957747E-01  0.3432289E+00
         13   -1    0    0    0    0  0.00000000000E+00  0.00000000000E+00  0.14999999963E+04  0.15000000000E+04  0.10566000000E+00 0. -1.
        994   -1    0    0    0    0 -0.00000000000E+00 -0.00000000000E+00  0.11368683772E-12  0.17120000000E+03  0.17120000000E+03 0.  0.
         13    1    1    2    0    0 -0.35211028565E+01 -0.11668029400E+02  0.38353503397E+02  0.40243551810E+02  0.10566000000E+00 0. -1.
        994    1    1    2    0    0 -0.40179496733E+01  0.74985917540E+01  0.21747643103E+01  0.17142503434E+03  0.17120000000E+03 0.  0.
        998    1    1    2    0    0  0.75390525298E+01  0.41694376461E+01  0.14594717286E+04  0.14595314139E+04  0.10000000000E+02 0. -1.
</event>
<event>
 5    1  0.1247473E-008  0.2375759E+03  0.7957747E-01  0.4475474E+00
         13   -1    0    0    0    0  0.00000000000E+00  0.00000000000E+00  0.14999999963E+04  0.15000000000E+04  0.10566000000E+00 0. -1.
        994   -1    0    0    0    0 -0.00000000000E+00 -0.00000000000E+00  0.11368683772E-12  0.17120000000E+03  0.17120000000E+03 0.  0.
         13    1    1    2    0    0 -0.40915116556E+02  0.16000406008E+03  0.20280381343E+03  0.26154300585E+03  0.10566000000E+00 0. -1.
        994    1    1    2    0    0  0.40619235653E+02 -0.15226022852E+03  0.18467698488E+03  0.29706586515E+03  0.17120000000E+03 0.  0.
        998    1    1    2    0    0  0.29588090267E+00 -0.77438315623E+01  0.11125191980E+04  0.11125911290E+04  0.10000000000E+02 0. -1.
</event>
<event>
 5    1  0.1247473E-008  0.3742945E+03  0.7957747E-01  0.3476384E+00
         13   -1    0    0    0    0  0.00000000000E+00  0.00000000000E+00  0.14999999963E+04  0.15000000000E+04  0.10566000000E+00 0.  1.
        994   -1    0    0    0    0 -0.00000000000E+00 -0.00000000000E+00  0.11368683772E-12  0.17120000000E+03  0.17120000000E+03 0.  0.
         13    1    1    2    0    0  0.48496614452E+01  0.36112440375E+02  0.43278055554E+02  0.56574100281E+02  0.10566000000E+00 0.  1.
        994    1    1    2    0    0 -0.54943568807E+01 -0.40883917498E+02  0.19292250379E+02  0.17715336179E+03  0.17120000000E+03 0.  0.
        998    1    1    2    0    0  0.64469543546E+00  0.47714771235E+01  0.14374296903E+04  0.14374725379E+04  0.10000000000E+02 0.  1.
</event>
<event>
 5    1  0.1247473E-008  0.3839474E+03  0.7957747E-01  0.3434149E+00
         13   -1    0    0    0    0  0.00000000000E+00  0.00000000000E+00  0.14999999963E+04  0.15000000000E+04  0.10566000000E+00 0. -1.
        994   -1    0    0    0    0 -0.00000000000E+00 -0.00000000000E+00  0.11368683772E-12  0.17120000000E+03  0.17120000000E+03 0.  0.
         13    1    1    2    0    0 -0.21530827736E+02 -0.10561921573E+02  0.13908483653E+03  0.14113728652E+03  0.10566000000E+00 0. -1.
        994    1    1    2    0    0  0.58299014310E+01  0.92618314729E+01  0.25489852926E+01  0.17156837296E+03  0.17120000000E+03 0.  0.
        998    1    1    2    0    0  0.15700926305E+02  0.13000901001E+01  0.13583661745E+04  0.13584943405E+04  0.10000000000E+02 0. -1.
</event>
<event>
 5    1  0.1247473E-008  0.3812618E+03  0.7957747E-01  0.3445683E+00
         13   -1    0    0    0    0  0.00000000000E+00  0.00000000000E+00  0.14999999963E+04  0.15000000000E+04  0.10566000000E+00 0.  1.
        994   -1    0    0    0    0 -0.00000000000E+00 -0.00000000000E+00  0.11368683772E-12  0.17120000000E+03  0.17120000000E+03 0.  0.
         13    1    1    2    0    0  0.48555086507E+01  0.10911825815E+02  0.18546769902E+02  0.22059867287E+02  0.10566000000E+00 0.  1.
        994    1    1    2    0    0 -0.54483944550E+01 -0.15530137892E+02  0.43998256882E+01  0.17204554238E+03  0.17120000000E+03 0.  0.
        998    1    1    2    0    0  0.59288580428E+00  0.46183120763E+01  0.14770534007E+04  0.14770945903E+04  0.10000000000E+02 0.  1.
</event>
<event>
 5    1  0.1247473E-008  0.3750610E+03  0.7957747E-01  0.3472950E+00
         13   -1    0    0    0    0  0.00000000000E+00  0.00000000000E+00  0.14999999963E+04  0.15000000000E+04  0.10566000000E+00 0. -1.
        994   -1    0    0    0    0 -0.00000000000E+00 -0.00000000000E+00  0.11368683772E-12  0.17120000000E+03  0.17120000000E+03 0.  0.
         13    1    1    2    0    0 -0.91418896565E+02 -0.68285150436E+02  0.67157249938E+03  0.68119740861E+03  0.10566000000E+00 0. -1.
        994    1    1    2    0    0  0.78338833662E+02  0.57349355416E+02  0.39388115501E+02  0.20071568217E+03  0.17120000000E+03 0.  0.
        998    1    1    2    0    0  0.13080062904E+02  0.10935795019E+02  0.78903938140E+03  0.78928690922E+03  0.10000000000E+02 0. -1.
</event>
<event>
 5    1  0.1943780E-008  0.3860710E+03  0.7957747E-01  0.3425143E+00
         13   -1    0    0    0    0  0.00000000000E+00  0.00000000000E+00  0.14999999963E+04  0.15000000000E+04  0.10566000000E+00 0. -1.
        994   -1    0    0    0    0 -0.00000000000E+00 -0.00000000000E+00  0.11368683772E-12  0.17120000000E+03  0.17120000000E+03 0.  0.
         13    1    1    2    0    0  0.63455307420E+01 -0.78429045106E+01  0.46711112131E+02  0.47788241986E+02  0.10566000000E+00 0. -1.
        994    1    1    2    0    0 -0.42868229010E+01  0.60264582698E+01  0.12785920786E+01  0.17136443577E+03  0.17120000000E+03 0.  0.
        998    1    1    2    0    0 -0.20587078409E+01  0.18164462408E+01  0.14520102921E+04  0.14520473222E+04  0.10000000000E+02 0. -1.
</event>
<event>
 5    1  0.1247473E-008  0.3781239E+03  0.7957747E-01  0.3459369E+00
         13   -1    0    0    0    0  0.00000000000E+00  0.00000000000E+00  0.14999999963E+04  0.15000000000E+04  0.10566000000E+00 0.  1.
        994   -1    0    0    0    0 -0.00000000000E+00 -0.00000000000E+00  0.11368683772E-12  0.17120000000E+03  0.17120000000E+03 0.  0.
         13    1    1    2    0    0 -0.67937888263E+01 -0.37381007039E+02  0.13281074938E+03  0.13813834214E+03  0.10566000000E+00 0.  1.
        994    1    1    2    0    0  0.26474483943E+02  0.28700587373E+02  0.10228883684E+02  0.17589397965E+03  0.17120000000E+03 0.  0.
        998    1    1    2    0    0 -0.19680695117E+02  0.86804196664E+01  0.13569603632E+04  0.13571676782E+04  0.10000000000E+02 0.  1.
</event>
<event>
 5    1  0.1625817E-008  0.3861298E+03  0.7957747E-01  0.3424895E+00
         13   -1    0    0    0    0  0.00000000000E+00  0.00000000000E+00  0.14999999963E+04  0.15000000000E+04  0.10566000000E+00 0.  1.
        994   -1    0    0    0    0 -0.00000000000E+00 -0.00000000000E+00  0.11368683772E-12  0.17120000000E+03  0.17120000000E+03 0.  0.
         13    1    1    2    0    0  0.11748650881E+02 -0.18374913001E+01  0.66268323445E+02  0.67326881912E+02  0.10566000000E+00 0.  1.
        994    1    1    2    0    0 -0.88106950151E+01  0.38003199255E+01  0.13719959219E+01  0.17147417634E+03  0.17120000000E+03 0.  0.
        998    1    1    2    0    0 -0.29379558662E+01 -0.19628286254E+01  0.14323596769E+04  0.14323989417E+04  0.10000000000E+02 0.  1.
</event>
<event>
 5    1  0.1247473E-008  0.3740969E+03  0.7957747E-01  0.3477272E+00
         13   -1    0    0    0    0  0.00000000000E+00  0.00000000000E+00  0.14999999963E+04  0.15000000000E+04  0.10566000000E+00 0.  1.
        994   -1    0    0    0    0 -0.00000000000E+00 -0.00000000000E+00  0.11368683772E-12  0.17120000000E+03  0.17120000000E+03 0.  0.
         13    1    1    2    0    0 -0.46984079995E+02  0.58525477889E+02  0.44417117766E+03  0.45046729244E+03  0.10566000000E+00 0.  1.
        994    1    1    2    0    0  0.83431490530E+01 -0.32364479255E+02  0.10961433831E+02  0.17477603006E+03  0.17120000000E+03 0.  0.
        998    1    1    2    0    0  0.38640930942E+02 -0.26160998635E+02  0.10448673848E+04  0.10459566775E+04  0.10000000000E+02 0.  1.
</event>
<event>
 5    1  0.1247473E-008  0.3782658E+03  0.7957747E-01  0.3458744E+00
         13   -1    0    0    0    0  0.00000000000E+00  0.00000000000E+00  0.14999999963E+04  0.15000000000E+04  0.10566000000E+00 0. -1.
        994   -1    0    0    0    0 -0.00000000000E+00 -0.00000000000E+00  0.11368683772E-12  0.17120000000E+03  0.17120000000E+03 0.  0.
         13    1    1    2    0    0  0.13283477643E+02  0.33281604858E+02  0.12112282810E+03  0.12631257519E+03  0.10566000000E+00 0. -1.
        994    1    1    2    0    0 -0.15776994370E+02 -0.25606409562E+02  0.80585393436E+01  0.17400856823E+03  0.17120000000E+03 0.  0.
        998    1    1    2    0    0  0.24935167276E+01 -0.76751952959E+01  0.13708186288E+04  0.13708788566E+04  0.10000000000E+02 0. -1.
</event>
<event>
 5    1  0.1247473E-008  0.3777055E+03  0.7957747E-01  0.3461211E+00
         13   -1    0    0    0    0  0.00000000000E+00  0.00000000000E+00  0.14999999963E+04  0.15000000000E+04  0.10566000000E+00 0. -1.
        994   -1    0    0    0    0 -0.00000000000E+00 -0.00000000000E+00  0.11368683772E-12  0.17120000000E+03  0.17120000000E+03 0.  0.
         13    1    1    2    0    0 -0.20774137076E+02 -0.23745133509E+02  0.11241719041E+03  0.11676057554E+03  0.10566000000E+00 0. -1.
        994    1    1    2    0    0  0.21576477253E+02 -0.43910642721E+02  0.13401791466E+02  0.17855737713E+03  0.17120000000E+03 0.  0.
        998    1    1    2    0    0 -0.80234017702E+00  0.67655776230E+02  0.13741810144E+04  0.13758820473E+04  0.10000000000E+02 0. -1.
</event>
<event>
 5    1  0.1247473E-008  0.2706150E+03  0.7957747E-01  0.4131053E+00
         13   -1    0    0    0    0  0.00000000000E+00  0.00000000000E+00  0.14999999963E+04  0.15000000000E+04  0.10566000000E+00 0.  1.
        994   -1    0    0    0    0 -0.00000000000E+00 -0.00000000000E+00  0.11368683772E-12  0.17120000000E+03  0.17120000000E+03 0.  0.
         13    1    1    2    0    0  0.30727780687E+02  0.40526914014E+02 -0.43720327807E+02  0.67067917017E+02  0.10566000000E+00 0.  1.
        994    1    1    2    0    0 -0.30612336872E+02 -0.28798894854E+02  0.22742500067E+03  0.28774652464E+03  0.17120000000E+03 0.  0.
        998    1    1    2    0    0 -0.11544381519E+00 -0.11728019159E+02  0.13162953234E+04  0.13163855583E+04  0.10000000000E+02 0.  1.
</event>
<event>
 5    1  0.1247473E-008  0.3822259E+03  0.7957747E-01  0.3441523E+00
         13   -1    0    0    0    0  0.00000000000E+00  0.00000000000E+00  0.14999999963E+04  0.15000000000E+04  0.10566000000E+00 0.  1.
        994   -1    0    0    0    0 -0.00000000000E+00 -0.00000000000E+00  0.11368683772E-12  0.17120000000E+03  0.17120000000E+03 0.  0.
         13    1    1    2    0    0  0.12132965138E+02  0.25454556095E+02  0.14876270484E+03  0.15141167981E+03  0.10566000000E+00 0.  1.
        994    1    1    2    0    0 -0.47277578615E+01  0.25387956174E+01  0.31092906930E+01  0.17131230214E+03  0.17120000000E+03 0.  0.
        998    1    1    2    0    0 -0.74052072764E+01 -0.27993351712E+02  0.13481280007E+04  0.13484760180E+04  0.10000000000E+02 0.  1.
</event>
<event>
 5    1  0.1247473E-008  0.3802313E+03  0.7957747E-01  0.3450152E+00
         13   -1    0    0    0    0  0.00000000000E+00  0.00000000000E+00  0.14999999963E+04  0.15000000000E+04  0.10566000000E+00 0. -1.
        994   -1    0    0    0    0 -0.00000000000E+00 -0.00000000000E+00  0.11368683772E-12  0.17120000000E+03  0.17120000000E+03 0.  0.
         13    1    1    2    0    0 -0.20225709068E+01 -0.12857748542E+02  0.19322246720E+02  0.23297486409E+02  0.10566000000E+00 0. -1.
        994    1    1    2    0    0  0.38857722904E+01  0.10490990549E+02  0.44346303627E+01  0.17162245207E+03  0.17120000000E+03 0.  0.
        998    1    1    2    0    0 -0.18632013835E+01  0.23667579932E+01  0.14762431192E+04  0.14762800615E+04  0.10000000000E+02 0. -1.
</event>
<event>
 5    1  0.1247473E-008  0.3721510E+03  0.7957747E-01  0.3486063E+00
         13   -1    0    0    0    0  0.00000000000E+00  0.00000000000E+00  0.14999999963E+04  0.15000000000E+04  0.10566000000E+00 0.  1.
        994   -1    0    0    0    0 -0.00000000000E+00 -0.00000000000E+00  0.11368683772E-12  0.17120000000E+03  0.17120000000E+03 0.  0.
         13    1    1    2    0    0 -0.17531575941E+03 -0.28227381700E+02  0.74239470727E+03  0.76333630408E+03  0.10566000000E+00 0.  1.
        994    1    1    2    0    0  0.18364782486E+03  0.21973939564E+02  0.13655638931E+03  0.28664693450E+03  0.17120000000E+03 0.  0.
        998    1    1    2    0    0 -0.83320654503E+01  0.62534421364E+01  0.62104889970E+03  0.62121676142E+03  0.10000000000E+02 0.  1.
</event>
<event>
 5    1  0.1247473E-008  0.3765317E+03  0.7957747E-01  0.3466401E+00
         13   -1    0    0    0    0  0.00000000000E+00  0.00000000000E+00  0.14999999963E+04  0.15000000000E+04  0.10566000000E+00 0. -1.
        994   -1    0    0    0    0 -0.00000000000E+00 -0.00000000000E+00  0.11368683772E-12  0.17120000000E+03  0.17120000000E+03 0.  0.
         13    1    1    2    0    0 -0.26639998060E+02  0.18125870046E+02  0.90310665071E+02  0.95886725104E+02  0.10566000000E+00 0. -1.
        994    1    1    2    0    0  0.49371068218E+01 -0.74142841119E+01  0.61626436513E+01  0.17154231201E+03  0.17120000000E+03 0.  0.
        998    1    1    2    0    0  0.21702891238E+02 -0.10711585934E+02  0.14035266876E+04  0.14037709629E+04  0.10000000000E+02 0. -1.
</event>
<event>
 5    1  0.1247473E-008  0.3852746E+03  0.7957747E-01  0.3428508E+00
         13   -1    0    0    0    0  0.00000000000E+00  0.00000000000E+00  0.14999999963E+04  0.15000000000E+04  0.10566000000E+00 0. -1.
        994   -1    0    0    0    0 -0.00000000000E+00 -0.00000000000E+00  0.11368683772E-12  0.17120000000E+03  0.17120000000E+03 0.  0.
         13    1    1    2    0    0  0.19552569357E+03  0.10849306955E+03  0.12447164395E+04  0.12646422691E+04  0.10566000000E+00 0. -1.
        994    1    1    2    0    0 -0.19585411287E+03 -0.10875153268E+03  0.18879708028E+03  0.33932212853E+03  0.17120000000E+03 0.  0.
        998    1    1    2    0    0  0.32841930214E+00  0.25846313564E+00  0.66486476499E+02  0.67235602323E+02  0.10000000000E+02 0.  0.
</event>
<event>
 5    1  0.1247473E-008  0.3848884E+03  0.7957747E-01  0.3430145E+00
         13   -1    0    0    0    0  0.00000000000E+00  0.00000000000E+00  0.14999999963E+04  0.15000000000E+04  0.10566000000E+00 0. -1.
        994   -1    0    0    0    0 -0.00000000000E+00 -0.00000000000E+00  0.11368683772E-12  0.17120000000E+03  0.17120000000E+03 0.  0.
         13    1    1    2    0    0  0.16337391297E+02  0.13329222745E+00  0.81581068322E+02  0.83201021591E+02  0.10566000000E+00 0. -1.
        994    1    1    2    0    0 -0.63049546453E+01 -0.26368521884E+01  0.18392048310E+01  0.17134622294E+03  0.17120000000E+03 0.  0.
        998    1    1    2    0    0 -0.10032436651E+02  0.25035599610E+01  0.14165797231E+04  0.14166527555E+04  0.10000000000E+02 0. -1.
</event>
<event>
 5    1  0.1247473E-008  0.3833618E+03  0.7957747E-01  0.3436650E+00
         13   -1    0    0    0    0  0.00000000000E+00  0.00000000000E+00  0.14999999963E+04  0.15000000000E+04  0.10566000000E+00 0. -1.
        994   -1    0    0    0    0 -0.00000000000E+00 -0.00000000000E+00  0.11368683772E-12  0.17120000000E+03  0.17120000000E+03 0.  0.
         13    1    1    2    0    0  0.95993769176E+01  0.95334647332E+01  0.37005336053E+02  0.39401028507E+02  0.10566000000E+00 0. -1.
        994    1    1    2    0    0 -0.87578465886E+01 -0.10924174057E+01  0.27032191064E+01  0.17144865309E+03  0.17120000000E+03 0.  0.
        998    1    1    2    0    0 -0.84153032901E+00 -0.84410473276E+01  0.14602914411E+04  0.14603503184E+04  0.10000000000E+02 0. -1.
</event>
<event>
 5    1  0.1247473E-008  0.3802039E+03  0.7957747E-01  0.3450271E+00
         13   -1    0    0    0    0  0.00000000000E+00  0.00000000000E+00  0.14999999963E+04  0.15000000000E+04  0.10566000000E+00 0. -1.
        994   -1    0    0    0    0 -0.00000000000E+00 -0.00000000000E+00  0.11368683772E-12  0.17120000000E+03  0.17120000000E+03 0.  0.
         13    1    1    2    0    0 -0.18987214706E+02 -0.28104513349E+02  0.14138713807E+03  0.14539845931E+03  0.10566000000E+00 0. -1.
        994    1    1    2    0    0  0.10683955049E+02  0.16919435866E+02  0.53690263577E+01  0.17244906683E+03  0.17120000000E+03 0.  0.
        998    1    1    2    0    0  0.83032596570E+01  0.11185077483E+02  0.13532438318E+04  0.13533524739E+04  0.10000000000E+02 0. -1.
</event>
<event>
 5    1  0.1247473E-008  0.3825692E+03  0.7957747E-01  0.3440047E+00
         13   -1    0    0    0    0  0.00000000000E+00  0.00000000000E+00  0.14999999963E+04  0.15000000000E+04  0.10566000000E+00 0.  1.
        994   -1    0    0    0    0 -0.00000000000E+00 -0.00000000000E+00  0.11368683772E-12  0.17120000000E+03  0.17120000000E+03 0.  0.
         13    1    1    2    0    0 -0.23970514064E+02  0.22361251531E+02  0.19403507775E+03  0.19678473944E+03  0.10566000000E+00 0.  1.
        994    1    1    2    0    0  0.58492100753E+01 -0.16815639672E+02  0.38932474491E+01  0.17216729182E+03  0.17120000000E+03 0.  0.
        998    1    1    2    0    0  0.18121303988E+02 -0.55456118596E+01  0.13020716711E+04  0.13022479687E+04  0.10000000000E+02 0.  1.
</event>
<event>
 5    1  0.2344261E-008  0.3858794E+03  0.7957747E-01  0.3425951E+00
         13   -1    0    0    0    0  0.00000000000E+00  0.00000000000E+00  0.14999999963E+04  0.15000000000E+04  0.10566000000E+00 0. -1.
        994   -1    0    0    0    0 -0.00000000000E+00 -0.00000000000E+00  0.11368683772E-12  0.17120000000E+03  0.17120000000E+03 0.  0.
         13    1    1    2    0    0  0.18169957872E+01  0.11586973800E+02  0.58273176392E+02  0.59441851304E+02  0.10566000000E+00 0. -1.
        994    1    1    2    0    0 -0.36936087333E+01 -0.71084420383E+01  0.14046440194E+01  0.17139307372E+03  0.17120000000E+03 0.  0.
        998    1    1    2    0    0  0.18766129461E+01 -0.44785317619E+01  0.14403221759E+04  0.14403650750E+04  0.10000000000E+02 0. -1.
</event>
<event>
 5    1  0.1247473E-008  0.3780285E+03  0.7957747E-01  0.3459788E+00
         13   -1    0    0    0    0  0.00000000000E+00  0.00000000000E+00  0.14999999963E+04  0.15000000000E+04  0.10566000000E+00 0.  1.
        994   -1    0    0    0    0 -0.00000000000E+00 -0.00000000000E+00  0.11368683772E-12  0.17120000000E+03  0.17120000000E+03 0.  0.
         13    1    1    2    0    0  0.19022174431E+02  0.18523146067E+02  0.15780557031E+02  0.30886683289E+02  0.10566000000E+00 0.  1.
        994    1    1    2    0    0 -0.28500600633E+02 -0.30791599932E+02  0.21608423266E+02  0.17758595333E+03  0.17120000000E+03 0.  0.
        998    1    1    2    0    0  0.94784262020E+01  0.12268453864E+02  0.14626110160E+04  0.14627273634E+04  0.10000000000E+02 0.  1.
</event>
<event>
 5    1  0.1247473E-008  0.3717795E+03  0.7957747E-01  0.3487752E+00
         13   -1    0    0    0    0  0.00000000000E+00  0.00000000000E+00  0.14999999963E+04  0.15000000000E+04  0.10566000000E+00 0.  1.
        994   -1    0    0    0    0 -0.00000000000E+00 -0.00000000000E+00  0.11368683772E-12  0.17120000000E+03  0.17120000000E+03 0.  0.
         13    1    1    2    0    0  0.95892729123E+02 -0.68477479724E+02  0.40238208294E+03  0.41928025539E+03  0.10566000000E+00 0.  1.
        994    1    1    2    0    0 -0.98730349542E+02  0.70042764471E+02  0.65383442412E+02  0.21963174934E+03  0.17120000000E+03 0.  0.
        998    1    1    2    0    0  0.28376204181E+01 -0.15652847477E+01  0.10322344709E+04  0.10322879953E+04  0.10000000000E+02 0.  1.
</event>
<event>
 5    1  0.1247473E-008  0.3821621E+03  0.7957747E-01  0.3441798E+00
         13   -1    0    0    0    0  0.00000000000E+00  0.00000000000E+00  0.14999999963E+04  0.15000000000E+04  0.10566000000E+00 0.  1.
        994   -1    0    0    0    0 -0.00000000000E+00 -0.00000000000E+00  0.11368683772E-12  0.17120000000E+03  0.17120000000E+03 0.  0.
         13    1    1    2    0    0  0.18865739448E+02 -0.10152453871E+01  0.60889514524E+02  0.63753360626E+02  0.10566000000E+00 0.  1.
        994    1    1    2    0    0 -0.16456700150E+00  0.31604983443E+01  0.30789543476E+01  0.17125692918E+03  0.17120000000E+03 0.  0.
        998    1    1    2    0    0 -0.18701172447E+02 -0.21452529572E+01  0.14360315274E+04  0.14361897102E+04  0.10000000000E+02 0.  1.
</event>
<event>
 5    1  0.1247473E-008  0.3853702E+03  0.7957747E-01  0.3428104E+00
         13   -1    0    0    0    0  0.00000000000E+00  0.00000000000E+00  0.14999999963E+04  0.15000000000E+04  0.10566000000E+00 0. -1.
        994   -1    0    0    0    0 -0.00000000000E+00 -0.00000000000E+00  0.11368683772E-12  0.17120000000E+03  0.17120000000E+03 0.  0.
         13    1    1    2    0    0 -0.10655642866E+02 -0.12172979792E+02  0.90601291340E+02  0.92034392041E+02  0.10566000000E+00 0. -1.
        994    1    1    2    0    0  0.48081467946E+01  0.10081449793E+02  0.18563263272E+01  0.17157400693E+03  0.17120000000E+03 0.  0.
        998    1    1    2    0    0  0.58474960713E+01  0.20915299995E+01  0.14075423786E+04  0.14075916010E+04  0.10000000000E+02 0. -1.
</event>
<event>
 5    1  0.1247473E-008  0.3784559E+03  0.7957747E-01  0.3457910E+00
         13   -1    0    0    0    0  0.00000000000E+00  0.00000000000E+00  0.14999999963E+04  0.15000000000E+04  0.10566000000E+00 0. -1.
        994   -1    0    0    0    0 -0.00000000000E+00 -0.00000000000E+00  0.11368683772E-12  0.17120000000E+03  0.17120000000E+03 0.  0.
         13    1    1    2    0    0 -0.33412147619E+02 -0.23303095050E+02  0.13396134346E+03  0.14001806510E+03  0.10566000000E+00 0. -1.
        994    1    1    2    0    0  0.10170722415E+03 -0.23911450332E+02  0.42515976479E+02  0.20501991405E+03  0.17120000000E+03 0.  0.
        998    1    1    2    0    0 -0.68295076530E+02  0.47214545382E+02  0.13235226763E+04  0.13261620209E+04  0.10000000000E+02 0. -1.
</event>
<event>
 5    1  0.1247473E-008  0.3767451E+03  0.7957747E-01  0.3465455E+00
         13   -1    0    0    0    0  0.00000000000E+00  0.00000000000E+00  0.14999999963E+04  0.15000000000E+04  0.10566000000E+00 0. -1.
        994   -1    0    0    0    0 -0.00000000000E+00 -0.00000000000E+00  0.11368683772E-12  0.17120000000E+03  0.17120000000E+03 0.  0.
         13    1    1    2    0    0 -0.17252952405E+02 -0.19346776315E+02  0.54535917483E+02  0.60383272354E+02  0.10566000000E+00 0. -1.
        994    1    1    2    0    0  0.20670424807E+01  0.30049222209E+02  0.88572048448E+01  0.17405492954E+03  0.17120000000E+03 0.  0.
        998    1    1    2    0    0  0.15185909925E+02 -0.10702445894E+02  0.14366068740E+04  0.14367617981E+04  0.10000000000E+02 0. -1.
</event>
<event>
 5    1  0.1247473E-008  0.3804709E+03  0.7957747E-01  0.3449111E+00
         13   -1    0    0    0    0  0.00000000000E+00  0.00000000000E+00  0.14999999963E+04  0.15000000000E+04  0.10566000000E+00 0.  1.
        994   -1    0    0    0    0 -0.00000000000E+00 -0.00000000000E+00  0.11368683772E-12  0.17120000000E+03  0.17120000000E+03 0.  0.
         13    1    1    2    0    0 -0.76625494224E+01  0.13605746906E+02  0.29137332970E+02  0.33057924151E+02  0.10566000000E+00 0.  1.
        994    1    1    2    0    0  0.10166411083E+02 -0.14336962860E+02  0.49273474828E+01  0.17217033186E+03  0.17120000000E+03 0.  0.
        998    1    1    2    0    0 -0.25038616606E+01  0.73121595456E+00  0.14659353158E+04  0.14659717440E+04  0.10000000000E+02 0.  1.
</event>
<event>
 5    1  0.1247473E-008  0.3812284E+03  0.7957747E-01  0.3445827E+00
         13   -1    0    0    0    0  0.00000000000E+00  0.00000000000E+00  0.14999999963E+04  0.15000000000E+04  0.10566000000E+00 0. -1.
        994   -1    0    0    0    0 -0.00000000000E+00 -0.00000000000E+00  0.11368683772E-12  0.17120000000E+03  0.17120000000E+03 0.  0.
         13    1    1    2    0    0  0.60345354538E+00  0.45683431601E+02  0.22522479494E+03  0.22981200904E+03  0.10566000000E+00 0. -1.
        994    1    1    2    0    0 -0.16687723679E+02 -0.59962014699E+02  0.16521439135E+02  0.18291069209E+03  0.17120000000E+03 0.  0.
        998    1    1    2    0    0  0.16084270134E+02  0.14278583098E+02  0.12582537622E+04  0.12584772989E+04  0.10000000000E+02 0. -1.
</event>
<event>
 5    1  0.1247473E-008  0.3850711E+03  0.7957747E-01  0.3429371E+00
         13   -1    0    0    0    0  0.00000000000E+00  0.00000000000E+00  0.14999999963E+04  0.15000000000E+04  0.10566000000E+00 0.  1.
        994   -1    0    0    0    0 -0.00000000000E+00 -0.00000000000E+00  0.11368683772E-12  0.17120000000E+03  0.17120000000E+03 0.  0.
         13    1    1    2    0    0  0.88830137810E+01 -0.13858477384E+02  0.83990800025E+02  0.85588731630E+02  0.10566000000E+00 0.  1.
        994    1    1    2    0    0  0.17893677152E+01  0.16045852414E+02  0.24523855084E+01  0.17197710723E+03  0.17120000000E+03 0.  0.
        998    1    1    2    0    0 -0.10672381496E+02 -0.21873750305E+01  0.14135568107E+04  0.14136341611E+04  0.10000000000E+02 0.  1.
</event>
<event>
 5    1  0.1247473E-008  0.3853228E+03  0.7957747E-01  0.3428304E+00
         13   -1    0    0    0    0  0.00000000000E+00  0.00000000000E+00  0.14999999963E+04  0.15000000000E+04  0.10566000000E+00 0.  1.
        994   -1    0    0    0    0 -0.00000000000E+00 -0.00000000000E+00  0.11368683772E-12  0.17120000000E+03  0.17120000000E+03 0.  0.
         13    1    1    2    0    0 -0.13835558222E+02  0.43830182136E+01  0.79336479870E+02  0.80653094932E+02  0.10566000000E+00 0.  1.
        994    1    1    2    0    0 -0.31092820834E+01  0.22780068142E+01  0.15187501382E+01  0.17125011986E+03  0.17120000000E+03 0.  0.
        998    1    1    2    0    0  0.16944840306E+02 -0.66610250278E+01  0.14191447663E+04  0.14192967852E+04  0.10000000000E+02 0.  1.
</event>
<event>
 5    1  0.1247473E-008  0.3751418E+03  0.7957747E-01  0.3472589E+00
         13   -1    0    0    0    0  0.00000000000E+00  0.00000000000E+00  0.14999999963E+04  0.15000000000E+04  0.10566000000E+00 0.  1.
        994   -1    0    0    0    0 -0.00000000000E+00 -0.00000000000E+00  0.11368683772E-12  0.17120000000E+03  0.17120000000E+03 0.  0.
         13    1    1    2    0    0  0.71985002363E+02 -0.57022327501E+02  0.43059766764E+03  0.44028144287E+03  0.10566000000E+00 0.  1.
        994    1    1    2    0    0 -0.82154870177E+02  0.50905691298E+02  0.39035151438E+02  0.20043451586E+03  0.17120000000E+03 0.  0.
        998    1    1    2    0    0  0.10169867813E+02  0.61166362025E+01  0.10303671772E+04  0.10304840413E+04  0.10000000000E+02 0.  1.
</event>
<event>
 5    1  0.1247473E-008  0.3735957E+03  0.7957747E-01  0.3479527E+00
         13   -1    0    0    0    0  0.00000000000E+00  0.00000000000E+00  0.14999999963E+04  0.15000000000E+04  0.10566000000E+00 0.  1.
        994   -1    0    0    0    0 -0.00000000000E+00 -0.00000000000E+00  0.11368683772E-12  0.17120000000E+03  0.17120000000E+03 0.  0.
         13    1    1    2    0    0 -0.83574577112E+02  0.41310115614E+02  0.52381281928E+03  0.53204428049E+03  0.10566000000E+00 0.  1.
        994    1    1    2    0    0 -0.40194044969E+01 -0.19342675615E+02  0.14235923710E+02  0.17292309342E+03  0.17120000000E+03 0.  0.
        998    1    1    2    0    0  0.87593981609E+02 -0.21967439999E+02  0.96195125329E+03  0.96623262610E+03  0.10000000000E+02 0. -1.
</event>
<event>
 5    1  0.1308054E-008  0.3856695E+03  0.7957747E-01  0.3426838E+00
         13   -1    0    0    0    0  0.00000000000E+00  0.00000000000E+00  0.14999999963E+04  0.15000000000E+04  0.10566000000E+00 0. -1.
        994   -1    0    0    0    0 -0.00000000000E+00 -0.00000000000E+00  0.11368683772E-12  0.17120000000E+03  0.17120000000E+03 0.  0.
         13    1    1    2    0    0  0.93313929097E+01 -0.63625705274E+01  0.47866841293E+02  0.49181326301E+02  0.10566000000E+00 0. -1.
        994    1    1    2    0    0 -0.10780365476E+02  0.72497631882E+01  0.18521530959E+01  0.17170220097E+03  0.17120000000E+03 0.  0.
        998    1    1    2    0    0  0.14489725665E+01 -0.88719266072E+00  0.14502810019E+04  0.14503164727E+04  0.10000000000E+02 0. -1.
</event>
<event>
 5    1  0.1247473E-008  0.3852624E+03  0.7957747E-01  0.3428560E+00
         13   -1    0    0    0    0  0.00000000000E+00  0.00000000000E+00  0.14999999963E+04  0.15000000000E+04  0.10566000000E+00 0.  1.
        994   -1    0    0    0    0 -0.00000000000E+00 -0.00000000000E+00  0.11368683772E-12  0.17120000000E+03  0.17120000000E+03 0.  0.
         13    1    1    2    0    0  0.12329699817E+02  0.52394832694E+01  0.59755651480E+02  0.61239062129E+02  0.10566000000E+00 0.  1.
        994    1    1    2    0    0 -0.11235435075E+02  0.21010831438E+01  0.19293088745E+01  0.17159199219E+03  0.17120000000E+03 0.  0.
        998    1    1    2    0    0 -0.10942647412E+01 -0.73405664132E+01  0.14383150359E+04  0.14383689457E+04  0.10000000000E+02 0.  1.
</event>
<event>
 5    1  0.1247473E-008  0.3818469E+03  0.7957747E-01  0.3443156E+00
         13   -1    0    0    0    0  0.00000000000E+00  0.00000000000E+00  0.14999999963E+04  0.15000000000E+04  0.10566000000E+00 0.  1.
        994   -1    0    0    0    0 -0.00000000000E+00 -0.00000000000E+00  0.11368683772E-12  0.17120000000E+03  0.17120000000E+03 0.  0.
         13    1    1    2    0    0 -0.49010299457E+01 -0.17110763214E+02  0.47454604584E+02  0.50682827195E+02  0.10566000000E+00 0.  1.
        994    1    1    2    0    0  0.15817780770E+02  0.12413573404E+02  0.45482465233E+01  0.17243672909E+03  0.17120000000E+03 0.  0.
        998    1    1    2    0    0 -0.10916750824E+02  0.46971898097E+01  0.14479971452E+04  0.14480804437E+04  0.10000000000E+02 0.  1.
</event>
<event>
 5    1  0.1247473E-008  0.3815830E+03  0.7957747E-01  0.3444295E+00
         13   -1    0    0    0    0  0.00000000000E+00  0.00000000000E+00  0.14999999963E+04  0.15000000000E+04  0.10566000000E+00 0.  1.
        994   -1    0    0    0    0 -0.00000000000E+00 -0.00000000000E+00  0.11368683772E-12  0.17120000000E+03  0.17120000000E+03 0.  0.
         13    1    1    2    0    0 -0.23381347266E+01  0.21597024688E+02  0.66560501223E+02  0.70015782767E+02  0.10566000000E+00 0.  1.
        994    1    1    2    0    0  0.60628546926E+01 -0.22942603753E+02  0.52111229787E+01  0.17291534656E+03  0.17120000000E+03 0.  0.
        998    1    1    2    0    0 -0.37247199660E+01  0.13455790654E+01  0.14282283721E+04  0.14282688707E+04  0.10000000000E+02 0.  1.
</event>
<event>
 5    1  0.1247473E-008  0.3730517E+03  0.7957747E-01  0.3481982E+00
         13   -1    0    0    0    0  0.00000000000E+00  0.00000000000E+00  0.14999999963E+04  0.15000000000E+04  0.10566000000E+00 0.  1.
        994   -1    0    0    0    0 -0.00000000000E+00 -0.00000000000E+00  0.11368683772E-12  0.17120000000E+03  0.17120000000E+03 0.  0.
         13    1    1    2    0    0 -0.98777423204E+01 -0.51203724706E+02  0.12027428848E+03  0.13109274141E+03  0.10566000000E+00 0.  1.
        994    1    1    2    0    0 -0.68336798228E+02  0.73020361932E+01  0.29445781591E+02  0.18681469904E+03  0.17120000000E+03 0.  0.
        998    1    1    2    0    0  0.78214540549E+02  0.43901688512E+02  0.13502799262E+04  0.13532925595E+04  0.10000000000E+02 0.  1.
</event>
<event>
 5    1  0.1247473E-008  0.3830110E+03  0.7957747E-01  0.3438152E+00
         13   -1    0    0    0    0  0.00000000000E+00  0.00000000000E+00  0.14999999963E+04  0.15000000000E+04  0.10566000000E+00 0. -1.
        994   -1    0    0    0    0 -0.00000000000E+00 -0.00000000000E+00  0.11368683772E-12  0.17120000000E+03  0.17120000000E+03 0.  0.
         13    1    1    2    0    0  0.24988487794E+02 -0.13198138574E+02  0.15391169356E+03  0.15648461893E+03  0.10566000000E+00 0. -1.
        994    1    1    2    0    0 -0.13766126413E+02  0.58984581979E+01  0.33636373597E+01  0.17188674208E+03  0.17120000000E+03 0.  0.
        998    1    1    2    0    0 -0.11222361382E+02  0.72996803760E+01  0.13427246654E+04  0.13428286390E+04  0.10000000000E+02 0. -1.
</event>
<event>
 5    1  0.1247473E-008  0.3837700E+03  0.7957747E-01  0.3434906E+00
         13   -1    0    0    0    0  0.00000000000E+00  0.00000000000E+00  0.14999999963E+04  0.15000000000E+04  0.10566000000E+00 0. -1.
        994   -1    0    0    0    0 -0.00000000000E+00 -0.00000000000E+00  0.11368683772E-12  0.17120000000E+03  0.17120000000E+03 0.  0.
         13    1    1    2    0    0  0.20815001525E+02  0.11029029230E+02  0.13509633145E+03  0.13713472832E+03  0.10566000000E+00 0. -1.
        994    1    1    2    0    0 -0.32149401415E+01 -0.30785640877E+00  0.22765070623E+01  0.17124559294E+03  0.17120000000E+03 0.  0.
        998    1    1    2    0    0 -0.17600061384E+02 -0.10721172822E+02  0.13626271578E+04  0.13628196787E+04  0.10000000000E+02 0. -1.
</event>
<event>
 5    1  0.1247473E-008  0.3839817E+03  0.7957747E-01  0.3434002E+00
         13   -1    0    0    0    0  0.00000000000E+00  0.00000000000E+00  0.14999999963E+04  0.15000000000E+04  0.10566000000E+00 0. -1.
        994   -1    0    0    0    0 -0.00000000000E+00 -0.00000000000E+00  0.11368683772E-12  0.17120000000E+03  0.17120000000E+03 0.  0.
         13    1    1    2    0    0 -0.43852094494E+01  0.15547503200E+02  0.62961233942E+02  0.65000638929E+02  0.10566000000E+00 0. -1.
        994    1    1    2    0    0  0.42750140490E+01 -0.26933764446E+01  0.22207709468E+01  0.17128894257E+03  0.17120000000E+03 0.  0.
        998    1    1    2    0    0  0.11019540039E+00 -0.12854126755E+02  0.14348179914E+04  0.14349104185E+04  0.10000000000E+02 0. -1.
</event>
<event>
 5    1  0.1247473E-008  0.3828120E+03  0.7957747E-01  0.3439005E+00
         13   -1    0    0    0    0  0.00000000000E+00  0.00000000000E+00  0.14999999963E+04  0.15000000000E+04  0.10566000000E+00 0.  1.
        994   -1    0    0    0    0 -0.00000000000E+00 -0.00000000000E+00  0.11368683772E-12  0.17120000000E+03  0.17120000000E+03 0.  0.
         13    1    1    2    0    0  0.35344187410E+01 -0.14491881732E+02  0.41428241203E+02  0.44032000695E+02  0.10566000000E+00 0.  1.
        994    1    1    2    0    0 -0.49004220433E+01  0.40143649737E+00  0.28004137654E+01  0.17129348384E+03  0.17120000000E+03 0.  0.
        998    1    1    2    0    0  0.13660033022E+01  0.14090445235E+02  0.14557713413E+04  0.14558745155E+04  0.10000000000E+02 0.  1.
</event>
<event>
 5    1  0.1247473E-008  0.3824810E+03  0.7957747E-01  0.3440426E+00
         13   -1    0    0    0    0  0.00000000000E+00  0.00000000000E+00  0.14999999963E+04  0.15000000000E+04  0.10566000000E+00 0. -1.
        994   -1    0    0    0    0 -0.00000000000E+00 -0.00000000000E+00  0.11368683772E-12  0.17120000000E+03  0.17120000000E+03 0.  0.
         13    1    1    2    0    0 -0.28238622446E+02  0.13936840009E+02  0.16184031471E+03  0.16487557107E+03  0.10566000000E+00 0. -1.
        994    1    1    2    0    0  0.26403509126E+02 -0.46723935561E+01  0.52735412035E+01  0.17336731754E+03  0.17120000000E+03 0.  0.
        998    1    1    2    0    0  0.18351133196E+01 -0.92644464524E+01  0.13328861404E+04  0.13329571114E+04  0.10000000000E+02 0. -1.
</event>
<event>
 5    1  0.1247473E-008  0.3742980E+03  0.7957747E-01  0.3476368E+00
         13   -1    0    0    0    0  0.00000000000E+00  0.00000000000E+00  0.14999999963E+04  0.15000000000E+04  0.10566000000E+00 0.  1.
        994   -1    0    0    0    0 -0.00000000000E+00 -0.00000000000E+00  0.11368683772E-12  0.17120000000E+03  0.17120000000E+03 0.  0.
         13    1    1    2    0    0 -0.17128294602E+02 -0.26851401658E+02  0.68774469652E+02  0.75791259964E+02  0.10566000000E+00 0.  1.
        994    1    1    2    0    0  0.16054064162E+02  0.17020972195E+02  0.89071952835E+01  0.17302087908E+03  0.17120000000E+03 0.  0.
        998    1    1    2    0    0  0.10742304401E+01  0.98304294622E+01  0.14223183313E+04  0.14223878610E+04  0.10000000000E+02 0.  1.
</event>
<event>
 5    1  0.1247473E-008  0.3829676E+03  0.7957747E-01  0.3438338E+00
         13   -1    0    0    0    0  0.00000000000E+00  0.00000000000E+00  0.14999999963E+04  0.15000000000E+04  0.10566000000E+00 0.  1.
        994   -1    0    0    0    0 -0.00000000000E+00 -0.00000000000E+00  0.11368683772E-12  0.17120000000E+03  0.17120000000E+03 0.  0.
         13    1    1    2    0    0  0.14273086409E+02  0.16924024062E+01  0.38045772052E+02  0.40670347387E+02  0.10566000000E+00 0.  1.
        994    1    1    2    0    0 -0.10814073129E+02 -0.18099226701E+01  0.30406437613E+01  0.17157769526E+03  0.17120000000E+03 0.  0.
        998    1    1    2    0    0 -0.34590132806E+01  0.11752026394E+00  0.14589135805E+04  0.14589519573E+04  0.10000000000E+02 0.  1.
</event>
<event>
 5    1  0.1247473E-008  0.3801953E+03  0.7957747E-01  0.3450309E+00
         13   -1    0    0    0    0  0.00000000000E+00  0.00000000000E+00  0.14999999963E+04  0.15000000000E+04  0.10566000000E+00 0. -1.
        994   -1    0    0    0    0 -0.00000000000E+00 -0.00000000000E+00  0.11368683772E-12  0.17120000000E+03  0.17120000000E+03 0.  0.
         13    1    1    2    0    0 -0.15117986416E+02 -0.49183611175E+01  0.31039415448E+02  0.34874062923E+02  0.10566000000E+00 0. -1.
        994    1    1    2    0    0  0.12646863161E+01 -0.13464225502E+02  0.46458132270E+01  0.17179612446E+03  0.17120000000E+03 0.  0.
        998    1    1    2    0    0  0.13853300100E+02  0.18382586620E+02  0.14643147676E+04  0.14645298126E+04  0.10000000000E+02 0. -1.
</event>
<event>
 5    1  0.1247473E-008  0.3735221E+03  0.7957747E-01  0.3479859E+00
         13   -1    0    0    0    0  0.00000000000E+00  0.00000000000E+00  0.14999999963E+04  0.15000000000E+04  0.10566000000E+00 0.  1.
        994   -1    0    0    0    0 -0.00000000000E+00 -0.00000000000E+00  0.11368683772E-12  0.17120000000E+03  0.17120000000E+03 0.  0.
         13    1    1    2    0    0  0.37163307510E+02 -0.12895597974E+02  0.78217069598E+02  0.87551864701E+02  0.10566000000E+00 0.  1.
        994    1    1    2    0    0 -0.61690637481E+02  0.10990113636E+03  0.63810446552E+02  0.22195767077E+03  0.17120000000E+03 0.  0.
        998    1    1    2    0    0  0.24527329972E+02 -0.97005538385E+02  0.13579724801E+04  0.13616904645E+04  0.10000000000E+02 0.  1.
</event>
<event>
 5    1  0.1247473E-008  0.3856746E+03  0.7957747E-01  0.3426816E+00
         13   -1    0    0    0    0  0.00000000000E+00  0.00000000000E+00  0.14999999963E+04  0.15000000000E+04  0.10566000000E+00 0. -1.
        994   -1    0    0    0    0 -0.00000000000E+00 -0.00000000000E+00  0.11368683772E-12  0.17120000000E+03  0.17120000000E+03 0.  0.
         13    1    1    2    0    0 -0.10485614070E+02  0.30570574777E+01  0.44486496318E+02  0.45807785600E+02  0.10566000000E+00 0. -1.
        994    1    1    2    0    0  0.14291233193E+02 -0.21569158989E+01  0.19813667020E+01  0.17182042209E+03  0.17120000000E+03 0.  0.
        998    1    1    2    0    0 -0.38056191228E+01 -0.90014157889E+00  0.14535321333E+04  0.14535717923E+04  0.10000000000E+02 0. -1.
</event>
<event>
 5    1  0.1247473E-008  0.3819835E+03  0.7957747E-01  0.3442567E+00
         13   -1    0    0    0    0  0.00000000000E+00  0.00000000000E+00  0.14999999963E+04  0.15000000000E+04  0.10566000000E+00 0.  1.
        994   -1    0    0    0    0 -0.00000000000E+00 -0.00000000000E+00  0.11368683772E-12  0.17120000000E+03  0.17120000000E+03 0.  0.
         13    1    1    2    0    0 -0.31018401983E+02 -0.43068368069E+01  0.14627151406E+03  0.14958628645E+03  0.10566000000E+00 0.  1.
        994    1    1    2    0    0  0.25938364169E+02  0.11388860671E+02  0.58050466798E+01  0.17362500814E+03  0.17120000000E+03 0.  0.
        998    1    1    2    0    0  0.50800378147E+01 -0.70820238640E+01  0.13479234355E+04  0.13479887054E+04  0.10000000000E+02 0.  1.
</event>
<event>
 5    1  0.1247473E-008  0.3815879E+03  0.7957747E-01  0.3444273E+00
         13   -1    0    0    0    0  0.00000000000E+00  0.00000000000E+00  0.14999999963E+04  0.15000000000E+04  0.10566000000E+00 0.  1.
        994   -1    0    0    0    0 -0.00000000000E+00 -0.00000000000E+00  0.11368683772E-12  0.17120000000E+03  0.17120000000E+03 0.  0.
         13    1    1    2    0    0 -0.21992778170E+02 -0.19776455469E+02  0.11358680005E+03  0.11737445545E+03  0.10566000000E+00 0.  1.
        994    1    1    2    0    0  0.54927710306E+02  0.17811900232E+01  0.13443285025E+02  0.18030637235E+03  0.17120000000E+03 0.  0.
        998    1    1    2    0    0 -0.32934932136E+02  0.17995265446E+02  0.13729699112E+04  0.13735191722E+04  0.10000000000E+02 0.  1.
</event>
<event>
 5    1  0.1247473E-008  0.3857839E+03  0.7957747E-01  0.3426354E+00
         13   -1    0    0    0    0  0.00000000000E+00  0.00000000000E+00  0.14999999963E+04  0.15000000000E+04  0.10566000000E+00 0. -1.
        994   -1    0    0    0    0 -0.00000000000E+00 -0.00000000000E+00  0.11368683772E-12  0.17120000000E+03  0.17120000000E+03 0.  0.
         13    1    1    2    0    0  0.14280571439E+02  0.14328798462E+02  0.11482673763E+03  0.11659519726E+03  0.10566000000E+00 0. -1.
        994    1    1    2    0    0 -0.32625974631E+02 -0.43514661808E+02  0.11005312553E+02  0.17996815529E+03  0.17120000000E+03 0.  0.
        998    1    1    2    0    0  0.18345403191E+02  0.29185863346E+02  0.13741679461E+04  0.13746366474E+04  0.10000000000E+02 0. -1.
</event>
<event>
 5    1  0.1247473E-008  0.3694654E+03  0.7957747E-01  0.3498352E+00
         13   -1    0    0    0    0  0.00000000000E+00  0.00000000000E+00  0.14999999963E+04  0.15000000000E+04  0.10566000000E+00 0.  1.
        994   -1    0    0    0    0 -0.00000000000E+00 -0.00000000000E+00  0.11368683772E-12  0.17120000000E+03  0.17120000000E+03 0.  0.
         13    1    1    2    0    0  0.46977319688E+02  0.50992850933E+02  0.24352285186E+03  0.25320057257E+03  0.10566000000E+00 0.  1.
        994    1    1    2    0    0 -0.12306215560E+01 -0.60753520525E+02  0.22450827749E+02  0.18304639945E+03  0.17120000000E+03 0.  0.
        998    1    1    2    0    0 -0.45746698132E+02  0.97606695919E+01  0.12340263167E+04  0.12349530280E+04  0.10000000000E+02 0.  1.
</event>
<event>
 5    1  0.1247473E-008  0.3840678E+03  0.7957747E-01  0.3433636E+00
         13   -1    0    0    0    0  0.00000000000E+00  0.00000000000E+00  0.14999999963E+04  0.15000000000E+04  0.10566000000E+00 0.  1.
        994   -1    0    0    0    0 -0.00000000000E+00 -0.00000000000E+00  0.11368683772E-12  0.17120000000E+03  0.17120000000E+03 0.  0.
         13    1    1    2    0    0 -0.21082802769E+01  0.12699720886E+02  0.41175729067E+02  0.43141390619E+02  0.10566000000E+00 0.  1.
        994    1    1    2    0    0 -0.74172345664E+01  0.14870431785E+01  0.22824689126E+01  0.17138225209E+03  0.17120000000E+03 0.  0.
        998    1    1    2    0    0  0.95255148433E+01 -0.14186764064E+02  0.14565417983E+04  0.14566763573E+04  0.10000000000E+02 0.  1.
</event>
<event>
 5    1  0.1247473E-008  0.3793614E+03  0.7957747E-01  0.3453944E+00
         13   -1    0    0    0    0  0.00000000000E+00  0.00000000000E+00  0.14999999963E+04  0.15000000000E+04  0.10566000000E+00 0. -1.
        994   -1    0    0    0    0 -0.00000000000E+00 -0.00000000000E+00  0.11368683772E-12  0.17120000000E+03  0.17120000000E+03 0.  0.
         13    1    1    2    0    0 -0.10258975879E+02 -0.11628815112E+02  0.27129444171E+02  0.31248901294E+02  0.10566000000E+00 0. -1.
        994    1    1    2    0    0 -0.43831733433E+02  0.17555403495E+02  0.11960830542E+02  0.17799414180E+03  0.17120000000E+03 0.  0.
        998    1    1    2    0    0  0.54090709311E+02 -0.59265883833E+01  0.14609097216E+04  0.14619569569E+04  0.10000000000E+02 0. -1.
</event>
<event>
 5    1  0.1247473E-008  0.3838790E+03  0.7957747E-01  0.3434440E+00
         13   -1    0    0    0    0  0.00000000000E+00  0.00000000000E+00  0.14999999963E+04  0.15000000000E+04  0.10566000000E+00 0. -1.
        994   -1    0    0    0    0 -0.00000000000E+00 -0.00000000000E+00  0.11368683772E-12  0.17120000000E+03  0.17120000000E+03 0.  0.
         13    1    1    2    0    0 -0.98636361724E+01 -0.12144934235E+02  0.56070386484E+02  0.58212457006E+02  0.10566000000E+00 0. -1.
        994    1    1    2    0    0  0.10537234829E+01  0.96792808667E+01  0.25006596832E+01  0.17149487488E+03  0.17120000000E+03 0.  0.
        998    1    1    2    0    0  0.88099126895E+01  0.24656533686E+01  0.14414289501E+04  0.14414926681E+04  0.10000000000E+02 0. -1.
</event>
<event>
 5    1  0.1247473E-008  0.3844948E+03  0.7957747E-01  0.3431818E+00
         13   -1    0    0    0    0  0.00000000000E+00  0.00000000000E+00  0.14999999963E+04  0.15000000000E+04  0.10566000000E+00 0. -1.
        994   -1    0    0    0    0 -0.00000000000E+00 -0.00000000000E+00  0.11368683772E-12  0.17120000000E+03  0.17120000000E+03 0.  0.
         13    1    1    2    0    0 -0.27225312152E+01 -0.16921462779E+02  0.77738770360E+02  0.79605751424E+02  0.10566000000E+00 0. -1.
        994    1    1    2    0    0  0.78583609145E+01  0.10248771270E+02  0.24307997053E+01  0.17170363984E+03  0.17120000000E+03 0.  0.
        998    1    1    2    0    0 -0.51358296994E+01  0.66726915091E+01  0.14198304262E+04  0.14198906087E+04  0.10000000000E+02 0. -1.
</event>
<event>
 5    1  0.1247473E-008  0.3840550E+03  0.7957747E-01  0.3433690E+00
         13   -1    0    0    0    0  0.00000000000E+00  0.00000000000E+00  0.14999999963E+04  0.15000000000E+04  0.10566000000E+00 0.  1.
        994   -1    0    0    0    0 -0.00000000000E+00 -0.00000000000E+00  0.11368683772E-12  0.17120000000E+03  0.17120000000E+03 0.  0.
         13    1    1    2    0    0 -0.20630693407E+02  0.41737673778E+01  0.11190943819E+03  0.11387176720E+03  0.10566000000E+00 0.  1.
        994    1    1    2    0    0  0.51734013626E+01  0.17489879279E+01  0.21984378938E+01  0.17130118555E+03  0.17120000000E+03 0.  0.
        998    1    1    2    0    0  0.15457292045E+02 -0.59227553057E+01  0.13858921202E+04  0.13860270473E+04  0.10000000000E+02 0.  1.
</event>
<event>
 5    1  0.1247473E-008  0.3853976E+03  0.7957747E-01  0.3427988E+00
         13   -1    0    0    0    0  0.00000000000E+00  0.00000000000E+00  0.14999999963E+04  0.15000000000E+04  0.10566000000E+00 0. -1.
        994   -1    0    0    0    0 -0.00000000000E+00 -0.00000000000E+00  0.11368683772E-12  0.17120000000E+03  0.17120000000E+03 0.  0.
         13    1    1    2    0    0 -0.30432769267E+01 -0.97738341254E+01  0.36316855305E+02  0.37732141620E+02  0.10566000000E+00 0. -1.
        994    1    1    2    0    0 -0.63049924268E+01  0.10838290805E+02  0.19493966377E+01  0.17166962930E+03  0.17120000000E+03 0.  0.
        998    1    1    2    0    0  0.93482693535E+01 -0.10644566792E+01  0.14617337443E+04  0.14617982291E+04  0.10000000000E+02 0. -1.
</event>
<event>
 5    1  0.1247473E-008  0.3729328E+03  0.7957747E-01  0.3482520E+00
         13   -1    0    0    0    0  0.00000000000E+00  0.00000000000E+00  0.14999999963E+04  0.15000000000E+04  0.10566000000E+00 0. -1.
        994   -1    0    0    0    0 -0.00000000000E+00 -0.00000000000E+00  0.11368683772E-12  0.17120000000E+03  0.17120000000E+03 0.  0.
         13    1    1    2    0    0 -0.12251347697E+02  0.45213041904E+02  0.16139501860E+03  0.16805557971E+03  0.10566000000E+00 0. -1.
        994    1    1    2    0    0 -0.24456289827E+01  0.71124139474E+00  0.77663315503E+01  0.17139499080E+03  0.17120000000E+03 0.  0.
        998    1    1    2    0    0  0.14696976680E+02 -0.45924283299E+02  0.13308386461E+04  0.13317494295E+04  0.10000000000E+02 0. -1.
</event>
<event>
 5    1  0.1247473E-008  0.3805909E+03  0.7957747E-01  0.3448590E+00
         13   -1    0    0    0    0  0.00000000000E+00  0.00000000000E+00  0.14999999963E+04  0.15000000000E+04  0.10566000000E+00 0. -1.
        994   -1    0    0    0    0 -0.00000000000E+00 -0.00000000000E+00  0.11368683772E-12  0.17120000000E+03  0.17120000000E+03 0.  0.
         13    1    1    2    0    0  0.33414571060E+02 -0.37643974375E+02  0.30317759181E+03  0.30732761949E+03  0.10566000000E+00 0. -1.
        994    1    1    2    0    0 -0.23248899335E+01  0.50473341603E+02  0.12400269674E+02  0.17893062905E+03  0.17120000000E+03 0.  0.
        998    1    1    2    0    0 -0.31089681126E+02 -0.12829367228E+02  0.11844221348E+04  0.11849417515E+04  0.10000000000E+02 0. -1.
</event>
<event>
 5    1  0.1247473E-008  0.3823292E+03  0.7957747E-01  0.3441079E+00
         13   -1    0    0    0    0  0.00000000000E+00  0.00000000000E+00  0.14999999963E+04  0.15000000000E+04  0.10566000000E+00 0. -1.
        994   -1    0    0    0    0 -0.00000000000E+00 -0.00000000000E+00  0.11368683772E-12  0.17120000000E+03  0.17120000000E+03 0.  0.
         13    1    1    2    0    0  0.90036496648E+01 -0.51392930541E+01  0.17004918157E+02  0.19916235737E+02  0.10566000000E+00 0. -1.
        994    1    1    2    0    0 -0.48235013957E+01  0.45053809696E+01  0.31064859233E+01  0.17135534680E+03  0.17120000000E+03 0.  0.
        998    1    1    2    0    0 -0.41801482692E+01  0.63391208442E+00  0.14798885922E+04  0.14799284175E+04  0.10000000000E+02 0. -1.
</event>
<event>
 5    1  0.1247473E-008  0.3824269E+03  0.7957747E-01  0.3440659E+00
         13   -1    0    0    0    0  0.00000000000E+00  0.00000000000E+00  0.14999999963E+04  0.15000000000E+04  0.10566000000E+00 0.  1.
        994   -1    0    0    0    0 -0.00000000000E+00 -0.00000000000E+00  0.11368683772E-12  0.17120000000E+03  0.17120000000E+03 0.  0.
         13    1    1    2    0    0 -0.86891971982E+01 -0.30611540076E+02  0.16027949771E+03  0.16340776323E+03  0.10566000000E+00 0.  1.
        994    1    1    2    0    0  0.23364777090E+02  0.23654418996E+02  0.65877040112E+01  0.17452301336E+03  0.17120000000E+03 0.  0.
        998    1    1    2    0    0 -0.14675579892E+02  0.69571210796E+01  0.13331327946E+04  0.13332692234E+04  0.10000000000E+02 0.  1.
</event>
<event>
 5    1  0.1247473E-008  0.3795764E+03  0.7957747E-01  0.3453005E+00
         13   -1    0    0    0    0  0.00000000000E+00  0.00000000000E+00  0.14999999963E+04  0.15000000000E+04  0.10566000000E+00 0.  1.
        994   -1    0    0    0    0 -0.00000000000E+00 -0.00000000000E+00  0.11368683772E-12  0.17120000000E+03  0.17120000000E+03 0.  0.
         13    1    1    2    0    0  0.13033275511E+02 -0.45009032253E+02  0.22159122041E+03  0.22649141127E+03  0.10566000000E+00 0.  1.
        994    1    1    2    0    0 -0.15986229557E+02  0.40699996985E+02  0.10774634333E+02  0.17702424138E+03  0.17120000000E+03 0.  0.
        998    1    1    2    0    0  0.29529540465E+01  0.43090352683E+01  0.12676341415E+04  0.12676843473E+04  0.10000000000E+02 0.  1.
</event>
<event>
 5    1  0.1247473E-008  0.3805610E+03  0.7957747E-01  0.3448720E+00
         13   -1    0    0    0    0  0.00000000000E+00  0.00000000000E+00  0.14999999963E+04  0.15000000000E+04  0.10566000000E+00 0.  1.
        994   -1    0    0    0    0 -0.00000000000E+00 -0.00000000000E+00  0.11368683772E-12  0.17120000000E+03  0.17120000000E+03 0.  0.
         13    1    1    2    0    0 -0.14048942500E+02 -0.18920738146E+01  0.24918750394E+02  0.28668938138E+02  0.10566000000E+00 0.  1.
        994    1    1    2    0    0  0.59190532771E+01 -0.87325598015E+01  0.42216911553E+01  0.17157667519E+03  0.17120000000E+03 0.  0.
        998    1    1    2    0    0  0.81298892231E+01  0.10624633616E+02  0.14708595547E+04  0.14709543867E+04  0.10000000000E+02 0.  1.
</event>
<event>
 5    1  0.1247473E-008  0.3831981E+03  0.7957747E-01  0.3437350E+00
         13   -1    0    0    0    0  0.00000000000E+00  0.00000000000E+00  0.14999999963E+04  0.15000000000E+04  0.10566000000E+00 0.  1.
        994   -1    0    0    0    0 -0.00000000000E+00 -0.00000000000E+00  0.11368683772E-12  0.17120000000E+03  0.17120000000E+03 0.  0.
         13    1    1    2    0    0 -0.13002929516E+02 -0.35966678178E+02  0.22621983154E+03  0.22942994892E+03  0.10566000000E+00 0.  1.
        994    1    1    2    0    0 -0.36555531888E+01  0.53160333043E+02  0.11977348994E+02  0.17970053135E+03  0.17120000000E+03 0.  0.
        998    1    1    2    0    0  0.16658482705E+02 -0.17193654864E+02  0.12618028157E+04  0.12620695197E+04  0.10000000000E+02 0.  1.
</event>
<event>
 5    1  0.1247473E-008  0.3794586E+03  0.7957747E-01  0.3453519E+00
         13   -1    0    0    0    0  0.00000000000E+00  0.00000000000E+00  0.14999999963E+04  0.15000000000E+04  0.10566000000E+00 0.  1.
        994   -1    0    0    0    0 -0.00000000000E+00 -0.00000000000E+00  0.11368683772E-12  0.17120000000E+03  0.17120000000E+03 0.  0.
         13    1    1    2    0    0 -0.28142617245E+02 -0.15387754896E+02  0.11195098152E+03  0.11645524176E+03  0.10566000000E+00 0.  1.
        994    1    1    2    0    0  0.26250865157E+02  0.36751253843E+01  0.67632492348E+01  0.17337184318E+03  0.17120000000E+03 0.  0.
        998    1    1    2    0    0  0.18917520874E+01  0.11712629512E+02  0.13812857655E+04  0.13813729151E+04  0.10000000000E+02 0.  1.
</event>
<event>
 5    1  0.1247473E-008  0.3753469E+03  0.7957747E-01  0.3471673E+00
         13   -1    0    0    0    0  0.00000000000E+00  0.00000000000E+00  0.14999999963E+04  0.15000000000E+04  0.10566000000E+00 0.  1.
        994   -1    0    0    0    0 -0.00000000000E+00 -0.00000000000E+00  0.11368683772E-12  0.17120000000E+03  0.17120000000E+03 0.  0.
         13    1    1    2    0    0  0.94222232649E+02  0.72557299967E+02  0.38375187334E+03  0.40175602343E+03  0.10566000000E+00 0.  1.
        994    1    1    2    0    0 -0.84729375184E+02 -0.75486297596E+02  0.61222575434E+02  0.21432426808E+03  0.17120000000E+03 0.  0.
        998    1    1    2    0    0 -0.94928574653E+01  0.29289976285E+01  0.10550255475E+04  0.10551197085E+04  0.10000000000E+02 0.  1.
</event>
<event>
 5    1  0.1247473E-008  0.3845980E+03  0.7957747E-01  0.3431379E+00
         13   -1    0    0    0    0  0.00000000000E+00  0.00000000000E+00  0.14999999963E+04  0.15000000000E+04  0.10566000000E+00 0. -1.
        994   -1    0    0    0    0 -0.00000000000E+00 -0.00000000000E+00  0.11368683772E-12  0.17120000000E+03  0.17120000000E+03 0.  0.
         13    1    1    2    0    0  0.45498535488E+01  0.14834381245E+02  0.69342783671E+02  0.71057672672E+02  0.10566000000E+00 0. -1.
        994    1    1    2    0    0 -0.36183682594E+01 -0.25794983208E+00  0.18732068389E+01  0.17124867308E+03  0.17120000000E+03 0.  0.
        998    1    1    2    0    0 -0.93148528942E+00 -0.14576431413E+02  0.14287840058E+04  0.14288936543E+04  0.10000000000E+02 0. -1.
</event>
<event>
 5    1  0.1247473E-008  0.3818940E+03  0.7957747E-01  0.3442953E+00
         13   -1    0    0    0    0  0.00000000000E+00  0.00000000000E+00  0.14999999963E+04  0.15000000000E+04  0.10566000000E+00 0.  1.
        994   -1    0    0    0    0 -0.00000000000E+00 -0.00000000000E+00  0.11368683772E-12  0.17120000000E+03  0.17120000000E+03 0.  0.
         13    1    1    2    0    0 -0.22979950170E+02 -0.56734214558E+01  0.10087821479E+03  0.10361800617E+03  0.10566000000E+00 0.  1.
        994    1    1    2    0    0 -0.11898872432E+02  0.61189543460E+01  0.37750840182E+01  0.17176354685E+03  0.17120000000E+03 0.  0.
        998    1    1    2    0    0  0.34878822603E+02 -0.44553289013E+00  0.13953466975E+04  0.13958184470E+04  0.10000000000E+02 0.  1.
</event>
<event>
 5    1  0.1247473E-008  0.3854202E+03  0.7957747E-01  0.3427892E+00
         13   -1    0    0    0    0  0.00000000000E+00  0.00000000000E+00  0.14999999963E+04  0.15000000000E+04  0.10566000000E+00 0. -1.
        994   -1    0    0    0    0 -0.00000000000E+00 -0.00000000000E+00  0.11368683772E-12  0.17120000000E+03  0.17120000000E+03 0.  0.
         13    1    1    2    0    0 -0.13821273466E+02 -0.78305105518E+01  0.83102829409E+02  0.84607540535E+02  0.10566000000E+00 0. -1.
        994    1    1    2    0    0  0.13613409295E+02  0.15864798567E+02  0.28581986248E+01  0.17249529282E+03  0.17120000000E+03 0.  0.
        998    1    1    2    0    0  0.20786417101E+00 -0.80342880155E+01  0.14140389682E+04  0.14140971666E+04  0.10000000000E+02 0. -1.
</event>
<event>
 5    1  0.1247473E-008  0.3810966E+03  0.7957747E-01  0.3446398E+00
         13   -1    0    0    0    0  0.00000000000E+00  0.00000000000E+00  0.14999999963E+04  0.15000000000E+04  0.10566000000E+00 0.  1.
        994   -1    0    0    0    0 -0.00000000000E+00 -0.00000000000E+00  0.11368683772E-12  0.17120000000E+03  0.17120000000E+03 0.  0.
         13    1    1    2    0    0  0.59916379563E+01  0.35843983374E+02  0.21745272106E+03  0.22046856449E+03  0.10566000000E+00 0.  1.
        994    1    1    2    0    0 -0.13217408446E+02  0.89322593932E+00  0.41654032244E+01  0.17176230181E+03  0.17120000000E+03 0.  0.
        998    1    1    2    0    0  0.72257704893E+01 -0.36737209314E+02  0.12783818720E+04  0.12789691337E+04  0.10000000000E+02 0.  1.
</event>
<event>
 5    1  0.1247473E-008  0.3806384E+03  0.7957747E-01  0.3448383E+00
         13   -1    0    0    0    0  0.00000000000E+00  0.00000000000E+00  0.14999999963E+04  0.15000000000E+04  0.10566000000E+00 0.  1.
        994   -1    0    0    0    0 -0.00000000000E+00 -0.00000000000E+00  0.11368683772E-12  0.17120000000E+03  0.17120000000E+03 0.  0.
         13    1    1    2    0    0  0.44963290039E+01 -0.12416868307E+02  0.21106234714E+02  0.24897387431E+02  0.10566000000E+00 0.  1.
        994    1    1    2    0    0 -0.70775969963E+01  0.11082238566E+02  0.43882342218E+01  0.17176031262E+03  0.17120000000E+03 0.  0.
        998    1    1    2    0    0  0.25812679924E+01  0.13346297410E+01  0.14745055273E+04  0.14745423000E+04  0.10000000000E+02 0.  1.
</event>
<event>
 5    1  0.1247473E-008  0.3807493E+03  0.7957747E-01  0.3447902E+00
         13   -1    0    0    0    0  0.00000000000E+00  0.00000000000E+00  0.14999999963E+04  0.15000000000E+04  0.10566000000E+00 0. -1.
        994   -1    0    0    0    0 -0.00000000000E+00 -0.00000000000E+00  0.11368683772E-12  0.17120000000E+03  0.17120000000E+03 0.  0.
         13    1    1    2    0    0 -0.14600524468E+02  0.32200496416E+02  0.19180470747E+03  0.19503616141E+03  0.10566000000E+00 0. -1.
        994    1    1    2    0    0  0.29365506104E+01 -0.87276337112E-01  0.37841532848E+01  0.17126701598E+03  0.17120000000E+03 0.  0.
        998    1    1    2    0    0  0.11663973857E+02 -0.32113220079E+02  0.13044111355E+04  0.13048968226E+04  0.10000000000E+02 0. -1.
</event>
<event>
 5    1  0.1247473E-008  0.3751149E+03  0.7957747E-01  0.3472709E+00
         13   -1    0    0    0    0  0.00000000000E+00  0.00000000000E+00  0.14999999963E+04  0.15000000000E+04  0.10566000000E+00 0.  1.
        994   -1    0    0    0    0 -0.00000000000E+00 -0.00000000000E+00  0.11368683772E-12  0.17120000000E+03  0.17120000000E+03 0.  0.
         13    1    1    2    0    0 -0.92474004847E+02 -0.15796212989E+02  0.47353123492E+03  0.48273471341E+03  0.10566000000E+00 0.  1.
        994    1    1    2    0    0  0.86477406838E+02  0.19663619663E+02  0.33831996072E+02  0.19575250647E+03  0.17120000000E+03 0.  0.
        998    1    1    2    0    0  0.59965980084E+01 -0.38674066742E+01  0.99263676528E+03  0.99271278012E+03  0.10000000000E+02 0.  0.
</event>
<event>
 5    1  0.1247473E-008  0.3804595E+03  0.7957747E-01  0.3449160E+00
         13   -1    0    0    0    0  0.00000000000E+00  0.00000000000E+00  0.14999999963E+04  0.15000000000E+04  0.10566000000E+00 0.  1.
        994   -1    0    0    0    0 -0.00000000000E+00 -0.00000000000E+00  0.11368683772E-12  0.17120000000E+03  0.17120000000E+03 0.  0.
         13    1    1    2    0    0  0.91446875419E+01  0.40151053365E+02  0.19482515374E+03  0.19912956609E+03  0.10566000000E+00 0.  1.
        994    1    1    2    0    0 -0.13024178282E+01 -0.38564240125E+02  0.88871002745E+01  0.17571942824E+03  0.17120000000E+03 0.  0.
        998    1    1    2    0    0 -0.78422697138E+01 -0.15868132404E+01  0.12962877423E+04  0.12963510057E+04  0.10000000000E+02 0.  1.
</event>
<event>
 5    1  0.1247473E-008  0.3834251E+03  0.7957747E-01  0.3436379E+00
         13   -1    0    0    0    0  0.00000000000E+00  0.00000000000E+00  0.14999999963E+04  0.15000000000E+04  0.10566000000E+00 0.  1.
        994   -1    0    0    0    0 -0.00000000000E+00 -0.00000000000E+00  0.11368683772E-12  0.17120000000E+03  0.17120000000E+03 0.  0.
         13    1    1    2    0    0 -0.24189913336E+00 -0.16255115062E+02  0.58329915618E+02  0.60553096542E+02  0.10566000000E+00 0.  1.
        994    1    1    2    0    0 -0.82194550666E+00 -0.41632663208E+01  0.24735920802E+01  0.17127044999E+03  0.17120000000E+03 0.  0.
        998    1    1    2    0    0  0.10638446400E+01  0.20418381382E+02  0.14391964886E+04  0.14393764535E+04  0.10000000000E+02 0.  1.
</event>
<event>
 5    1  0.1247473E-008  0.3780759E+03  0.7957747E-01  0.3459579E+00
         13   -1    0    0    0    0  0.00000000000E+00  0.00000000000E+00  0.14999999963E+04  0.15000000000E+04  0.10566000000E+00 0. -1.
        994   -1    0    0    0    0 -0.00000000000E+00 -0.00000000000E+00  0.11368683772E-12  0.17120000000E+03  0.17120000000E+03 0.  0.
         13    1    1    2    0    0 -0.27493318579E+01  0.27140345309E+02  0.77728532969E+02  0.82376532888E+02  0.10566000000E+00 0. -1.
        994    1    1    2    0    0  0.14338285324E+02  0.58113867232E+01  0.59132637223E+01  0.17199931782E+03  0.17120000000E+03 0.  0.
        998    1    1    2    0    0 -0.11588953466E+02 -0.32951732032E+02  0.14163581996E+04  0.14168241493E+04  0.10000000000E+02 0. -1.
</event>
<event>
 5    1  0.1247473E-008  0.3832457E+03  0.7957747E-01  0.3437147E+00
         13   -1    0    0    0    0  0.00000000000E+00  0.00000000000E+00  0.14999999963E+04  0.15000000000E+04  0.10566000000E+00 0. -1.
        994   -1    0    0    0    0 -0.00000000000E+00 -0.00000000000E+00  0.11368683772E-12  0.17120000000E+03  0.17120000000E+03 0.  0.
         13    1    1    2    0    0  0.30330148029E+02 -0.16533970929E+02  0.20795693342E+03  0.21080651650E+03  0.10566000000E+00 0. -1.
        994    1    1    2    0    0 -0.34035936617E+02  0.97953277282E+01  0.66635810183E+01  0.17495209841E+03  0.17120000000E+03 0.  0.
        998    1    1    2    0    0  0.37057885883E+01  0.67386432006E+01  0.12853794818E+04  0.12854413851E+04  0.10000000000E+02 0. -1.
</event>
<event>
 5    1  0.1247473E-008  0.3857939E+03  0.7957747E-01  0.3426312E+00
         13   -1    0    0    0    0  0.00000000000E+00  0.00000000000E+00  0.14999999963E+04  0.15000000000E+04  0.10566000000E+00 0.  1.
        994   -1    0    0    0    0 -0.00000000000E+00 -0.00000000000E+00  0.11368683772E-12  0.17120000000E+03  0.17120000000E+03 0.  0.
         13    1    1    2    0    0 -0.83949609008E+01  0.88627813514E+01  0.63101272009E+02  0.64271346299E+02  0.10566000000E+00 0.  1.
        994    1    1    2    0    0  0.58398101124E+01  0.14489175985E+01  0.13552684372E+01  0.17131106064E+03  0.17120000000E+03 0.  0.
        998    1    1    2    0    0  0.25551507884E+01 -0.10311698950E+02  0.14355434558E+04  0.14356175931E+04  0.10000000000E+02 0.  1.
</event>
<event>
 5    1  0.1247473E-008  0.3816114E+03  0.7957747E-01  0.3444172E+00
         13   -1    0    0    0    0  0.00000000000E+00  0.00000000000E+00  0.14999999963E+04  0.15000000000E+04  0.10566000000E+00 0. -1.
        994   -1    0    0    0    0 -0.00000000000E+00 -0.00000000000E+00  0.11368683772E-12  0.17120000000E+03  0.17120000000E+03 0.  0.
         13    1    1    2    0    0  0.75889731830E+01 -0.67544510864E+01  0.14299777019E+02  0.17541662130E+02  0.10566000000E+00 0. -1.
        994    1    1    2    0    0  0.14539911435E+02  0.20432673239E+02  0.54159780599E+01  0.17311174420E+03  0.17120000000E+03 0.  0.
        998    1    1    2    0    0 -0.22128884618E+02 -0.13678222152E+02  0.14802842412E+04  0.14805465937E+04  0.10000000000E+02 0. -1.
</event>
<event>
 5    1  0.1247473E-008  0.3838422E+03  0.7957747E-01  0.3434598E+00
         13   -1    0    0    0    0  0.00000000000E+00  0.00000000000E+00  0.14999999963E+04  0.15000000000E+04  0.10566000000E+00 0. -1.
        994   -1    0    0    0    0 -0.00000000000E+00 -0.00000000000E+00  0.11368683772E-12  0.17120000000E+03  0.17120000000E+03 0.  0.
         13    1    1    2    0    0  0.10701262435E+02  0.12663398404E+02  0.60838508214E+02  0.63057227362E+02  0.10566000000E+00 0. -1.
        994    1    1    2    0    0 -0.15636171626E+02 -0.49328114114E+01  0.30939662209E+01  0.17201114824E+03  0.17120000000E+03 0.  0.
        998    1    1    2    0    0  0.49349091906E+01 -0.77305869930E+01  0.14360675218E+04  0.14361316244E+04  0.10000000000E+02 0. -1.
</event>
<event>
 5    1  0.1247473E-008  0.3847878E+03  0.7957747E-01  0.3430573E+00
         13   -1    0    0    0    0  0.00000000000E+00  0.00000000000E+00  0.14999999963E+04  0.15000000000E+04  0.10566000000E+00 0. -1.
        994   -1    0    0    0    0 -0.00000000000E+00 -0.00000000000E+00  0.11368683772E-12  0.17120000000E+03  0.17120000000E+03 0.  0.
         13    1    1    2    0    0 -0.82655721831E+01  0.95709883047E+01  0.45536204905E+02  0.47259714576E+02  0.10566000000E+00 0. -1.
        994    1    1    2    0    0  0.92868611891E+01 -0.51886814240E+01  0.21080521607E+01  0.17154314935E+03  0.17120000000E+03 0.  0.
        998    1    1    2    0    0 -0.10212890060E+01 -0.43823068808E+01  0.14523557392E+04  0.14523971361E+04  0.10000000000E+02 0. -1.
</event>
<event>
 5    1  0.1247473E-008  0.3827975E+03  0.7957747E-01  0.3439067E+00
         13   -1    0    0    0    0  0.00000000000E+00  0.00000000000E+00  0.14999999963E+04  0.15000000000E+04  0.10566000000E+00 0. -1.
        994   -1    0    0    0    0 -0.00000000000E+00 -0.00000000000E+00  0.11368683772E-12  0.17120000000E+03  0.17120000000E+03 0.  0.
         13    1    1    2    0    0 -0.18261588063E+02  0.19973748462E+01  0.56563505721E+02  0.59471980364E+02  0.10566000000E+00 0. -1.
        994    1    1    2    0    0  0.30352792631E+02  0.15702671156E+02  0.66055849082E+01  0.17470243173E+03  0.17120000000E+03 0.  0.
        998    1    1    2    0    0 -0.12091204568E+02 -0.17700046003E+02  0.14368309056E+04  0.14370255879E+04  0.10000000000E+02 0. -1.
</event>
<event>
 5    1  0.1247473E-008  0.3737415E+03  0.7957747E-01  0.3478871E+00
         13   -1    0    0    0    0  0.00000000000E+00  0.00000000000E+00  0.14999999963E+04  0.15000000000E+04  0.10566000000E+00 0.  1.
        994   -1    0    0    0    0 -0.00000000000E+00 -0.00000000000E+00  0.11368683772E-12  0.17120000000E+03  0.17120000000E+03 0.  0.
         13    1    1    2    0    0 -0.49902965095E+02  0.81698822155E+01  0.19279348059E+03  0.19931480181E+03  0.10566000000E+00 0.  1.
        994    1    1    2    0    0  0.70345057183E+01 -0.18788817314E+02  0.87016539844E+01  0.17259102731E+03  0.17120000000E+03 0.  0.
        998    1    1    2    0    0  0.42868459377E+02  0.10618935099E+02  0.12985048617E+04  0.12992941709E+04  0.10000000000E+02 0.  1.
</event>
<event>
 5    1  0.1247473E-008  0.3688883E+03  0.7957747E-01  0.3501016E+00
         13   -1    0    0    0    0  0.00000000000E+00  0.00000000000E+00  0.14999999963E+04  0.15000000000E+04  0.10566000000E+00 0.  1.
        994   -1    0    0    0    0 -0.00000000000E+00 -0.00000000000E+00  0.11368683772E-12  0.17120000000E+03  0.17120000000E+03 0.  0.
         13    1    1    2    0    0  0.45907869697E+02  0.24661026469E+02  0.12046359079E+03  0.13125237749E+03  0.10566000000E+00 0.  1.
        994    1    1    2    0    0 -0.55873134659E+02 -0.22206318839E+02  0.22505532861E+02  0.18284109708E+03  0.17120000000E+03 0.  0.
        998    1    1    2    0    0  0.99652649625E+01 -0.24547076300E+01  0.13570308726E+04  0.13571065254E+04  0.10000000000E+02 0.  1.
</event>
<event>
 5    1  0.1247473E-008  0.3810951E+03  0.7957747E-01  0.3446404E+00
         13   -1    0    0    0    0  0.00000000000E+00  0.00000000000E+00  0.14999999963E+04  0.15000000000E+04  0.10566000000E+00 0. -1.
        994   -1    0    0    0    0 -0.00000000000E+00 -0.00000000000E+00  0.11368683772E-12  0.17120000000E+03  0.17120000000E+03 0.  0.
         13    1    1    2    0    0  0.15648675683E+02  0.46417921276E+02  0.29629245312E+03  0.30031439094E+03  0.10566000000E+00 0. -1.
        994    1    1    2    0    0 -0.23283156772E+02 -0.34809133283E+02  0.94451329698E+01  0.17650051469E+03  0.17120000000E+03 0.  0.
        998    1    1    2    0    0  0.76344810890E+01 -0.11608787993E+02  0.11942624102E+04  0.11943850944E+04  0.10000000000E+02 0. -1.
</event>
<event>
 5    1  0.1247473E-008  0.3767612E+03  0.7957747E-01  0.3465383E+00
         13   -1    0    0    0    0  0.00000000000E+00  0.00000000000E+00  0.14999999963E+04  0.15000000000E+04  0.10566000000E+00 0.  1.
        994   -1    0    0    0    0 -0.00000000000E+00 -0.00000000000E+00  0.11368683772E-12  0.17120000000E+03  0.17120000000E+03 0.  0.
         13    1    1    2    0    0 -0.52601779032E+01 -0.19327698665E+02  0.31689834070E+02  0.37489814013E+02  0.10566000000E+00 0.  1.
        994    1    1    2    0    0  0.34348320358E+01  0.20981101019E+02  0.73059644847E+01  0.17266968984E+03  0.17120000000E+03 0.  0.
        998    1    1    2    0    0  0.18253458674E+01 -0.16534023537E+01  0.14610041977E+04  0.14610404962E+04  0.10000000000E+02 0.  1.
</event>
<event>
 5    1  0.1247473E-008  0.3833143E+03  0.7957747E-01  0.3436853E+00
         13   -1    0    0    0    0  0.00000000000E+00  0.00000000000E+00  0.14999999963E+04  0.15000000000E+04  0.10566000000E+00 0.  1.
        994   -1    0    0    0    0 -0.00000000000E+00 -0.00000000000E+00  0.11368683772E-12  0.17120000000E+03  0.17120000000E+03 0.  0.
         13    1    1    2    0    0  0.18386556926E+02 -0.13312275429E+02  0.95019076585E+02  0.97692979439E+02  0.10566000000E+00 0.  1.
        994    1    1    2    0    0 -0.25801655324E+02  0.12390147275E+02  0.51830825142E+01  0.17365352145E+03  0.17120000000E+03 0.  0.
        998    1    1    2    0    0  0.74150983975E+01  0.92212815403E+00  0.13997978372E+04  0.13998534991E+04  0.10000000000E+02 0.  1.
</event>
<event>
 5    1  0.1247473E-008  0.3708560E+03  0.7957747E-01  0.3491966E+00
         13   -1    0    0    0    0  0.00000000000E+00  0.00000000000E+00  0.14999999963E+04  0.15000000000E+04  0.10566000000E+00 0.  1.
        994   -1    0    0    0    0 -0.00000000000E+00 -0.00000000000E+00  0.11368683772E-12  0.17120000000E+03  0.17120000000E+03 0.  0.
         13    1    1    2    0    0 -0.44753916529E+02 -0.67354185201E+01  0.10587387022E+03  0.11514150628E+03  0.10566000000E+00 0.  1.
        994    1    1    2    0    0  0.46992745883E+02 -0.11452577453E+02  0.16931146743E+02  0.17870529770E+03  0.17120000000E+03 0.  0.
        998    1    1    2    0    0 -0.22388293536E+01  0.18187995973E+02  0.13771949793E+04  0.13773531960E+04  0.10000000000E+02 0.  1.
</event>
<event>
 5    1  0.1247473E-008  0.3840701E+03  0.7957747E-01  0.3433626E+00
         13   -1    0    0    0    0  0.00000000000E+00  0.00000000000E+00  0.14999999963E+04  0.15000000000E+04  0.10566000000E+00 0.  1.
        994   -1    0    0    0    0 -0.00000000000E+00 -0.00000000000E+00  0.11368683772E-12  0.17120000000E+03  0.17120000000E+03 0.  0.
         13    1    1    2    0    0  0.12726637996E+02 -0.77407088792E+01  0.55950951775E+02  0.57899965951E+02  0.10566000000E+00 0.  1.
        994    1    1    2    0    0  0.46641717180E+01  0.41718394116E+01  0.22217122652E+01  0.17132873299E+03  0.17120000000E+03 0.  0.
        998    1    1    2    0    0 -0.17390809714E+02  0.35688694676E+01  0.14418273322E+04  0.14419713011E+04  0.10000000000E+02 0.  1.
</event>
<event>
 5    1  0.1247473E-008  0.3945561E+03  0.7957747E-01  0.3390128E+00
         13   -1    0    0    0    0  0.00000000000E+00  0.00000000000E+00  0.14999999963E+04  0.15000000000E+04  0.10566000000E+00 0. -1.
        994   -1    0    0    0    0 -0.00000000000E+00 -0.00000000000E+00  0.11368683772E-12  0.17120000000E+03  0.17120000000E+03 0.  0.
         13    1    1    2    0    0  0.37443806919E+02 -0.15103921850E+03  0.32747303217E+03  0.36256514195E+03  0.10566000000E+00 0. -1.
        994    1    1    2    0    0 -0.42012885175E+02  0.16455458819E+03  0.14587956840E+03  0.28183964145E+03  0.17120000000E+03 0.  0.
        998    1    1    2    0    0  0.45690782565E+01 -0.13515369696E+02  0.10266473957E+04  0.10267952166E+04  0.10000000000E+02 0. -1.
</event>
<event>
 5    1  0.1247473E-008  0.3820011E+03  0.7957747E-01  0.3442491E+00
         13   -1    0    0    0    0  0.00000000000E+00  0.00000000000E+00  0.14999999963E+04  0.15000000000E+04  0.10566000000E+00 0.  1.
        994   -1    0    0    0    0 -0.00000000000E+00 -0.00000000000E+00  0.11368683772E-12  0.17120000000E+03  0.17120000000E+03 0.  0.
         13    1    1    2    0    0  0.72090195316E+01  0.11112213858E+02  0.26473405959E+02  0.29602426362E+02  0.10566000000E+00 0.  1.
        994    1    1    2    0    0 -0.14211394839E+02 -0.72915240523E+01  0.39741183416E+01  0.17198942899E+03  0.17120000000E+03 0.  0.
        998    1    1    2    0    0  0.70023753077E+01 -0.38206898052E+01  0.14695524720E+04  0.14696081447E+04  0.10000000000E+02 0.  1.
</event>
<event>
 5    1  0.1247473E-008  0.4117920E+03  0.7957747E-01  0.3323428E+00
         13   -1    0    0    0    0  0.00000000000E+00  0.00000000000E+00  0.14999999963E+04  0.15000000000E+04  0.10566000000E+00 0. -1.
        994   -1    0    0    0    0 -0.00000000000E+00 -0.00000000000E+00  0.11368683772E-12  0.17120000000E+03  0.17120000000E+03 0.  0.
         13    1    1    2    0    0  0.13723732475E+03  0.51520809663E+02  0.24174877551E+03  0.28272063730E+03  0.10566000000E+00 0. -1.
        994    1    1    2    0    0 -0.13789099201E+03 -0.44870557339E+02  0.12827661699E+03  0.25844075348E+03  0.17120000000E+03 0.  0.
        998    1    1    2    0    0  0.65366725674E+00 -0.66502523234E+01  0.11299746038E+04  0.11300386092E+04  0.10000000000E+02 0.  0.
</event>
<event>
 5    1  0.1247473E-008  0.3848047E+03  0.7957747E-01  0.3430501E+00
         13   -1    0    0    0    0  0.00000000000E+00  0.00000000000E+00  0.14999999963E+04  0.15000000000E+04  0.10566000000E+00 0.  1.
        994   -1    0    0    0    0 -0.00000000000E+00 -0.00000000000E+00  0.11368683772E-12  0.17120000000E+03  0.17120000000E+03 0.  0.
         13    1    1    2    0    0  0.20705223221E+02  0.22964599259E+03  0.11977112917E+04  0.12197042009E+04  0.10566000000E+00 0.  1.
        994    1    1    2    0    0 -0.20975711371E+02 -0.23071523319E+03  0.20468850077E+03  0.35337843970E+03  0.17120000000E+03 0.  0.
        998    1    1    2    0    0  0.27048814990E+00  0.10692406049E+01  0.97600203768E+02  0.98117359396E+02  0.10000000000E+02 0.  1.
</event>
<event>
 5    1  0.1247473E-008  0.3833036E+03  0.7957747E-01  0.3436899E+00
         13   -1    0    0    0    0  0.00000000000E+00  0.00000000000E+00  0.14999999963E+04  0.15000000000E+04  0.10566000000E+00 0. -1.
        994   -1    0    0    0    0 -0.00000000000E+00 -0.00000000000E+00  0.11368683772E-12  0.17120000000E+03  0.17120000000E+03 0.  0.
         13    1    1    2    0    0 -0.49669018895E+01 -0.22842700503E+02  0.13363528665E+03  0.13566451298E+03  0.10566000000E+00 0. -1.
        994    1    1    2    0    0  0.29056946146E+02 -0.15819503603E+02  0.61026994595E+01  0.17447419796E+03  0.17120000000E+03 0.  0.
        998    1    1    2    0    0 -0.24090044256E+02  0.38662204106E+02  0.13602620102E+04  0.13610612891E+04  0.10000000000E+02 0. -1.
</event>
<event>
 5    1  0.1247473E-008  0.3713770E+03  0.7957747E-01  0.3489586E+00
         13   -1    0    0    0    0  0.00000000000E+00  0.00000000000E+00  0.14999999963E+04  0.15000000000E+04  0.10566000000E+00 0. -1.
        994   -1    0    0    0    0 -0.00000000000E+00 -0.00000000000E+00  0.11368683772E-12  0.17120000000E+03  0.17120000000E+03 0.  0.
         13    1    1    2    0    0 -0.70160080525E+02 -0.96859979721E+02  0.44082761086E+03  0.45676392834E+03  0.10566000000E+00 0. -1.
        994    1    1    2    0    0  0.66053854208E+02  0.91575062980E+02  0.57909716059E+02  0.21310110049E+03  0.17120000000E+03 0.  0.
        998    1    1    2    0    0  0.41062263166E+01  0.52849167415E+01  0.10012626694E+04  0.10013349712E+04  0.10000000000E+02 0. -1.
</event>
<event>
 5    1  0.1247473E-008  0.3739247E+03  0.7957747E-01  0.3478046E+00
         13   -1    0    0    0    0  0.00000000000E+00  0.00000000000E+00  0.14999999963E+04  0.15000000000E+04  0.10566000000E+00 0.  1.
        994   -1    0    0    0    0 -0.00000000000E+00 -0.00000000000E+00  0.11368683772E-12  0.17120000000E+03  0.17120000000E+03 0.  0.
         13    1    1    2    0    0 -0.15806765481E+03  0.26585702768E+02  0.75305232318E+03  0.76992207119E+03  0.10566000000E+00 0.  1.
        994    1    1    2    0    0  0.16112353184E+03 -0.22784244779E+02  0.10374239745E+03  0.25797643177E+03  0.17120000000E+03 0.  0.
        998    1    1    2    0    0 -0.30558770324E+01 -0.38014579893E+01  0.64320527565E+03  0.64330149704E+03  0.10000000000E+02 0.  0.
</event>
<event>
 5    1  0.1247473E-008  0.3817546E+03  0.7957747E-01  0.3443554E+00
         13   -1    0    0    0    0  0.00000000000E+00  0.00000000000E+00  0.14999999963E+04  0.15000000000E+04  0.10566000000E+00 0. -1.
        994   -1    0    0    0    0 -0.00000000000E+00 -0.00000000000E+00  0.11368683772E-12  0.17120000000E+03  0.17120000000E+03 0.  0.
         13    1    1    2    0    0 -0.51639729303E+01 -0.22339493708E+02  0.76454617592E+02  0.79818790461E+02  0.10566000000E+00 0. -1.
        994    1    1    2    0    0 -0.12483757360E+02  0.26730143070E+02  0.61481602078E+01  0.17383205867E+03  0.17120000000E+03 0.  0.
        998    1    1    2    0    0  0.17647730290E+02 -0.43906493619E+01  0.14173972185E+04  0.14175491509E+04  0.10000000000E+02 0. -1.
</event>
<event>
 5    1  0.1247473E-008  0.3756860E+03  0.7957747E-01  0.3470161E+00
         13   -1    0    0    0    0  0.00000000000E+00  0.00000000000E+00  0.14999999963E+04  0.15000000000E+04  0.10566000000E+00 0. -1.
        994   -1    0    0    0    0 -0.00000000000E+00 -0.00000000000E+00  0.11368683772E-12  0.17120000000E+03  0.17120000000E+03 0.  0.
         13    1    1    2    0    0  0.37465481228E+02 -0.25850546434E+02  0.14610724102E+03  0.15303349332E+03  0.10566000000E+00 0. -1.
        994    1    1    2    0    0 -0.43735606624E+02  0.18551976363E+02  0.14019812771E+02  0.17822169976E+03  0.17120000000E+03 0.  0.
        998    1    1    2    0    0  0.62701253966E+01  0.72985700706E+01  0.13398729425E+04  0.13399448069E+04  0.10000000000E+02 0. -1.
</event>
<event>
 5    1  0.1247473E-008  0.3818510E+03  0.7957747E-01  0.3443138E+00
         13   -1    0    0    0    0  0.00000000000E+00  0.00000000000E+00  0.14999999963E+04  0.15000000000E+04  0.10566000000E+00 0. -1.
        994   -1    0    0    0    0 -0.00000000000E+00 -0.00000000000E+00  0.11368683772E-12  0.17120000000E+03  0.17120000000E+03 0.  0.
         13    1    1    2    0    0 -0.43463666960E+02 -0.16707785322E+02  0.26055224609E+03  0.26468041965E+03  0.10566000000E+00 0. -1.
        994    1    1    2    0    0  0.50749719736E+02  0.20354789610E+02  0.13200162344E+02  0.18020415034E+03  0.17120000000E+03 0.  0.
        998    1    1    2    0    0 -0.72860527762E+01 -0.36470042871E+01  0.12262475878E+04  0.12263154300E+04  0.10000000000E+02 0. -1.
</event>
<event>
 5    1  0.1247473E-008  0.3810664E+03  0.7957747E-01  0.3446528E+00
         13   -1    0    0    0    0  0.00000000000E+00  0.00000000000E+00  0.14999999963E+04  0.15000000000E+04  0.10566000000E+00 0. -1.
        994   -1    0    0    0    0 -0.00000000000E+00 -0.00000000000E+00  0.11368683772E-12  0.17120000000E+03  0.17120000000E+03 0.  0.
         13    1    1    2    0    0 -0.15873659258E+02  0.13566254697E+02  0.56827695590E+02  0.60542666565E+02  0.10566000000E+00 0. -1.
        994    1    1    2    0    0  0.17400308866E+02 -0.16395897362E+02  0.55022071449E+01  0.17294886667E+03  0.17120000000E+03 0.  0.
        998    1    1    2    0    0 -0.15266496076E+01  0.28296426653E+01  0.14376700935E+04  0.14377084668E+04  0.10000000000E+02 0. -1.
</event>
<event>
 5    1  0.1247473E-008  0.3783880E+03  0.7957747E-01  0.3458208E+00
         13   -1    0    0    0    0  0.00000000000E+00  0.00000000000E+00  0.14999999963E+04  0.15000000000E+04  0.10566000000E+00 0. -1.
        994   -1    0    0    0    0 -0.00000000000E+00 -0.00000000000E+00  0.11368683772E-12  0.17120000000E+03  0.17120000000E+03 0.  0.
         13    1    1    2    0    0  0.17794660035E+03 -0.14535784685E+02  0.91969680632E+03  0.93686632362E+03  0.10566000000E+00 0. -1.
        994    1    1    2    0    0 -0.18165847697E+03  0.14542521628E+02  0.12616174169E+03  0.28006697817E+03  0.17120000000E+03 0.  0.
        998    1    1    2    0    0  0.37118766223E+01 -0.67369428416E-02  0.45414144826E+03  0.45426669821E+03  0.10000000000E+02 0.  1.
</event>
<event>
 5    1  0.1247473E-008  0.3784888E+03  0.7957747E-01  0.3457765E+00
         13   -1    0    0    0    0  0.00000000000E+00  0.00000000000E+00  0.14999999963E+04  0.15000000000E+04  0.10566000000E+00 0. -1.
        994   -1    0    0    0    0 -0.00000000000E+00 -0.00000000000E+00  0.11368683772E-12  0.17120000000E+03  0.17120000000E+03 0.  0.
         13    1    1    2    0    0  0.23900330267E+02 -0.33471781327E+02  0.22103165184E+03  0.22482568405E+03  0.10566000000E+00 0. -1.
        994    1    1    2    0    0  0.19060814746E+01 -0.11004054064E+02  0.53170643521E+01  0.17164624530E+03  0.17120000000E+03 0.  0.
        998    1    1    2    0    0 -0.25806411741E+02  0.44475835391E+02  0.12736512801E+04  0.12747280706E+04  0.10000000000E+02 0. -1.
</event>
<event>
 5    1  0.1247473E-008  0.3808605E+03  0.7957747E-01  0.3447420E+00
         13   -1    0    0    0    0  0.00000000000E+00  0.00000000000E+00  0.14999999963E+04  0.15000000000E+04  0.10566000000E+00 0. -1.
        994   -1    0    0    0    0 -0.00000000000E+00 -0.00000000000E+00  0.11368683772E-12  0.17120000000E+03  0.17120000000E+03 0.  0.
         13    1    1    2    0    0 -0.20734334537E+03  0.75998517375E+02  0.11524861090E+04  0.11734527174E+04  0.10566000000E+00 0. -1.
        994    1    1    2    0    0  0.20640162162E+03 -0.64317464306E+02  0.17952783709E+03  0.32905630204E+03  0.17120000000E+03 0.  0.
        998    1    1    2    0    0  0.94172375827E+00 -0.11681053069E+02  0.16798605023E+03  0.16869098055E+03  0.10000000000E+02 0.  0.
</event>
<event>
 5    1  0.1247473E-008  0.3829035E+03  0.7957747E-01  0.3438613E+00
         13   -1    0    0    0    0  0.00000000000E+00  0.00000000000E+00  0.14999999963E+04  0.15000000000E+04  0.10566000000E+00 0.  1.
        994   -1    0    0    0    0 -0.00000000000E+00 -0.00000000000E+00  0.11368683772E-12  0.17120000000E+03  0.17120000000E+03 0.  0.
         13    1    1    2    0    0 -0.16155751209E+02 -0.14150275235E+02  0.83286678074E+02  0.86011164944E+02  0.10566000000E+00 0.  1.
        994    1    1    2    0    0  0.63434293185E+01  0.20306964248E+02  0.41746964670E+01  0.17256732015E+03  0.17120000000E+03 0.  0.
        998    1    1    2    0    0  0.98123218908E+01 -0.61566890125E+01  0.14125386217E+04  0.14126215149E+04  0.10000000000E+02 0.  1.
</event>
<event>
 5    1  0.1247473E-008  0.3711403E+03  0.7957747E-01  0.3490667E+00
         13   -1    0    0    0    0  0.00000000000E+00  0.00000000000E+00  0.14999999963E+04  0.15000000000E+04  0.10566000000E+00 0.  1.
        994   -1    0    0    0    0 -0.00000000000E+00 -0.00000000000E+00  0.11368683772E-12  0.17120000000E+03  0.17120000000E+03 0.  0.
         13    1    1    2    0    0 -0.80808272926E+02  0.73427552696E+01  0.40618507188E+03  0.41421035334E+03  0.10566000000E+00 0.  1.
        994    1    1    2    0    0  0.43713724251E+02  0.36582306175E+02  0.19949119699E+02  0.18153942324E+03  0.17120000000E+03 0.  0.
        998    1    1    2    0    0  0.37094548675E+02 -0.43925061445E+02  0.10738658047E+04  0.10754502234E+04  0.10000000000E+02 0.  1.
</event>
<event>
 5    1  0.1247473E-008  0.3832674E+03  0.7957747E-01  0.3437054E+00
         13   -1    0    0    0    0  0.00000000000E+00  0.00000000000E+00  0.14999999963E+04  0.15000000000E+04  0.10566000000E+00 0.  1.
        994   -1    0    0    0    0 -0.00000000000E+00 -0.00000000000E+00  0.11368683772E-12  0.17120000000E+03  0.17120000000E+03 0.  0.
         13    1    1    2    0    0 -0.10713822640E+02  0.79669083588E+01  0.35682763537E+02  0.38098929146E+02  0.10566000000E+00 0.  1.
        994    1    1    2    0    0 -0.11976761946E+00 -0.69263772655E+01  0.26514985793E+01  0.17136061243E+03  0.17120000000E+03 0.  0.
        998    1    1    2    0    0  0.10833590259E+02 -0.10405310933E+01  0.14616657342E+04  0.14617404584E+04  0.10000000000E+02 0.  1.
</event>
<event>
 5    1  0.1247473E-008  0.3797983E+03  0.7957747E-01  0.3452037E+00
         13   -1    0    0    0    0  0.00000000000E+00  0.00000000000E+00  0.14999999963E+04  0.15000000000E+04  0.10566000000E+00 0.  1.
        994   -1    0    0    0    0 -0.00000000000E+00 -0.00000000000E+00  0.11368683772E-12  0.17120000000E+03  0.17120000000E+03 0.  0.
         13    1    1    2    0    0 -0.70938771192E+01  0.14107537657E+02  0.27680527469E+02  0.31867985131E+02  0.10566000000E+00 0.  1.
        994    1    1    2    0    0  0.26604272657E+01 -0.11513448394E+02  0.47022577652E+01  0.17167174664E+03  0.17120000000E+03 0.  0.
        998    1    1    2    0    0  0.44334498536E+01 -0.25940892627E+01  0.14676172110E+04  0.14676602682E+04  0.10000000000E+02 0.  1.
</event>
<event>
 5    1  0.1247473E-008  0.3789679E+03  0.7957747E-01  0.3455665E+00
         13   -1    0    0    0    0  0.00000000000E+00  0.00000000000E+00  0.14999999963E+04  0.15000000000E+04  0.10566000000E+00 0.  1.
        994   -1    0    0    0    0 -0.00000000000E+00 -0.00000000000E+00  0.11368683772E-12  0.17120000000E+03  0.17120000000E+03 0.  0.
         13    1    1    2    0    0  0.20753002409E+00  0.10658029984E+02  0.10124562625E+02  0.14702197258E+02  0.10566000000E+00 0.  1.
        994    1    1    2    0    0 -0.81534819064E+01 -0.77661624256E+01  0.50804927064E+01  0.17164511048E+03  0.17120000000E+03 0.  0.
        998    1    1    2    0    0  0.79459518823E+01 -0.28918675581E+01  0.14847949409E+04  0.14848526923E+04  0.10000000000E+02 0.  1.
</event>
<event>
 5    1  0.1247473E-008  0.3901566E+03  0.7957747E-01  0.3408092E+00
         13   -1    0    0    0    0  0.00000000000E+00  0.00000000000E+00  0.14999999963E+04  0.15000000000E+04  0.10566000000E+00 0. -1.
        994   -1    0    0    0    0 -0.00000000000E+00 -0.00000000000E+00  0.11368683772E-12  0.17120000000E+03  0.17120000000E+03 0.  0.
         13    1    1    2    0    0 -0.96761107299E+01  0.11752840516E+03  0.37602121550E+03  0.39407933060E+03  0.10566000000E+00 0. -1.
        994    1    1    2    0    0  0.10359092220E+02 -0.35753921450E+02  0.27255779984E+02  0.17730756113E+03  0.17120000000E+03 0.  0.
        998    1    1    2    0    0 -0.68298148964E+00 -0.81774483707E+02  0.10967230008E+04  0.10998131083E+04  0.10000000000E+02 0. -1.
</event>
<event>
 5    1  0.1247473E-008  0.3768698E+03  0.7957747E-01  0.3464902E+00
         13   -1    0    0    0    0  0.00000000000E+00  0.00000000000E+00  0.14999999963E+04  0.15000000000E+04  0.10566000000E+00 0. -1.
        994   -1    0    0    0    0 -0.00000000000E+00 -0.00000000000E+00  0.11368683772E-12  0.17120000000E+03  0.17120000000E+03 0.  0.
         13    1    1    2    0    0 -0.33610402360E+02  0.19003348657E+02  0.13771912425E+03  0.14302920944E+03  0.10566000000E+00 0. -1.
        994    1    1    2    0    0  0.76450255655E+01 -0.59297240519E+01  0.60379105551E+01  0.17157944051E+03  0.17120000000E+03 0.  0.
        998    1    1    2    0    0  0.25965376794E+02 -0.13073624605E+02  0.13562429615E+04  0.13565913500E+04  0.10000000000E+02 0. -1.
</event>
<event>
 5    1  0.1247473E-008  0.4170123E+03  0.7957747E-01  0.3304303E+00
         13   -1    0    0    0    0  0.00000000000E+00  0.00000000000E+00  0.14999999963E+04  0.15000000000E+04  0.10566000000E+00 0. -1.
        994   -1    0    0    0    0 -0.00000000000E+00 -0.00000000000E+00  0.11368683772E-12  0.17120000000E+03  0.17120000000E+03 0.  0.
         13    1    1    2    0    0  0.13594104297E+03 -0.10730804199E+02  0.29394228348E+03  0.32403270592E+03  0.10566000000E+00 0. -1.
        994    1    1    2    0    0 -0.30580796093E+02  0.47496838643E+02  0.51923320304E+02  0.18760758503E+03  0.17120000000E+03 0.  0.
        998    1    1    2    0    0 -0.10536024688E+03 -0.36766034444E+02  0.11541343925E+04  0.11595597090E+04  0.10000000000E+02 0. -1.
</event>
<event>
 5    1  0.1247473E-008  0.3820251E+03  0.7957747E-01  0.3442388E+00
         13   -1    0    0    0    0  0.00000000000E+00  0.00000000000E+00  0.14999999963E+04  0.15000000000E+04  0.10566000000E+00 0.  1.
        994   -1    0    0    0    0 -0.00000000000E+00 -0.00000000000E+00  0.11368683772E-12  0.17120000000E+03  0.17120000000E+03 0.  0.
         13    1    1    2    0    0  0.31504777207E+02 -0.15168830156E+01  0.16754913657E+03  0.17049215891E+03  0.10566000000E+00 0.  1.
        994    1    1    2    0    0 -0.12447793597E+02 -0.12823219305E+02  0.41756414084E+01  0.17218088889E+03  0.17120000000E+03 0.  0.
        998    1    1    2    0    0 -0.19056983611E+02  0.14340102321E+02  0.13282752183E+04  0.13285269522E+04  0.10000000000E+02 0.  1.
</event>
<event>
 5    1  0.1247473E-008  0.3832293E+03  0.7957747E-01  0.3437217E+00
         13   -1    0    0    0    0  0.00000000000E+00  0.00000000000E+00  0.14999999963E+04  0.15000000000E+04  0.10566000000E+00 0.  1.
        994   -1    0    0    0    0 -0.00000000000E+00 -0.00000000000E+00  0.11368683772E-12  0.17120000000E+03  0.17120000000E+03 0.  0.
         13    1    1    2    0    0 -0.44731530829E+02 -0.83052018712E+02  0.25734108987E+03  0.27408574454E+03  0.10566000000E+00 0.  1.
        994    1    1    2    0    0  0.24561819439E+02  0.35806589664E+02  0.25058176645E+02  0.17838931317E+03  0.17120000000E+03 0.  0.
        998    1    1    2    0    0  0.20169711391E+02  0.47245429048E+02  0.12176007298E+04  0.12187249423E+04  0.10000000000E+02 0.  1.
</event>
<event>
 5    1  0.1247473E-008  0.3839174E+03  0.7957747E-01  0.3434277E+00
         13   -1    0    0    0    0  0.00000000000E+00  0.00000000000E+00  0.14999999963E+04  0.15000000000E+04  0.10566000000E+00 0. -1.
        994   -1    0    0    0    0 -0.00000000000E+00 -0.00000000000E+00  0.11368683772E-12  0.17120000000E+03  0.17120000000E+03 0.  0.
         13    1    1    2    0    0  0.33740947323E+01 -0.20245578086E+02  0.95127097743E+02  0.97316205415E+02  0.10566000000E+00 0. -1.
        994    1    1    2    0    0 -0.34513276649E+01  0.14969606837E+02  0.29478467100E+01  0.17191314840E+03  0.17120000000E+03 0.  0.
        998    1    1    2    0    0  0.77232932647E-01  0.52759712486E+01  0.14019250518E+04  0.14019706462E+04  0.10000000000E+02 0. -1.
</event>
<event>
 5    1  0.1247473E-008  0.3817237E+03  0.7957747E-01  0.3443687E+00
         13   -1    0    0    0    0  0.00000000000E+00  0.00000000000E+00  0.14999999963E+04  0.15000000000E+04  0.10566000000E+00 0. -1.
        994   -1    0    0    0    0 -0.00000000000E+00 -0.00000000000E+00  0.11368683772E-12  0.17120000000E+03  0.17120000000E+03 0.  0.
         13    1    1    2    0    0 -0.39975819287E+01 -0.26015281393E+02  0.11187409780E+03  0.11492867549E+03  0.10566000000E+00 0. -1.
        994    1    1    2    0    0  0.18205714457E+02  0.32467476430E+01  0.44031346354E+01  0.17225219013E+03  0.17120000000E+03 0.  0.
        998    1    1    2    0    0 -0.14208132529E+02  0.22768533750E+02  0.13837227638E+04  0.13840191344E+04  0.10000000000E+02 0. -1.
</event>
<event>
 5    1  0.1247473E-008  0.3853082E+03  0.7957747E-01  0.3428366E+00
         13   -1    0    0    0    0  0.00000000000E+00  0.00000000000E+00  0.14999999963E+04  0.15000000000E+04  0.10566000000E+00 0. -1.
        994   -1    0    0    0    0 -0.00000000000E+00 -0.00000000000E+00  0.11368683772E-12  0.17120000000E+03  0.17120000000E+03 0.  0.
         13    1    1    2    0    0  0.29724948048E+01 -0.12551502091E+02  0.56892899767E+02  0.58336859172E+02  0.10566000000E+00 0. -1.
        994    1    1    2    0    0  0.25930137970E+01  0.82252720699E+01  0.17216163603E+01  0.17142573548E+03  0.17120000000E+03 0.  0.
        998    1    1    2    0    0 -0.55655086018E+01  0.43262300211E+01  0.14413854802E+04  0.14414374054E+04  0.10000000000E+02 0. -1.
</event>
<event>
 5    1  0.1247473E-008  0.3836620E+03  0.7957747E-01  0.3435367E+00
         13   -1    0    0    0    0  0.00000000000E+00  0.00000000000E+00  0.14999999963E+04  0.15000000000E+04  0.10566000000E+00 0.  1.
        994   -1    0    0    0    0 -0.00000000000E+00 -0.00000000000E+00  0.11368683772E-12  0.17120000000E+03  0.17120000000E+03 0.  0.
         13    1    1    2    0    0 -0.16643098319E+02  0.55950611580E+01  0.71979692399E+02  0.74090382053E+02  0.10566000000E+00 0.  1.
        994    1    1    2    0    0 -0.34763141390E+01 -0.36379142954E+01  0.23795169486E+01  0.17129045882E+03  0.17120000000E+03 0.  0.
        998    1    1    2    0    0  0.20119412458E+02 -0.19571468625E+01  0.14256407869E+04  0.14258191591E+04  0.10000000000E+02 0.  1.
</event>
<event>
 5    1  0.1247473E-008  0.3838076E+03  0.7957747E-01  0.3434745E+00
         13   -1    0    0    0    0  0.00000000000E+00  0.00000000000E+00  0.14999999963E+04  0.15000000000E+04  0.10566000000E+00 0.  1.
        994   -1    0    0    0    0 -0.00000000000E+00 -0.00000000000E+00  0.11368683772E-12  0.17120000000E+03  0.17120000000E+03 0.  0.
         13    1    1    2    0    0  0.19891123623E+02 -0.82850447521E+01  0.98302517094E+02  0.10063644865E+03  0.10566000000E+00 0.  1.
        994    1    1    2    0    0 -0.19789662545E+02  0.91772104526E+01  0.37958816228E+01  0.17262589798E+03  0.17120000000E+03 0.  0.
        998    1    1    2    0    0 -0.10146107820E+00 -0.89216570051E+00  0.13979015976E+04  0.13979376534E+04  0.10000000000E+02 0.  1.
</event>
<event>
 5    1  0.1247473E-008  0.3756036E+03  0.7957747E-01  0.3470528E+00
         13   -1    0    0    0    0  0.00000000000E+00  0.00000000000E+00  0.14999999963E+04  0.15000000000E+04  0.10566000000E+00 0. -1.
        994   -1    0    0    0    0 -0.00000000000E+00 -0.00000000000E+00  0.11368683772E-12  0.17120000000E+03  0.17120000000E+03 0.  0.
         13    1    1    2    0    0  0.42942901546E+02 -0.44743751766E+02  0.31240375347E+03  0.31849994107E+03  0.10566000000E+00 0. -1.
        994    1    1    2    0    0 -0.15057014189E+02  0.27554565613E+02  0.97210586789E+01  0.17432701094E+03  0.17120000000E+03 0.  0.
        998    1    1    2    0    0 -0.27885887357E+02  0.17189186153E+02  0.11778751841E+04  0.11783730480E+04  0.10000000000E+02 0. -1.
</event>
<event>
 5    1  0.1247473E-008  0.3814565E+03  0.7957747E-01  0.3444841E+00
         13   -1    0    0    0    0  0.00000000000E+00  0.00000000000E+00  0.14999999963E+04  0.15000000000E+04  0.10566000000E+00 0.  1.
        994   -1    0    0    0    0 -0.00000000000E+00 -0.00000000000E+00  0.11368683772E-12  0.17120000000E+03  0.17120000000E+03 0.  0.
         13    1    1    2    0    0 -0.52140088715E+01  0.11056141324E+02  0.20392497754E+02  0.23775812882E+02  0.10566000000E+00 0.  1.
        994    1    1    2    0    0  0.37704684444E+01 -0.11776100702E+02  0.39085217116E+01  0.17169044680E+03  0.17120000000E+03 0.  0.
        998    1    1    2    0    0  0.14435404271E+01  0.71995937758E+00  0.14756989768E+04  0.14757337403E+04  0.10000000000E+02 0.  1.
</event>
<event>
 5    1  0.1247473E-008  0.3833846E+03  0.7957747E-01  0.3436552E+00
         13   -1    0    0    0    0  0.00000000000E+00  0.00000000000E+00  0.14999999963E+04  0.15000000000E+04  0.10566000000E+00 0.  1.
        994   -1    0    0    0    0 -0.00000000000E+00 -0.00000000000E+00  0.11368683772E-12  0.17120000000E+03  0.17120000000E+03 0.  0.
         13    1    1    2    0    0  0.10661889544E+02  0.51511872849E+01  0.27598441993E+02  0.30031579771E+02  0.10566000000E+00 0.  1.
        994    1    1    2    0    0 -0.12770654260E+02 -0.15608561724E+01  0.29816980621E+01  0.17170863812E+03  0.17120000000E+03 0.  0.
        998    1    1    2    0    0  0.21087647162E+01 -0.35903311125E+01  0.14694198562E+04  0.14694597821E+04  0.10000000000E+02 0.  1.
</event>
<event>
 5    1  0.1247473E-008  0.3791759E+03  0.7957747E-01  0.3454755E+00
         13   -1    0    0    0    0  0.00000000000E+00  0.00000000000E+00  0.14999999963E+04  0.15000000000E+04  0.10566000000E+00 0. -1.
        994   -1    0    0    0    0 -0.00000000000E+00 -0.00000000000E+00  0.11368683772E-12  0.17120000000E+03  0.17120000000E+03 0.  0.
         13    1    1    2    0    0 -0.49518001327E+02  0.23937490309E+02  0.25904582008E+03  0.26482028616E+03  0.10566000000E+00 0. -1.
        994    1    1    2    0    0  0.55088712385E+02 -0.29428853188E+02  0.17738453362E+02  0.18309810583E+03  0.17120000000E+03 0.  0.
        998    1    1    2    0    0 -0.55707110575E+01  0.54913628785E+01  0.12232157228E+04  0.12232816080E+04  0.10000000000E+02 0. -1.
</event>
<event>
 5    1  0.1247473E-008  0.3833935E+03  0.7957747E-01  0.3436514E+00
         13   -1    0    0    0    0  0.00000000000E+00  0.00000000000E+00  0.14999999963E+04  0.15000000000E+04  0.10566000000E+00 0. -1.
        994   -1    0    0    0    0 -0.00000000000E+00 -0.00000000000E+00  0.11368683772E-12  0.17120000000E+03  0.17120000000E+03 0.  0.
         13    1    1    2    0    0 -0.10345119442E+02  0.39532958162E+01  0.24281833332E+02  0.26688361472E+02  0.10566000000E+00 0. -1.
        994    1    1    2    0    0  0.84205397364E+01 -0.38759762927E+01  0.27139829984E+01  0.17147225544E+03  0.17120000000E+03 0.  0.
        998    1    1    2    0    0  0.19245797052E+01 -0.77319523452E-01  0.14730041799E+04  0.14730393831E+04  0.10000000000E+02 0. -1.
</event>
<event>
 5    1  0.1247473E-008  0.3836541E+03  0.7957747E-01  0.3435401E+00
         13   -1    0    0    0    0  0.00000000000E+00  0.00000000000E+00  0.14999999963E+04  0.15000000000E+04  0.10566000000E+00 0. -1.
        994   -1    0    0    0    0 -0.00000000000E+00 -0.00000000000E+00  0.11368683772E-12  0.17120000000E+03  0.17120000000E+03 0.  0.
         13    1    1    2    0    0  0.15569200204E+02  0.75321736276E+01  0.64039685008E+02  0.66334199736E+02  0.10566000000E+00 0. -1.
        994    1    1    2    0    0 -0.23238960991E+02  0.17913346838E+02  0.51487615776E+01  0.17377251523E+03  0.17120000000E+03 0.  0.
        998    1    1    2    0    0  0.76697607865E+01 -0.25445520465E+02  0.14308115497E+04  0.14310932850E+04  0.10000000000E+02 0. -1.
</event>
<event>
 5    1  0.1247473E-008  0.3784716E+03  0.7957747E-01  0.3457841E+00
         13   -1    0    0    0    0  0.00000000000E+00  0.00000000000E+00  0.14999999963E+04  0.15000000000E+04  0.10566000000E+00 0. -1.
        994   -1    0    0    0    0 -0.00000000000E+00 -0.00000000000E+00  0.11368683772E-12  0.17120000000E+03  0.17120000000E+03 0.  0.
         13    1    1    2    0    0  0.41887762855E+02  0.10313099088E+01  0.22041659966E+03  0.22436384924E+03  0.10566000000E+00 0. -1.
        994    1    1    2    0    0  0.48974323395E+01 -0.15368829585E+02  0.57813620656E+01  0.17205536874E+03  0.17120000000E+03 0.  0.
        998    1    1    2    0    0 -0.46785195194E+02  0.14337519676E+02  0.12738020346E+04  0.12747807820E+04  0.10000000000E+02 0. -1.
</event>
<event>
 5    1  0.1247473E-008  0.3859488E+03  0.7957747E-01  0.3425658E+00
         13   -1    0    0    0    0  0.00000000000E+00  0.00000000000E+00  0.14999999963E+04  0.15000000000E+04  0.10566000000E+00 0. -1.
        994   -1    0    0    0    0 -0.00000000000E+00 -0.00000000000E+00  0.11368683772E-12  0.17120000000E+03  0.17120000000E+03 0.  0.
         13    1    1    2    0    0  0.90913664554E+01  0.66463959151E+01  0.55619435044E+02  0.56748217958E+02  0.10566000000E+00 0. -1.
        994    1    1    2    0    0 -0.91452193837E+01  0.11313003932E+01  0.14382442481E+01  0.17145385217E+03  0.17120000000E+03 0.  0.
        998    1    1    2    0    0  0.53852928228E-01 -0.77776963082E+01  0.14429423170E+04  0.14429979299E+04  0.10000000000E+02 0. -1.
</event>
<event>
 5    1  0.1247473E-008  0.3815154E+03  0.7957747E-01  0.3444586E+00
         13   -1    0    0    0    0  0.00000000000E+00  0.00000000000E+00  0.14999999963E+04  0.15000000000E+04  0.10566000000E+00 0.  1.
        994   -1    0    0    0    0 -0.00000000000E+00 -0.00000000000E+00  0.11368683772E-12  0.17120000000E+03  0.17120000000E+03 0.  0.
         13    1    1    2    0    0  0.14033166676E+02  0.51621427450E+02  0.22616482391E+03  0.23240533616E+03  0.10566000000E+00 0.  1.
        994    1    1    2    0    0 -0.50348880584E+02 -0.10128053029E+03  0.47161299126E+02  0.21053831890E+03  0.17120000000E+03 0.  0.
        998    1    1    2    0    0  0.36315713908E+02  0.49659102838E+02  0.12266738732E+04  0.12282563449E+04  0.10000000000E+02 0.  1.
</event>
<event>
 5    1  0.1247473E-008  0.3845819E+03  0.7957747E-01  0.3431447E+00
         13   -1    0    0    0    0  0.00000000000E+00  0.00000000000E+00  0.14999999963E+04  0.15000000000E+04  0.10566000000E+00 0. -1.
        994   -1    0    0    0    0 -0.00000000000E+00 -0.00000000000E+00  0.11368683772E-12  0.17120000000E+03  0.17120000000E+03 0.  0.
         13    1    1    2    0    0 -0.16420275351E+02 -0.93933367099E+01  0.10792362329E+03  0.10956906428E+03  0.10566000000E+00 0. -1.
        994    1    1    2    0    0  0.52246053740E+00 -0.35184118453E+01  0.18795141734E+01  0.17124726205E+03  0.17120000000E+03 0.  0.
        998    1    1    2    0    0  0.15897814814E+02  0.12911748555E+02  0.13901968588E+04  0.13903836737E+04  0.10000000000E+02 0. -1.
</event>
<event>
 5    1  0.1247473E-008  0.3757908E+03  0.7957747E-01  0.3469694E+00
         13   -1    0    0    0    0  0.00000000000E+00  0.00000000000E+00  0.14999999963E+04  0.15000000000E+04  0.10566000000E+00 0.  1.
        994   -1    0    0    0    0 -0.00000000000E+00 -0.00000000000E+00  0.11368683772E-12  0.17120000000E+03  0.17120000000E+03 0.  0.
         13    1    1    2    0    0  0.21704788927E+02  0.24910492776E+02  0.79151947879E+02  0.85771047153E+02  0.10566000000E+00 0.  1.
        994    1    1    2    0    0 -0.25387756277E+02 -0.28388940895E+02  0.11206356308E+02  0.17574268848E+03  0.17120000000E+03 0.  0.
        998    1    1    2    0    0  0.36829673499E+01  0.34784481187E+01  0.14096416921E+04  0.14096862644E+04  0.10000000000E+02 0.  1.
</event>
<event>
 5    1  0.1247473E-008  0.3848000E+03  0.7957747E-01  0.3430521E+00
         13   -1    0    0    0    0  0.00000000000E+00  0.00000000000E+00  0.14999999963E+04  0.15000000000E+04  0.10566000000E+00 0.  1.
        994   -1    0    0    0    0 -0.00000000000E+00 -0.00000000000E+00  0.11368683772E-12  0.17120000000E+03  0.17120000000E+03 0.  0.
         13    1    1    2    0    0 -0.88485072669E-01  0.10091154466E+02  0.27945189455E+02  0.29711681302E+02  0.10566000000E+00 0.  1.
        994    1    1    2    0    0  0.82039903012E+00 -0.16779754531E+02  0.26587703294E+01  0.17204285012E+03  0.17120000000E+03 0.  0.
        998    1    1    2    0    0 -0.73191395745E+00  0.66886000649E+01  0.14693960365E+04  0.14694454686E+04  0.10000000000E+02 0.  1.
</event>
<event>
 5    1  0.1247473E-008  0.3835947E+03  0.7957747E-01  0.3435654E+00
         13   -1    0    0    0    0  0.00000000000E+00  0.00000000000E+00  0.14999999963E+04  0.15000000000E+04  0.10566000000E+00 0. -1.
        994   -1    0    0    0    0 -0.00000000000E+00 -0.00000000000E+00  0.11368683772E-12  0.17120000000E+03  0.17120000000E+03 0.  0.
         13    1    1    2    0    0  0.14618613067E+02  0.34752114407E+01  0.47802400062E+02  0.50108497865E+02  0.10566000000E+00 0. -1.
        994    1    1    2    0    0 -0.89955020866E+01 -0.62249792649E+01  0.27248895876E+01  0.17157078553E+03  0.17120000000E+03 0.  0.
        998    1    1    2    0    0 -0.56231109804E+01  0.27497678242E+01  0.14494727066E+04  0.14495207166E+04  0.10000000000E+02 0. -1.
</event>
<event>
 5    1  0.1247473E-008  0.3854391E+03  0.7957747E-01  0.3427812E+00
         13   -1    0    0    0    0  0.00000000000E+00  0.00000000000E+00  0.14999999963E+04  0.15000000000E+04  0.10566000000E+00 0. -1.
        994   -1    0    0    0    0 -0.00000000000E+00 -0.00000000000E+00  0.11368683772E-12  0.17120000000E+03  0.17120000000E+03 0.  0.
         13    1    1    2    0    0  0.60088498158E+01 -0.98109857564E+01  0.45787860734E+02  0.47211238834E+02  0.10566000000E+00 0. -1.
        994    1    1    2    0    0 -0.53029260315E+01  0.11275941056E+02  0.19223469193E+01  0.17166363415E+03  0.17120000000E+03 0.  0.
        998    1    1    2    0    0 -0.70592378431E+00 -0.14649552992E+01  0.14522897886E+04  0.14523251270E+04  0.10000000000E+02 0. -1.
</event>
<event>
 5    1  0.1279193E-008  0.3839562E+03  0.7957747E-01  0.3434111E+00
         13   -1    0    0    0    0  0.00000000000E+00  0.00000000000E+00  0.14999999963E+04  0.15000000000E+04  0.10566000000E+00 0.  1.
        994   -1    0    0    0    0 -0.00000000000E+00 -0.00000000000E+00  0.11368683772E-12  0.17120000000E+03  0.17120000000E+03 0.  0.
         13    1    1    2    0    0 -0.10242584413E+02 -0.63069699102E+01  0.32643123827E+02  0.34788979608E+02  0.10566000000E+00 0.  1.
        994    1    1    2    0    0  0.88802646260E+01  0.74156270227E+01  0.25910754010E+01  0.17161003553E+03  0.17120000000E+03 0.  0.
        998    1    1    2    0    0  0.13623197870E+01 -0.11086571125E+01  0.14647657971E+04  0.14648009849E+04  0.10000000000E+02 0.  1.
</event>
<event>
 5    1  0.1247473E-008  0.3787047E+03  0.7957747E-01  0.3456818E+00
         13   -1    0    0    0    0  0.00000000000E+00  0.00000000000E+00  0.14999999963E+04  0.15000000000E+04  0.10566000000E+00 0. -1.
        994   -1    0    0    0    0 -0.00000000000E+00 -0.00000000000E+00  0.11368683772E-12  0.17120000000E+03  0.17120000000E+03 0.  0.
         13    1    1    2    0    0  0.26982031286E+02 -0.53534083801E+01  0.77888630633E+02  0.82603504402E+02  0.10566000000E+00 0. -1.
        994    1    1    2    0    0 -0.15974171152E+02 -0.16498294436E+01  0.56547591334E+01  0.17204450698E+03  0.17120000000E+03 0.  0.
        998    1    1    2    0    0 -0.11007860134E+02  0.70032378238E+01  0.14164566065E+04  0.14165519886E+04  0.10000000000E+02 0. -1.
</event>
<event>
 5    1  0.1247473E-008  0.3852835E+03  0.7957747E-01  0.3428471E+00
         13   -1    0    0    0    0  0.00000000000E+00  0.00000000000E+00  0.14999999963E+04  0.15000000000E+04  0.10566000000E+00 0. -1.
        994   -1    0    0    0    0 -0.00000000000E+00 -0.00000000000E+00  0.11368683772E-12  0.17120000000E+03  0.17120000000E+03 0.  0.
         13    1    1    2    0    0  0.65302760107E+01 -0.10915800574E+02  0.57320914761E+02  0.58715395255E+02  0.10566000000E+00 0. -1.
        994    1    1    2    0    0 -0.58052475124E+01 -0.31074344456E+01  0.16319367499E+01  0.17133435226E+03  0.17120000000E+03 0.  0.
        998    1    1    2    0    0 -0.72502849826E+00  0.14023235019E+02  0.14410471448E+04  0.14411502525E+04  0.10000000000E+02 0. -1.
</event>
<event>
 5    1  0.1247473E-008  0.3102156E+03  0.7957747E-01  0.3825684E+00
         13   -1    0    0    0    0  0.00000000000E+00  0.00000000000E+00  0.14999999963E+04  0.15000000000E+04  0.10566000000E+00 0.  1.
        994   -1    0    0    0    0 -0.00000000000E+00 -0.00000000000E+00  0.11368683772E-12  0.17120000000E+03  0.17120000000E+03 0.  0.
         13    1    1    2    0    0 -0.42899052656E+02  0.17677611912E+03  0.78436945312E+03  0.80518667100E+03  0.10566000000E+00 0.  1.
        994    1    1    2    0    0 -0.40127270169E+01 -0.14830939167E+03  0.99611975713E+02  0.24747477314E+03  0.17120000000E+03 0.  0.
        998    1    1    2    0    0  0.46911779673E+02 -0.28466727451E+02  0.61601856745E+03  0.61853855586E+03  0.10000000000E+02 0. -1.
</event>
<event>
 5    1  0.1318598E-008  0.3862507E+03  0.7957747E-01  0.3424385E+00
         13   -1    0    0    0    0  0.00000000000E+00  0.00000000000E+00  0.14999999963E+04  0.15000000000E+04  0.10566000000E+00 0. -1.
        994   -1    0    0    0    0 -0.00000000000E+00 -0.00000000000E+00  0.11368683772E-12  0.17120000000E+03  0.17120000000E+03 0.  0.
         13    1    1    2    0    0  0.14132659358E+01  0.10061432025E+02  0.58722277556E+02  0.59594855318E+02  0.10566000000E+00 0. -1.
        994    1    1    2    0    0 -0.18057859311E+02  0.10986023013E+02  0.24751854574E+01  0.17251766729E+03  0.17120000000E+03 0.  0.
        998    1    1    2    0    0  0.16644593375E+02 -0.21047455038E+02  0.14388025333E+04  0.14390874774E+04  0.10000000000E+02 0. -1.
</event>
<event>
 5    1  0.1247473E-008  0.3834763E+03  0.7957747E-01  0.3436160E+00
         13   -1    0    0    0    0  0.00000000000E+00  0.00000000000E+00  0.14999999963E+04  0.15000000000E+04  0.10566000000E+00 0. -1.
        994   -1    0    0    0    0 -0.00000000000E+00 -0.00000000000E+00  0.11368683772E-12  0.17120000000E+03  0.17120000000E+03 0.  0.
         13    1    1    2    0    0  0.28733527442E+01 -0.13445862076E+02  0.38052454244E+02  0.40460447365E+02  0.10566000000E+00 0. -1.
        994    1    1    2    0    0  0.27192116206E+00  0.14823679746E+02  0.31153260471E+01  0.17186902187E+03  0.17120000000E+03 0.  0.
        998    1    1    2    0    0 -0.31452739063E+01 -0.13778176700E+01  0.14588322160E+04  0.14588705308E+04  0.10000000000E+02 0. -1.
</event>
<event>
 5    1  0.1247473E-008  0.3842689E+03  0.7957747E-01  0.3432779E+00
         13   -1    0    0    0    0  0.00000000000E+00  0.00000000000E+00  0.14999999963E+04  0.15000000000E+04  0.10566000000E+00 0.  1.
        994   -1    0    0    0    0 -0.00000000000E+00 -0.00000000000E+00  0.11368683772E-12  0.17120000000E+03  0.17120000000E+03 0.  0.
         13    1    1    2    0    0  0.94400719837E+01  0.52072095735E+01  0.29938744350E+02  0.31820898289E+02  0.10566000000E+00 0.  1.
        994    1    1    2    0    0  0.52403296626E+01 -0.21563538008E+01  0.20994041370E+01  0.17130662105E+03  0.17120000000E+03 0.  0.
        998    1    1    2    0    0 -0.14680401646E+02 -0.30508557726E+01  0.14679618478E+04  0.14680724807E+04  0.10000000000E+02 0.  1.
</event>
<event>
 5    1  0.1247473E-008  0.3782329E+03  0.7957747E-01  0.3458889E+00
         13   -1    0    0    0    0  0.00000000000E+00  0.00000000000E+00  0.14999999963E+04  0.15000000000E+04  0.10566000000E+00 0.  1.
        994   -1    0    0    0    0 -0.00000000000E+00 -0.00000000000E+00  0.11368683772E-12  0.17120000000E+03  0.17120000000E+03 0.  0.
         13    1    1    2    0    0 -0.65011280005E+01 -0.43842570619E+02  0.18356666417E+03  0.18884164536E+03  0.10566000000E+00 0.  1.
        994    1    1    2    0    0  0.17301000417E+00  0.34397895887E+02  0.90168385298E+01  0.17485419226E+03  0.17120000000E+03 0.  0.
        998    1    1    2    0    0  0.63281179963E+01  0.94446747315E+01  0.13074164936E+04  0.13075041624E+04  0.10000000000E+02 0.  1.
</event>
<event>
 5    1  0.1247473E-008  0.3824909E+03  0.7957747E-01  0.3440384E+00
         13   -1    0    0    0    0  0.00000000000E+00  0.00000000000E+00  0.14999999963E+04  0.15000000000E+04  0.10566000000E+00 0. -1.
        994   -1    0    0    0    0 -0.00000000000E+00 -0.00000000000E+00  0.11368683772E-12  0.17120000000E+03  0.17120000000E+03 0.  0.
         13    1    1    2    0    0 -0.99955034489E+01  0.26219292221E+02  0.11936333306E+03  0.12261720033E+03  0.10566000000E+00 0. -1.
        994    1    1    2    0    0  0.14663426782E+02 -0.33797597640E+02  0.73943577181E+01  0.17527524131E+03  0.17120000000E+03 0.  0.
        998    1    1    2    0    0 -0.46679233331E+01  0.75783054189E+01  0.13732423055E+04  0.13733075584E+04  0.10000000000E+02 0. -1.
</event>
<event>
 5    1  0.1247473E-008  0.3821743E+03  0.7957747E-01  0.3441745E+00
         13   -1    0    0    0    0  0.00000000000E+00  0.00000000000E+00  0.14999999963E+04  0.15000000000E+04  0.10566000000E+00 0. -1.
        994   -1    0    0    0    0 -0.00000000000E+00 -0.00000000000E+00  0.11368683772E-12  0.17120000000E+03  0.17120000000E+03 0.  0.
         13    1    1    2    0    0 -0.18432064199E+02 -0.17854479936E+01  0.55760215286E+02  0.58754928201E+02  0.10566000000E+00 0. -1.
        994    1    1    2    0    0  0.10603187436E+02  0.77173082616E+00  0.34147972843E+01  0.17156376072E+03  0.17120000000E+03 0.  0.
        998    1    1    2    0    0  0.78288767629E+01  0.10137171675E+01  0.14408249837E+04  0.14408813111E+04  0.10000000000E+02 0. -1.
</event>
<event>
 5    1  0.1247473E-008  0.3694192E+03  0.7957747E-01  0.3498564E+00
         13   -1    0    0    0    0  0.00000000000E+00  0.00000000000E+00  0.14999999963E+04  0.15000000000E+04  0.10566000000E+00 0.  1.
        994   -1    0    0    0    0 -0.00000000000E+00 -0.00000000000E+00  0.11368683772E-12  0.17120000000E+03  0.17120000000E+03 0.  0.
         13    1    1    2    0    0  0.30465817426E+02 -0.46051450242E+02  0.14094356246E+03  0.15137371325E+03  0.10566000000E+00 0.  1.
        994    1    1    2    0    0 -0.35221597319E+02  0.45089488136E+02  0.21001754081E+02  0.18172544272E+03  0.17120000000E+03 0.  0.
        998    1    1    2    0    0  0.47557798936E+01  0.96196210673E+00  0.13380546797E+04  0.13381008440E+04  0.10000000000E+02 0.  1.
</event>
<event>
 5    1  0.1247473E-008  0.3693884E+03  0.7957747E-01  0.3498706E+00
         13   -1    0    0    0    0  0.00000000000E+00  0.00000000000E+00  0.14999999963E+04  0.15000000000E+04  0.10566000000E+00 0. -1.
        994   -1    0    0    0    0 -0.00000000000E+00 -0.00000000000E+00  0.11368683772E-12  0.17120000000E+03  0.17120000000E+03 0.  0.
         13    1    1    2    0    0  0.32211965982E+02  0.99129228966E+01  0.56941616941E+02  0.66168237823E+02  0.10566000000E+00 0. -1.
        994    1    1    2    0    0 -0.17461104702E+02  0.83403341098E+01  0.10887602748E+02  0.17263380678E+03  0.17120000000E+03 0.  0.
        998    1    1    2    0    0 -0.14750861280E+02 -0.18253257006E+02  0.14321707766E+04  0.14323979554E+04  0.10000000000E+02 0. -1.
</event>
<event>
 5    1  0.1247473E-008  0.3850412E+03  0.7957747E-01  0.3429498E+00
         13   -1    0    0    0    0  0.00000000000E+00  0.00000000000E+00  0.14999999963E+04  0.15000000000E+04  0.10566000000E+00 0.  1.
        994   -1    0    0    0    0 -0.00000000000E+00 -0.00000000000E+00  0.11368683772E-12  0.17120000000E+03  0.17120000000E+03 0.  0.
         13    1    1    2    0    0 -0.12468753065E+02 -0.80212257568E+01  0.79411608494E+02  0.80783813931E+02  0.10566000000E+00 0.  1.
        994    1    1    2    0    0 -0.37610176794E+01 -0.14279549063E+02  0.23270209131E+01  0.17185140617E+03  0.17120000000E+03 0.  0.
        998    1    1    2    0    0  0.16229770744E+02  0.22300774820E+02  0.14182613669E+04  0.14185647799E+04  0.10000000000E+02 0.  1.
</event>
<event>
 5    1  0.1247473E-008  0.3785349E+03  0.7957747E-01  0.3457563E+00
         13   -1    0    0    0    0  0.00000000000E+00  0.00000000000E+00  0.14999999963E+04  0.15000000000E+04  0.10566000000E+00 0. -1.
        994   -1    0    0    0    0 -0.00000000000E+00 -0.00000000000E+00  0.11368683772E-12  0.17120000000E+03  0.17120000000E+03 0.  0.
         13    1    1    2    0    0  0.11571896732E+02  0.21061018307E+02  0.56001991693E+02  0.60940212698E+02  0.10566000000E+00 0. -1.
        994    1    1    2    0    0 -0.11934088044E+01 -0.24645685854E+02  0.69224189661E+01  0.17310746356E+03  0.17120000000E+03 0.  0.
        998    1    1    2    0    0 -0.10378487928E+02  0.35846675470E+01  0.14370755856E+04  0.14371523237E+04  0.10000000000E+02 0. -1.
</event>
<event>
 5    1  0.1247473E-008  0.3708674E+03  0.7957747E-01  0.3491914E+00
         13   -1    0    0    0    0  0.00000000000E+00  0.00000000000E+00  0.14999999963E+04  0.15000000000E+04  0.10566000000E+00 0. -1.
        994   -1    0    0    0    0 -0.00000000000E+00 -0.00000000000E+00  0.11368683772E-12  0.17120000000E+03  0.17120000000E+03 0.  0.
         13    1    1    2    0    0  0.54302317134E+01  0.59845851997E+02  0.25927465320E+03  0.26614727196E+03  0.10566000000E+00 0. -1.
        994    1    1    2    0    0  0.37650631454E+02 -0.72514218757E+00  0.13720847556E+02  0.17582888710E+03  0.17120000000E+03 0.  0.
        998    1    1    2    0    0 -0.43080863167E+02 -0.59120709810E+02  0.12270044955E+04  0.12292238409E+04  0.10000000000E+02 0. -1.
</event>
<event>
 5    1  0.1247473E-008  0.3846348E+03  0.7957747E-01  0.3431222E+00
         13   -1    0    0    0    0  0.00000000000E+00  0.00000000000E+00  0.14999999963E+04  0.15000000000E+04  0.10566000000E+00 0.  1.
        994   -1    0    0    0    0 -0.00000000000E+00 -0.00000000000E+00  0.11368683772E-12  0.17120000000E+03  0.17120000000E+03 0.  0.
         13    1    1    2    0    0 -0.51227342624E+01 -0.14380065091E+02  0.63731756530E+02  0.65534545339E+02  0.10566000000E+00 0.  1.
        994    1    1    2    0    0  0.59873755235E+01  0.96742809572E+01  0.22378481875E+01  0.17159221527E+03  0.17120000000E+03 0.  0.
        998    1    1    2    0    0 -0.86464126113E+00  0.47057841338E+01  0.14340303916E+04  0.14340732394E+04  0.10000000000E+02 0.  1.
</event>
<event>
 5    1  0.1247473E-008  0.3819712E+03  0.7957747E-01  0.3442620E+00
         13   -1    0    0    0    0  0.00000000000E+00  0.00000000000E+00  0.14999999963E+04  0.15000000000E+04  0.10566000000E+00 0. -1.
        994   -1    0    0    0    0 -0.00000000000E+00 -0.00000000000E+00  0.11368683772E-12  0.17120000000E+03  0.17120000000E+03 0.  0.
         13    1    1    2    0    0 -0.10813871138E+02  0.64065060565E+00  0.17828820557E+02  0.20862124741E+02  0.10566000000E+00 0. -1.
        994    1    1    2    0    0 -0.12409379141E+01 -0.73090913938E+01  0.33239563450E+01  0.17139268196E+03  0.17120000000E+03 0.  0.
        998    1    1    2    0    0  0.12054809053E+02  0.66684407881E+01  0.14788472194E+04  0.14789451933E+04  0.10000000000E+02 0. -1.
</event>
<event>
 5    1  0.1247473E-008  0.3818917E+03  0.7957747E-01  0.3442963E+00
         13   -1    0    0    0    0  0.00000000000E+00  0.00000000000E+00  0.14999999963E+04  0.15000000000E+04  0.10566000000E+00 0.  1.
        994   -1    0    0    0    0 -0.00000000000E+00 -0.00000000000E+00  0.11368683772E-12  0.17120000000E+03  0.17120000000E+03 0.  0.
         13    1    1    2    0    0 -0.75549393890E+01  0.11625366217E+02  0.29291936083E+02  0.32407636946E+02  0.10566000000E+00 0.  1.
        994    1    1    2    0    0  0.12008054538E+02 -0.22774213481E+00  0.36606050154E+01  0.17165979515E+03  0.17120000000E+03 0.  0.
        998    1    1    2    0    0 -0.44531151492E+01 -0.11397624082E+02  0.14670474552E+04  0.14671325679E+04  0.10000000000E+02 0.  1.
</event>
<event>
 5    1  0.1247473E-008  0.3812958E+03  0.7957747E-01  0.3445536E+00
         13   -1    0    0    0    0  0.00000000000E+00  0.00000000000E+00  0.14999999963E+04  0.15000000000E+04  0.10566000000E+00 0.  1.
        994   -1    0    0    0    0 -0.00000000000E+00 -0.00000000000E+00  0.11368683772E-12  0.17120000000E+03  0.17120000000E+03 0.  0.
         13    1    1    2    0    0  0.31134933827E+00  0.26245674951E+02  0.10054484380E+03  0.10391443197E+03  0.10566000000E+00 0.  1.
        994    1    1    2    0    0 -0.66925313658E+01 -0.11087628097E+02  0.40389847438E+01  0.17173665558E+03  0.17120000000E+03 0.  0.
        998    1    1    2    0    0  0.63811820276E+01 -0.15158046853E+02  0.13954161677E+04  0.13955489125E+04  0.10000000000E+02 0.  1.
</event>
<event>
 5    1  0.1247473E-008  0.3848808E+03  0.7957747E-01  0.3430178E+00
         13   -1    0    0    0    0  0.00000000000E+00  0.00000000000E+00  0.14999999963E+04  0.15000000000E+04  0.10566000000E+00 0. -1.
        994   -1    0    0    0    0 -0.00000000000E+00 -0.00000000000E+00  0.11368683772E-12  0.17120000000E+03  0.17120000000E+03 0.  0.
         13    1    1    2    0    0  0.10163958557E+02  0.30703918930E+01  0.34705515323E+02  0.36293488642E+02  0.10566000000E+00 0. -1.
        994    1    1    2    0    0  0.33153346498E+01 -0.13098373575E+01  0.17311180477E+01  0.17124585802E+03  0.17120000000E+03 0.  0.
        998    1    1    2    0    0 -0.13479293206E+02 -0.17605545354E+01  0.14635633629E+04  0.14636606533E+04  0.10000000000E+02 0. -1.
</event>
<event>
 5    1  0.1247473E-008  0.4466268E+03  0.7957747E-01  0.3204098E+00
         13   -1    0    0    0    0  0.00000000000E+00  0.00000000000E+00  0.14999999963E+04  0.15000000000E+04  0.10566000000E+00 0.  1.
        994   -1    0    0    0    0 -0.00000000000E+00 -0.00000000000E+00  0.11368683772E-12  0.17120000000E+03  0.17120000000E+03 0.  0.
         13    1    1    2    0    0  0.11881998681E+03  0.73481042673E+02  0.14973635211E+03  0.20478925559E+03  0.10566000000E+00 0.  1.
        994    1    1    2    0    0 -0.90365412507E+02 -0.59765799732E+02  0.11953433597E+03  0.23523553318E+03  0.17120000000E+03 0.  0.
        998    1    1    2    0    0 -0.28454574299E+02 -0.13715242942E+02  0.12307293082E+04  0.12311752112E+04  0.10000000000E+02 0.  1.
</event>
<event>
 5    1  0.1247473E-008  0.3846687E+03  0.7957747E-01  0.3431078E+00
         13   -1    0    0    0    0  0.00000000000E+00  0.00000000000E+00  0.14999999963E+04  0.15000000000E+04  0.10566000000E+00 0.  1.
        994   -1    0    0    0    0 -0.00000000000E+00 -0.00000000000E+00  0.11368683772E-12  0.17120000000E+03  0.17120000000E+03 0.  0.
         13    1    1    2    0    0  0.14216321846E+02 -0.65775118686E+01  0.66106254409E+02  0.67936849392E+02  0.10566000000E+00 0.  1.
        994    1    1    2    0    0 -0.10157635073E+02  0.15005538877E+02  0.28764093337E+01  0.17218030514E+03  0.17120000000E+03 0.  0.
        998    1    1    2    0    0 -0.40586867735E+01 -0.84280270085E+01  0.14310173325E+04  0.14310828455E+04  0.10000000000E+02 0.  1.
</event>
<event>
 5    1  0.1247473E-008  0.3860036E+03  0.7957747E-01  0.3425427E+00
         13   -1    0    0    0    0  0.00000000000E+00  0.00000000000E+00  0.14999999963E+04  0.15000000000E+04  0.10566000000E+00 0.  1.
        994   -1    0    0    0    0 -0.00000000000E+00 -0.00000000000E+00  0.11368683772E-12  0.17120000000E+03  0.17120000000E+03 0.  0.
         13    1    1    2    0    0  0.95930296357E+01  0.55370806064E+01  0.52670781560E+02  0.53822930740E+02  0.10566000000E+00 0.  1.
        994    1    1    2    0    0 -0.10340057685E+02 -0.87310033151E+01  0.17332601012E+01  0.17174280597E+03  0.17120000000E+03 0.  0.
        998    1    1    2    0    0  0.74702804886E+00  0.31939227088E+01  0.14455959546E+04  0.14456342633E+04  0.10000000000E+02 0.  1.
</event>
<event>
 5    1  0.1247473E-008  0.3875765E+03  0.7957747E-01  0.3418818E+00
         13   -1    0    0    0    0  0.00000000000E+00  0.00000000000E+00  0.14999999963E+04  0.15000000000E+04  0.10566000000E+00 0. -1.
        994   -1    0    0    0    0 -0.00000000000E+00 -0.00000000000E+00  0.11368683772E-12  0.17120000000E+03  0.17120000000E+03 0.  0.
         13    1    1    2    0    0  0.16852852902E+02 -0.84440345648E+01 -0.55449629900E+00  0.18858393380E+02  0.10566000000E+00 0. -1.
        994    1    1    2    0    0 -0.13126591702E+02  0.13578439735E+02  0.21883488157E+02  0.17362317959E+03  0.17120000000E+03 0.  0.
        998    1    1    2    0    0 -0.37262611998E+01 -0.51344051703E+01  0.14786710044E+04  0.14787184270E+04  0.10000000000E+02 0. -1.
</event>
<event>
 5    1  0.1247473E-008  0.3695324E+03  0.7957747E-01  0.3498043E+00
         13   -1    0    0    0    0  0.00000000000E+00  0.00000000000E+00  0.14999999963E+04  0.15000000000E+04  0.10566000000E+00 0. -1.
        994   -1    0    0    0    0 -0.00000000000E+00 -0.00000000000E+00  0.11368683772E-12  0.17120000000E+03  0.17120000000E+03 0.  0.
         13    1    1    2    0    0 -0.43304683846E+02  0.37333079868E+01  0.97537045269E+02  0.10678351743E+03  0.10566000000E+00 0. -1.
        994    1    1    2    0    0  0.20467945479E+02 -0.29905691820E+02  0.14075579532E+02  0.17555867718E+03  0.17120000000E+03 0.  0.
        998    1    1    2    0    0  0.22836738367E+02  0.26172383833E+02  0.13883873715E+04  0.13888578054E+04  0.10000000000E+02 0. -1.
</event>
<event>
 5    1  0.1247473E-008  0.3831680E+03  0.7957747E-01  0.3437479E+00
         13   -1    0    0    0    0  0.00000000000E+00  0.00000000000E+00  0.14999999963E+04  0.15000000000E+04  0.10566000000E+00 0.  1.
        994   -1    0    0    0    0 -0.00000000000E+00 -0.00000000000E+00  0.11368683772E-12  0.17120000000E+03  0.17120000000E+03 0.  0.
         13    1    1    2    0    0  0.83193935361E+01 -0.16145818817E+02  0.64033230335E+02  0.66559488619E+02  0.10566000000E+00 0.  1.
        994    1    1    2    0    0 -0.52201494395E+01  0.10992292835E+02  0.30324869592E+01  0.17165872084E+03  0.17120000000E+03 0.  0.
        998    1    1    2    0    0 -0.30992440965E+01  0.51535259817E+01  0.14329342790E+04  0.14329817905E+04  0.10000000000E+02 0.  1.
</event>
<event>
 5    1  0.1479684E-008  0.3859291E+03  0.7957747E-01  0.3425741E+00
         13   -1    0    0    0    0  0.00000000000E+00  0.00000000000E+00  0.14999999963E+04  0.15000000000E+04  0.10566000000E+00 0. -1.
        994   -1    0    0    0    0 -0.00000000000E+00 -0.00000000000E+00  0.11368683772E-12  0.17120000000E+03  0.17120000000E+03 0.  0.
         13    1    1    2    0    0  0.12591160302E+02  0.35734205599E+00  0.68881180144E+02  0.70023518571E+02  0.10566000000E+00 0. -1.
        994    1    1    2    0    0 -0.76523088676E+01 -0.31643012321E+01  0.13944112378E+01  0.17140581967E+03  0.17120000000E+03 0.  0.
        998    1    1    2    0    0 -0.49388514347E+01  0.28069591761E+01  0.14297244049E+04  0.14297706618E+04  0.10000000000E+02 0. -1.
</event>
<event>
 5    1  0.1247473E-008  0.3761382E+03  0.7957747E-01  0.3468148E+00
         13   -1    0    0    0    0  0.00000000000E+00  0.00000000000E+00  0.14999999963E+04  0.15000000000E+04  0.10566000000E+00 0. -1.
        994   -1    0    0    0    0 -0.00000000000E+00 -0.00000000000E+00  0.11368683772E-12  0.17120000000E+03  0.17120000000E+03 0.  0.
         13    1    1    2    0    0  0.18172872354E+02 -0.17454130686E+02  0.49528320851E+02  0.55569467317E+02  0.10566000000E+00 0. -1.
        994    1    1    2    0    0 -0.87969000043E+01  0.16356252749E+02  0.72641983359E+01  0.17235753836E+03  0.17120000000E+03 0.  0.
        998    1    1    2    0    0 -0.93759723494E+01  0.10978779378E+01  0.14432074771E+04  0.14432729943E+04  0.10000000000E+02 0. -1.
</event>
<event>
 5    1  0.1247473E-008  0.3798770E+03  0.7957747E-01  0.3451694E+00
         13   -1    0    0    0    0  0.00000000000E+00  0.00000000000E+00  0.14999999963E+04  0.15000000000E+04  0.10566000000E+00 0. -1.
        994   -1    0    0    0    0 -0.00000000000E+00 -0.00000000000E+00  0.11368683772E-12  0.17120000000E+03  0.17120000000E+03 0.  0.
         13    1    1    2    0    0  0.35663355670E+01  0.39411602891E+02  0.16854611791E+03  0.17312942620E+03  0.10566000000E+00 0. -1.
        994    1    1    2    0    0 -0.10489818489E+02 -0.36605994473E+02  0.90598556534E+01  0.17561764179E+03  0.17120000000E+03 0.  0.
        998    1    1    2    0    0  0.69234829221E+01 -0.28056084176E+01  0.13223940227E+04  0.13224529320E+04  0.10000000000E+02 0. -1.
</event>
<event>
 5    1  0.1247473E-008  0.3803894E+03  0.7957747E-01  0.3449465E+00
         13   -1    0    0    0    0  0.00000000000E+00  0.00000000000E+00  0.14999999963E+04  0.15000000000E+04  0.10566000000E+00 0.  1.
        994   -1    0    0    0    0 -0.00000000000E+00 -0.00000000000E+00  0.11368683772E-12  0.17120000000E+03  0.17120000000E+03 0.  0.
         13    1    1    2    0    0 -0.44980373757E+02  0.21507786855E+01  0.22469912879E+03  0.22916712136E+03  0.10566000000E+00 0.  1.
        994    1    1    2    0    0  0.42299527879E+02 -0.43164912580E+01  0.99962284909E+01  0.17668403080E+03  0.17120000000E+03 0.  0.
        998    1    1    2    0    0  0.26808458786E+01  0.21657125725E+01  0.12653046390E+04  0.12653488478E+04  0.10000000000E+02 0.  0.
</event>
<event>
 5    1  0.1247473E-008  0.3776996E+03  0.7957747E-01  0.3461236E+00
         13   -1    0    0    0    0  0.00000000000E+00  0.00000000000E+00  0.14999999963E+04  0.15000000000E+04  0.10566000000E+00 0. -1.
        994   -1    0    0    0    0 -0.00000000000E+00 -0.00000000000E+00  0.11368683772E-12  0.17120000000E+03  0.17120000000E+03 0.  0.
         13    1    1    2    0    0  0.40143905485E+01  0.64947306573E+02  0.30281137322E+03  0.30972408185E+03  0.10566000000E+00 0. -1.
        994    1    1    2    0    0  0.12200438054E+02 -0.72205852799E+02  0.23581110191E+02  0.18769135469E+03  0.17120000000E+03 0.  0.
        998    1    1    2    0    0 -0.16214828602E+02  0.72585462253E+01  0.11736075129E+04  0.11737845635E+04  0.10000000000E+02 0. -1.
</event>
<event>
 5    1  0.1247473E-008  0.3768218E+03  0.7957747E-01  0.3465115E+00
         13   -1    0    0    0    0  0.00000000000E+00  0.00000000000E+00  0.14999999963E+04  0.15000000000E+04  0.10566000000E+00 0.  1.
        994   -1    0    0    0    0 -0.00000000000E+00 -0.00000000000E+00  0.11368683772E-12  0.17120000000E+03  0.17120000000E+03 0.  0.
         13    1    1    2    0    0  0.94176275301E+01  0.21467374584E+02  0.46888235152E+02  0.52421919457E+02  0.10566000000E+00 0.  1.
        994    1    1    2    0    0  0.52696557346E+01 -0.96108718700E+01  0.61521352148E+01  0.17166079022E+03  0.17120000000E+03 0.  0.
        998    1    1    2    0    0 -0.14687283265E+02 -0.11856502714E+02  0.14469596259E+04  0.14471172903E+04  0.10000000000E+02 0.  1.
</event>
<event>
 5    1  0.1247473E-008  0.3700381E+03  0.7957747E-01  0.3495716E+00
         13   -1    0    0    0    0  0.00000000000E+00  0.00000000000E+00  0.14999999963E+04  0.15000000000E+04  0.10566000000E+00 0.  1.
        994   -1    0    0    0    0 -0.00000000000E+00 -0.00000000000E+00  0.11368683772E-12  0.17120000000E+03  0.17120000000E+03 0.  0.
         13    1    1    2    0    0 -0.52687674881E+02 -0.17202654624E+02  0.15846357143E+03  0.16787685083E+03  0.10566000000E+00 0.  1.
        994    1    1    2    0    0  0.44561560751E+02 -0.89986978118E+01  0.16428255241E+02  0.17789332992E+03  0.17120000000E+03 0.  0.
        998    1    1    2    0    0  0.81261141301E+01  0.26201352436E+02  0.13251081696E+04  0.13254298193E+04  0.10000000000E+02 0.  1.
</event>
<event>
 5    1  0.1247473E-008  0.3847647E+03  0.7957747E-01  0.3430671E+00
         13   -1    0    0    0    0  0.00000000000E+00  0.00000000000E+00  0.14999999963E+04  0.15000000000E+04  0.10566000000E+00 0.  1.
        994   -1    0    0    0    0 -0.00000000000E+00 -0.00000000000E+00  0.11368683772E-12  0.17120000000E+03  0.17120000000E+03 0.  0.
         13    1    1    2    0    0  0.92249047154E+01  0.66637029951E+01  0.37128707580E+02  0.38833695359E+02  0.10566000000E+00 0.  1.
        994    1    1    2    0    0 -0.18861421970E+02  0.15484374807E+02  0.37094241040E+01  0.17297028337E+03  0.17120000000E+03 0.  0.
        998    1    1    2    0    0  0.96365172550E+01 -0.22148077803E+02  0.14591618646E+04  0.14593960213E+04  0.10000000000E+02 0.  1.
</event>
<event>
 5    1  0.1247473E-008  0.3749645E+03  0.7957747E-01  0.3473382E+00
         13   -1    0    0    0    0  0.00000000000E+00  0.00000000000E+00  0.14999999963E+04  0.15000000000E+04  0.10566000000E+00 0.  1.
        994   -1    0    0    0    0 -0.00000000000E+00 -0.00000000000E+00  0.11368683772E-12  0.17120000000E+03  0.17120000000E+03 0.  0.
         13    1    1    2    0    0 -0.18088427674E+03  0.68589818262E+02  0.93359729820E+03  0.95342939492E+03  0.10566000000E+00 0.  1.
        994    1    1    2    0    0  0.18590324242E+03 -0.45702755937E+02  0.14368287111E+03  0.29428381691E+03  0.17120000000E+03 0.  0.
        998    1    1    2    0    0 -0.50189656825E+01 -0.22887062325E+02  0.42271982697E+03  0.42348678817E+03  0.10000000000E+02 0. -1.
</event>
<event>
 5    1  0.1247473E-008  0.3858194E+03  0.7957747E-01  0.3426204E+00
         13   -1    0    0    0    0  0.00000000000E+00  0.00000000000E+00  0.14999999963E+04  0.15000000000E+04  0.10566000000E+00 0. -1.
        994   -1    0    0    0    0 -0.00000000000E+00 -0.00000000000E+00  0.11368683772E-12  0.17120000000E+03  0.17120000000E+03 0.  0.
         13    1    1    2    0    0 -0.65232239901E+00  0.13154351859E+02  0.67245075691E+02  0.68522798148E+02  0.10566000000E+00 0. -1.
        994    1    1    2    0    0 -0.91132382651E+00 -0.17202574440E+02  0.21978079951E+01  0.17207855601E+03  0.17120000000E+03 0.  0.
        998    1    1    2    0    0  0.15636462255E+01  0.40482225811E+01  0.14305571126E+04  0.14305986458E+04  0.10000000000E+02 0. -1.
</event>
<event>
 5    1  0.1247473E-008  0.3784510E+03  0.7957747E-01  0.3457931E+00
         13   -1    0    0    0    0  0.00000000000E+00  0.00000000000E+00  0.14999999963E+04  0.15000000000E+04  0.10566000000E+00 0. -1.
        994   -1    0    0    0    0 -0.00000000000E+00 -0.00000000000E+00  0.11368683772E-12  0.17120000000E+03  0.17120000000E+03 0.  0.
         13    1    1    2    0    0 -0.54325460017E+01 -0.31109097766E+02  0.13220621646E+03  0.13592565378E+03  0.10566000000E+00 0. -1.
        994    1    1    2    0    0  0.67220426967E+00 -0.30827895407E+02  0.81185464090E+01  0.17414408342E+03  0.17120000000E+03 0.  0.
        998    1    1    2    0    0  0.47603417320E+01  0.61936993173E+02  0.13596752334E+04  0.13611302628E+04  0.10000000000E+02 0. -1.
</event>
<event>
 5    1  0.1247473E-008  0.3762465E+03  0.7957747E-01  0.3467667E+00
         13   -1    0    0    0    0  0.00000000000E+00  0.00000000000E+00  0.14999999963E+04  0.15000000000E+04  0.10566000000E+00 0. -1.
        994   -1    0    0    0    0 -0.00000000000E+00 -0.00000000000E+00  0.11368683772E-12  0.17120000000E+03  0.17120000000E+03 0.  0.
         13    1    1    2    0    0 -0.20187576492E+02  0.14938812292E+02  0.47947557970E+02  0.54126572371E+02  0.10566000000E+00 0. -1.
        994    1    1    2    0    0  0.41053508508E+02  0.75111524270E+01  0.11958812334E+02  0.17661897170E+03  0.17120000000E+03 0.  0.
        998    1    1    2    0    0 -0.20865932016E+02 -0.22449964719E+02  0.14400936260E+04  0.14404544559E+04  0.10000000000E+02 0. -1.
</event>
<event>
 5    1  0.1247473E-008  0.3750041E+03  0.7957747E-01  0.3473204E+00
         13   -1    0    0    0    0  0.00000000000E+00  0.00000000000E+00  0.14999999963E+04  0.15000000000E+04  0.10566000000E+00 0.  1.
        994   -1    0    0    0    0 -0.00000000000E+00 -0.00000000000E+00  0.11368683772E-12  0.17120000000E+03  0.17120000000E+03 0.  0.
         13    1    1    2    0    0 -0.12786058955E+02 -0.10088621408E+02  0.34167920022E+01  0.16641791284E+02  0.10566000000E+00 0.  1.
        994    1    1    2    0    0 -0.14120927157E+02  0.48430801559E+02  0.22721508741E+02  0.17991845398E+03  0.17120000000E+03 0.  0.
        998    1    1    2    0    0  0.26906986112E+02 -0.38342180151E+02  0.14738616955E+04  0.14746397547E+04  0.10000000000E+02 0.  1.
</event>
<event>
 5    1  0.1247473E-008  0.3814927E+03  0.7957747E-01  0.3444685E+00
         13   -1    0    0    0    0  0.00000000000E+00  0.00000000000E+00  0.14999999963E+04  0.15000000000E+04  0.10566000000E+00 0. -1.
        994   -1    0    0    0    0 -0.00000000000E+00 -0.00000000000E+00  0.11368683772E-12  0.17120000000E+03  0.17120000000E+03 0.  0.
         13    1    1    2    0    0 -0.33031003850E+01  0.99588985384E+01  0.14632239581E+02  0.18005658317E+02  0.10566000000E+00 0. -1.
        994    1    1    2    0    0 -0.52351687727E+01 -0.15899063485E+02  0.43141449124E+01  0.17207044795E+03  0.17120000000E+03 0.  0.
        998    1    1    2    0    0  0.85382691577E+01  0.59401649470E+01  0.14810536118E+04  0.14811238937E+04  0.10000000000E+02 0. -1.
</event>
<event>
 5    1  0.1247473E-008  0.3723771E+03  0.7957747E-01  0.3485037E+00
         13   -1    0    0    0    0  0.00000000000E+00  0.00000000000E+00  0.14999999963E+04  0.15000000000E+04  0.10566000000E+00 0.  1.
        994   -1    0    0    0    0 -0.00000000000E+00 -0.00000000000E+00  0.11368683772E-12  0.17120000000E+03  0.17120000000E+03 0.  0.
         13    1    1    2    0    0  0.42220290817E+02  0.10831214351E+03  0.58529611974E+03  0.59672911135E+03  0.10566000000E+00 0.  1.
        994    1    1    2    0    0 -0.12803091452E+02 -0.61519307744E+02  0.26254657326E+02  0.18424790747E+03  0.17120000000E+03 0.  0.
        998    1    1    2    0    0 -0.29417199365E+02 -0.46792835764E+02  0.88844921922E+03  0.89022298118E+03  0.10000000000E+02 0.  1.
</event>
<event>
 5    1  0.1247473E-008  0.3835306E+03  0.7957747E-01  0.3435928E+00
         13   -1    0    0    0    0  0.00000000000E+00  0.00000000000E+00  0.14999999963E+04  0.15000000000E+04  0.10566000000E+00 0.  1.
        994   -1    0    0    0    0 -0.00000000000E+00 -0.00000000000E+00  0.11368683772E-12  0.17120000000E+03  0.17120000000E+03 0.  0.
         13    1    1    2    0    0 -0.10806351744E+02 -0.31332483387E+01  0.25685996000E+02  0.28042397147E+02  0.10566000000E+00 0.  1.
        994    1    1    2    0    0  0.10299710862E+02  0.59928506420E+01  0.28308013355E+01  0.17163755923E+03  0.17120000000E+03 0.  0.
        998    1    1    2    0    0  0.50664088253E+00 -0.28596023033E+01  0.14714831989E+04  0.14715200436E+04  0.10000000000E+02 0.  1.
</event>
<event>
 5    1  0.1247473E-008  0.4075862E+03  0.7957747E-01  0.3339188E+00
         13   -1    0    0    0    0  0.00000000000E+00  0.00000000000E+00  0.14999999963E+04  0.15000000000E+04  0.10566000000E+00 0. -1.
        994   -1    0    0    0    0 -0.00000000000E+00 -0.00000000000E+00  0.11368683772E-12  0.17120000000E+03  0.17120000000E+03 0.  0.
         13    1    1    2    0    0  0.28487491449E+02  0.66935878325E+02  0.75294525681E+02  0.10469587259E+03  0.10566000000E+00 0. -1.
        994    1    1    2    0    0 -0.48370502952E+02 -0.17554318448E+02  0.43166701338E+02  0.18390395253E+03  0.17120000000E+03 0.  0.
        998    1    1    2    0    0  0.19883011503E+02 -0.49381559877E+02  0.13815387693E+04  0.13826001749E+04  0.10000000000E+02 0. -1.
</event>
<event>
 5    1  0.1354546E-008  0.3852960E+03  0.7957747E-01  0.3428418E+00
         13   -1    0    0    0    0  0.00000000000E+00  0.00000000000E+00  0.14999999963E+04  0.15000000000E+04  0.10566000000E+00 0.  1.
        994   -1    0    0    0    0 -0.00000000000E+00 -0.00000000000E+00  0.11368683772E-12  0.17120000000E+03  0.17120000000E+03 0.  0.
         13    1    1    2    0    0  0.18890121647E+01  0.15249420505E+02  0.74115700382E+02  0.75691884637E+02  0.10566000000E+00 0.  1.
        994    1    1    2    0    0 -0.42960460902E+01 -0.20343834276E+02  0.29049537099E+01  0.17248248132E+03  0.17120000000E+03 0.  0.
        998    1    1    2    0    0  0.24070339255E+01  0.50944137716E+01  0.14229793422E+04  0.14230256340E+04  0.10000000000E+02 0.  1.
</event>
<event>
 5    1  0.1247473E-008  0.3762520E+03  0.7957747E-01  0.3467642E+00
         13   -1    0    0    0    0  0.00000000000E+00  0.00000000000E+00  0.14999999963E+04  0.15000000000E+04  0.10566000000E+00 0. -1.
        994   -1    0    0    0    0 -0.00000000000E+00 -0.00000000000E+00  0.11368683772E-12  0.17120000000E+03  0.17120000000E+03 0.  0.
         13    1    1    2    0    0 -0.58711066711E+01 -0.11681913084E+02  0.11381950711E+02  0.17334847933E+02  0.10566000000E+00 0. -1.
        994    1    1    2    0    0  0.25237953368E+01  0.12923654077E+02  0.66243160176E+01  0.17183338424E+03  0.17120000000E+03 0.  0.
        998    1    1    2    0    0  0.33473113343E+01 -0.12417409927E+01  0.14819937296E+04  0.14820317678E+04  0.10000000000E+02 0. -1.
</event>
<event>
 5    1  0.1247473E-008  0.3855315E+03  0.7957747E-01  0.3427421E+00
         13   -1    0    0    0    0  0.00000000000E+00  0.00000000000E+00  0.14999999963E+04  0.15000000000E+04  0.10566000000E+00 0. -1.
        994   -1    0    0    0    0 -0.00000000000E+00 -0.00000000000E+00  0.11368683772E-12  0.17120000000E+03  0.17120000000E+03 0.  0.
         13    1    1    2    0    0 -0.10035722675E+02  0.20882612632E+02  0.12668944066E+03  0.12879062380E+03  0.10566000000E+00 0. -1.
        994    1    1    2    0    0  0.44038143934E+02 -0.50624170158E+02  0.16289112919E+02  0.18459940391E+03  0.17120000000E+03 0.  0.
        998    1    1    2    0    0 -0.34002421259E+02  0.29741557526E+02  0.13570214427E+04  0.13578099723E+04  0.10000000000E+02 0. -1.
</event>
<event>
 5    1  0.1247473E-008  0.3805680E+03  0.7957747E-01  0.3448689E+00
         13   -1    0    0    0    0  0.00000000000E+00  0.00000000000E+00  0.14999999963E+04  0.15000000000E+04  0.10566000000E+00 0.  1.
        994   -1    0    0    0    0 -0.00000000000E+00 -0.00000000000E+00  0.11368683772E-12  0.17120000000E+03  0.17120000000E+03 0.  0.
         13    1    1    2    0    0  0.13553314774E+02 -0.32900579152E+02  0.18444602069E+03  0.18784697539E+03  0.10566000000E+00 0.  1.
        994    1    1    2    0    0 -0.70724337589E+00  0.44514064488E+01  0.39144947714E+01  0.17130405273E+03  0.17120000000E+03 0.  0.
        998    1    1    2    0    0 -0.12846071398E+02  0.28449172703E+02  0.13116394808E+04  0.13120489719E+04  0.10000000000E+02 0.  1.
</event>
<event>
 5    1  0.1247473E-008  0.3809681E+03  0.7957747E-01  0.3446954E+00
         13   -1    0    0    0    0  0.00000000000E+00  0.00000000000E+00  0.14999999963E+04  0.15000000000E+04  0.10566000000E+00 0. -1.
        994   -1    0    0    0    0 -0.00000000000E+00 -0.00000000000E+00  0.11368683772E-12  0.17120000000E+03  0.17120000000E+03 0.  0.
         13    1    1    2    0    0  0.27693954307E+02  0.44048380065E+02  0.29799191369E+03  0.30250025898E+03  0.10566000000E+00 0. -1.
        994    1    1    2    0    0 -0.18229807066E+02 -0.50804452150E+02  0.13415128054E+02  0.18000784395E+03  0.17120000000E+03 0.  0.
        998    1    1    2    0    0 -0.94641472404E+01  0.67560720855E+01  0.11885929545E+04  0.11886918971E+04  0.10000000000E+02 0. -1.
</event>
<event>
 5    1  0.1247473E-008  0.3758994E+03  0.7957747E-01  0.3469210E+00
         13   -1    0    0    0    0  0.00000000000E+00  0.00000000000E+00  0.14999999963E+04  0.15000000000E+04  0.10566000000E+00 0.  1.
        994   -1    0    0    0    0 -0.00000000000E+00 -0.00000000000E+00  0.11368683772E-12  0.17120000000E+03  0.17120000000E+03 0.  0.
         13    1    1    2    0    0  0.25013714913E+02  0.21968801483E+02  0.91450313909E+02  0.97321555939E+02  0.10566000000E+00 0.  1.
        994    1    1    2    0    0 -0.21944710408E+02  0.11995794417E+02  0.83401510008E+01  0.17321797689E+03  0.17120000000E+03 0.  0.
        998    1    1    2    0    0 -0.30690045056E+01 -0.33964595900E+02  0.14002095314E+04  0.14006604672E+04  0.10000000000E+02 0.  1.
</event>
<event>
 5    1  0.1247473E-008  0.3826535E+03  0.7957747E-01  0.3439685E+00
         13   -1    0    0    0    0  0.00000000000E+00  0.00000000000E+00  0.14999999963E+04  0.15000000000E+04  0.10566000000E+00 0.  1.
        994   -1    0    0    0    0 -0.00000000000E+00 -0.00000000000E+00  0.11368683772E-12  0.17120000000E+03  0.17120000000E+03 0.  0.
         13    1    1    2    0    0  0.13352231248E+02  0.37440489569E+02  0.17993797802E+03  0.18427631274E+03  0.10566000000E+00 0.  1.
        994    1    1    2    0    0 -0.35515617845E+02 -0.73351461947E+02  0.25130612922E+02  0.19126626411E+03  0.17120000000E+03 0.  0.
        998    1    1    2    0    0  0.22163386597E+02  0.35910972378E+02  0.12949314053E+04  0.12956574231E+04  0.10000000000E+02 0.  1.
</event>
<event>
 5    1  0.1247473E-008  0.3818561E+03  0.7957747E-01  0.3443116E+00
         13   -1    0    0    0    0  0.00000000000E+00  0.00000000000E+00  0.14999999963E+04  0.15000000000E+04  0.10566000000E+00 0. -1.
        994   -1    0    0    0    0 -0.00000000000E+00 -0.00000000000E+00  0.11368683772E-12  0.17120000000E+03  0.17120000000E+03 0.  0.
         13    1    1    2    0    0 -0.23032344816E+02 -0.29855605953E+01  0.88198195550E+02  0.91204908541E+02  0.10566000000E+00 0. -1.
        994    1    1    2    0    0  0.14436833668E+02 -0.56672603004E+02  0.14647339450E+02  0.18150534607E+03  0.17120000000E+03 0.  0.
        998    1    1    2    0    0  0.85955111477E+01  0.59658163599E+02  0.13971544613E+04  0.13984897454E+04  0.10000000000E+02 0. -1.
</event>
<event>
 5    1  0.1247473E-008  0.3857814E+03  0.7957747E-01  0.3426365E+00
         13   -1    0    0    0    0  0.00000000000E+00  0.00000000000E+00  0.14999999963E+04  0.15000000000E+04  0.10566000000E+00 0.  1.
        994   -1    0    0    0    0 -0.00000000000E+00 -0.00000000000E+00  0.11368683772E-12  0.17120000000E+03  0.17120000000E+03 0.  0.
         13    1    1    2    0    0  0.14570197903E+02  0.16150597865E+01  0.85060895651E+02  0.86314924654E+02  0.10566000000E+00 0.  1.
        994    1    1    2    0    0 -0.12221984756E+02 -0.36031093466E+01  0.17754618361E+01  0.17168270610E+03  0.17120000000E+03 0.  0.
        998    1    1    2    0    0 -0.23482131463E+01  0.19880495601E+01  0.14131636388E+04  0.14132023692E+04  0.10000000000E+02 0.  1.
</event>
<event>
 5    1  0.1247473E-008  0.3815005E+03  0.7957747E-01  0.3444651E+00
         13   -1    0    0    0    0  0.00000000000E+00  0.00000000000E+00  0.14999999963E+04  0.15000000000E+04  0.10566000000E+00 0. -1.
        994   -1    0    0    0    0 -0.00000000000E+00 -0.00000000000E+00  0.11368683772E-12  0.17120000000E+03  0.17120000000E+03 0.  0.
         13    1    1    2    0    0 -0.10438463139E+02 -0.12695627459E+02  0.45571561588E+02  0.48445008607E+02  0.10566000000E+00 0. -1.
        994    1    1    2    0    0 -0.41891656130E+02 -0.38350832269E+01  0.92866165717E+01  0.17653696487E+03  0.17120000000E+03 0.  0.
        998    1    1    2    0    0  0.52330119268E+02  0.16530710685E+02  0.14451418181E+04  0.14462180265E+04  0.10000000000E+02 0. -1.
</event>
<event>
 5    1  0.1247473E-008  0.3701382E+03  0.7957747E-01  0.3495256E+00
         13   -1    0    0    0    0  0.00000000000E+00  0.00000000000E+00  0.14999999963E+04  0.15000000000E+04  0.10566000000E+00 0.  1.
        994   -1    0    0    0    0 -0.00000000000E+00 -0.00000000000E+00  0.11368683772E-12  0.17120000000E+03  0.17120000000E+03 0.  0.
         13    1    1    2    0    0  0.24957174400E+02 -0.17628673504E+02  0.37303468742E+02  0.48220230483E+02  0.10566000000E+00 0.  1.
        994    1    1    2    0    0 -0.22855306757E+02  0.17279175424E+02  0.13888611495E+02  0.17413577599E+03  0.17120000000E+03 0.  0.
        998    1    1    2    0    0 -0.21018676428E+01  0.34949808059E+00  0.14488079160E+04  0.14488439935E+04  0.10000000000E+02 0.  1.
</event>
<event>
 5    1  0.1247473E-008  0.3785172E+03  0.7957747E-01  0.3457641E+00
         13   -1    0    0    0    0  0.00000000000E+00  0.00000000000E+00  0.14999999963E+04  0.15000000000E+04  0.10566000000E+00 0.  1.
        994   -1    0    0    0    0 -0.00000000000E+00 -0.00000000000E+00  0.11368683772E-12  0.17120000000E+03  0.17120000000E+03 0.  0.
         13    1    1    2    0    0  0.27137394868E+02 -0.29188683534E+02  0.18681888214E+03  0.19102283459E+03  0.10566000000E+00 0.  1.
        994    1    1    2    0    0 -0.45839979912E+01 -0.26361156184E+01  0.49774888283E+01  0.17135395396E+03  0.17120000000E+03 0.  0.
        998    1    1    2    0    0 -0.22553396877E+02  0.31824799153E+02  0.13082036253E+04  0.13088232115E+04  0.10000000000E+02 0.  1.
</event>
<event>
 5    1  0.1247473E-008  0.3845576E+03  0.7957747E-01  0.3431551E+00
         13   -1    0    0    0    0  0.00000000000E+00  0.00000000000E+00  0.14999999963E+04  0.15000000000E+04  0.10566000000E+00 0. -1.
        994   -1    0    0    0    0 -0.00000000000E+00 -0.00000000000E+00  0.11368683772E-12  0.17120000000E+03  0.17120000000E+03 0.  0.
         13    1    1    2    0    0  0.94222211922E-01 -0.18333326872E+02  0.88522457467E+02  0.90401086233E+02  0.10566000000E+00 0. -1.
        994    1    1    2    0    0 -0.65690074612E+01  0.15197225742E+02  0.27532063675E+01  0.17202071874E+03  0.17120000000E+03 0.  0.
        998    1    1    2    0    0  0.64747852493E+01  0.31361011295E+01  0.14087243324E+04  0.14087781950E+04  0.10000000000E+02 0.  1.
</event>
<event>
 5    1  0.1247473E-008  0.3757701E+03  0.7957747E-01  0.3469786E+00
         13   -1    0    0    0    0  0.00000000000E+00  0.00000000000E+00  0.14999999963E+04  0.15000000000E+04  0.10566000000E+00 0. -1.
        994   -1    0    0    0    0 -0.00000000000E+00 -0.00000000000E+00  0.11368683772E-12  0.17120000000E+03  0.17120000000E+03 0.  0.
         13    1    1    2    0    0  0.11718888796E+02  0.46584609566E+02  0.20970377817E+03  0.21513517599E+03  0.10566000000E+00 0. -1.
        994    1    1    2    0    0 -0.35646349020E+02  0.19063362826E+01  0.10616358791E+02  0.17520400506E+03  0.17120000000E+03 0.  0.
        998    1    1    2    0    0  0.23927460224E+02 -0.48490945849E+02  0.12796798593E+04  0.12808608189E+04  0.10000000000E+02 0. -1.
</event>
<event>
 5    1  0.1247473E-008  0.3848014E+03  0.7957747E-01  0.3430515E+00
         13   -1    0    0    0    0  0.00000000000E+00  0.00000000000E+00  0.14999999963E+04  0.15000000000E+04  0.10566000000E+00 0. -1.
        994   -1    0    0    0    0 -0.00000000000E+00 -0.00000000000E+00  0.11368683772E-12  0.17120000000E+03  0.17120000000E+03 0.  0.
         13    1    1    2    0    0  0.79715792921E+01 -0.14344462459E+02  0.73524748533E+02  0.75333986291E+02  0.10566000000E+00 0. -1.
        994    1    1    2    0    0 -0.12508381848E+02  0.15309809936E+02  0.30160258941E+01  0.17236410969E+03  0.17120000000E+03 0.  0.
        998    1    1    2    0    0  0.45368025563E+01 -0.96534747722E+00  0.14234592219E+04  0.14235019040E+04  0.10000000000E+02 0. -1.
</event>
<event>
 5    1  0.1247473E-008  0.3780937E+03  0.7957747E-01  0.3459501E+00
         13   -1    0    0    0    0  0.00000000000E+00  0.00000000000E+00  0.14999999963E+04  0.15000000000E+04  0.10566000000E+00 0.  1.
        994   -1    0    0    0    0 -0.00000000000E+00 -0.00000000000E+00  0.11368683772E-12  0.17120000000E+03  0.17120000000E+03 0.  0.
         13    1    1    2    0    0 -0.25887378101E+02  0.48328711865E+02  0.25168899388E+03  0.25759111308E+03  0.10566000000E+00 0.  1.
        994    1    1    2    0    0  0.14678665658E+02 -0.50914643440E+02  0.14602972384E+02  0.17980670439E+03  0.17120000000E+03 0.  0.
        998    1    1    2    0    0  0.11208712443E+02  0.25859315744E+01  0.12337080300E+04  0.12338021825E+04  0.10000000000E+02 0.  1.
</event>
<event>
 5    1  0.1247473E-008  0.3829870E+03  0.7957747E-01  0.3438255E+00
         13   -1    0    0    0    0  0.00000000000E+00  0.00000000000E+00  0.14999999963E+04  0.15000000000E+04  0.10566000000E+00 0. -1.
        994   -1    0    0    0    0 -0.00000000000E+00 -0.00000000000E+00  0.11368683772E-12  0.17120000000E+03  0.17120000000E+03 0.  0.
         13    1    1    2    0    0 -0.23715708179E+02 -0.23929024179E+02  0.18446747873E+03  0.18751878542E+03  0.10566000000E+00 0. -1.
        994    1    1    2    0    0  0.21043861265E+02  0.32354735649E+02  0.75797675555E+01  0.17566037086E+03  0.17120000000E+03 0.  0.
        998    1    1    2    0    0  0.26718469136E+01 -0.84257114703E+01  0.13079527500E+04  0.13080208437E+04  0.10000000000E+02 0. -1.
</event>
<event>
 5    1  0.1247473E-008  0.3747062E+03  0.7957747E-01  0.3474538E+00
         13   -1    0    0    0    0  0.00000000000E+00  0.00000000000E+00  0.14999999963E+04  0.15000000000E+04  0.10566000000E+00 0. -1.
        994   -1    0    0    0    0 -0.00000000000E+00 -0.00000000000E+00  0.11368683772E-12  0.17120000000E+03  0.17120000000E+03 0.  0.
         13    1    1    2    0    0  0.22998726804E+02 -0.93896136244E+01  0.17533950656E+02  0.30406526738E+02  0.10566000000E+00 0. -1.
        994    1    1    2    0    0 -0.11199687387E+02  0.25561988118E+01  0.13918488424E+02  0.17214857382E+03  0.17120000000E+03 0.  0.
        998    1    1    2    0    0 -0.11799039418E+02  0.68334148126E+01  0.14685475572E+04  0.14686448994E+04  0.10000000000E+02 0. -1.
</event>
<event>
 5    1  0.1247473E-008  0.3733203E+03  0.7957747E-01  0.3480769E+00
         13   -1    0    0    0    0  0.00000000000E+00  0.00000000000E+00  0.14999999963E+04  0.15000000000E+04  0.10566000000E+00 0. -1.
        994   -1    0    0    0    0 -0.00000000000E+00 -0.00000000000E+00  0.11368683772E-12  0.17120000000E+03  0.17120000000E+03 0.  0.
         13    1    1    2    0    0  0.37510943032E+02  0.47418499835E+01  0.10410921571E+03  0.11076233994E+03  0.10566000000E+00 0. -1.
        994    1    1    2    0    0  0.70472927230E+01 -0.50870180727E+01  0.78020952834E+01  0.17159794515E+03  0.17120000000E+03 0.  0.
        998    1    1    2    0    0 -0.44558235755E+02  0.34516808924E+00  0.13880886853E+04  0.13888397149E+04  0.10000000000E+02 0. -1.
</event>
<event>
 5    1  0.1247473E-008  0.3752057E+03  0.7957747E-01  0.3472303E+00
         13   -1    0    0    0    0  0.00000000000E+00  0.00000000000E+00  0.14999999963E+04  0.15000000000E+04  0.10566000000E+00 0. -1.
        994   -1    0    0    0    0 -0.00000000000E+00 -0.00000000000E+00  0.11368683772E-12  0.17120000000E+03  0.17120000000E+03 0.  0.
         13    1    1    2    0    0  0.61724399408E+02 -0.34963104523E+02  0.31013637458E+03  0.31814603905E+03  0.10566000000E+00 0. -1.
        994    1    1    2    0    0 -0.70998193112E+02  0.13531446728E+02  0.24529822813E+02  0.18744331325E+03  0.17120000000E+03 0.  0.
        998    1    1    2    0    0  0.92737937044E+01  0.21431657795E+02  0.11653337989E+04  0.11656106477E+04  0.10000000000E+02 0. -1.
</event>
<event>
 5    1  0.1247473E-008  0.3823999E+03  0.7957747E-01  0.3440775E+00
         13   -1    0    0    0    0  0.00000000000E+00  0.00000000000E+00  0.14999999963E+04  0.15000000000E+04  0.10566000000E+00 0.  1.
        994   -1    0    0    0    0 -0.00000000000E+00 -0.00000000000E+00  0.11368683772E-12  0.17120000000E+03  0.17120000000E+03 0.  0.
         13    1    1    2    0    0 -0.34438513181E+02 -0.12034693152E+02  0.20127096509E+03  0.20455037908E+03  0.10566000000E+00 0.  1.
        994    1    1    2    0    0  0.33881986672E+02  0.91879020569E+01  0.70247592609E+01  0.17490338421E+03  0.17120000000E+03 0.  0.
        998    1    1    2    0    0  0.55652650911E+00  0.28467910947E+01  0.12917042719E+04  0.12917462367E+04  0.10000000000E+02 0.  0.
</event>
<event>
 5    1  0.1247473E-008  0.3785682E+03  0.7957747E-01  0.3457417E+00
         13   -1    0    0    0    0  0.00000000000E+00  0.00000000000E+00  0.14999999963E+04  0.15000000000E+04  0.10566000000E+00 0.  1.
        994   -1    0    0    0    0 -0.00000000000E+00 -0.00000000000E+00  0.11368683772E-12  0.17120000000E+03  0.17120000000E+03 0.  0.
         13    1    1    2    0    0 -0.46649226184E+02  0.22270655305E+02  0.30387274894E+03  0.30823820513E+03  0.10566000000E+00 0.  1.
        994    1    1    2    0    0  0.17686192509E+02 -0.38899274194E+01  0.59599056463E+01  0.17225821727E+03  0.17120000000E+03 0.  0.
        998    1    1    2    0    0  0.28963033675E+02 -0.18380727886E+02  0.11901673417E+04  0.11907035776E+04  0.10000000000E+02 0.  1.
</event>
<event>
 5    1  0.1247473E-008  0.3783101E+03  0.7957747E-01  0.3458550E+00
         13   -1    0    0    0    0  0.00000000000E+00  0.00000000000E+00  0.14999999963E+04  0.15000000000E+04  0.10566000000E+00 0.  1.
        994   -1    0    0    0    0 -0.00000000000E+00 -0.00000000000E+00  0.11368683772E-12  0.17120000000E+03  0.17120000000E+03 0.  0.
         13    1    1    2    0    0 -0.17052177316E+03 -0.18878598468E+02  0.90965012119E+03  0.92568754488E+03  0.10566000000E+00 0.  1.
        994    1    1    2    0    0  0.17320443346E+03  0.17118755728E+02  0.11468419209E+03  0.26973085008E+03  0.17120000000E+03 0.  0.
        998    1    1    2    0    0 -0.26826602990E+01  0.17598427395E+01  0.47566568300E+03  0.47578160504E+03  0.10000000000E+02 0.  1.
</event>
<event>
 5    1  0.1247473E-008  0.3776065E+03  0.7957747E-01  0.3461647E+00
         13   -1    0    0    0    0  0.00000000000E+00  0.00000000000E+00  0.14999999963E+04  0.15000000000E+04  0.10566000000E+00 0. -1.
        994   -1    0    0    0    0 -0.00000000000E+00 -0.00000000000E+00  0.11368683772E-12  0.17120000000E+03  0.17120000000E+03 0.  0.
         13    1    1    2    0    0  0.43212409490E+02 -0.96635458984E+01  0.16990804738E+03  0.17558317739E+03  0.10566000000E+00 0. -1.
        994    1    1    2    0    0 -0.38493929308E+02 -0.25844591287E+01  0.10378191612E+02  0.17579991150E+03  0.17120000000E+03 0.  0.
        998    1    1    2    0    0 -0.47184801819E+01  0.12248005027E+02  0.13197137573E+04  0.13198169111E+04  0.10000000000E+02 0. -1.
</event>
<event>
 5    1  0.1247473E-008  0.3800169E+03  0.7957747E-01  0.3451085E+00
         13   -1    0    0    0    0  0.00000000000E+00  0.00000000000E+00  0.14999999963E+04  0.15000000000E+04  0.10566000000E+00 0. -1.
        994   -1    0    0    0    0 -0.00000000000E+00 -0.00000000000E+00  0.11368683772E-12  0.17120000000E+03  0.17120000000E+03 0.  0.
         13    1    1    2    0    0 -0.10515532914E+02  0.33596022129E+02  0.16581589990E+03  0.16951163075E+03  0.10566000000E+00 0. -1.
        994    1    1    2    0    0  0.12090345503E+02 -0.13337815100E+01  0.46193432644E+01  0.17169372079E+03  0.17120000000E+03 0.  0.
        998    1    1    2    0    0 -0.15748125894E+01 -0.32262240619E+02  0.13295647531E+04  0.13299946485E+04  0.10000000000E+02 0. -1.
</event>
<event>
 5    1  0.1247473E-008  0.3846518E+03  0.7957747E-01  0.3431150E+00
         13   -1    0    0    0    0  0.00000000000E+00  0.00000000000E+00  0.14999999963E+04  0.15000000000E+04  0.10566000000E+00 0. -1.
        994   -1    0    0    0    0 -0.00000000000E+00 -0.00000000000E+00  0.11368683772E-12  0.17120000000E+03  0.17120000000E+03 0.  0.
         13    1    1    2    0    0  0.10331455043E+02  0.71244867631E+01  0.43367636905E+02  0.45147097024E+02  0.10566000000E+00 0. -1.
        994    1    1    2    0    0 -0.78091099083E+01 -0.39542551930E+01  0.20554163138E+01  0.17143594450E+03  0.17120000000E+03 0.  0.
        998    1    1    2    0    0 -0.25223451349E+01 -0.31702315701E+01  0.14545769431E+04  0.14546169585E+04  0.10000000000E+02 0. -1.
</event>
<event>
 5    1  0.1247473E-008  0.2790379E+03  0.7957747E-01  0.4058055E+00
         13   -1    0    0    0    0  0.00000000000E+00  0.00000000000E+00  0.14999999963E+04  0.15000000000E+04  0.10566000000E+00 0.  1.
        994   -1    0    0    0    0 -0.00000000000E+00 -0.00000000000E+00  0.11368683772E-12  0.17120000000E+03  0.17120000000E+03 0.  0.
         13    1    1    2    0    0 -0.11643176014E+03 -0.13997484947E+03  0.49578117541E+03  0.52815556260E+03  0.10566000000E+00 0.  1.
        994    1    1    2    0    0  0.11749258264E+03  0.13081588153E+03  0.14772515911E+03  0.28644277696E+03  0.17120000000E+03 0.  0.
        998    1    1    2    0    0 -0.10608225022E+01  0.91589679336E+01  0.85649366176E+03  0.85660166044E+03  0.10000000000E+02 0.  0.
</event>
<event>
 5    1  0.1247473E-008  0.3852757E+03  0.7957747E-01  0.3428504E+00
         13   -1    0    0    0    0  0.00000000000E+00  0.00000000000E+00  0.14999999963E+04  0.15000000000E+04  0.10566000000E+00 0.  1.
        994   -1    0    0    0    0 -0.00000000000E+00 -0.00000000000E+00  0.11368683772E-12  0.17120000000E+03  0.17120000000E+03 0.  0.
         13    1    1    2    0    0  0.88224100901E+01 -0.16101614355E+02  0.10691366219E+03  0.10847875014E+03  0.10566000000E+00 0.  1.
        994    1    1    2    0    0 -0.56358845243E+01  0.17939582783E+02  0.26559782081E+01  0.17225006835E+03  0.17120000000E+03 0.  0.
        998    1    1    2    0    0 -0.31865255658E+01 -0.18379684279E+01  0.13904303559E+04  0.13904711815E+04  0.10000000000E+02 0.  1.
</event>
<event>
 5    1  0.1247473E-008  0.3745938E+03  0.7957747E-01  0.3475041E+00
         13   -1    0    0    0    0  0.00000000000E+00  0.00000000000E+00  0.14999999963E+04  0.15000000000E+04  0.10566000000E+00 0.  1.
        994   -1    0    0    0    0 -0.00000000000E+00 -0.00000000000E+00  0.11368683772E-12  0.17120000000E+03  0.17120000000E+03 0.  0.
         13    1    1    2    0    0 -0.78022843680E+01 -0.98589938078E+01  0.86052229603E+01  0.15236023973E+02  0.10566000000E+00 0.  1.
        994    1    1    2    0    0 -0.45457089163E+01 -0.11475937528E+01  0.69622783065E+01  0.17140564098E+03  0.17120000000E+03 0.  0.
        998    1    1    2    0    0  0.12347993284E+02  0.11006587561E+02  0.14844324950E+04  0.14845583350E+04  0.10000000000E+02 0.  1.
</event>
<event>
 5    1  0.1247473E-008  0.3760299E+03  0.7957747E-01  0.3468629E+00
         13   -1    0    0    0    0  0.00000000000E+00  0.00000000000E+00  0.14999999963E+04  0.15000000000E+04  0.10566000000E+00 0.  1.
        994   -1    0    0    0    0 -0.00000000000E+00 -0.00000000000E+00  0.11368683772E-12  0.17120000000E+03  0.17120000000E+03 0.  0.
         13    1    1    2    0    0  0.10738008413E+02  0.24359267278E+02  0.19010761008E+02  0.32712366548E+02  0.10566000000E+00 0.  1.
        994    1    1    2    0    0 -0.13952987972E+02 -0.17111460359E+02  0.15906370366E+02  0.17334918681E+03  0.17120000000E+03 0.  0.
        998    1    1    2    0    0  0.32149795589E+01 -0.72478069191E+01  0.14650828649E+04  0.14651384466E+04  0.10000000000E+02 0.  1.
</event>
<event>
 5    1  0.1247473E-008  0.3834187E+03  0.7957747E-01  0.3436407E+00
         13   -1    0    0    0    0  0.00000000000E+00  0.00000000000E+00  0.14999999963E+04  0.15000000000E+04  0.10566000000E+00 0.  1.
        994   -1    0    0    0    0 -0.00000000000E+00 -0.00000000000E+00  0.11368683772E-12  0.17120000000E+03  0.17120000000E+03 0.  0.
         13    1    1    2    0    0  0.11019147887E+02  0.17920406807E+02  0.81593248971E+02  0.84261687866E+02  0.10566000000E+00 0.  1.
        994    1    1    2    0    0 -0.48015935295E+01 -0.34734020589E+02  0.64921553258E+01  0.17487451377E+03  0.17120000000E+03 0.  0.
        998    1    1    2    0    0 -0.62175543571E+01  0.16813613782E+02  0.14119145920E+04  0.14120637984E+04  0.10000000000E+02 0.  1.
</event>
<event>
 5    1  0.1247473E-008  0.3847918E+03  0.7957747E-01  0.3430556E+00
         13   -1    0    0    0    0  0.00000000000E+00  0.00000000000E+00  0.14999999963E+04  0.15000000000E+04  0.10566000000E+00 0.  1.
        994   -1    0    0    0    0 -0.00000000000E+00 -0.00000000000E+00  0.11368683772E-12  0.17120000000E+03  0.17120000000E+03 0.  0.
         13    1    1    2    0    0  0.40037931790E+01 -0.17262376227E+02  0.89716160098E+02  0.91449551883E+02  0.10566000000E+00 0.  1.
        994    1    1    2    0    0 -0.78579680371E+01  0.11141692128E+02  0.23455256556E+01  0.17175804626E+03  0.17120000000E+03 0.  0.
        998    1    1    2    0    0  0.38541748581E+01  0.61206840990E+01  0.14079383105E+04  0.14079924019E+04  0.10000000000E+02 0.  1.
</event>
<event>
 5    1  0.1247473E-008  0.3782103E+03  0.7957747E-01  0.3458988E+00
         13   -1    0    0    0    0  0.00000000000E+00  0.00000000000E+00  0.14999999963E+04  0.15000000000E+04  0.10566000000E+00 0.  1.
        994   -1    0    0    0    0 -0.00000000000E+00 -0.00000000000E+00  0.11368683772E-12  0.17120000000E+03  0.17120000000E+03 0.  0.
         13    1    1    2    0    0  0.14601248356E+02  0.97063207756E+00  0.18921323767E+02  0.23919996599E+02  0.10566000000E+00 0.  1.
        994    1    1    2    0    0 -0.14308537351E+02  0.44512230227E+01  0.57947754414E+01  0.17195222316E+03  0.17120000000E+03 0.  0.
        998    1    1    2    0    0 -0.29271100552E+00 -0.54218551003E+01  0.14752838971E+04  0.14753277802E+04  0.10000000000E+02 0.  1.
</event>
<event>
 5    1  0.1247473E-008  0.3768139E+03  0.7957747E-01  0.3465150E+00
         13   -1    0    0    0    0  0.00000000000E+00  0.00000000000E+00  0.14999999963E+04  0.15000000000E+04  0.10566000000E+00 0. -1.
        994   -1    0    0    0    0 -0.00000000000E+00 -0.00000000000E+00  0.11368683772E-12  0.17120000000E+03  0.17120000000E+03 0.  0.
         13    1    1    2    0    0  0.10335113775E+02 -0.32081046299E+01  0.75951168514E+01  0.13221326562E+02  0.10566000000E+00 0. -1.
        994    1    1    2    0    0 -0.78199699398E+01 -0.44394943578E+01  0.60234267799E+01  0.17154178124E+03  0.17120000000E+03 0.  0.
        998    1    1    2    0    0 -0.25151438347E+01  0.76475989877E+01  0.14863814526E+04  0.14864368922E+04  0.10000000000E+02 0. -1.
</event>
<event>
 5    1  0.1247473E-008  0.3831384E+03  0.7957747E-01  0.3437606E+00
         13   -1    0    0    0    0  0.00000000000E+00  0.00000000000E+00  0.14999999963E+04  0.15000000000E+04  0.10566000000E+00 0. -1.
        994   -1    0    0    0    0 -0.00000000000E+00 -0.00000000000E+00  0.11368683772E-12  0.17120000000E+03  0.17120000000E+03 0.  0.
         13    1    1    2    0    0  0.61828940783E+01  0.13250202634E+03  0.35788426063E+03  0.38167547777E+03  0.10566000000E+00 0. -1.
        994    1    1    2    0    0  0.91083059644E+00 -0.13092118289E+03  0.83966109510E+02  0.23130268759E+03  0.17120000000E+03 0.  0.
        998    1    1    2    0    0 -0.70937246747E+01 -0.15808434552E+01  0.10581496261E+04  0.10582218346E+04  0.10000000000E+02 0. -1.
</event>
<event>
 5    1  0.1247473E-008  0.3855058E+03  0.7957747E-01  0.3427530E+00
         13   -1    0    0    0    0  0.00000000000E+00  0.00000000000E+00  0.14999999963E+04  0.15000000000E+04  0.10566000000E+00 0. -1.
        994   -1    0    0    0    0 -0.00000000000E+00 -0.00000000000E+00  0.11368683772E-12  0.17120000000E+03  0.17120000000E+03 0.  0.
         13    1    1    2    0    0 -0.20747369293E+01 -0.12403593612E+02  0.54242496495E+02  0.55681354670E+02  0.10566000000E+00 0. -1.
        994    1    1    2    0    0  0.19069334957E+01  0.18051585642E+02  0.24617815787E+01  0.17217722413E+03  0.17120000000E+03 0.  0.
        998    1    1    2    0    0  0.16780343355E+00 -0.56479920297E+01  0.14432957182E+04  0.14433414212E+04  0.10000000000E+02 0. -1.
</event>
<event>
 5    1  0.1247473E-008  0.3858992E+03  0.7957747E-01  0.3425867E+00
         13   -1    0    0    0    0  0.00000000000E+00  0.00000000000E+00  0.14999999963E+04  0.15000000000E+04  0.10566000000E+00 0.  1.
        994   -1    0    0    0    0 -0.00000000000E+00 -0.00000000000E+00  0.11368683772E-12  0.17120000000E+03  0.17120000000E+03 0.  0.
         13    1    1    2    0    0  0.85537353302E+01  0.80465338928E+01  0.56498221478E+02  0.57705920753E+02  0.10566000000E+00 0.  1.
        994    1    1    2    0    0 -0.10687055447E+02 -0.87089196027E+01  0.18078010638E+01  0.17176369401E+03  0.17120000000E+03 0.  0.
        998    1    1    2    0    0  0.21333201166E+01  0.66238570990E+00  0.14416939737E+04  0.14417303852E+04  0.10000000000E+02 0.  1.
</event>
<event>
 5    1  0.1247473E-008  0.3742899E+03  0.7957747E-01  0.3476404E+00
         13   -1    0    0    0    0  0.00000000000E+00  0.00000000000E+00  0.14999999963E+04  0.15000000000E+04  0.10566000000E+00 0. -1.
        994   -1    0    0    0    0 -0.00000000000E+00 -0.00000000000E+00  0.11368683772E-12  0.17120000000E+03  0.17120000000E+03 0.  0.
         13    1    1    2    0    0 -0.17459027978E+02 -0.44481106915E+02  0.20946353072E+03  0.21484498690E+03  0.10566000000E+00 0. -1.
        994    1    1    2    0    0 -0.45973978100E+01 -0.14908036573E+02  0.78735378518E+01  0.17208956453E+03  0.17120000000E+03 0.  0.
        998    1    1    2    0    0  0.22056425788E+02  0.59389143488E+02  0.12826629277E+04  0.12842654486E+04  0.10000000000E+02 0.  1.
</event>
<event>
 5    1  0.1247473E-008  0.3818029E+03  0.7957747E-01  0.3443345E+00
         13   -1    0    0    0    0  0.00000000000E+00  0.00000000000E+00  0.14999999963E+04  0.15000000000E+04  0.10566000000E+00 0.  1.
        994   -1    0    0    0    0 -0.00000000000E+00 -0.00000000000E+00  0.11368683772E-12  0.17120000000E+03  0.17120000000E+03 0.  0.
         13    1    1    2    0    0  0.10151816703E+02 -0.13688012533E+01  0.14835749510E+02  0.18028966326E+02  0.10566000000E+00 0.  1.
        994    1    1    2    0    0 -0.94902700297E+01  0.17894989384E+01  0.35357944718E+01  0.17150862770E+03  0.17120000000E+03 0.  0.
        998    1    1    2    0    0 -0.66154667335E+00 -0.42069768510E+00  0.14816284523E+04  0.14816624060E+04  0.10000000000E+02 0.  1.
</event>
<event>
 5    1  0.1247473E-008  0.3765667E+03  0.7957747E-01  0.3466245E+00
         13   -1    0    0    0    0  0.00000000000E+00  0.00000000000E+00  0.14999999963E+04  0.15000000000E+04  0.10566000000E+00 0. -1.
        994   -1    0    0    0    0 -0.00000000000E+00 -0.00000000000E+00  0.11368683772E-12  0.17120000000E+03  0.17120000000E+03 0.  0.
         13    1    1    2    0    0  0.29534165619E+02  0.14568476818E+01  0.71618869837E+02  0.77483308040E+02  0.10566000000E+00 0. -1.
        994    1    1    2    0    0 -0.21062598292E+02  0.35937177645E+01  0.74216263350E+01  0.17268777719E+03  0.17120000000E+03 0.  0.
        998    1    1    2    0    0 -0.84715673263E+01 -0.50505654462E+01  0.14209595001E+04  0.14210289148E+04  0.10000000000E+02 0. -1.
</event>
<event>
 5    1  0.1247473E-008  0.3852735E+03  0.7957747E-01  0.3428513E+00
         13   -1    0    0    0    0  0.00000000000E+00  0.00000000000E+00  0.14999999963E+04  0.15000000000E+04  0.10566000000E+00 0. -1.
        994   -1    0    0    0    0 -0.00000000000E+00 -0.00000000000E+00  0.11368683772E-12  0.17120000000E+03  0.17120000000E+03 0.  0.
         13    1    1    2    0    0  0.14640041974E+02 -0.23492552883E+01  0.74172994909E+02  0.75640559009E+02  0.10566000000E+00 0. -1.
        994    1    1    2    0    0 -0.80502021858E+01  0.65414903666E+01  0.18480020401E+01  0.17152391076E+03  0.17120000000E+03 0.  0.
        998    1    1    2    0    0 -0.65898397881E+01 -0.41922350783E+01  0.14239789993E+04  0.14240355302E+04  0.10000000000E+02 0. -1.
</event>
<event>
 5    1  0.1247473E-008  0.3705210E+03  0.7957747E-01  0.3493500E+00
         13   -1    0    0    0    0  0.00000000000E+00  0.00000000000E+00  0.14999999963E+04  0.15000000000E+04  0.10566000000E+00 0.  1.
        994   -1    0    0    0    0 -0.00000000000E+00 -0.00000000000E+00  0.11368683772E-12  0.17120000000E+03  0.17120000000E+03 0.  0.
         13    1    1    2    0    0  0.21852960411E+02 -0.20204811828E+02  0.50629854956E+02  0.58729717151E+02  0.10566000000E+00 0.  1.
        994    1    1    2    0    0  0.56171330780E+02  0.36410563196E+02  0.24625526762E+02  0.18546375409E+03  0.17120000000E+03 0.  0.
        998    1    1    2    0    0 -0.78024291191E+02 -0.16205751368E+02  0.14247446146E+04  0.14270065288E+04  0.10000000000E+02 0.  1.
</event>
<event>
 5    1  0.1247473E-008  0.3810486E+03  0.7957747E-01  0.3446606E+00
         13   -1    0    0    0    0  0.00000000000E+00  0.00000000000E+00  0.14999999963E+04  0.15000000000E+04  0.10566000000E+00 0. -1.
        994   -1    0    0    0    0 -0.00000000000E+00 -0.00000000000E+00  0.11368683772E-12  0.17120000000E+03  0.17120000000E+03 0.  0.
         13    1    1    2    0    0 -0.16411118909E+02 -0.34402937581E+02  0.19533470265E+03  0.19901895427E+03  0.10566000000E+00 0. -1.
        994    1    1    2    0    0  0.62874251372E+01  0.25094022795E+02  0.58374580368E+01  0.17324190489E+03  0.17120000000E+03 0.  0.
        998    1    1    2    0    0  0.10123693772E+02  0.93089147863E+01  0.12988278356E+04  0.12989391408E+04  0.10000000000E+02 0. -1.
</event>
<event>
 5    1  0.1247473E-008  0.3912436E+03  0.7957747E-01  0.3403617E+00
         13   -1    0    0    0    0  0.00000000000E+00  0.00000000000E+00  0.14999999963E+04  0.15000000000E+04  0.10566000000E+00 0.  1.
        994   -1    0    0    0    0 -0.00000000000E+00 -0.00000000000E+00  0.11368683772E-12  0.17120000000E+03  0.17120000000E+03 0.  0.
         13    1    1    2    0    0 -0.14050343408E+03 -0.18496252433E+02  0.33963571592E+03  0.36801597388E+03  0.10566000000E+00 0.  1.
        994    1    1    2    0    0  0.13495539690E+03  0.67450054424E-01  0.95330129338E+02  0.23792905930E+03  0.17120000000E+03 0.  0.
        998    1    1    2    0    0  0.55480371785E+01  0.18428802379E+02  0.10650341510E+04  0.10652549668E+04  0.10000000000E+02 0.  1.
</event>
<event>
 5    1  0.1247473E-008  0.3827109E+03  0.7957747E-01  0.3439439E+00
         13   -1    0    0    0    0  0.00000000000E+00  0.00000000000E+00  0.14999999963E+04  0.15000000000E+04  0.10566000000E+00 0.  1.
        994   -1    0    0    0    0 -0.00000000000E+00 -0.00000000000E+00  0.11368683772E-12  0.17120000000E+03  0.17120000000E+03 0.  0.
         13    1    1    2    0    0  0.31815586233E+01  0.16155252543E+02  0.48813524668E+02  0.51515879635E+02  0.10566000000E+00 0.  1.
        994    1    1    2    0    0 -0.42723418163E+01 -0.65378423469E+01  0.29730568603E+01  0.17140383705E+03  0.17120000000E+03 0.  0.
        998    1    1    2    0    0  0.10907831930E+01 -0.96174101963E+01  0.14482134147E+04  0.14482802833E+04  0.10000000000E+02 0.  1.
</event>
<event>
 5    1  0.1247473E-008  0.3802417E+03  0.7957747E-01  0.3450107E+00
         13   -1    0    0    0    0  0.00000000000E+00  0.00000000000E+00  0.14999999963E+04  0.15000000000E+04  0.10566000000E+00 0. -1.
        994   -1    0    0    0    0 -0.00000000000E+00 -0.00000000000E+00  0.11368683772E-12  0.17120000000E+03  0.17120000000E+03 0.  0.
         13    1    1    2    0    0 -0.14239770546E+02 -0.19205411301E+02  0.66796748186E+02  0.70946709724E+02  0.10566000000E+00 0. -1.
        994    1    1    2    0    0  0.50542974720E+01  0.27998262273E+02  0.67196645117E+01  0.17367798509E+03  0.17120000000E+03 0.  0.
        998    1    1    2    0    0  0.91854730738E+01 -0.87928509715E+01  0.14264835836E+04  0.14265753052E+04  0.10000000000E+02 0. -1.
</event>
<event>
 5    1  0.1247473E-008  0.3855388E+03  0.7957747E-01  0.3427390E+00
         13   -1    0    0    0    0  0.00000000000E+00  0.00000000000E+00  0.14999999963E+04  0.15000000000E+04  0.10566000000E+00 0. -1.
        994   -1    0    0    0    0 -0.00000000000E+00 -0.00000000000E+00  0.11368683772E-12  0.17120000000E+03  0.17120000000E+03 0.  0.
         13    1    1    2    0    0 -0.84112844777E+01  0.96801653632E+01  0.62088605017E+02  0.63399221959E+02  0.10566000000E+00 0. -1.
        994    1    1    2    0    0 -0.36984684967E-01 -0.68211348010E+01  0.15156523826E+01  0.17134254127E+03  0.17120000000E+03 0.  0.
        998    1    1    2    0    0  0.84482691627E+01 -0.28590305622E+01  0.14363957389E+04  0.14364582368E+04  0.10000000000E+02 0.  0.
</event>
<event>
 5    1  0.1247473E-008  0.3801149E+03  0.7957747E-01  0.3450658E+00
         13   -1    0    0    0    0  0.00000000000E+00  0.00000000000E+00  0.14999999963E+04  0.15000000000E+04  0.10566000000E+00 0. -1.
        994   -1    0    0    0    0 -0.00000000000E+00 -0.00000000000E+00  0.11368683772E-12  0.17120000000E+03  0.17120000000E+03 0.  0.
         13    1    1    2    0    0  0.13778710345E+02  0.94040084820E+02  0.49926691641E+03  0.50823307193E+03  0.10566000000E+00 0. -1.
        994    1    1    2    0    0 -0.16987967357E+02 -0.12258160309E+03  0.57075380028E+02  0.21881928493E+03  0.17120000000E+03 0.  0.
        998    1    1    2    0    0  0.32092570114E+01  0.28541518268E+02  0.94365769984E+03  0.94414764315E+03  0.10000000000E+02 0. -1.
</event>
<event>
 5    1  0.1247473E-008  0.3732765E+03  0.7957747E-01  0.3480967E+00
         13   -1    0    0    0    0  0.00000000000E+00  0.00000000000E+00  0.14999999963E+04  0.15000000000E+04  0.10566000000E+00 0. -1.
        994   -1    0    0    0    0 -0.00000000000E+00 -0.00000000000E+00  0.11368683772E-12  0.17120000000E+03  0.17120000000E+03 0.  0.
         13    1    1    2    0    0  0.65336284229E+02  0.74082558465E+02  0.51302993724E+03  0.52245266118E+03  0.10566000000E+00 0. -1.
        994    1    1    2    0    0 -0.45524851670E+02 -0.66525678085E+02  0.30121208245E+02  0.19161133878E+03  0.17120000000E+03 0.  0.
        998    1    1    2    0    0 -0.19811432559E+02 -0.75568803797E+01  0.95684885079E+03  0.95713600003E+03  0.10000000000E+02 0. -1.
</event>
<event>
 5    1  0.1247473E-008  0.3764623E+03  0.7957747E-01  0.3466709E+00
         13   -1    0    0    0    0  0.00000000000E+00  0.00000000000E+00  0.14999999963E+04  0.15000000000E+04  0.10566000000E+00 0. -1.
        994   -1    0    0    0    0 -0.00000000000E+00 -0.00000000000E+00  0.11368683772E-12  0.17120000000E+03  0.17120000000E+03 0.  0.
         13    1    1    2    0    0  0.95025097656E+02 -0.13449965217E+02  0.29377495558E+03  0.30905405100E+03  0.10566000000E+00 0. -1.
        994    1    1    2    0    0 -0.66904088864E+02  0.28324228403E+02  0.33529560392E+02  0.18897642827E+03  0.17120000000E+03 0.  0.
        998    1    1    2    0    0 -0.28121008792E+02 -0.14874263186E+02  0.11726954803E+04  0.11731695207E+04  0.10000000000E+02 0. -1.
</event>
<event>
 5    1  0.1247473E-008  0.3846984E+03  0.7957747E-01  0.3430952E+00
         13   -1    0    0    0    0  0.00000000000E+00  0.00000000000E+00  0.14999999963E+04  0.15000000000E+04  0.10566000000E+00 0.  1.
        994   -1    0    0    0    0 -0.00000000000E+00 -0.00000000000E+00  0.11368683772E-12  0.17120000000E+03  0.17120000000E+03 0.  0.
         13    1    1    2    0    0  0.56530281890E+01  0.10889369710E+02  0.41146680578E+02  0.42937112002E+02  0.10566000000E+00 0.  1.
        994    1    1    2    0    0 -0.89926784519E+01 -0.96114497898E+01  0.23504688663E+01  0.17172132348E+03  0.17120000000E+03 0.  0.
        998    1    1    2    0    0  0.33396502628E+01 -0.12779199199E+01  0.14565028468E+04  0.14565415645E+04  0.10000000000E+02 0.  1.
</event>
<event>
 5    1  0.1247473E-008  0.3856941E+03  0.7957747E-01  0.3426734E+00
         13   -1    0    0    0    0  0.00000000000E+00  0.00000000000E+00  0.14999999963E+04  0.15000000000E+04  0.10566000000E+00 0. -1.
        994   -1    0    0    0    0 -0.00000000000E+00 -0.00000000000E+00  0.11368683772E-12  0.17120000000E+03  0.17120000000E+03 0.  0.
         13    1    1    2    0    0  0.88532192350E+01  0.63546252131E+01  0.46320969534E+02  0.47585755589E+02  0.10566000000E+00 0. -1.
        994    1    1    2    0    0 -0.13593194287E+02  0.50621278042E+01  0.19766100398E+01  0.17182475682E+03  0.17120000000E+03 0.  0.
        998    1    1    2    0    0  0.47399750516E+01 -0.11416753017E+02  0.14517024167E+04  0.14517894876E+04  0.10000000000E+02 0. -1.
</event>
<event>
 5    1  0.1247473E-008  0.3742349E+03  0.7957747E-01  0.3476652E+00
         13   -1    0    0    0    0  0.00000000000E+00  0.00000000000E+00  0.14999999963E+04  0.15000000000E+04  0.10566000000E+00 0. -1.
        994   -1    0    0    0    0 -0.00000000000E+00 -0.00000000000E+00  0.11368683772E-12  0.17120000000E+03  0.17120000000E+03 0.  0.
         13    1    1    2    0    0  0.27689516224E+02 -0.32735955873E+02  0.11707629936E+03  0.12468048425E+03  0.10566000000E+00 0. -1.
        994    1    1    2    0    0 -0.26036946393E+02  0.37186852661E+02  0.14127931689E+02  0.17767898875E+03  0.17120000000E+03 0.  0.
        998    1    1    2    0    0 -0.16525698308E+01 -0.44508967887E+01  0.13687957652E+04  0.13688405270E+04  0.10000000000E+02 0. -1.
</event>
<event>
 5    1  0.1247473E-008  0.3912088E+03  0.7957747E-01  0.3403759E+00
         13   -1    0    0    0    0  0.00000000000E+00  0.00000000000E+00  0.14999999963E+04  0.15000000000E+04  0.10566000000E+00 0. -1.
        994   -1    0    0    0    0 -0.00000000000E+00 -0.00000000000E+00  0.11368683772E-12  0.17120000000E+03  0.17120000000E+03 0.  0.
         13    1    1    2    0    0 -0.11323693950E+03  0.21009037578E+02  0.34511384775E+03  0.36382353305E+03  0.10566000000E+00 0. -1.
        994    1    1    2    0    0  0.29550261932E+02 -0.34759129004E+02  0.30534595756E+02  0.17978658617E+03  0.17120000000E+03 0.  0.
        998    1    1    2    0    0  0.83686677565E+02  0.13750091426E+02  0.11243515528E+04  0.11275898808E+04  0.10000000000E+02 0. -1.
</event>
<event>
 5    1  0.1247473E-008  0.3847767E+03  0.7957747E-01  0.3430620E+00
         13   -1    0    0    0    0  0.00000000000E+00  0.00000000000E+00  0.14999999963E+04  0.15000000000E+04  0.10566000000E+00 0.  1.
        994   -1    0    0    0    0 -0.00000000000E+00 -0.00000000000E+00  0.11368683772E-12  0.17120000000E+03  0.17120000000E+03 0.  0.
         13    1    1    2    0    0 -0.48784377234E+01 -0.90223556795E+01  0.31366810488E+02  0.33001363925E+02  0.10566000000E+00 0.  1.
        994    1    1    2    0    0 -0.43599639347E+01 -0.21287981381E+01  0.18185069126E+01  0.17127839337E+03  0.17120000000E+03 0.  0.
        998    1    1    2    0    0  0.92384016581E+01  0.11151153818E+02  0.14668146789E+04  0.14669202427E+04  0.10000000000E+02 0.  1.
</event>
<event>
 5    1  0.1247473E-008  0.3791267E+03  0.7957747E-01  0.3454970E+00
         13   -1    0    0    0    0  0.00000000000E+00  0.00000000000E+00  0.14999999963E+04  0.15000000000E+04  0.10566000000E+00 0.  1.
        994   -1    0    0    0    0 -0.00000000000E+00 -0.00000000000E+00  0.11368683772E-12  0.17120000000E+03  0.17120000000E+03 0.  0.
         13    1    1    2    0    0 -0.20884382003E+02 -0.11038699576E+02  0.64335529449E+02  0.68535259637E+02  0.10566000000E+00 0.  1.
        994    1    1    2    0    0 -0.17438470884E+02  0.22816207704E+02  0.73443936695E+01  0.17374711428E+03  0.17120000000E+03 0.  0.
        998    1    1    2    0    0  0.38322852887E+02 -0.11777508129E+02  0.14283200732E+04  0.14289176261E+04  0.10000000000E+02 0.  1.
</event>
<event>
 5    1  0.1247473E-008  0.3827177E+03  0.7957747E-01  0.3439410E+00
         13   -1    0    0    0    0  0.00000000000E+00  0.00000000000E+00  0.14999999963E+04  0.15000000000E+04  0.10566000000E+00 0. -1.
        994   -1    0    0    0    0 -0.00000000000E+00 -0.00000000000E+00  0.11368683772E-12  0.17120000000E+03  0.17120000000E+03 0.  0.
         13    1    1    2    0    0  0.50421972622E+01 -0.18392406263E+02  0.62893974625E+02  0.65721895663E+02  0.10566000000E+00 0. -1.
        994    1    1    2    0    0 -0.73732063059E+01  0.17286901634E+02  0.39386121288E+01  0.17227348550E+03  0.17120000000E+03 0.  0.
        998    1    1    2    0    0  0.23310090437E+01  0.11055046286E+01  0.14331674095E+04  0.14332046188E+04  0.10000000000E+02 0. -1.
</event>
<event>
 5    1  0.1247473E-008  0.3693301E+03  0.7957747E-01  0.3498975E+00
         13   -1    0    0    0    0  0.00000000000E+00  0.00000000000E+00  0.14999999963E+04  0.15000000000E+04  0.10566000000E+00 0.  1.
        994   -1    0    0    0    0 -0.00000000000E+00 -0.00000000000E+00  0.11368683772E-12  0.17120000000E+03  0.17120000000E+03 0.  0.
         13    1    1    2    0    0 -0.24418305070E+02  0.57728233682E+02  0.18152730761E+03  0.19204420626E+03  0.10566000000E+00 0.  1.
        994    1    1    2    0    0  0.26031043349E+02 -0.52223328562E+02  0.21514205096E+02  0.18214607403E+03  0.17120000000E+03 0.  0.
        998    1    1    2    0    0 -0.16127382789E+01 -0.55049051198E+01  0.12969584836E+04  0.12970097197E+04  0.10000000000E+02 0.  1.
</event>
<event>
 5    1  0.1247473E-008  0.3851248E+03  0.7957747E-01  0.3429143E+00
         13   -1    0    0    0    0  0.00000000000E+00  0.00000000000E+00  0.14999999963E+04  0.15000000000E+04  0.10566000000E+00 0.  1.
        994   -1    0    0    0    0 -0.00000000000E+00 -0.00000000000E+00  0.11368683772E-12  0.17120000000E+03  0.17120000000E+03 0.  0.
         13    1    1    2    0    0  0.12518946464E+01 -0.10080000665E+02  0.32410340649E+02  0.33964908341E+02  0.10566000000E+00 0.  1.
        994    1    1    2    0    0 -0.38852069788E+01  0.87151652223E+01  0.18675552243E+01  0.17147587790E+03  0.17120000000E+03 0.  0.
        998    1    1    2    0    0  0.26333123325E+01  0.13648354430E+01  0.14657221004E+04  0.14657592138E+04  0.10000000000E+02 0.  1.
</event>
<event>
 5    1  0.1247473E-008  0.3810834E+03  0.7957747E-01  0.3446455E+00
         13   -1    0    0    0    0  0.00000000000E+00  0.00000000000E+00  0.14999999963E+04  0.15000000000E+04  0.10566000000E+00 0. -1.
        994   -1    0    0    0    0 -0.00000000000E+00 -0.00000000000E+00  0.11368683772E-12  0.17120000000E+03  0.17120000000E+03 0.  0.
         13    1    1    2    0    0 -0.51044759714E+01  0.10602870927E+02  0.17316827355E+02  0.20937053768E+02  0.10566000000E+00 0. -1.
        994    1    1    2    0    0  0.97710746290E+01 -0.16213382311E+02  0.47818311689E+01  0.17230976053E+03  0.17120000000E+03 0.  0.
        998    1    1    2    0    0 -0.46665986576E+01  0.56105113843E+01  0.14779013378E+04  0.14779531857E+04  0.10000000000E+02 0. -1.
</event>
<event>
 5    1  0.1247473E-008  0.3703754E+03  0.7957747E-01  0.3494167E+00
         13   -1    0    0    0    0  0.00000000000E+00  0.00000000000E+00  0.14999999963E+04  0.15000000000E+04  0.10566000000E+00 0. -1.
        994   -1    0    0    0    0 -0.00000000000E+00 -0.00000000000E+00  0.11368683772E-12  0.17120000000E+03  0.17120000000E+03 0.  0.
         13    1    1    2    0    0  0.15100814591E+02 -0.64728728866E+02  0.17075411246E+03  0.18323433365E+03  0.10566000000E+00 0. -1.
        994    1    1    2    0    0 -0.12366681558E+02  0.68364082588E+02  0.28230235126E+02  0.18690363500E+03  0.17120000000E+03 0.  0.
        998    1    1    2    0    0 -0.27341330332E+01 -0.36353537220E+01  0.13010156487E+04  0.13010620313E+04  0.10000000000E+02 0. -1.
</event>
<event>
 5    1  0.1247473E-008  0.3812801E+03  0.7957747E-01  0.3445603E+00
         13   -1    0    0    0    0  0.00000000000E+00  0.00000000000E+00  0.14999999963E+04  0.15000000000E+04  0.10566000000E+00 0.  1.
        994   -1    0    0    0    0 -0.00000000000E+00 -0.00000000000E+00  0.11368683772E-12  0.17120000000E+03  0.17120000000E+03 0.  0.
         13    1    1    2    0    0 -0.15896485609E+01 -0.10001467377E+02  0.13213247523E+02  0.16648045122E+02  0.10566000000E+00 0.  1.
        994    1    1    2    0    0  0.57541909117E+00  0.73304007335E+01  0.36683488354E+01  0.17139709060E+03  0.17120000000E+03 0.  0.
        998    1    1    2    0    0  0.10142294697E+01  0.26710666434E+01  0.14831183999E+04  0.14831548643E+04  0.10000000000E+02 0.  1.
</event>
<event>
 5    1  0.1247473E-008  0.3833110E+03  0.7957747E-01  0.3436867E+00
         13   -1    0    0    0    0  0.00000000000E+00  0.00000000000E+00  0.14999999963E+04  0.15000000000E+04  0.10566000000E+00 0.  1.
        994   -1    0    0    0    0 -0.00000000000E+00 -0.00000000000E+00  0.11368683772E-12  0.17120000000E+03  0.17120000000E+03 0.  0.
         13    1    1    2    0    0 -0.17546487508E+01  0.17325424089E+02  0.62539835264E+02  0.64919113295E+02  0.10566000000E+00 0.  1.
        994    1    1    2    0    0  0.37079492063E+01 -0.51727376892E+01  0.26049757356E+01  0.17133806349E+03  0.17120000000E+03 0.  0.
        998    1    1    2    0    0 -0.19533004556E+01 -0.12152686400E+02  0.14348551853E+04  0.14349428232E+04  0.10000000000E+02 0.  1.
</event>
<event>
 5    1  0.1418104E-008  0.3858976E+03  0.7957747E-01  0.3425874E+00
         13   -1    0    0    0    0  0.00000000000E+00  0.00000000000E+00  0.14999999963E+04  0.15000000000E+04  0.10566000000E+00 0.  1.
        994   -1    0    0    0    0 -0.00000000000E+00 -0.00000000000E+00  0.11368683772E-12  0.17120000000E+03  0.17120000000E+03 0.  0.
         13    1    1    2    0    0 -0.77973187715E+01  0.71288284565E+01  0.50142385460E+02  0.51243422591E+02  0.10566000000E+00 0.  1.
        994    1    1    2    0    0  0.43628500776E+01  0.60840285902E+01  0.13689700265E+01  0.17136908690E+03  0.17120000000E+03 0.  0.
        998    1    1    2    0    0  0.34344686939E+01 -0.13212857047E+02  0.14484886408E+04  0.14485874905E+04  0.10000000000E+02 0.  1.
</event>
<event>
 5    1  0.1313929E-008  0.3862736E+03  0.7957747E-01  0.3424289E+00
         13   -1    0    0    0    0  0.00000000000E+00  0.00000000000E+00  0.14999999963E+04  0.15000000000E+04  0.10566000000E+00 0.  1.
        994   -1    0    0    0    0 -0.00000000000E+00 -0.00000000000E+00  0.11368683772E-12  0.17120000000E+03  0.17120000000E+03 0.  0.
         13    1    1    2    0    0 -0.69171646559E+01 -0.79721532375E+01  0.59420670423E+02  0.60350887580E+02  0.10566000000E+00 0.  1.
        994    1    1    2    0    0 -0.35273464291E+01  0.44672938255E+01  0.11052672706E+01  0.17129816258E+03  0.17120000000E+03 0.  0.
        998    1    1    2    0    0  0.10444511085E+02  0.35048594120E+01  0.14394740586E+04  0.14395509498E+04  0.10000000000E+02 0.  1.
</event>
<event>
 5    1  0.1247473E-008  0.3788708E+03  0.7957747E-01  0.3456090E+00
         13   -1    0    0    0    0  0.00000000000E+00  0.00000000000E+00  0.14999999963E+04  0.15000000000E+04  0.10566000000E+00 0.  1.
        994   -1    0    0    0    0 -0.00000000000E+00 -0.00000000000E+00  0.11368683772E-12  0.17120000000E+03  0.17120000000E+03 0.  0.
         13    1    1    2    0    0 -0.24200213399E+02 -0.39553543006E+02  0.19344063603E+03  0.19892064730E+03  0.10566000000E+00 0.  1.
        994    1    1    2    0    0  0.10904942869E+02  0.53169894275E+02  0.14653543724E+02  0.18019467745E+03  0.17120000000E+03 0.  0.
        998    1    1    2    0    0  0.13295270531E+02 -0.13616351268E+02  0.12919058165E+04  0.12920846753E+04  0.10000000000E+02 0.  1.
</event>
<event>
 5    1  0.1247473E-008  0.3829047E+03  0.7957747E-01  0.3438607E+00
         13   -1    0    0    0    0  0.00000000000E+00  0.00000000000E+00  0.14999999963E+04  0.15000000000E+04  0.10566000000E+00 0. -1.
        994   -1    0    0    0    0 -0.00000000000E+00 -0.00000000000E+00  0.11368683772E-12  0.17120000000E+03  0.17120000000E+03 0.  0.
         13    1    1    2    0    0 -0.17923406737E+02  0.95566728921E+01  0.87964445883E+02  0.90279196991E+02  0.10566000000E+00 0. -1.
        994    1    1    2    0    0 -0.14855963316E+02 -0.53752381500E+01  0.35008533845E+01  0.17196304488E+03  0.17120000000E+03 0.  0.
        998    1    1    2    0    0  0.32779370052E+02 -0.41814347421E+01  0.14085346970E+04  0.14089577581E+04  0.10000000000E+02 0. -1.
</event>
<event>
 5    1  0.1247473E-008  0.3821741E+03  0.7957747E-01  0.3441746E+00
         13   -1    0    0    0    0  0.00000000000E+00  0.00000000000E+00  0.14999999963E+04  0.15000000000E+04  0.10566000000E+00 0. -1.
        994   -1    0    0    0    0 -0.00000000000E+00 -0.00000000000E+00  0.11368683772E-12  0.17120000000E+03  0.17120000000E+03 0.  0.
         13    1    1    2    0    0 -0.16209888001E+02 -0.65378330307E+01  0.47674488989E+02  0.50777670232E+02  0.10566000000E+00 0. -1.
        994    1    1    2    0    0  0.13682033883E+02  0.17674759605E+02  0.46996447004E+01  0.17271688348E+03  0.17120000000E+03 0.  0.
        998    1    1    2    0    0  0.25278541186E+01 -0.11136926575E+02  0.14476258626E+04  0.14477054463E+04  0.10000000000E+02 0. -1.
</event>
<event>
 5    1  0.1247473E-008  0.3846728E+03  0.7957747E-01  0.3431061E+00
         13   -1    0    0    0    0  0.00000000000E+00  0.00000000000E+00  0.14999999963E+04  0.15000000000E+04  0.10566000000E+00 0.  1.
        994   -1    0    0    0    0 -0.00000000000E+00 -0.00000000000E+00  0.11368683772E-12  0.17120000000E+03  0.17120000000E+03 0.  0.
         13    1    1    2    0    0 -0.95217532210E+01 -0.40347290223E+01  0.30031929222E+02  0.31762725946E+02  0.10566000000E+00 0.  1.
        994    1    1    2    0    0  0.42738041349E+01 -0.35103024352E+01  0.18933922842E+01  0.17129977396E+03  0.17120000000E+03 0.  0.
        998    1    1    2    0    0  0.52479490861E+01  0.75450314575E+01  0.14680746748E+04  0.14681375001E+04  0.10000000000E+02 0.  1.
</event>
<event>
 5    1  0.1247473E-008  0.3782521E+03  0.7957747E-01  0.3458805E+00
         13   -1    0    0    0    0  0.00000000000E+00  0.00000000000E+00  0.14999999963E+04  0.15000000000E+04  0.10566000000E+00 0. -1.
        994   -1    0    0    0    0 -0.00000000000E+00 -0.00000000000E+00  0.11368683772E-12  0.17120000000E+03  0.17120000000E+03 0.  0.
         13    1    1    2    0    0 -0.26193176789E+02  0.32193194732E+02  0.18206751311E+03  0.18673798433E+03  0.10566000000E+00 0. -1.
        994    1    1    2    0    0  0.27509608357E+02  0.40872498024E+01  0.76231936538E+01  0.17361174282E+03  0.17120000000E+03 0.  0.
        998    1    1    2    0    0 -0.13164315682E+01 -0.36280444535E+02  0.13103092895E+04  0.13108502728E+04  0.10000000000E+02 0. -1.
</event>
<event>
 5    1  0.1247473E-008  0.3842029E+03  0.7957747E-01  0.3433060E+00
         13   -1    0    0    0    0  0.00000000000E+00  0.00000000000E+00  0.14999999963E+04  0.15000000000E+04  0.10566000000E+00 0.  1.
        994   -1    0    0    0    0 -0.00000000000E+00 -0.00000000000E+00  0.11368683772E-12  0.17120000000E+03  0.17120000000E+03 0.  0.
         13    1    1    2    0    0  0.89785380558E+01  0.22946358783E+02  0.14105308672E+03  0.14318915449E+03  0.10566000000E+00 0.  1.
        994    1    1    2    0    0 -0.27259620407E+02 -0.13611936259E+02  0.50933936022E+01  0.17396480785E+03  0.17120000000E+03 0.  0.
        998    1    1    2    0    0  0.18281082351E+02 -0.93344225247E+01  0.13538535160E+04  0.13540460377E+04  0.10000000000E+02 0.  1.
</event>
<event>
 5    1  0.1247473E-008  0.3856253E+03  0.7957747E-01  0.3427024E+00
         13   -1    0    0    0    0  0.00000000000E+00  0.00000000000E+00  0.14999999963E+04  0.15000000000E+04  0.10566000000E+00 0. -1.
        994   -1    0    0    0    0 -0.00000000000E+00 -0.00000000000E+00  0.11368683772E-12  0.17120000000E+03  0.17120000000E+03 0.  0.
         13    1    1    2    0    0 -0.14652268612E+02  0.74474283696E-01  0.78019263833E+02  0.79383318241E+02  0.10566000000E+00 0. -1.
        994    1    1    2    0    0  0.15886693156E+02 -0.15371459430E+00  0.21488321997E+01  0.17194902770E+03  0.17120000000E+03 0.  0.
        998    1    1    2    0    0 -0.12344245435E+01  0.79240310607E-01  0.14198319002E+04  0.14198676541E+04  0.10000000000E+02 0. -1.
</event>
<event>
 5    1  0.1247473E-008  0.3818428E+03  0.7957747E-01  0.3443174E+00
         13   -1    0    0    0    0  0.00000000000E+00  0.00000000000E+00  0.14999999963E+04  0.15000000000E+04  0.10566000000E+00 0. -1.
        994   -1    0    0    0    0 -0.00000000000E+00 -0.00000000000E+00  0.11368683772E-12  0.17120000000E+03  0.17120000000E+03 0.  0.
         13    1    1    2    0    0  0.28049413894E+02  0.11569517376E+02  0.13288846037E+03  0.13630839085E+03  0.10566000000E+00 0. -1.
        994    1    1    2    0    0 -0.29282776711E+02 -0.45582839054E+01  0.61294424205E+01  0.17385416023E+03  0.17120000000E+03 0.  0.
        998    1    1    2    0    0  0.12333628172E+01 -0.70112334710E+01  0.13609820935E+04  0.13610374489E+04  0.10000000000E+02 0. -1.
</event>
<event>
 5    1  0.1247473E-008  0.3835384E+03  0.7957747E-01  0.3435895E+00
         13   -1    0    0    0    0  0.00000000000E+00  0.00000000000E+00  0.14999999963E+04  0.15000000000E+04  0.10566000000E+00 0.  1.
        994   -1    0    0    0    0 -0.00000000000E+00 -0.00000000000E+00  0.11368683772E-12  0.17120000000E+03  0.17120000000E+03 0.  0.
         13    1    1    2    0    0 -0.19567778503E+02  0.14762111341E+02  0.10982223684E+03  0.11252445403E+03  0.10566000000E+00 0.  1.
        994    1    1    2    0    0  0.12361943470E+02 -0.45729131482E+02  0.98079014194E+01  0.17790336153E+03  0.17120000000E+03 0.  0.
        998    1    1    2    0    0  0.72058350329E+01  0.30967020141E+02  0.13803698580E+04  0.13807721844E+04  0.10000000000E+02 0.  1.
</event>
<event>
 5    1  0.1247473E-008  0.3689620E+03  0.7957747E-01  0.3500675E+00
         13   -1    0    0    0    0  0.00000000000E+00  0.00000000000E+00  0.14999999963E+04  0.15000000000E+04  0.10566000000E+00 0. -1.
        994   -1    0    0    0    0 -0.00000000000E+00 -0.00000000000E+00  0.11368683772E-12  0.17120000000E+03  0.17120000000E+03 0.  0.
         13    1    1    2    0    0 -0.16720257437E+02  0.32685126345E+02  0.59092029216E+02  0.69568409310E+02  0.10566000000E+00 0. -1.
        994    1    1    2    0    0  0.16453433263E+02 -0.30816993317E+02  0.14654013005E+02  0.17534133181E+03  0.17120000000E+03 0.  0.
        998    1    1    2    0    0  0.26682417463E+00 -0.18681330280E+01  0.14262539541E+04  0.14262902589E+04  0.10000000000E+02 0. -1.
</event>
<event>
 5    1  0.1247473E-008  0.2111547E+03  0.7957747E-01  0.4845744E+00
         13   -1    0    0    0    0  0.00000000000E+00  0.00000000000E+00  0.14999999963E+04  0.15000000000E+04  0.10566000000E+00 0.  1.
        994   -1    0    0    0    0 -0.00000000000E+00 -0.00000000000E+00  0.11368683772E-12  0.17120000000E+03  0.17120000000E+03 0.  0.
         13    1    1    2    0    0 -0.69195686325E+02  0.27068288733E+02  0.10562734166E+02  0.75048769331E+02  0.10566000000E+00 0.  1.
        994    1    1    2    0    0  0.68704592312E+02 -0.26948637129E+02  0.10956312224E+03  0.21624076351E+03  0.17120000000E+03 0.  0.
        998    1    1    2    0    0  0.49109401334E+00 -0.11965160482E+00  0.13798741399E+04  0.13799104672E+04  0.10000000000E+02 0.  0.
</event>
<event>
 5    1  0.1247473E-008  0.3833995E+03  0.7957747E-01  0.3436489E+00
         13   -1    0    0    0    0  0.00000000000E+00  0.00000000000E+00  0.14999999963E+04  0.15000000000E+04  0.10566000000E+00 0.  1.
        994   -1    0    0    0    0 -0.00000000000E+00 -0.00000000000E+00  0.11368683772E-12  0.17120000000E+03  0.17120000000E+03 0.  0.
         13    1    1    2    0    0  0.17637878287E+02 -0.38220402171E+01  0.65073211723E+02  0.67529525319E+02  0.10566000000E+00 0.  1.
        994    1    1    2    0    0 -0.14876829344E+02  0.54904098491E+01  0.32585942499E+01  0.17196372608E+03  0.17120000000E+03 0.  0.
        998    1    1    2    0    0 -0.27610489432E+01 -0.16683696320E+01  0.14316681903E+04  0.14317067486E+04  0.10000000000E+02 0.  1.
</event>
<event>
 5    1  0.1247473E-008  0.3742382E+03  0.7957747E-01  0.3476637E+00
         13   -1    0    0    0    0  0.00000000000E+00  0.00000000000E+00  0.14999999963E+04  0.15000000000E+04  0.10566000000E+00 0.  1.
        994   -1    0    0    0    0 -0.00000000000E+00 -0.00000000000E+00  0.11368683772E-12  0.17120000000E+03  0.17120000000E+03 0.  0.
         13    1    1    2    0    0 -0.38512740985E+02 -0.35649075658E+02  0.19878101565E+03  0.20559180714E+03  0.10566000000E+00 0.  1.
        994    1    1    2    0    0  0.12644616962E+02  0.23193785594E+02  0.94522870812E+01  0.17348378529E+03  0.17120000000E+03 0.  0.
        998    1    1    2    0    0  0.25868124023E+02  0.12455290064E+02  0.12917666935E+04  0.12921244076E+04  0.10000000000E+02 0.  1.
</event>
<event>
 5    1  0.1247473E-008  0.3858656E+03  0.7957747E-01  0.3426009E+00
         13   -1    0    0    0    0  0.00000000000E+00  0.00000000000E+00  0.14999999963E+04  0.15000000000E+04  0.10566000000E+00 0. -1.
        994   -1    0    0    0    0 -0.00000000000E+00 -0.00000000000E+00  0.11368683772E-12  0.17120000000E+03  0.17120000000E+03 0.  0.
         13    1    1    2    0    0  0.11424132303E+02  0.38106720817E+01  0.57388844556E+02  0.58638917658E+02  0.10566000000E+00 0. -1.
        994    1    1    2    0    0 -0.17965660735E+02  0.23291793314E+00  0.22603838111E+01  0.17215507123E+03  0.17120000000E+03 0.  0.
        998    1    1    2    0    0  0.65415284315E+01 -0.40435900149E+01  0.14403507679E+04  0.14404060111E+04  0.10000000000E+02 0. -1.
</event>
<event>
 5    1  0.1247473E-008  0.3743091E+03  0.7957747E-01  0.3476318E+00
         13   -1    0    0    0    0  0.00000000000E+00  0.00000000000E+00  0.14999999963E+04  0.15000000000E+04  0.10566000000E+00 0. -1.
        994   -1    0    0    0    0 -0.00000000000E+00 -0.00000000000E+00  0.11368683772E-12  0.17120000000E+03  0.17120000000E+03 0.  0.
         13    1    1    2    0    0  0.23704009032E+02 -0.13684700617E+02  0.49136234761E+02  0.56245282519E+02  0.10566000000E+00 0. -1.
        994    1    1    2    0    0 -0.23880989651E+02  0.12576392443E+02  0.95199058382E+01  0.17357573540E+03  0.17120000000E+03 0.  0.
        998    1    1    2    0    0  0.17698061922E+00  0.11083081736E+01  0.14413438557E+04  0.14413789821E+04  0.10000000000E+02 0.  0.
</event>
<event>
 5    1  0.1247473E-008  0.3825727E+03  0.7957747E-01  0.3440032E+00
         13   -1    0    0    0    0  0.00000000000E+00  0.00000000000E+00  0.14999999963E+04  0.15000000000E+04  0.10566000000E+00 0. -1.
        994   -1    0    0    0    0 -0.00000000000E+00 -0.00000000000E+00  0.11368683772E-12  0.17120000000E+03  0.17120000000E+03 0.  0.
         13    1    1    2    0    0 -0.13138549526E+02 -0.14958477991E+02  0.66215951819E+02  0.69144348914E+02  0.10566000000E+00 0. -1.
        994    1    1    2    0    0  0.13670111898E+02  0.15687154172E+02  0.42765159850E+01  0.17251286142E+03  0.17120000000E+03 0.  0.
        998    1    1    2    0    0 -0.53156237232E+00 -0.72867618011E+00  0.14295075285E+04  0.14295427897E+04  0.10000000000E+02 0. -1.
</event>
<event>
 5    1  0.1247473E-008  0.3851723E+03  0.7957747E-01  0.3428942E+00
         13   -1    0    0    0    0  0.00000000000E+00  0.00000000000E+00  0.14999999963E+04  0.15000000000E+04  0.10566000000E+00 0. -1.
        994   -1    0    0    0    0 -0.00000000000E+00 -0.00000000000E+00  0.11368683772E-12  0.17120000000E+03  0.17120000000E+03 0.  0.
         13    1    1    2    0    0 -0.14293072546E+02 -0.99079527278E+01  0.10360103081E+03  0.10505067444E+03  0.10566000000E+00 0. -1.
        994    1    1    2    0    0  0.86608430746E+00  0.68169265658E+01  0.16998300278E+01  0.17134628683E+03  0.17120000000E+03 0.  0.
        998    1    1    2    0    0  0.13426988239E+02  0.30910261619E+01  0.13946991354E+04  0.13948030387E+04  0.10000000000E+02 0. -1.
</event>
<event>
 5    1  0.1247473E-008  0.3837060E+03  0.7957747E-01  0.3435179E+00
         13   -1    0    0    0    0  0.00000000000E+00  0.00000000000E+00  0.14999999963E+04  0.15000000000E+04  0.10566000000E+00 0. -1.
        994   -1    0    0    0    0 -0.00000000000E+00 -0.00000000000E+00  0.11368683772E-12  0.17120000000E+03  0.17120000000E+03 0.  0.
         13    1    1    2    0    0 -0.21272330097E+01  0.23241182576E+02  0.12643886737E+03  0.12857478770E+03  0.10566000000E+00 0. -1.
        994    1    1    2    0    0 -0.47821128854E+01 -0.71696559785E+01  0.25192751750E+01  0.17143529193E+03  0.17120000000E+03 0.  0.
        998    1    1    2    0    0  0.69093458950E+01 -0.16071526598E+02  0.13710418537E+04  0.13711899204E+04  0.10000000000E+02 0. -1.
</event>
<event>
 5    1  0.1247473E-008  0.3691279E+03  0.7957747E-01  0.3499908E+00
         13   -1    0    0    0    0  0.00000000000E+00  0.00000000000E+00  0.14999999963E+04  0.15000000000E+04  0.10566000000E+00 0. -1.
        994   -1    0    0    0    0 -0.00000000000E+00 -0.00000000000E+00  0.11368683772E-12  0.17120000000E+03  0.17120000000E+03 0.  0.
         13    1    1    2    0    0 -0.63641844126E+02  0.25889986785E+02  0.16031767655E+03  0.17442002270E+03  0.10566000000E+00 0. -1.
        994    1    1    2    0    0  0.11267701371E+03 -0.25305661498E+02  0.58519931712E+02  0.21464041635E+03  0.17120000000E+03 0.  0.
        998    1    1    2    0    0 -0.49035169587E+02 -0.58432528631E+00  0.12811623880E+04  0.12821395610E+04  0.10000000000E+02 0. -1.
</event>
<event>
 5    1  0.1247473E-008  0.3831825E+03  0.7957747E-01  0.3437417E+00
         13   -1    0    0    0    0  0.00000000000E+00  0.00000000000E+00  0.14999999963E+04  0.15000000000E+04  0.10566000000E+00 0.  1.
        994   -1    0    0    0    0 -0.00000000000E+00 -0.00000000000E+00  0.11368683772E-12  0.17120000000E+03  0.17120000000E+03 0.  0.
         13    1    1    2    0    0 -0.20500619596E+02  0.42649260964E+01  0.82168259507E+02  0.84794451663E+02  0.10566000000E+00 0.  1.
        994    1    1    2    0    0  0.21069709938E+02 -0.36118948884E+00  0.40055971975E+01  0.17253854046E+03  0.17120000000E+03 0.  0.
        998    1    1    2    0    0 -0.56909034196E+00 -0.39037366075E+01  0.14138261396E+04  0.14138670079E+04  0.10000000000E+02 0.  1.
</event>
<event>
 5    1  0.1247473E-008  0.3771124E+03  0.7957747E-01  0.3463829E+00
         13   -1    0    0    0    0  0.00000000000E+00  0.00000000000E+00  0.14999999963E+04  0.15000000000E+04  0.10566000000E+00 0.  1.
        994   -1    0    0    0    0 -0.00000000000E+00 -0.00000000000E+00  0.11368683772E-12  0.17120000000E+03  0.17120000000E+03 0.  0.
         13    1    1    2    0    0 -0.14382976921E+02 -0.17630443785E+02  0.44450275918E+02  0.49935365889E+02  0.10566000000E+00 0.  1.
        994    1    1    2    0    0  0.55539765818E+01  0.11218929132E+02  0.61270386583E+01  0.17176638679E+03  0.17120000000E+03 0.  0.
        998    1    1    2    0    0  0.88290003397E+01  0.64115146534E+01  0.14494226817E+04  0.14494982473E+04  0.10000000000E+02 0.  1.
</event>
<event>
 5    1  0.1247473E-008  0.3803011E+03  0.7957747E-01  0.3449849E+00
         13   -1    0    0    0    0  0.00000000000E+00  0.00000000000E+00  0.14999999963E+04  0.15000000000E+04  0.10566000000E+00 0.  1.
        994   -1    0    0    0    0 -0.00000000000E+00 -0.00000000000E+00  0.11368683772E-12  0.17120000000E+03  0.17120000000E+03 0.  0.
         13    1    1    2    0    0 -0.53718250250E+01  0.22426498490E+02  0.63591920713E+02  0.67644274574E+02  0.10566000000E+00 0.  1.
        994    1    1    2    0    0 -0.11441559214E+01 -0.22066726252E+02  0.56134997177E+01  0.17271132238E+03  0.17120000000E+03 0.  0.
        998    1    1    2    0    0  0.65159809464E+01 -0.35977223727E+00  0.14307945758E+04  0.14308444030E+04  0.10000000000E+02 0.  1.
</event>
<event>
 5    1  0.1247473E-008  0.3837663E+03  0.7957747E-01  0.3434921E+00
         13   -1    0    0    0    0  0.00000000000E+00  0.00000000000E+00  0.14999999963E+04  0.15000000000E+04  0.10566000000E+00 0. -1.
        994   -1    0    0    0    0 -0.00000000000E+00 -0.00000000000E+00  0.11368683772E-12  0.17120000000E+03  0.17120000000E+03 0.  0.
         13    1    1    2    0    0 -0.15549416058E+02 -0.13263123266E+02  0.98013704890E+02  0.10012188716E+03  0.10566000000E+00 0. -1.
        994    1    1    2    0    0 -0.19861885540E+01  0.92558088217E+01  0.25398364251E+01  0.17148033622E+03  0.17120000000E+03 0.  0.
        998    1    1    2    0    0  0.17535604612E+02  0.40073144441E+01  0.13994464550E+04  0.13995977766E+04  0.10000000000E+02 0. -1.
</event>
<event>
 5    1  0.1247473E-008  0.3835818E+03  0.7957747E-01  0.3435709E+00
         13   -1    0    0    0    0  0.00000000000E+00  0.00000000000E+00  0.14999999963E+04  0.15000000000E+04  0.10566000000E+00 0. -1.
        994   -1    0    0    0    0 -0.00000000000E+00 -0.00000000000E+00  0.11368683772E-12  0.17120000000E+03  0.17120000000E+03 0.  0.
         13    1    1    2    0    0 -0.30143446369E+01  0.30115879667E+02  0.14235980872E+03  0.14554167370E+03  0.10566000000E+00 0. -1.
        994    1    1    2    0    0  0.65095324754E+02 -0.59270015607E+02  0.28377051459E+02  0.19458939618E+03  0.17120000000E+03 0.  0.
        998    1    1    2    0    0 -0.62080980117E+02  0.29154135940E+02  0.13292631361E+04  0.13310689301E+04  0.10000000000E+02 0. -1.
</event>
<event>
 5    1  0.1247473E-008  0.3748637E+03  0.7957747E-01  0.3473833E+00
         13   -1    0    0    0    0  0.00000000000E+00  0.00000000000E+00  0.14999999963E+04  0.15000000000E+04  0.10566000000E+00 0. -1.
        994   -1    0    0    0    0 -0.00000000000E+00 -0.00000000000E+00  0.11368683772E-12  0.17120000000E+03  0.17120000000E+03 0.  0.
         13    1    1    2    0    0  0.27964925142E+02  0.10907958164E+03  0.62734729834E+03  0.63737354516E+03  0.10566000000E+00 0. -1.
        994    1    1    2    0    0 -0.11900305053E+02 -0.10069551561E+03  0.42558777674E+02  0.20347455291E+03  0.17120000000E+03 0.  0.
        998    1    1    2    0    0 -0.16064620089E+02 -0.83840660229E+01  0.83009392026E+03  0.83035190193E+03  0.10000000000E+02 0. -1.
</event>
<event>
 5    1  0.1247473E-008  0.3825675E+03  0.7957747E-01  0.3440055E+00
         13   -1    0    0    0    0  0.00000000000E+00  0.00000000000E+00  0.14999999963E+04  0.15000000000E+04  0.10566000000E+00 0.  1.
        994   -1    0    0    0    0 -0.00000000000E+00 -0.00000000000E+00  0.11368683772E-12  0.17120000000E+03  0.17120000000E+03 0.  0.
         13    1    1    2    0    0 -0.22160491715E+01 -0.17295101011E+02  0.53950858981E+02  0.56698657318E+02  0.10566000000E+00 0.  1.
        994    1    1    2    0    0 -0.16497460986E+02  0.80451666175E+01  0.39601751463E+01  0.17222663532E+03  0.17120000000E+03 0.  0.
        998    1    1    2    0    0  0.18713510157E+02  0.92499343935E+01  0.14420889622E+04  0.14422747074E+04  0.10000000000E+02 0.  1.
</event>
<event>
 5    1  0.1247473E-008  0.3715630E+03  0.7957747E-01  0.3488738E+00
         13   -1    0    0    0    0  0.00000000000E+00  0.00000000000E+00  0.14999999963E+04  0.15000000000E+04  0.10566000000E+00 0. -1.
        994   -1    0    0    0    0 -0.00000000000E+00 -0.00000000000E+00  0.11368683772E-12  0.17120000000E+03  0.17120000000E+03 0.  0.
         13    1    1    2    0    0 -0.17896928008E+03 -0.13578020532E+02  0.67502529594E+03  0.69847943934E+03  0.10566000000E+00 0. -1.
        994    1    1    2    0    0  0.17505066525E+03  0.26485610223E+02  0.13177513662E+03  0.27931764997E+03  0.17120000000E+03 0.  0.
        998    1    1    2    0    0  0.39186148330E+01 -0.12907589691E+02  0.69319956372E+03  0.69340291069E+03  0.10000000000E+02 0.  0.
</event>
<event>
 5    1  0.1247473E-008  0.3811824E+03  0.7957747E-01  0.3446026E+00
         13   -1    0    0    0    0  0.00000000000E+00  0.00000000000E+00  0.14999999963E+04  0.15000000000E+04  0.10566000000E+00 0. -1.
        994   -1    0    0    0    0 -0.00000000000E+00 -0.00000000000E+00  0.11368683772E-12  0.17120000000E+03  0.17120000000E+03 0.  0.
         13    1    1    2    0    0 -0.40879066282E+02  0.10984107884E+02  0.25307089946E+03  0.25658651563E+03  0.10566000000E+00 0. -1.
        994    1    1    2    0    0  0.19165390270E+02 -0.22485578952E+02  0.64496171683E+01  0.17385036959E+03  0.17120000000E+03 0.  0.
        998    1    1    2    0    0  0.21713676012E+02  0.11501471068E+02  0.12404794796E+04  0.12407631148E+04  0.10000000000E+02 0. -1.
</event>
<event>
 5    1  0.1247473E-008  0.3724549E+03  0.7957747E-01  0.3484684E+00
         13   -1    0    0    0    0  0.00000000000E+00  0.00000000000E+00  0.14999999963E+04  0.15000000000E+04  0.10566000000E+00 0.  1.
        994   -1    0    0    0    0 -0.00000000000E+00 -0.00000000000E+00  0.11368683772E-12  0.17120000000E+03  0.17120000000E+03 0.  0.
         13    1    1    2    0    0 -0.21774872177E+02  0.14682688473E+02  0.22574254562E+02  0.34631409619E+02  0.10566000000E+00 0.  1.
        994    1    1    2    0    0  0.24910995400E+02 -0.13403997847E+02  0.15069783555E+02  0.17417451945E+03  0.17120000000E+03 0.  0.
        998    1    1    2    0    0 -0.31361232230E+01 -0.12786906253E+01  0.14623559582E+04  0.14623940709E+04  0.10000000000E+02 0.  1.
</event>
<event>
 5    1  0.1247473E-008  0.3749463E+03  0.7957747E-01  0.3473463E+00
         13   -1    0    0    0    0  0.00000000000E+00  0.00000000000E+00  0.14999999963E+04  0.15000000000E+04  0.10566000000E+00 0. -1.
        994   -1    0    0    0    0 -0.00000000000E+00 -0.00000000000E+00  0.11368683772E-12  0.17120000000E+03  0.17120000000E+03 0.  0.
         13    1    1    2    0    0 -0.10174574851E+03  0.39709561912E+02  0.54338620222E+03  0.55425411372E+03  0.10566000000E+00 0. -1.
        994    1    1    2    0    0  0.10682822082E+03 -0.30019937571E+02  0.49794837199E+02  0.21000578855E+03  0.17120000000E+03 0.  0.
        998    1    1    2    0    0 -0.50824723024E+01 -0.96896243409E+01  0.90681895686E+03  0.90694009772E+03  0.10000000000E+02 0. -1.
</event>
<event>
 5    1  0.1247473E-008  0.3850544E+03  0.7957747E-01  0.3429442E+00
         13   -1    0    0    0    0  0.00000000000E+00  0.00000000000E+00  0.14999999963E+04  0.15000000000E+04  0.10566000000E+00 0.  1.
        994   -1    0    0    0    0 -0.00000000000E+00 -0.00000000000E+00  0.11368683772E-12  0.17120000000E+03  0.17120000000E+03 0.  0.
         13    1    1    2    0    0 -0.16341428009E+02  0.81907862265E+01  0.10569461320E+03  0.10726366426E+03  0.10566000000E+00 0.  1.
        994    1    1    2    0    0  0.69900325280E+01 -0.84897191124E+01  0.20008990678E+01  0.17156450531E+03  0.17120000000E+03 0.  0.
        998    1    1    2    0    0  0.93513954809E+01  0.29893288587E+00  0.13923044840E+04  0.13923718304E+04  0.10000000000E+02 0.  1.
</event>
<event>
 5    1  0.1247473E-008  0.3775187E+03  0.7957747E-01  0.3462034E+00
         13   -1    0    0    0    0  0.00000000000E+00  0.00000000000E+00  0.14999999963E+04  0.15000000000E+04  0.10566000000E+00 0.  1.
        994   -1    0    0    0    0 -0.00000000000E+00 -0.00000000000E+00  0.11368683772E-12  0.17120000000E+03  0.17120000000E+03 0.  0.
         13    1    1    2    0    0  0.71384011389E+02 -0.20571278279E+02  0.33935428561E+03  0.34739055384E+03  0.10566000000E+00 0.  1.
        994    1    1    2    0    0 -0.92695130893E+02  0.78958980524E+01  0.35141376945E+02  0.19798759777E+03  0.17120000000E+03 0.  0.
        998    1    1    2    0    0  0.21311119504E+02  0.12675380227E+02  0.11255043337E+04  0.11258218484E+04  0.10000000000E+02 0.  1.
</event>
<event>
 5    1  0.1247473E-008  0.3854660E+03  0.7957747E-01  0.3427698E+00
         13   -1    0    0    0    0  0.00000000000E+00  0.00000000000E+00  0.14999999963E+04  0.15000000000E+04  0.10566000000E+00 0. -1.
        994   -1    0    0    0    0 -0.00000000000E+00 -0.00000000000E+00  0.11368683772E-12  0.17120000000E+03  0.17120000000E+03 0.  0.
         13    1    1    2    0    0  0.11113745972E+02  0.14321009215E+01  0.41855521594E+02  0.43329690912E+02  0.10566000000E+00 0. -1.
        994    1    1    2    0    0 -0.20220692266E+02 -0.73060589897E+01  0.29183131540E+01  0.17256943949E+03  0.17120000000E+03 0.  0.
        998    1    1    2    0    0  0.91069462944E+01  0.58739580682E+01  0.14552261615E+04  0.14553008696E+04  0.10000000000E+02 0. -1.
</event>
<event>
 5    1  0.1247473E-008  0.3800267E+03  0.7957747E-01  0.3451042E+00
         13   -1    0    0    0    0  0.00000000000E+00  0.00000000000E+00  0.14999999963E+04  0.15000000000E+04  0.10566000000E+00 0.  1.
        994   -1    0    0    0    0 -0.00000000000E+00 -0.00000000000E+00  0.11368683772E-12  0.17120000000E+03  0.17120000000E+03 0.  0.
         13    1    1    2    0    0  0.13842514376E+02 -0.72600372226E+01  0.28313897462E+02  0.32342097926E+02  0.10566000000E+00 0.  1.
        994    1    1    2    0    0 -0.65969842668E+01  0.26457037618E+01  0.42885550659E+01  0.17140114251E+03  0.17120000000E+03 0.  0.
        998    1    1    2    0    0 -0.72455301088E+01  0.46143334607E+01  0.14673975438E+04  0.14674567596E+04  0.10000000000E+02 0.  1.
</event>
<event>
 5    1  0.1247473E-008  0.3740821E+03  0.7957747E-01  0.3477338E+00
         13   -1    0    0    0    0  0.00000000000E+00  0.00000000000E+00  0.14999999963E+04  0.15000000000E+04  0.10566000000E+00 0.  1.
        994   -1    0    0    0    0 -0.00000000000E+00 -0.00000000000E+00  0.11368683772E-12  0.17120000000E+03  0.17120000000E+03 0.  0.
         13    1    1    2    0    0 -0.42397330650E+01 -0.19208387333E+02  0.88118682931E+01  0.21554527767E+02  0.10566000000E+00 0.  1.
        994    1    1    2    0    0  0.28652080678E+01  0.21181176711E+02  0.14735728458E+02  0.17315725037E+03  0.17120000000E+03 0.  0.
        998    1    1    2    0    0  0.13745249973E+01 -0.19727893777E+01  0.14764523995E+04  0.14764882219E+04  0.10000000000E+02 0.  1.
</event>
<event>
 5    1  0.1247473E-008  0.3815768E+03  0.7957747E-01  0.3444322E+00
         13   -1    0    0    0    0  0.00000000000E+00  0.00000000000E+00  0.14999999963E+04  0.15000000000E+04  0.10566000000E+00 0. -1.
        994   -1    0    0    0    0 -0.00000000000E+00 -0.00000000000E+00  0.11368683772E-12  0.17120000000E+03  0.17120000000E+03 0.  0.
         13    1    1    2    0    0 -0.75894873852E+01 -0.22270192778E+02  0.77312088951E+02  0.80812944924E+02  0.10566000000E+00 0. -1.
        994    1    1    2    0    0  0.47947730641E+01  0.25904855558E+02  0.56508636669E+01  0.17330730986E+03  0.17120000000E+03 0.  0.
        998    1    1    2    0    0  0.27947143211E+01 -0.36346627797E+01  0.14170370437E+04  0.14170797452E+04  0.10000000000E+02 0. -1.
</event>
<event>
 5    1  0.1247473E-008  0.3826803E+03  0.7957747E-01  0.3439570E+00
         13   -1    0    0    0    0  0.00000000000E+00  0.00000000000E+00  0.14999999963E+04  0.15000000000E+04  0.10566000000E+00 0. -1.
        994   -1    0    0    0    0 -0.00000000000E+00 -0.00000000000E+00  0.11368683772E-12  0.17120000000E+03  0.17120000000E+03 0.  0.
         13    1    1    2    0    0 -0.31222842225E+01  0.24473125790E+02  0.10166348527E+03  0.10461432955E+03  0.10566000000E+00 0. -1.
        994    1    1    2    0    0  0.57651507908E+01 -0.25123110600E+02  0.49908739056E+01  0.17320149096E+03  0.17120000000E+03 0.  0.
        998    1    1    2    0    0 -0.26428665683E+01  0.64998480978E+00  0.13933456371E+04  0.13933841795E+04  0.10000000000E+02 0.  0.
</event>
<event>
 5    1  0.1247473E-008  0.3833314E+03  0.7957747E-01  0.3436780E+00
         13   -1    0    0    0    0  0.00000000000E+00  0.00000000000E+00  0.14999999963E+04  0.15000000000E+04  0.10566000000E+00 0. -1.
        994   -1    0    0    0    0 -0.00000000000E+00 -0.00000000000E+00  0.11368683772E-12  0.17120000000E+03  0.17120000000E+03 0.  0.
         13    1    1    2    0    0 -0.66223705461E+01 -0.11451996726E+02  0.33265131288E+02  0.35799219884E+02  0.10566000000E+00 0. -1.
        994    1    1    2    0    0  0.49463742294E+01  0.20921458027E+02  0.39905448113E+01  0.17259066740E+03  0.17120000000E+03 0.  0.
        998    1    1    2    0    0  0.16759963167E+01 -0.94694613009E+01  0.14627443202E+04  0.14628101127E+04  0.10000000000E+02 0. -1.
</event>
<event>
 5    1  0.1247473E-008  0.3852498E+03  0.7957747E-01  0.3428614E+00
         13   -1    0    0    0    0  0.00000000000E+00  0.00000000000E+00  0.14999999963E+04  0.15000000000E+04  0.10566000000E+00 0. -1.
        994   -1    0    0    0    0 -0.00000000000E+00 -0.00000000000E+00  0.11368683772E-12  0.17120000000E+03  0.17120000000E+03 0.  0.
         13    1    1    2    0    0 -0.14468120518E+02 -0.79681465588E+01  0.91834728667E+02  0.93308340594E+02  0.10566000000E+00 0. -1.
        994    1    1    2    0    0  0.11158876307E+02 -0.10309319213E+01  0.19189632725E+01  0.17157711316E+03  0.17120000000E+03 0.  0.
        998    1    1    2    0    0  0.33092442116E+01  0.89990784801E+01  0.14062463043E+04  0.14063145462E+04  0.10000000000E+02 0. -1.
</event>
<event>
 5    1  0.1247473E-008  0.3813111E+03  0.7957747E-01  0.3445470E+00
         13   -1    0    0    0    0  0.00000000000E+00  0.00000000000E+00  0.14999999963E+04  0.15000000000E+04  0.10566000000E+00 0. -1.
        994   -1    0    0    0    0 -0.00000000000E+00 -0.00000000000E+00  0.11368683772E-12  0.17120000000E+03  0.17120000000E+03 0.  0.
         13    1    1    2    0    0 -0.14544297763E+02  0.88306406261E+01  0.41884710527E+02  0.45209036169E+02  0.10566000000E+00 0. -1.
        994    1    1    2    0    0  0.43066378834E+01  0.36771967533E+01  0.35795293642E+01  0.17133103028E+03  0.17120000000E+03 0.  0.
        998    1    1    2    0    0  0.10237659880E+02 -0.12507837379E+02  0.14545357564E+04  0.14546599336E+04  0.10000000000E+02 0. -1.
</event>
<event>
 5    1  0.1247473E-008  0.3821460E+03  0.7957747E-01  0.3441867E+00
         13   -1    0    0    0    0  0.00000000000E+00  0.00000000000E+00  0.14999999963E+04  0.15000000000E+04  0.10566000000E+00 0.  1.
        994   -1    0    0    0    0 -0.00000000000E+00 -0.00000000000E+00  0.11368683772E-12  0.17120000000E+03  0.17120000000E+03 0.  0.
         13    1    1    2    0    0  0.15135440449E+02  0.27573155866E+02  0.15552964072E+03  0.15867841942E+03  0.10566000000E+00 0.  1.
        994    1    1    2    0    0 -0.16923847218E+02 -0.17338340630E+02  0.50047843656E+01  0.17297838746E+03  0.17120000000E+03 0.  0.
        998    1    1    2    0    0  0.17884067697E+01 -0.10234815236E+02  0.13394655712E+04  0.13395431931E+04  0.10000000000E+02 0.  1.
</event>
<event>
 5    1  0.1247473E-008  0.3847554E+03  0.7957747E-01  0.3430710E+00
         13   -1    0    0    0    0  0.00000000000E+00  0.00000000000E+00  0.14999999963E+04  0.15000000000E+04  0.10566000000E+00 0.  1.
        994   -1    0    0    0    0 -0.00000000000E+00 -0.00000000000E+00  0.11368683772E-12  0.17120000000E+03  0.17120000000E+03 0.  0.
         13    1    1    2    0    0 -0.15025811821E+01  0.12172053488E+02  0.46481866250E+02  0.48072774940E+02  0.10566000000E+00 0.  1.
        994    1    1    2    0    0  0.13202400332E+02  0.92106803046E+01  0.26049810200E+01  0.17197489913E+03  0.17120000000E+03 0.  0.
        998    1    1    2    0    0 -0.11699819149E+02 -0.21382733792E+02  0.14509131490E+04  0.14511523259E+04  0.10000000000E+02 0.  1.
</event>
<event>
 5    1  0.1247473E-008  0.3738844E+03  0.7957747E-01  0.3478227E+00
         13   -1    0    0    0    0  0.00000000000E+00  0.00000000000E+00  0.14999999963E+04  0.15000000000E+04  0.10566000000E+00 0.  1.
        994   -1    0    0    0    0 -0.00000000000E+00 -0.00000000000E+00  0.11368683772E-12  0.17120000000E+03  0.17120000000E+03 0.  0.
         13    1    1    2    0    0 -0.16834531423E+02 -0.11323138727E+01  0.16316914377E+02  0.23472035314E+02  0.10566000000E+00 0.  1.
        994    1    1    2    0    0  0.16038748871E+02  0.67765949619E+00  0.81324771340E+01  0.17214319003E+03  0.17120000000E+03 0.  0.
        998    1    1    2    0    0  0.79578255219E+00  0.45465437653E+00  0.14755506048E+04  0.14755847747E+04  0.10000000000E+02 0.  0.
</event>
<event>
 5    1  0.1247473E-008  0.3758181E+03  0.7957747E-01  0.3469572E+00
         13   -1    0    0    0    0  0.00000000000E+00  0.00000000000E+00  0.14999999963E+04  0.15000000000E+04  0.10566000000E+00 0.  1.
        994   -1    0    0    0    0 -0.00000000000E+00 -0.00000000000E+00  0.11368683772E-12  0.17120000000E+03  0.17120000000E+03 0.  0.
         13    1    1    2    0    0  0.63719797713E+01 -0.31209935158E+02  0.94712865744E+02  0.99925974002E+02  0.10566000000E+00 0.  1.
        994    1    1    2    0    0 -0.89655863400E+01 -0.25357746482E+02  0.87152973185E+01  0.17351885619E+03  0.17120000000E+03 0.  0.
        998    1    1    2    0    0  0.25936065687E+01  0.56567681640E+02  0.13965718332E+04  0.13977551698E+04  0.10000000000E+02 0.  1.
</event>
<event>
 5    1  0.1247473E-008  0.3747269E+03  0.7957747E-01  0.3474445E+00
         13   -1    0    0    0    0  0.00000000000E+00  0.00000000000E+00  0.14999999963E+04  0.15000000000E+04  0.10566000000E+00 0.  1.
        994   -1    0    0    0    0 -0.00000000000E+00 -0.00000000000E+00  0.11368683772E-12  0.17120000000E+03  0.17120000000E+03 0.  0.
         13    1    1    2    0    0  0.26924650604E+02  0.31742011638E+02  0.97297019990E+02  0.10582633593E+03  0.10566000000E+00 0.  1.
        994    1    1    2    0    0 -0.47441487773E+02 -0.71610080355E+02  0.32353880476E+02  0.19425476044E+03  0.17120000000E+03 0.  0.
        998    1    1    2    0    0  0.20516837169E+02  0.39868068717E+02  0.13703490958E+04  0.13711189036E+04  0.10000000000E+02 0.  1.
</event>
<event>
 5    1  0.1247473E-008  0.3813907E+03  0.7957747E-01  0.3445125E+00
         13   -1    0    0    0    0  0.00000000000E+00  0.00000000000E+00  0.14999999963E+04  0.15000000000E+04  0.10566000000E+00 0. -1.
        994   -1    0    0    0    0 -0.00000000000E+00 -0.00000000000E+00  0.11368683772E-12  0.17120000000E+03  0.17120000000E+03 0.  0.
         13    1    1    2    0    0  0.12165921976E+02  0.41358200532E+01  0.22624938563E+02  0.26019486429E+02  0.10566000000E+00 0. -1.
        994    1    1    2    0    0 -0.80345581494E+01 -0.69962554608E+01  0.38105308280E+01  0.17157348822E+03  0.17120000000E+03 0.  0.
        998    1    1    2    0    0 -0.41313638265E+01  0.28604354076E+01  0.14735645269E+04  0.14736070253E+04  0.10000000000E+02 0. -1.
</event>
<event>
 5    1  0.1247473E-008  0.3824297E+03  0.7957747E-01  0.3440647E+00
         13   -1    0    0    0    0  0.00000000000E+00  0.00000000000E+00  0.14999999963E+04  0.15000000000E+04  0.10566000000E+00 0.  1.
        994   -1    0    0    0    0 -0.00000000000E+00 -0.00000000000E+00  0.11368683772E-12  0.17120000000E+03  0.17120000000E+03 0.  0.
         13    1    1    2    0    0 -0.97531479562E+01  0.19174900610E+02  0.79972828313E+02  0.82815850783E+02  0.10566000000E+00 0.  1.
        994    1    1    2    0    0  0.74963702700E+01 -0.77326328615E+01  0.32964022091E+01  0.17157008902E+03  0.17120000000E+03 0.  0.
        998    1    1    2    0    0  0.22567776862E+01 -0.11442267748E+02  0.14167307658E+04  0.14168140602E+04  0.10000000000E+02 0.  1.
</event>
<event>
 5    1  0.1247473E-008  0.3853945E+03  0.7957747E-01  0.3428001E+00
         13   -1    0    0    0    0  0.00000000000E+00  0.00000000000E+00  0.14999999963E+04  0.15000000000E+04  0.10566000000E+00 0.  1.
        994   -1    0    0    0    0 -0.00000000000E+00 -0.00000000000E+00  0.11368683772E-12  0.17120000000E+03  0.17120000000E+03 0.  0.
         13    1    1    2    0    0 -0.68196274137E+01 -0.84459243283E+01  0.39890476792E+02  0.41341289996E+02  0.10566000000E+00 0.  1.
        994    1    1    2    0    0  0.37465280279E+01  0.13964769418E+02  0.21213440763E+01  0.17182255777E+03  0.17120000000E+03 0.  0.
        998    1    1    2    0    0  0.30730993858E+01 -0.55188450896E+01  0.14579881754E+04  0.14580361522E+04  0.10000000000E+02 0.  1.
</event>
<event>
 5    1  0.1247473E-008  0.3843850E+03  0.7957747E-01  0.3432285E+00
         13   -1    0    0    0    0  0.00000000000E+00  0.00000000000E+00  0.14999999963E+04  0.15000000000E+04  0.10566000000E+00 0. -1.
        994   -1    0    0    0    0 -0.00000000000E+00 -0.00000000000E+00  0.11368683772E-12  0.17120000000E+03  0.17120000000E+03 0.  0.
         13    1    1    2    0    0 -0.13325036271E+02 -0.83593581635E+01  0.63575265281E+02  0.65492449794E+02  0.10566000000E+00 0. -1.
        994    1    1    2    0    0  0.11653501682E+02  0.11497253704E+01  0.23877730442E+01  0.17161662924E+03  0.17120000000E+03 0.  0.
        998    1    1    2    0    0  0.16715345891E+01  0.72096327931E+01  0.14340369580E+04  0.14340909210E+04  0.10000000000E+02 0. -1.
</event>
<event>
 5    1  0.1247473E-008  0.3807442E+03  0.7957747E-01  0.3447924E+00
         13   -1    0    0    0    0  0.00000000000E+00  0.00000000000E+00  0.14999999963E+04  0.15000000000E+04  0.10566000000E+00 0. -1.
        994   -1    0    0    0    0 -0.00000000000E+00 -0.00000000000E+00  0.11368683772E-12  0.17120000000E+03  0.17120000000E+03 0.  0.
         13    1    1    2    0    0 -0.29219307186E+01 -0.13416577101E+02  0.23110286067E+02  0.26881940153E+02  0.10566000000E+00 0. -1.
        994    1    1    2    0    0  0.52899831189E+01  0.15566449277E+02  0.46598115617E+01  0.17205072539E+03  0.17120000000E+03 0.  0.
        998    1    1    2    0    0 -0.23680524002E+01 -0.21498721757E+01  0.14722298986E+04  0.14722673345E+04  0.10000000000E+02 0. -1.
</event>
<event>
 5    1  0.1614717E-008  0.3860018E+03  0.7957747E-01  0.3425435E+00
         13   -1    0    0    0    0  0.00000000000E+00  0.00000000000E+00  0.14999999963E+04  0.15000000000E+04  0.10566000000E+00 0.  1.
        994   -1    0    0    0    0 -0.00000000000E+00 -0.00000000000E+00  0.11368683772E-12  0.17120000000E+03  0.17120000000E+03 0.  0.
         13    1    1    2    0    0  0.11658945540E+02 -0.79388002285E+00  0.59978747415E+02  0.61106649083E+02  0.10566000000E+00 0.  1.
        994    1    1    2    0    0 -0.10270989729E+02 -0.29282080495E+01  0.15075832457E+01  0.17153944281E+03  0.17120000000E+03 0.  0.
        998    1    1    2    0    0 -0.13879558103E+01  0.37220880724E+01  0.14385136656E+04  0.14385539081E+04  0.10000000000E+02 0.  1.
</event>
<event>
 5    1  0.1247473E-008  0.3712873E+03  0.7957747E-01  0.3489996E+00
         13   -1    0    0    0    0  0.00000000000E+00  0.00000000000E+00  0.14999999963E+04  0.15000000000E+04  0.10566000000E+00 0. -1.
        994   -1    0    0    0    0 -0.00000000000E+00 -0.00000000000E+00  0.11368683772E-12  0.17120000000E+03  0.17120000000E+03 0.  0.
         13    1    1    2    0    0 -0.29652139845E+02 -0.46360478603E+02  0.20853190942E+03  0.21567130496E+03  0.10566000000E+00 0. -1.
        994    1    1    2    0    0 -0.61049105171E+01  0.32971251589E+01  0.87635159492E+01  0.17156450734E+03  0.17120000000E+03 0.  0.
        998    1    1    2    0    0  0.35757050362E+02  0.43063353445E+02  0.12827045709E+04  0.12839641877E+04  0.10000000000E+02 0. -1.
</event>
<event>
 5    1  0.1247473E-008  0.3824536E+03  0.7957747E-01  0.3440544E+00
         13   -1    0    0    0    0  0.00000000000E+00  0.00000000000E+00  0.14999999963E+04  0.15000000000E+04  0.10566000000E+00 0. -1.
        994   -1    0    0    0    0 -0.00000000000E+00 -0.00000000000E+00  0.11368683772E-12  0.17120000000E+03  0.17120000000E+03 0.  0.
         13    1    1    2    0    0 -0.20416038928E+02 -0.26974998550E+02  0.25943171832E+02  0.42632435082E+02  0.10566000000E+00 0. -1.
        994    1    1    2    0    0  0.16700884301E+02  0.54857959440E+01  0.18812267304E+02  0.17312525782E+03  0.17120000000E+03 0.  0.
        998    1    1    2    0    0  0.37151546269E+01  0.21489202606E+02  0.14552445571E+04  0.14554423071E+04  0.10000000000E+02 0. -1.
</event>
<event>
 5    1  0.1247473E-008  0.3853717E+03  0.7957747E-01  0.3428097E+00
         13   -1    0    0    0    0  0.00000000000E+00  0.00000000000E+00  0.14999999963E+04  0.15000000000E+04  0.10566000000E+00 0. -1.
        994   -1    0    0    0    0 -0.00000000000E+00 -0.00000000000E+00  0.11368683772E-12  0.17120000000E+03  0.17120000000E+03 0.  0.
         13    1    1    2    0    0 -0.12906756996E+01 -0.12082913391E+02  0.52770771516E+02  0.54151898675E+02  0.10566000000E+00 0. -1.
        994    1    1    2    0    0  0.58832002184E+01  0.26679669577E+01  0.15828043197E+01  0.17132914335E+03  0.17120000000E+03 0.  0.
        998    1    1    2    0    0 -0.45925245187E+01  0.94149464335E+01  0.14456464204E+04  0.14457189580E+04  0.10000000000E+02 0. -1.
</event>
<event>
 5    1  0.1247473E-008  0.3703315E+03  0.7957747E-01  0.3494369E+00
         13   -1    0    0    0    0  0.00000000000E+00  0.00000000000E+00  0.14999999963E+04  0.15000000000E+04  0.10566000000E+00 0.  1.
        994   -1    0    0    0    0 -0.00000000000E+00 -0.00000000000E+00  0.11368683772E-12  0.17120000000E+03  0.17120000000E+03 0.  0.
         13    1    1    2    0    0  0.26381739433E+02 -0.12593401649E+02  0.44568630995E+02  0.53300693930E+02  0.10566000000E+00 0.  1.
        994    1    1    2    0    0 -0.69826621944E+01  0.90947879649E+01  0.95501120092E+01  0.17184911224E+03  0.17120000000E+03 0.  0.
        998    1    1    2    0    0 -0.19399077239E+02  0.34986136839E+01  0.14458812533E+04  0.14460501938E+04  0.10000000000E+02 0.  1.
</event>
<event>
 5    1  0.1247473E-008  0.4228043E+03  0.7957747E-01  0.3283627E+00
         13   -1    0    0    0    0  0.00000000000E+00  0.00000000000E+00  0.14999999963E+04  0.15000000000E+04  0.10566000000E+00 0.  1.
        994   -1    0    0    0    0 -0.00000000000E+00 -0.00000000000E+00  0.11368683772E-12  0.17120000000E+03  0.17120000000E+03 0.  0.
         13    1    1    2    0    0 -0.37721309485E+02  0.58824506143E+02  0.42020700292E+02  0.81541217364E+02  0.10566000000E+00 0.  1.
        994    1    1    2    0    0  0.46555889671E+02 -0.58368963281E+02  0.66714089940E+02  0.19832951503E+03  0.17120000000E+03 0.  0.
        998    1    1    2    0    0 -0.88345801858E+01 -0.45554286166E+00  0.13912652060E+04  0.13913292676E+04  0.10000000000E+02 0.  1.
</event>
<event>
 5    1  0.1247473E-008  0.3832004E+03  0.7957747E-01  0.3437341E+00
         13   -1    0    0    0    0  0.00000000000E+00  0.00000000000E+00  0.14999999963E+04  0.15000000000E+04  0.10566000000E+00 0.  1.
        994   -1    0    0    0    0 -0.00000000000E+00 -0.00000000000E+00  0.11368683772E-12  0.17120000000E+03  0.17120000000E+03 0.  0.
         13    1    1    2    0    0  0.98517005947E+01 -0.28894414596E+02  0.13816204050E+03  0.14149453629E+03  0.10566000000E+00 0.  1.
        994    1    1    2    0    0 -0.65247788134E+01  0.58956938004E+02  0.14253567938E+02  0.18174459408E+03  0.17120000000E+03 0.  0.
        998    1    1    2    0    0 -0.33269217813E+01 -0.30062523407E+02  0.13475843878E+04  0.13479608696E+04  0.10000000000E+02 0.  1.
</event>
<event>
 5    1  0.1247473E-008  0.3711722E+03  0.7957747E-01  0.3490521E+00
         13   -1    0    0    0    0  0.00000000000E+00  0.00000000000E+00  0.14999999963E+04  0.15000000000E+04  0.10566000000E+00 0. -1.
        994   -1    0    0    0    0 -0.00000000000E+00 -0.00000000000E+00  0.11368683772E-12  0.17120000000E+03  0.17120000000E+03 0.  0.
         13    1    1    2    0    0  0.11183281438E+01 -0.12041973984E+02  0.44814625035E+01  0.12897847320E+02  0.10566000000E+00 0. -1.
        994    1    1    2    0    0 -0.33536946004E+01  0.70111189633E+01  0.88656940903E+01  0.17160548822E+03  0.17120000000E+03 0.  0.
        998    1    1    2    0    0  0.22353664565E+01  0.50308550208E+01  0.14866528397E+04  0.14866966645E+04  0.10000000000E+02 0. -1.
</event>
<event>
 5    1  0.1247473E-008  0.3829408E+03  0.7957747E-01  0.3438453E+00
         13   -1    0    0    0    0  0.00000000000E+00  0.00000000000E+00  0.14999999963E+04  0.15000000000E+04  0.10566000000E+00 0.  1.
        994   -1    0    0    0    0 -0.00000000000E+00 -0.00000000000E+00  0.11368683772E-12  0.17120000000E+03  0.17120000000E+03 0.  0.
         13    1    1    2    0    0  0.24655709543E+02  0.94879257892E-01  0.11160633146E+03  0.11429740767E+03  0.10566000000E+00 0.  1.
        994    1    1    2    0    0 -0.17872964059E+02 -0.68916237752E+00  0.37158267235E+01  0.17217190583E+03  0.17120000000E+03 0.  0.
        998    1    1    2    0    0 -0.67827454835E+01  0.59428311963E+00  0.13846778381E+04  0.13847306865E+04  0.10000000000E+02 0.  1.
</event>
<event>
 5    1  0.1247473E-008  0.3830104E+03  0.7957747E-01  0.3438154E+00
         13   -1    0    0    0    0  0.00000000000E+00  0.00000000000E+00  0.14999999963E+04  0.15000000000E+04  0.10566000000E+00 0.  1.
        994   -1    0    0    0    0 -0.00000000000E+00 -0.00000000000E+00  0.11368683772E-12  0.17120000000E+03  0.17120000000E+03 0.  0.
         13    1    1    2    0    0  0.10993855807E+02 -0.21625638261E+02  0.10500514909E+03  0.10777117237E+03  0.10566000000E+00 0.  1.
        994    1    1    2    0    0 -0.79826904556E+01  0.23244607036E+02  0.46230848001E+01  0.17301690096E+03  0.17120000000E+03 0.  0.
        998    1    1    2    0    0 -0.30111653510E+01 -0.16189687758E+01  0.13903717624E+04  0.13904119267E+04  0.10000000000E+02 0.  1.
</event>
<event>
 5    1  0.1516206E-008  0.3859683E+03  0.7957747E-01  0.3425576E+00
         13   -1    0    0    0    0  0.00000000000E+00  0.00000000000E+00  0.14999999963E+04  0.15000000000E+04  0.10566000000E+00 0.  1.
        994   -1    0    0    0    0 -0.00000000000E+00 -0.00000000000E+00  0.11368683772E-12  0.17120000000E+03  0.17120000000E+03 0.  0.
         13    1    1    2    0    0  0.70699144896E+01  0.71995056183E+01  0.44611178723E+02  0.45738222562E+02  0.10566000000E+00 0.  1.
        994    1    1    2    0    0 -0.38378677718E+01 -0.64496975269E+01  0.13348402872E+01  0.17136962866E+03  0.17120000000E+03 0.  0.
        998    1    1    2    0    0 -0.32320467178E+01 -0.74980809144E+00  0.14540539773E+04  0.14540921488E+04  0.10000000000E+02 0.  1.
</event>
<event>
 5    1  0.1247473E-008  0.3843542E+03  0.7957747E-01  0.3432416E+00
         13   -1    0    0    0    0  0.00000000000E+00  0.00000000000E+00  0.14999999963E+04  0.15000000000E+04  0.10566000000E+00 0. -1.
        994   -1    0    0    0    0 -0.00000000000E+00 -0.00000000000E+00  0.11368683772E-12  0.17120000000E+03  0.17120000000E+03 0.  0.
         13    1    1    2    0    0 -0.26312666634E+02 -0.43661185663E+00  0.14481005156E+03  0.14718189173E+03  0.10566000000E+00 0. -1.
        994    1    1    2    0    0  0.39779562912E+02  0.94086232727E+01  0.74772588974E+01  0.17617118158E+03  0.17120000000E+03 0.  0.
        998    1    1    2    0    0 -0.13466896278E+02 -0.89720114161E+01  0.13477126858E+04  0.13478469267E+04  0.10000000000E+02 0. -1.
</event>
<event>
 5    1  0.1247473E-008  0.3693443E+03  0.7957747E-01  0.3498910E+00
         13   -1    0    0    0    0  0.00000000000E+00  0.00000000000E+00  0.14999999963E+04  0.15000000000E+04  0.10566000000E+00 0. -1.
        994   -1    0    0    0    0 -0.00000000000E+00 -0.00000000000E+00  0.11368683772E-12  0.17120000000E+03  0.17120000000E+03 0.  0.
         13    1    1    2    0    0  0.49606044295E+02  0.11774598549E+02  0.16782695415E+03  0.17540039482E+03  0.10566000000E+00 0. -1.
        994    1    1    2    0    0  0.17924799380E+02  0.75484157068E+01  0.10924202153E+02  0.17264719866E+03  0.17120000000E+03 0.  0.
        998    1    1    2    0    0 -0.67530843675E+02 -0.19323014256E+02  0.13212488400E+04  0.13231524065E+04  0.10000000000E+02 0. -1.
</event>
<event>
 5    1  0.1247473E-008  0.3726928E+03  0.7957747E-01  0.3483606E+00
         13   -1    0    0    0    0  0.00000000000E+00  0.00000000000E+00  0.14999999963E+04  0.15000000000E+04  0.10566000000E+00 0.  1.
        994   -1    0    0    0    0 -0.00000000000E+00 -0.00000000000E+00  0.11368683772E-12  0.17120000000E+03  0.17120000000E+03 0.  0.
         13    1    1    2    0    0 -0.69732813420E+00  0.13517683614E+02  0.17177373935E+01  0.13644626143E+02  0.10566000000E+00 0.  1.
        994    1    1    2    0    0 -0.47574820486E+01 -0.10705739702E+02  0.12854369236E+02  0.17208114745E+03  0.17120000000E+03 0.  0.
        998    1    1    2    0    0  0.54548101828E+01 -0.28119439118E+01  0.14854278896E+04  0.14854742264E+04  0.10000000000E+02 0.  1.
</event>
<event>
 5    1  0.1247473E-008  0.3855384E+03  0.7957747E-01  0.3427392E+00
         13   -1    0    0    0    0  0.00000000000E+00  0.00000000000E+00  0.14999999963E+04  0.15000000000E+04  0.10566000000E+00 0.  1.
        994   -1    0    0    0    0 -0.00000000000E+00 -0.00000000000E+00  0.11368683772E-12  0.17120000000E+03  0.17120000000E+03 0.  0.
         13    1    1    2    0    0 -0.12237165602E+02  0.35737438461E+01  0.60572469912E+02  0.61899556883E+02  0.10566000000E+00 0.  1.
        994    1    1    2    0    0  0.77755745025E+01  0.19050592586E+01  0.15735127713E+01  0.17139429615E+03  0.17120000000E+03 0.  0.
        998    1    1    2    0    0  0.44615910998E+01 -0.54788031048E+01  0.14378540136E+04  0.14379061470E+04  0.10000000000E+02 0.  1.
</event>
<event>
 5    1  0.1247473E-008  0.3858254E+03  0.7957747E-01  0.3426179E+00
         13   -1    0    0    0    0  0.00000000000E+00  0.00000000000E+00  0.14999999963E+04  0.15000000000E+04  0.10566000000E+00 0. -1.
        994   -1    0    0    0    0 -0.00000000000E+00 -0.00000000000E+00  0.11368683772E-12  0.17120000000E+03  0.17120000000E+03 0.  0.
         13    1    1    2    0    0  0.92525418921E+01  0.74992673035E+01  0.68375867034E+02  0.69405467351E+02  0.10566000000E+00 0. -1.
        994    1    1    2    0    0 -0.33573375683E+01  0.22319567499E+02  0.28935495409E+01  0.17270566707E+03  0.17120000000E+03 0.  0.
        998    1    1    2    0    0 -0.58952043238E+01 -0.29818834802E+02  0.14287305797E+04  0.14290888656E+04  0.10000000000E+02 0. -1.
</event>
<event>
 5    1  0.1247473E-008  0.3734800E+03  0.7957747E-01  0.3480049E+00
         13   -1    0    0    0    0  0.00000000000E+00  0.00000000000E+00  0.14999999963E+04  0.15000000000E+04  0.10566000000E+00 0. -1.
        994   -1    0    0    0    0 -0.00000000000E+00 -0.00000000000E+00  0.11368683772E-12  0.17120000000E+03  0.17120000000E+03 0.  0.
         13    1    1    2    0    0 -0.13237933567E+02  0.92844522696E+01  0.14245350639E+02  0.21549596700E+02  0.10566000000E+00 0. -1.
        994    1    1    2    0    0  0.49010545813E+01 -0.12976559109E+02  0.81190232202E+01  0.17195281318E+03  0.17120000000E+03 0.  0.
        998    1    1    2    0    0  0.83368789860E+01  0.36921068391E+01  0.14776356224E+04  0.14776975901E+04  0.10000000000E+02 0. -1.
</event>
<event>
 5    1  0.1286524E-008  0.3861932E+03  0.7957747E-01  0.3424627E+00
         13   -1    0    0    0    0  0.00000000000E+00  0.00000000000E+00  0.14999999963E+04  0.15000000000E+04  0.10566000000E+00 0. -1.
        994   -1    0    0    0    0 -0.00000000000E+00 -0.00000000000E+00  0.11368683772E-12  0.17120000000E+03  0.17120000000E+03 0.  0.
         13    1    1    2    0    0  0.95276496577E+01 -0.77138305276E+01  0.70814367549E+02  0.71867691662E+02  0.10566000000E+00 0. -1.
        994    1    1    2    0    0 -0.37088794166E+01  0.15588856062E+02  0.18804899949E+01  0.17195855449E+03  0.17120000000E+03 0.  0.
        998    1    1    2    0    0 -0.58187702411E+01 -0.78750255339E+01  0.14273051387E+04  0.14273737538E+04  0.10000000000E+02 0. -1.
</event>
<event>
 5    1  0.1247473E-008  0.3790600E+03  0.7957747E-01  0.3455262E+00
         13   -1    0    0    0    0  0.00000000000E+00  0.00000000000E+00  0.14999999963E+04  0.15000000000E+04  0.10566000000E+00 0. -1.
        994   -1    0    0    0    0 -0.00000000000E+00 -0.00000000000E+00  0.11368683772E-12  0.17120000000E+03  0.17120000000E+03 0.  0.
         13    1    1    2    0    0 -0.21155147074E+02  0.10258305235E+02  0.57649075585E+02  0.62259137112E+02  0.10566000000E+00 0. -1.
        994    1    1    2    0    0  0.13456141533E+02 -0.13191721898E+02  0.58000578894E+01  0.17233156978E+03  0.17120000000E+03 0.  0.
        998    1    1    2    0    0  0.76990055417E+01  0.29334166628E+01  0.14365508628E+04  0.14366092931E+04  0.10000000000E+02 0. -1.
</event>
<event>
 5    1  0.1247473E-008  0.3849324E+03  0.7957747E-01  0.3429959E+00
         13   -1    0    0    0    0  0.00000000000E+00  0.00000000000E+00  0.14999999963E+04  0.15000000000E+04  0.10566000000E+00 0.  1.
        994   -1    0    0    0    0 -0.00000000000E+00 -0.00000000000E+00  0.11368683772E-12  0.17120000000E+03  0.17120000000E+03 0.  0.
         13    1    1    2    0    0  0.12063126538E+02 -0.93637990656E+01  0.72957125548E+02  0.74538265925E+02  0.10566000000E+00 0.  1.
        994    1    1    2    0    0 -0.12995994938E+02 -0.97250019116E+01  0.25308145641E+01  0.17198638484E+03  0.17120000000E+03 0.  0.
        998    1    1    2    0    0  0.93286840014E+00  0.19088800977E+02  0.14245120562E+04  0.14246753492E+04  0.10000000000E+02 0.  1.
</event>
<event>
 5    1  0.1247473E-008  0.3730023E+03  0.7957747E-01  0.3482206E+00
         13   -1    0    0    0    0  0.00000000000E+00  0.00000000000E+00  0.14999999963E+04  0.15000000000E+04  0.10566000000E+00 0.  1.
        994   -1    0    0    0    0 -0.00000000000E+00 -0.00000000000E+00  0.11368683772E-12  0.17120000000E+03  0.17120000000E+03 0.  0.
         13    1    1    2    0    0 -0.77033449098E+02 -0.74001956764E+02  0.23992729695E+03  0.26263198752E+03  0.10566000000E+00 0.  1.
        994    1    1    2    0    0  0.13395834682E+03  0.12405964677E+03  0.14176554706E+03  0.28765003906E+03  0.17120000000E+03 0.  0.
        998    1    1    2    0    0 -0.56924897718E+02 -0.50057690007E+02  0.11183071523E+04  0.11209179734E+04  0.10000000000E+02 0.  1.
</event>
<event>
 5    1  0.1247473E-008  0.3723557E+03  0.7957747E-01  0.3485134E+00
         13   -1    0    0    0    0  0.00000000000E+00  0.00000000000E+00  0.14999999963E+04  0.15000000000E+04  0.10566000000E+00 0.  1.
        994   -1    0    0    0    0 -0.00000000000E+00 -0.00000000000E+00  0.11368683772E-12  0.17120000000E+03  0.17120000000E+03 0.  0.
         13    1    1    2    0    0  0.10315167587E+03  0.30788566630E+02  0.43445992581E+03  0.44759763445E+03  0.10566000000E+00 0.  1.
        994    1    1    2    0    0 -0.99227937166E+02  0.48351380513E+02  0.56477324347E+02  0.21138393429E+03  0.17120000000E+03 0.  0.
        998    1    1    2    0    0 -0.39237386999E+01 -0.79139947143E+02  0.10090627461E+04  0.10122184313E+04  0.10000000000E+02 0.  1.
</event>
<event>
 5    1  0.1247473E-008  0.3816095E+03  0.7957747E-01  0.3444180E+00
         13   -1    0    0    0    0  0.00000000000E+00  0.00000000000E+00  0.14999999963E+04  0.15000000000E+04  0.10566000000E+00 0. -1.
        994   -1    0    0    0    0 -0.00000000000E+00 -0.00000000000E+00  0.11368683772E-12  0.17120000000E+03  0.17120000000E+03 0.  0.
         13    1    1    2    0    0  0.49077620621E+01 -0.12505787940E+02  0.25669682491E+02  0.28972825607E+02  0.10566000000E+00 0. -1.
        994    1    1    2    0    0 -0.62158508694E+01  0.10232531510E+02  0.37996636715E+01  0.17166018451E+03  0.17120000000E+03 0.  0.
        998    1    1    2    0    0  0.13080888073E+01  0.22732564303E+01  0.14705306501E+04  0.14705669899E+04  0.10000000000E+02 0. -1.
</event>
<event>
 5    1  0.1247473E-008  0.3805386E+03  0.7957747E-01  0.3448817E+00
         13   -1    0    0    0    0  0.00000000000E+00  0.00000000000E+00  0.14999999963E+04  0.15000000000E+04  0.10566000000E+00 0. -1.
        994   -1    0    0    0    0 -0.00000000000E+00 -0.00000000000E+00  0.11368683772E-12  0.17120000000E+03  0.17120000000E+03 0.  0.
         13    1    1    2    0    0 -0.19210361125E+01 -0.20980199284E+02  0.54561522911E+02  0.58487862743E+02  0.10566000000E+00 0. -1.
        994    1    1    2    0    0  0.75566454379E+00  0.20475469249E+02  0.52636778954E+01  0.17250206426E+03  0.17120000000E+03 0.  0.
        998    1    1    2    0    0  0.11653715687E+01  0.50473003495E+00  0.14401747955E+04  0.14402100730E+04  0.10000000000E+02 0. -1.
</event>
<event>
 5    1  0.1247473E-008  0.3843487E+03  0.7957747E-01  0.3432439E+00
         13   -1    0    0    0    0  0.00000000000E+00  0.00000000000E+00  0.14999999963E+04  0.15000000000E+04  0.10566000000E+00 0. -1.
        994   -1    0    0    0    0 -0.00000000000E+00 -0.00000000000E+00  0.11368683772E-12  0.17120000000E+03  0.17120000000E+03 0.  0.
         13    1    1    2    0    0 -0.11831540966E+02 -0.71749370086E+01  0.53417674639E+02  0.55180831913E+02  0.10566000000E+00 0. -1.
        994    1    1    2    0    0 -0.66378048173E+01 -0.47752960199E+01  0.21742312001E+01  0.17140895889E+03  0.17120000000E+03 0.  0.
        998    1    1    2    0    0  0.18469345783E+02  0.11950233028E+02  0.14444080904E+04  0.14446102092E+04  0.10000000000E+02 0. -1.
</event>
<event>
 5    1  0.1247473E-008  0.3842017E+03  0.7957747E-01  0.3433065E+00
         13   -1    0    0    0    0  0.00000000000E+00  0.00000000000E+00  0.14999999963E+04  0.15000000000E+04  0.10566000000E+00 0.  1.
        994   -1    0    0    0    0 -0.00000000000E+00 -0.00000000000E+00  0.11368683772E-12  0.17120000000E+03  0.17120000000E+03 0.  0.
         13    1    1    2    0    0 -0.39276069211E+01  0.10482983278E+02  0.31819261800E+02  0.33731226187E+02  0.10566000000E+00 0.  1.
        994    1    1    2    0    0 -0.41886637237E+00  0.35003271049E+01  0.20679662632E+01  0.17124877875E+03  0.17120000000E+03 0.  0.
        998    1    1    2    0    0  0.43464732935E+01 -0.13983310383E+02  0.14661127682E+04  0.14662199951E+04  0.10000000000E+02 0.  1.
</event>
<event>
 5    1  0.1247473E-008  0.3837571E+03  0.7957747E-01  0.3434961E+00
         13   -1    0    0    0    0  0.00000000000E+00  0.00000000000E+00  0.14999999963E+04  0.15000000000E+04  0.10566000000E+00 0.  1.
        994   -1    0    0    0    0 -0.00000000000E+00 -0.00000000000E+00  0.11368683772E-12  0.17120000000E+03  0.17120000000E+03 0.  0.
         13    1    1    2    0    0  0.14547286969E+02  0.62018200892E+01  0.55293904111E+02  0.57510982660E+02  0.10566000000E+00 0.  1.
        994    1    1    2    0    0 -0.35818578710E+01 -0.16509549321E+02  0.31914096750E+01  0.17206109386E+03  0.17120000000E+03 0.  0.
        998    1    1    2    0    0 -0.10965429098E+02  0.10307729232E+02  0.14415146825E+04  0.14416279235E+04  0.10000000000E+02 0.  1.
</event>
<event>
 5    1  0.1247473E-008  0.3804850E+03  0.7957747E-01  0.3449050E+00
         13   -1    0    0    0    0  0.00000000000E+00  0.00000000000E+00  0.14999999963E+04  0.15000000000E+04  0.10566000000E+00 0.  1.
        994   -1    0    0    0    0 -0.00000000000E+00 -0.00000000000E+00  0.11368683772E-12  0.17120000000E+03  0.17120000000E+03 0.  0.
         13    1    1    2    0    0 -0.36505507488E+01 -0.14160641252E+02  0.26780864541E+02  0.30513540453E+02  0.10566000000E+00 0.  1.
        994    1    1    2    0    0 -0.66179712576E+01  0.11888587170E+01  0.40394521505E+01  0.17137960235E+03  0.17120000000E+03 0.  0.
        998    1    1    2    0    0  0.10268522006E+02  0.12971782535E+02  0.14691796796E+04  0.14693068572E+04  0.10000000000E+02 0.  1.
</event>
<event>
 5    1  0.1247473E-008  0.3801339E+03  0.7957747E-01  0.3450576E+00
         13   -1    0    0    0    0  0.00000000000E+00  0.00000000000E+00  0.14999999963E+04  0.15000000000E+04  0.10566000000E+00 0.  1.
        994   -1    0    0    0    0 -0.00000000000E+00 -0.00000000000E+00  0.11368683772E-12  0.17120000000E+03  0.17120000000E+03 0.  0.
         13    1    1    2    0    0 -0.47223141954E+02 -0.78600062734E+01  0.23746185763E+03  0.24223944729E+03  0.10566000000E+00 0.  1.
        994    1    1    2    0    0  0.48821210213E+02  0.94129710418E+00  0.12074348739E+02  0.17843661761E+03  0.17120000000E+03 0.  0.
        998    1    1    2    0    0 -0.15980682594E+01  0.69187091692E+01  0.12504637899E+04  0.12505239351E+04  0.10000000000E+02 0.  1.
</event>
<event>
 5    1  0.1247473E-008  0.3810055E+03  0.7957747E-01  0.3446792E+00
         13   -1    0    0    0    0  0.00000000000E+00  0.00000000000E+00  0.14999999963E+04  0.15000000000E+04  0.10566000000E+00 0.  1.
        994   -1    0    0    0    0 -0.00000000000E+00 -0.00000000000E+00  0.11368683772E-12  0.17120000000E+03  0.17120000000E+03 0.  0.
         13    1    1    2    0    0  0.17854908872E+02 -0.12753338754E+02  0.65307703529E+02  0.68895230056E+02  0.10566000000E+00 0.  1.
        994    1    1    2    0    0 -0.14612433982E+02  0.24800065330E+01  0.43586891654E+01  0.17189564227E+03  0.17120000000E+03 0.  0.
        998    1    1    2    0    0 -0.32424748894E+01  0.10273332221E+02  0.14303336036E+04  0.14304091277E+04  0.10000000000E+02 0.  1.
</event>
<event>
 5    1  0.1247473E-008  0.3852284E+03  0.7957747E-01  0.3428704E+00
         13   -1    0    0    0    0  0.00000000000E+00  0.00000000000E+00  0.14999999963E+04  0.15000000000E+04  0.10566000000E+00 0.  1.
        994   -1    0    0    0    0 -0.00000000000E+00 -0.00000000000E+00  0.11368683772E-12  0.17120000000E+03  0.17120000000E+03 0.  0.
         13    1    1    2    0    0 -0.12978573052E+02  0.85895715997E+01  0.73583570781E+02  0.75211549323E+02  0.10566000000E+00 0.  1.
        994    1    1    2    0    0  0.17169335683E+02 -0.14726590508E+02  0.32000183116E+01  0.17271751119E+03  0.17120000000E+03 0.  0.
        998    1    1    2    0    0 -0.41907626313E+01  0.61370189086E+01  0.14232164072E+04  0.14232709395E+04  0.10000000000E+02 0.  1.
</event>
<event>
 5    1  0.1247473E-008  0.3847326E+03  0.7957747E-01  0.3430807E+00
         13   -1    0    0    0    0  0.00000000000E+00  0.00000000000E+00  0.14999999963E+04  0.15000000000E+04  0.10566000000E+00 0.  1.
        994   -1    0    0    0    0 -0.00000000000E+00 -0.00000000000E+00  0.11368683772E-12  0.17120000000E+03  0.17120000000E+03 0.  0.
         13    1    1    2    0    0  0.36772356187E+01 -0.10209773556E+02  0.33225528056E+02  0.34952945749E+02  0.10566000000E+00 0.  1.
        994    1    1    2    0    0 -0.54022952558E+01  0.49549236056E+01  0.19398351521E+01  0.17136784711E+03  0.17120000000E+03 0.  0.
        998    1    1    2    0    0  0.17250596371E+01  0.52548499505E+01  0.14648346331E+04  0.14648792071E+04  0.10000000000E+02 0.  1.
</event>
<event>
 5    1  0.1247473E-008  0.3846206E+03  0.7957747E-01  0.3431283E+00
         13   -1    0    0    0    0  0.00000000000E+00  0.00000000000E+00  0.14999999963E+04  0.15000000000E+04  0.10566000000E+00 0. -1.
        994   -1    0    0    0    0 -0.00000000000E+00 -0.00000000000E+00  0.11368683772E-12  0.17120000000E+03  0.17120000000E+03 0.  0.
         13    1    1    2    0    0 -0.32493632922E+01  0.23179490688E+02  0.13674299926E+03  0.13873177777E+03  0.10566000000E+00 0. -1.
        994    1    1    2    0    0  0.28325283799E+00 -0.25639253498E+02  0.39863924719E+01  0.17315537207E+03  0.17120000000E+03 0.  0.
        998    1    1    2    0    0  0.29661104542E+01  0.24597628107E+01  0.13592706045E+04  0.13593128502E+04  0.10000000000E+02 0. -1.
</event>
<event>
 5    1  0.1247473E-008  0.3834747E+03  0.7957747E-01  0.3436167E+00
         13   -1    0    0    0    0  0.00000000000E+00  0.00000000000E+00  0.14999999963E+04  0.15000000000E+04  0.10566000000E+00 0. -1.
        994   -1    0    0    0    0 -0.00000000000E+00 -0.00000000000E+00  0.11368683772E-12  0.17120000000E+03  0.17120000000E+03 0.  0.
         13    1    1    2    0    0  0.10305315341E+02 -0.42742204961E+01  0.25649974694E+02  0.27971429190E+02  0.10566000000E+00 0. -1.
        994    1    1    2    0    0 -0.23216172806E+01  0.30434682820E+01  0.24377242797E+01  0.17126013869E+03  0.17120000000E+03 0.  0.
        998    1    1    2    0    0 -0.79836980599E+01  0.12307522142E+01  0.14719122973E+04  0.14719684321E+04  0.10000000000E+02 0. -1.
</event>
<event>
 5    1  0.1247473E-008  0.3836359E+03  0.7957747E-01  0.3435478E+00
         13   -1    0    0    0    0  0.00000000000E+00  0.00000000000E+00  0.14999999963E+04  0.15000000000E+04  0.10566000000E+00 0.  1.
        994   -1    0    0    0    0 -0.00000000000E+00 -0.00000000000E+00  0.11368683772E-12  0.17120000000E+03  0.17120000000E+03 0.  0.
         13    1    1    2    0    0  0.94232205279E+01  0.62992522129E+01  0.27262027695E+02  0.29524684277E+02  0.10566000000E+00 0.  1.
        994    1    1    2    0    0 -0.48972387524E+01 -0.36640122418E+01  0.24324725617E+01  0.17132648615E+03  0.17120000000E+03 0.  0.
        998    1    1    2    0    0 -0.45259817755E+01 -0.26352399711E+01  0.14703054960E+04  0.14703488296E+04  0.10000000000E+02 0.  1.
</event>
<event>
 5    1  0.1247473E-008  0.3809254E+03  0.7957747E-01  0.3447139E+00
         13   -1    0    0    0    0  0.00000000000E+00  0.00000000000E+00  0.14999999963E+04  0.15000000000E+04  0.10566000000E+00 0.  1.
        994   -1    0    0    0    0 -0.00000000000E+00 -0.00000000000E+00  0.11368683772E-12  0.17120000000E+03  0.17120000000E+03 0.  0.
         13    1    1    2    0    0 -0.10213284880E+02 -0.10944443405E+02  0.29385419077E+02  0.32978872750E+02  0.10566000000E+00 0.  1.
        994    1    1    2    0    0  0.83551404859E+01  0.24454289519E+01  0.39193421975E+01  0.17146600170E+03  0.17120000000E+03 0.  0.
        998    1    1    2    0    0  0.18581443942E+01  0.84990144529E+01  0.14666952350E+04  0.14667551256E+04  0.10000000000E+02 0.  1.
</event>
<event>
 5    1  0.1247473E-008  0.3698234E+03  0.7957747E-01  0.3496703E+00
         13   -1    0    0    0    0  0.00000000000E+00  0.00000000000E+00  0.14999999963E+04  0.15000000000E+04  0.10566000000E+00 0.  1.
        994   -1    0    0    0    0 -0.00000000000E+00 -0.00000000000E+00  0.11368683772E-12  0.17120000000E+03  0.17120000000E+03 0.  0.
         13    1    1    2    0    0  0.35074239813E+02 -0.64074052227E+02  0.23411242163E+03  0.24524339663E+03  0.10566000000E+00 0.  1.
        994    1    1    2    0    0 -0.35093815464E+02  0.67304975340E+02  0.29567929216E+02  0.18959229422E+03  0.17120000000E+03 0.  0.
        998    1    1    2    0    0  0.19575650710E-01 -0.32309231134E+01  0.12363196454E+04  0.12363643091E+04  0.10000000000E+02 0.  1.
</event>
<event>
 5    1  0.1247473E-008  0.3767126E+03  0.7957747E-01  0.3465599E+00
         13   -1    0    0    0    0  0.00000000000E+00  0.00000000000E+00  0.14999999963E+04  0.15000000000E+04  0.10566000000E+00 0.  1.
        994   -1    0    0    0    0 -0.00000000000E+00 -0.00000000000E+00  0.11368683772E-12  0.17120000000E+03  0.17120000000E+03 0.  0.
         13    1    1    2    0    0  0.24788153955E+02  0.54144635593E+01  0.50510236052E+02  0.56524898073E+02  0.10566000000E+00 0.  1.
        994    1    1    2    0    0 -0.31905535526E+02 -0.53951884883E+01  0.93488005277E+01  0.17448183667E+03  0.17120000000E+03 0.  0.
        998    1    1    2    0    0  0.71173815712E+01 -0.19275071016E-01  0.14401409597E+04  0.14401932653E+04  0.10000000000E+02 0.  1.
</event>
<event>
 5    1  0.1247473E-008  0.3833451E+03  0.7957747E-01  0.3436721E+00
         13   -1    0    0    0    0  0.00000000000E+00  0.00000000000E+00  0.14999999963E+04  0.15000000000E+04  0.10566000000E+00 0. -1.
        994   -1    0    0    0    0 -0.00000000000E+00 -0.00000000000E+00  0.11368683772E-12  0.17120000000E+03  0.17120000000E+03 0.  0.
         13    1    1    2    0    0 -0.60238165330E+01 -0.29374640384E+02  0.17526889128E+03  0.17781549785E+03  0.10566000000E+00 0. -1.
        994    1    1    2    0    0 -0.38424332010E+01  0.23780256562E+02  0.43749209680E+01  0.17294173825E+03  0.17120000000E+03 0.  0.
        998    1    1    2    0    0  0.98662497340E+01  0.55943838227E+01  0.13203561840E+04  0.13204427639E+04  0.10000000000E+02 0. -1.
</event>
<event>
 5    1  0.1247473E-008  0.3776896E+03  0.7957747E-01  0.3461280E+00
         13   -1    0    0    0    0  0.00000000000E+00  0.00000000000E+00  0.14999999963E+04  0.15000000000E+04  0.10566000000E+00 0.  1.
        994   -1    0    0    0    0 -0.00000000000E+00 -0.00000000000E+00  0.11368683772E-12  0.17120000000E+03  0.17120000000E+03 0.  0.
         13    1    1    2    0    0  0.32981774345E+02  0.59972429281E+02  0.33165377947E+03  0.33864248155E+03  0.10566000000E+00 0.  1.
        994    1    1    2    0    0 -0.51731178622E+02 -0.54592295231E+02  0.24601810897E+02  0.18860308226E+03  0.17120000000E+03 0.  0.
        998    1    1    2    0    0  0.18749404277E+02 -0.53801340494E+01  0.11437444059E+04  0.11439544362E+04  0.10000000000E+02 0.  1.
</event>
<event>
 5    1  0.1247473E-008  0.3861254E+03  0.7957747E-01  0.3424913E+00
         13   -1    0    0    0    0  0.00000000000E+00  0.00000000000E+00  0.14999999963E+04  0.15000000000E+04  0.10566000000E+00 0.  1.
        994   -1    0    0    0    0 -0.00000000000E+00 -0.00000000000E+00  0.11368683772E-12  0.17120000000E+03  0.17120000000E+03 0.  0.
         13    1    1    2    0    0 -0.92571378821E+01 -0.10497454363E+02  0.76498439536E+02  0.77768332664E+02  0.10566000000E+00 0.  1.
        994    1    1    2    0    0  0.26548169676E+02  0.20223835150E+02  0.47305795328E+01  0.17448675366E+03  0.17120000000E+03 0.  0.
        998    1    1    2    0    0 -0.17291031794E+02 -0.97263807874E+01  0.14187709772E+04  0.14189449137E+04  0.10000000000E+02 0.  1.
</event>
<event>
 5    1  0.1247473E-008  0.4035058E+03  0.7957747E-01  0.3354789E+00
         13   -1    0    0    0    0  0.00000000000E+00  0.00000000000E+00  0.14999999963E+04  0.15000000000E+04  0.10566000000E+00 0. -1.
        994   -1    0    0    0    0 -0.00000000000E+00 -0.00000000000E+00  0.11368683772E-12  0.17120000000E+03  0.17120000000E+03 0.  0.
         13    1    1    2    0    0  0.47611988148E+02  0.44376407513E+02  0.59984981279E+02  0.88512011062E+02  0.10566000000E+00 0. -1.
        994    1    1    2    0    0 -0.58503200824E+02 -0.18318266631E+02  0.44972320917E+02  0.18732360515E+03  0.17120000000E+03 0.  0.
        998    1    1    2    0    0  0.10891212677E+02 -0.26058140882E+02  0.13950426941E+04  0.13953643838E+04  0.10000000000E+02 0. -1.
</event>
<event>
 5    1  0.1247473E-008  0.3833904E+03  0.7957747E-01  0.3436527E+00
         13   -1    0    0    0    0  0.00000000000E+00  0.00000000000E+00  0.14999999963E+04  0.15000000000E+04  0.10566000000E+00 0.  1.
        994   -1    0    0    0    0 -0.00000000000E+00 -0.00000000000E+00  0.11368683772E-12  0.17120000000E+03  0.17120000000E+03 0.  0.
         13    1    1    2    0    0  0.40471526460E+02  0.73752768963E+02  0.19052211393E+03  0.20826930269E+03  0.10566000000E+00 0.  1.
        994    1    1    2    0    0 -0.16957196015E+02 -0.48752113238E+02  0.28043501853E+02  0.18099777081E+03  0.17120000000E+03 0.  0.
        998    1    1    2    0    0 -0.23514330445E+02 -0.25000655725E+02  0.12814343805E+04  0.12819329265E+04  0.10000000000E+02 0.  1.
</event>
<event>
 5    1  0.1247473E-008  0.3848145E+03  0.7957747E-01  0.3430459E+00
         13   -1    0    0    0    0  0.00000000000E+00  0.00000000000E+00  0.14999999963E+04  0.15000000000E+04  0.10566000000E+00 0. -1.
        994   -1    0    0    0    0 -0.00000000000E+00 -0.00000000000E+00  0.11368683772E-12  0.17120000000E+03  0.17120000000E+03 0.  0.
         13    1    1    2    0    0 -0.99471597462E+01 -0.15255702639E+02  0.10059562805E+03  0.10223098355E+03  0.10566000000E+00 0. -1.
        994    1    1    2    0    0  0.14604716722E+01  0.61013495650E+01  0.18517963404E+01  0.17132492111E+03  0.17120000000E+03 0.  0.
        998    1    1    2    0    0  0.84866880740E+01  0.91543530743E+01  0.13975525719E+04  0.13976440953E+04  0.10000000000E+02 0. -1.
</event>
<event>
 5    1  0.1247473E-008  0.3859569E+03  0.7957747E-01  0.3425624E+00
         13   -1    0    0    0    0  0.00000000000E+00  0.00000000000E+00  0.14999999963E+04  0.15000000000E+04  0.10566000000E+00 0. -1.
        994   -1    0    0    0    0 -0.00000000000E+00 -0.00000000000E+00  0.11368683772E-12  0.17120000000E+03  0.17120000000E+03 0.  0.
         13    1    1    2    0    0 -0.18416714217E+01  0.12995553139E+02  0.75169659751E+02  0.76307044670E+02  0.10566000000E+00 0. -1.
        994    1    1    2    0    0  0.96355678180E+01 -0.77805781048E+01  0.16587992868E+01  0.17165539076E+03  0.17120000000E+03 0.  0.
        998    1    1    2    0    0 -0.77938963963E+01 -0.52149750339E+01  0.14231715372E+04  0.14232375646E+04  0.10000000000E+02 0. -1.
</event>
<event>
 5    1  0.1247473E-008  0.3821571E+03  0.7957747E-01  0.3441820E+00
         13   -1    0    0    0    0  0.00000000000E+00  0.00000000000E+00  0.14999999963E+04  0.15000000000E+04  0.10566000000E+00 0. -1.
        994   -1    0    0    0    0 -0.00000000000E+00 -0.00000000000E+00  0.11368683772E-12  0.17120000000E+03  0.17120000000E+03 0.  0.
         13    1    1    2    0    0  0.12878268160E+01 -0.11983955769E+02  0.22351230743E+02  0.25394140535E+02  0.10566000000E+00 0. -1.
        994    1    1    2    0    0 -0.58941633807E+00  0.12835746591E+02  0.35964210181E+01  0.17171918369E+03  0.17120000000E+03 0.  0.
        998    1    1    2    0    0 -0.69841047794E+00 -0.85179082134E+00  0.14740523445E+04  0.14740866758E+04  0.10000000000E+02 0. -1.
</event>
<event>
 5    1  0.1247473E-008  0.3852651E+03  0.7957747E-01  0.3428549E+00
         13   -1    0    0    0    0  0.00000000000E+00  0.00000000000E+00  0.14999999963E+04  0.15000000000E+04  0.10566000000E+00 0.  1.
        994   -1    0    0    0    0 -0.00000000000E+00 -0.00000000000E+00  0.11368683772E-12  0.17120000000E+03  0.17120000000E+03 0.  0.
         13    1    1    2    0    0  0.15835142310E+01 -0.12902084415E+02  0.58802456109E+02  0.60222182857E+02  0.10566000000E+00 0.  1.
        994    1    1    2    0    0  0.60782726096E+01  0.31606998177E+01  0.16527974445E+01  0.17134499456E+03  0.17120000000E+03 0.  0.
        998    1    1    2    0    0 -0.76617868406E+01  0.97413845975E+01  0.14395447427E+04  0.14396328226E+04  0.10000000000E+02 0.  1.
</event>
<event>
 5    1  0.1247473E-008  0.3752637E+03  0.7957747E-01  0.3472044E+00
         13   -1    0    0    0    0  0.00000000000E+00  0.00000000000E+00  0.14999999963E+04  0.15000000000E+04  0.10566000000E+00 0.  1.
        994   -1    0    0    0    0 -0.00000000000E+00 -0.00000000000E+00  0.11368683772E-12  0.17120000000E+03  0.17120000000E+03 0.  0.
         13    1    1    2    0    0  0.22921346900E+02  0.66057879645E+01  0.14599124811E+02  0.27967305691E+02  0.10566000000E+00 0.  1.
        994    1    1    2    0    0 -0.20598297392E+02 -0.13534297474E+02  0.15916173722E+02  0.17369580205E+03  0.17120000000E+03 0.  0.
        998    1    1    2    0    0 -0.23230495076E+01  0.69285095098E+01  0.14694846977E+04  0.14695368923E+04  0.10000000000E+02 0.  1.
</event>
<event>
 5    1  0.1247473E-008  0.3784437E+03  0.7957747E-01  0.3457963E+00
         13   -1    0    0    0    0  0.00000000000E+00  0.00000000000E+00  0.14999999963E+04  0.15000000000E+04  0.10566000000E+00 0.  1.
        994   -1    0    0    0    0 -0.00000000000E+00 -0.00000000000E+00  0.11368683772E-12  0.17120000000E+03  0.17120000000E+03 0.  0.
         13    1    1    2    0    0  0.12035371879E+02 -0.13315313269E+01  0.12633729658E+02  0.17499869744E+02  0.10566000000E+00 0.  1.
        994    1    1    2    0    0 -0.11724216577E+02  0.33054158738E+01  0.54195818080E+01  0.17171835923E+03  0.17120000000E+03 0.  0.
        998    1    1    2    0    0 -0.31115530242E+00 -0.19738845469E+01  0.14819466848E+04  0.14819817710E+04  0.10000000000E+02 0.  1.
</event>
<event>
 5    1  0.1247473E-008  0.3803519E+03  0.7957747E-01  0.3449628E+00
         13   -1    0    0    0    0  0.00000000000E+00  0.00000000000E+00  0.14999999963E+04  0.15000000000E+04  0.10566000000E+00 0.  1.
        994   -1    0    0    0    0 -0.00000000000E+00 -0.00000000000E+00  0.11368683772E-12  0.17120000000E+03  0.17120000000E+03 0.  0.
         13    1    1    2    0    0 -0.16456955026E+02 -0.91387396218E+01  0.43882262945E+02  0.47749472205E+02  0.10566000000E+00 0.  1.
        994    1    1    2    0    0  0.10070190605E+02 -0.28748192827E-01  0.42943089406E+01  0.17154967401E+03  0.17120000000E+03 0.  0.
        998    1    1    2    0    0  0.63867644217E+01  0.91674878146E+01  0.14518234244E+04  0.14519008538E+04  0.10000000000E+02 0.  1.
</event>
<event>
 5    1  0.1247473E-008  0.3858523E+03  0.7957747E-01  0.3426066E+00
         13   -1    0    0    0    0  0.00000000000E+00  0.00000000000E+00  0.14999999963E+04  0.15000000000E+04  0.10566000000E+00 0. -1.
        994   -1    0    0    0    0 -0.00000000000E+00 -0.00000000000E+00  0.11368683772E-12  0.17120000000E+03  0.17120000000E+03 0.  0.
         13    1    1    2    0    0 -0.10413293163E+02  0.64795636469E+01  0.65690005978E+02  0.66825215817E+02  0.10566000000E+00 0. -1.
        994    1    1    2    0    0 -0.17547697607E+00 -0.45996712968E+01  0.12770791992E+01  0.17126663043E+03  0.17120000000E+03 0.  0.
        998    1    1    2    0    0  0.10588770139E+02 -0.18798923501E+01  0.14330329111E+04  0.14331081538E+04  0.10000000000E+02 0. -1.
</event>
<event>
 5    1  0.1247473E-008  0.3758362E+03  0.7957747E-01  0.3469491E+00
         13   -1    0    0    0    0  0.00000000000E+00  0.00000000000E+00  0.14999999963E+04  0.15000000000E+04  0.10566000000E+00 0.  1.
        994   -1    0    0    0    0 -0.00000000000E+00 -0.00000000000E+00  0.11368683772E-12  0.17120000000E+03  0.17120000000E+03 0.  0.
         13    1    1    2    0    0  0.15347200945E+02 -0.21985970921E+02  0.55615288956E+02  0.61741323471E+02  0.10566000000E+00 0.  1.
        994    1    1    2    0    0 -0.14737825453E+02  0.76973519511E+01  0.71875849067E+01  0.17215561014E+03  0.17120000000E+03 0.  0.
        998    1    1    2    0    0 -0.60937549150E+00  0.14288618969E+02  0.14371971224E+04  0.14373030664E+04  0.10000000000E+02 0.  1.
</event>
<event>
 5    1  0.1247473E-008  0.3820186E+03  0.7957747E-01  0.3442416E+00
         13   -1    0    0    0    0  0.00000000000E+00  0.00000000000E+00  0.14999999963E+04  0.15000000000E+04  0.10566000000E+00 0. -1.
        994   -1    0    0    0    0 -0.00000000000E+00 -0.00000000000E+00  0.11368683772E-12  0.17120000000E+03  0.17120000000E+03 0.  0.
         13    1    1    2    0    0  0.84338498792E+01 -0.13360458602E+02  0.38705583663E+02  0.41806280014E+02  0.10566000000E+00 0. -1.
        994    1    1    2    0    0  0.25602309674E+01  0.16025977509E+02  0.39927713551E+01  0.17201386270E+03  0.17120000000E+03 0.  0.
        998    1    1    2    0    0 -0.10994080847E+02 -0.26655189063E+01  0.14573016413E+04  0.14573798573E+04  0.10000000000E+02 0. -1.
</event>
<event>
 5    1  0.1247473E-008  0.3715014E+03  0.7957747E-01  0.3489019E+00
         13   -1    0    0    0    0  0.00000000000E+00  0.00000000000E+00  0.14999999963E+04  0.15000000000E+04  0.10566000000E+00 0.  1.
        994   -1    0    0    0    0 -0.00000000000E+00 -0.00000000000E+00  0.11368683772E-12  0.17120000000E+03  0.17120000000E+03 0.  0.
         13    1    1    2    0    0  0.24570307185E+02 -0.53379282417E+02  0.18651466779E+03  0.19555249999E+03  0.10566000000E+00 0.  1.
        994    1    1    2    0    0  0.59832123481E+01  0.56994155391E+02  0.19869265547E+02  0.18162698118E+03  0.17120000000E+03 0.  0.
        998    1    1    2    0    0 -0.30553519533E+02 -0.36148729734E+01  0.12936160629E+04  0.12940205188E+04  0.10000000000E+02 0.  1.
</event>
<event>
 5    1  0.1247473E-008  0.3809477E+03  0.7957747E-01  0.3447042E+00
         13   -1    0    0    0    0  0.00000000000E+00  0.00000000000E+00  0.14999999963E+04  0.15000000000E+04  0.10566000000E+00 0.  1.
        994   -1    0    0    0    0 -0.00000000000E+00 -0.00000000000E+00  0.11368683772E-12  0.17120000000E+03  0.17120000000E+03 0.  0.
         13    1    1    2    0    0 -0.46218660820E+01  0.94848190457E+01  0.13526854819E+02  0.17155477368E+02  0.10566000000E+00 0.  1.
        994    1    1    2    0    0  0.10173640322E+02 -0.79703082160E+01  0.42123121861E+01  0.17173879103E+03  0.17120000000E+03 0.  0.
        998    1    1    2    0    0 -0.55517742399E+01 -0.15145108297E+01  0.14822608293E+04  0.14823057316E+04  0.10000000000E+02 0.  1.
</event>
<event>
 5    1  0.1247473E-008  0.3806142E+03  0.7957747E-01  0.3448489E+00
         13   -1    0    0    0    0  0.00000000000E+00  0.00000000000E+00  0.14999999963E+04  0.15000000000E+04  0.10566000000E+00 0. -1.
        994   -1    0    0    0    0 -0.00000000000E+00 -0.00000000000E+00  0.11368683772E-12  0.17120000000E+03  0.17120000000E+03 0.  0.
         13    1    1    2    0    0 -0.16291457310E+02 -0.43537138624E+02  0.24181851168E+03  0.24624601068E+03  0.10566000000E+00 0. -1.
        994    1    1    2    0    0  0.53430991204E+01  0.46032619700E+02  0.11021435497E+02  0.17770329998E+03  0.17120000000E+03 0.  0.
        998    1    1    2    0    0  0.10948358190E+02 -0.24954810757E+01  0.12471600491E+04  0.12472506893E+04  0.10000000000E+02 0. -1.
</event>
<event>
 5    1  0.1247473E-008  0.3956810E+03  0.7957747E-01  0.3385598E+00
         13   -1    0    0    0    0  0.00000000000E+00  0.00000000000E+00  0.14999999963E+04  0.15000000000E+04  0.10566000000E+00 0. -1.
        994   -1    0    0    0    0 -0.00000000000E+00 -0.00000000000E+00  0.11368683772E-12  0.17120000000E+03  0.17120000000E+03 0.  0.
         13    1    1    2    0    0  0.72223370037E+02  0.69820495089E+02  0.16060839652E+03  0.18943649308E+03  0.10566000000E+00 0. -1.
        994    1    1    2    0    0 -0.83404712222E+02 -0.81742786198E+02  0.79870638248E+02  0.22209679865E+03  0.17120000000E+03 0.  0.
        998    1    1    2    0    0  0.11181342185E+02  0.11922291109E+02  0.12595209615E+04  0.12596667083E+04  0.10000000000E+02 0.  1.
</event>
<event>
 5    1  0.1247473E-008  0.3854428E+03  0.7957747E-01  0.3427796E+00
         13   -1    0    0    0    0  0.00000000000E+00  0.00000000000E+00  0.14999999963E+04  0.15000000000E+04  0.10566000000E+00 0. -1.
        994   -1    0    0    0    0 -0.00000000000E+00 -0.00000000000E+00  0.11368683772E-12  0.17120000000E+03  0.17120000000E+03 0.  0.
         13    1    1    2    0    0 -0.13017645966E+02  0.13280836636E+01  0.67281845211E+02  0.68542547164E+02  0.10566000000E+00 0. -1.
        994    1    1    2    0    0 -0.56092696567E+01 -0.24719618288E+01  0.15338681643E+01  0.17131657028E+03  0.17120000000E+03 0.  0.
        998    1    1    2    0    0  0.18626915623E+02  0.11438781652E+01  0.14311842829E+04  0.14313408826E+04  0.10000000000E+02 0. -1.
</event>
<event>
 5    1  0.1247473E-008  0.3853411E+03  0.7957747E-01  0.3428227E+00
         13   -1    0    0    0    0  0.00000000000E+00  0.00000000000E+00  0.14999999963E+04  0.15000000000E+04  0.10566000000E+00 0.  1.
        994   -1    0    0    0    0 -0.00000000000E+00 -0.00000000000E+00  0.11368683772E-12  0.17120000000E+03  0.17120000000E+03 0.  0.
         13    1    1    2    0    0  0.41024421857E+01 -0.94004028252E+01  0.38598889042E+02  0.39938490263E+02  0.10566000000E+00 0.  1.
        994    1    1    2    0    0  0.47197402414E+01 -0.48509300822E+01  0.16113749200E+01  0.17134130850E+03  0.17120000000E+03 0.  0.
        998    1    1    2    0    0 -0.88221824271E+01  0.14251332907E+02  0.14597897323E+04  0.14599202012E+04  0.10000000000E+02 0.  1.
</event>
<event>
 5    1  0.1247473E-008  0.3813758E+03  0.7957747E-01  0.3445190E+00
         13   -1    0    0    0    0  0.00000000000E+00  0.00000000000E+00  0.14999999963E+04  0.15000000000E+04  0.10566000000E+00 0.  1.
        994   -1    0    0    0    0 -0.00000000000E+00 -0.00000000000E+00  0.11368683772E-12  0.17120000000E+03  0.17120000000E+03 0.  0.
         13    1    1    2    0    0 -0.11560747087E+02  0.31380957914E+02  0.15108075117E+03  0.15473790722E+03  0.10566000000E+00 0.  1.
        994    1    1    2    0    0  0.16600943137E+02 -0.25261267397E+02  0.64868928818E+01  0.17396908554E+03  0.17120000000E+03 0.  0.
        998    1    1    2    0    0 -0.50401960503E+01 -0.61196905166E+01  0.13424323522E+04  0.13424930072E+04  0.10000000000E+02 0.  1.
</event>
<event>
 5    1  0.1247473E-008  0.3849696E+03  0.7957747E-01  0.3429801E+00
         13   -1    0    0    0    0  0.00000000000E+00  0.00000000000E+00  0.14999999963E+04  0.15000000000E+04  0.10566000000E+00 0.  1.
        994   -1    0    0    0    0 -0.00000000000E+00 -0.00000000000E+00  0.11368683772E-12  0.17120000000E+03  0.17120000000E+03 0.  0.
         13    1    1    2    0    0 -0.13041529644E+02  0.77831372813E+01  0.73132589631E+02  0.74693008719E+02  0.10566000000E+00 0.  1.
        994    1    1    2    0    0  0.31814006876E+01 -0.18582742876E+01  0.16898996623E+01  0.17124797883E+03  0.17120000000E+03 0.  0.
        998    1    1    2    0    0  0.98601289565E+01 -0.59248629936E+01  0.14251775070E+04  0.14252590124E+04  0.10000000000E+02 0.  1.
</event>
<event>
 5    1  0.1247473E-008  0.3798972E+03  0.7957747E-01  0.3451606E+00
         13   -1    0    0    0    0  0.00000000000E+00  0.00000000000E+00  0.14999999963E+04  0.15000000000E+04  0.10566000000E+00 0. -1.
        994   -1    0    0    0    0 -0.00000000000E+00 -0.00000000000E+00  0.11368683772E-12  0.17120000000E+03  0.17120000000E+03 0.  0.
         13    1    1    2    0    0  0.19390780044E+01  0.15498799432E+02  0.26593145881E+02  0.30841196138E+02  0.10566000000E+00 0. -1.
        994    1    1    2    0    0 -0.37934571861E+01 -0.21331608724E+02  0.57564062160E+01  0.17266153034E+03  0.17120000000E+03 0.  0.
        998    1    1    2    0    0  0.18543791817E+01  0.58328092922E+01  0.14676504442E+04  0.14676972735E+04  0.10000000000E+02 0. -1.
</event>
<event>
 5    1  0.1247473E-008  0.3792148E+03  0.7957747E-01  0.3454584E+00
         13   -1    0    0    0    0  0.00000000000E+00  0.00000000000E+00  0.14999999963E+04  0.15000000000E+04  0.10566000000E+00 0. -1.
        994   -1    0    0    0    0 -0.00000000000E+00 -0.00000000000E+00  0.11368683772E-12  0.17120000000E+03  0.17120000000E+03 0.  0.
         13    1    1    2    0    0  0.16035245093E+02 -0.18475395638E+02  0.61485847757E+02  0.66173937223E+02  0.10566000000E+00 0. -1.
        994    1    1    2    0    0 -0.18844387778E+02  0.19748661943E+02  0.70313825122E+01  0.17350504586E+03  0.17120000000E+03 0.  0.
        998    1    1    2    0    0  0.28091426852E+01 -0.12732663053E+01  0.14314827660E+04  0.14315210169E+04  0.10000000000E+02 0. -1.
</event>
<event>
 5    1  0.1247473E-008  0.3721885E+03  0.7957747E-01  0.3485893E+00
         13   -1    0    0    0    0  0.00000000000E+00  0.00000000000E+00  0.14999999963E+04  0.15000000000E+04  0.10566000000E+00 0. -1.
        994   -1    0    0    0    0 -0.00000000000E+00 -0.00000000000E+00  0.11368683772E-12  0.17120000000E+03  0.17120000000E+03 0.  0.
         13    1    1    2    0    0 -0.80548749297E+02 -0.13380533932E+03  0.83335539576E+03  0.84786390219E+03  0.10566000000E+00 0. -1.
        994    1    1    2    0    0  0.69208170120E+02  0.11875893617E+03  0.76040376571E+02  0.23234679813E+03  0.17120000000E+03 0.  0.
        998    1    1    2    0    0  0.11340579177E+02  0.15046403147E+02  0.59060422395E+03  0.59098929968E+03  0.10000000000E+02 0. -1.
</event>
<event>
 5    1  0.1247473E-008  0.3828518E+03  0.7957747E-01  0.3438834E+00
         13   -1    0    0    0    0  0.00000000000E+00  0.00000000000E+00  0.14999999963E+04  0.15000000000E+04  0.10566000000E+00 0. -1.
        994   -1    0    0    0    0 -0.00000000000E+00 -0.00000000000E+00  0.11368683772E-12  0.17120000000E+03  0.17120000000E+03 0.  0.
         13    1    1    2    0    0 -0.33992327898E+02 -0.10169043348E+02  0.20778643322E+03  0.21079397712E+03  0.10566000000E+00 0. -1.
        994    1    1    2    0    0  0.34135342205E+02  0.14278685372E+01  0.65757258668E+01  0.17469957231E+03  0.17120000000E+03 0.  0.
        998    1    1    2    0    0 -0.14301430702E+00  0.87411748105E+01  0.12856378372E+04  0.12857064506E+04  0.10000000000E+02 0. -1.
</event>
<event>
 5    1  0.1247473E-008  0.3708151E+03  0.7957747E-01  0.3492153E+00
         13   -1    0    0    0    0  0.00000000000E+00  0.00000000000E+00  0.14999999963E+04  0.15000000000E+04  0.10566000000E+00 0.  1.
        994   -1    0    0    0    0 -0.00000000000E+00 -0.00000000000E+00  0.11368683772E-12  0.17120000000E+03  0.17120000000E+03 0.  0.
         13    1    1    2    0    0 -0.93637268155E+02  0.11186288655E+02  0.35306868650E+03  0.36544572729E+03  0.10566000000E+00 0.  1.
        994    1    1    2    0    0  0.73022039992E+02  0.22419813524E+02  0.32118407132E+02  0.19019962786E+03  0.17120000000E+03 0.  0.
        998    1    1    2    0    0  0.20615228163E+02 -0.33606102179E+02  0.11148129026E+04  0.11155546448E+04  0.10000000000E+02 0.  1.
</event>
<event>
 5    1  0.1247473E-008  0.3795463E+03  0.7957747E-01  0.3453136E+00
         13   -1    0    0    0    0  0.00000000000E+00  0.00000000000E+00  0.14999999963E+04  0.15000000000E+04  0.10566000000E+00 0. -1.
        994   -1    0    0    0    0 -0.00000000000E+00 -0.00000000000E+00  0.11368683772E-12  0.17120000000E+03  0.17120000000E+03 0.  0.
         13    1    1    2    0    0 -0.22137183861E+02 -0.31118580448E+01  0.56510907641E+02  0.60771970646E+02  0.10566000000E+00 0. -1.
        994    1    1    2    0    0  0.89606991735E+01  0.11939956094E+02  0.51088148882E+01  0.17192555561E+03  0.17120000000E+03 0.  0.
        998    1    1    2    0    0  0.13176484688E+02 -0.88280980489E+01  0.14383802737E+04  0.14385024737E+04  0.10000000000E+02 0. -1.
</event>
<event>
 5    1  0.1247473E-008  0.3851241E+03  0.7957747E-01  0.3429146E+00
         13   -1    0    0    0    0  0.00000000000E+00  0.00000000000E+00  0.14999999963E+04  0.15000000000E+04  0.10566000000E+00 0. -1.
        994   -1    0    0    0    0 -0.00000000000E+00 -0.00000000000E+00  0.11368683772E-12  0.17120000000E+03  0.17120000000E+03 0.  0.
         13    1    1    2    0    0  0.36513497840E+01  0.11335751841E+02  0.49075069747E+02  0.50499557026E+02  0.10566000000E+00 0. -1.
        994    1    1    2    0    0  0.16655552018E+02  0.11638182431E+01  0.24854382766E+01  0.17203016971E+03  0.17120000000E+03 0.  0.
        998    1    1    2    0    0 -0.20306901802E+02 -0.12499570085E+02  0.14484394883E+04  0.14486702733E+04  0.10000000000E+02 0. -1.
</event>
<event>
 5    1  0.1247473E-008  0.3830201E+03  0.7957747E-01  0.3438113E+00
         13   -1    0    0    0    0  0.00000000000E+00  0.00000000000E+00  0.14999999963E+04  0.15000000000E+04  0.10566000000E+00 0.  1.
        994   -1    0    0    0    0 -0.00000000000E+00 -0.00000000000E+00  0.11368683772E-12  0.17120000000E+03  0.17120000000E+03 0.  0.
         13    1    1    2    0    0  0.92262887675E+01  0.11394146174E+02  0.40347741774E+02  0.42929039143E+02  0.10566000000E+00 0.  1.
        994    1    1    2    0    0 -0.83510100546E+01 -0.51870146033E+01  0.29362646412E+01  0.17150716061E+03  0.17120000000E+03 0.  0.
        998    1    1    2    0    0 -0.87527871284E+00 -0.62071315703E+01  0.14567159899E+04  0.14567638002E+04  0.10000000000E+02 0.  1.
</event>
<event>
 5    1  0.1247473E-008  0.3825069E+03  0.7957747E-01  0.3440315E+00
         13   -1    0    0    0    0  0.00000000000E+00  0.00000000000E+00  0.14999999963E+04  0.15000000000E+04  0.10566000000E+00 0.  1.
        994   -1    0    0    0    0 -0.00000000000E+00 -0.00000000000E+00  0.11368683772E-12  0.17120000000E+03  0.17120000000E+03 0.  0.
         13    1    1    2    0    0  0.18183194256E+02 -0.11332644936E+02  0.78207021827E+02  0.81088882233E+02  0.10566000000E+00 0.  1.
        994    1    1    2    0    0 -0.14682327303E+02  0.56255015605E+01  0.36930773739E+01  0.17196015766E+03  0.17120000000E+03 0.  0.
        998    1    1    2    0    0 -0.35008669530E+01  0.57071433758E+01  0.14180998971E+04  0.14181509601E+04  0.10000000000E+02 0.  1.
</event>
<event>
 5    1  0.1247473E-008  0.3852678E+03  0.7957747E-01  0.3428537E+00
         13   -1    0    0    0    0  0.00000000000E+00  0.00000000000E+00  0.14999999963E+04  0.15000000000E+04  0.10566000000E+00 0.  1.
        994   -1    0    0    0    0 -0.00000000000E+00 -0.00000000000E+00  0.11368683772E-12  0.17120000000E+03  0.17120000000E+03 0.  0.
         13    1    1    2    0    0  0.83518779702E+01 -0.18800664543E+02  0.12316560709E+03  0.12487192154E+03  0.10566000000E+00 0.  1.
        994    1    1    2    0    0 -0.16878681156E+02  0.23847072590E+02  0.43069166965E+01  0.17372841529E+03  0.17120000000E+03 0.  0.
        998    1    1    2    0    0  0.85268031856E+01 -0.50464080467E+01  0.13725274725E+04  0.13725996632E+04  0.10000000000E+02 0.  1.
</event>
<event>
 5    1  0.1247473E-008  0.3720527E+03  0.7957747E-01  0.3486510E+00
         13   -1    0    0    0    0  0.00000000000E+00  0.00000000000E+00  0.14999999963E+04  0.15000000000E+04  0.10566000000E+00 0.  1.
        994   -1    0    0    0    0 -0.00000000000E+00 -0.00000000000E+00  0.11368683772E-12  0.17120000000E+03  0.17120000000E+03 0.  0.
         13    1    1    2    0    0 -0.59978340786E+02  0.63856956633E+02  0.45373831871E+03  0.46211858359E+03  0.10566000000E+00 0.  1.
        994    1    1    2    0    0  0.41170044227E+02 -0.34396954440E+02  0.18147196433E+02  0.18032438480E+03  0.17120000000E+03 0.  0.
        998    1    1    2    0    0  0.18808296559E+02 -0.29460002192E+02  0.10281144811E+04  0.10287570316E+04  0.10000000000E+02 0. -1.
</event>
<event>
 5    1  0.1247473E-008  0.3693107E+03  0.7957747E-01  0.3499065E+00
         13   -1    0    0    0    0  0.00000000000E+00  0.00000000000E+00  0.14999999963E+04  0.15000000000E+04  0.10566000000E+00 0.  1.
        994   -1    0    0    0    0 -0.00000000000E+00 -0.00000000000E+00  0.11368683772E-12  0.17120000000E+03  0.17120000000E+03 0.  0.
         13    1    1    2    0    0 -0.48031485485E+02 -0.15799584264E+01  0.10923341854E+03  0.11933763345E+03  0.10566000000E+00 0.  1.
        994    1    1    2    0    0  0.46915097744E+02 -0.23134337720E+01  0.17316046088E+02  0.17836945878E+03  0.17120000000E+03 0.  0.
        998    1    1    2    0    0  0.11163877408E+01  0.38933921984E+01  0.13734505316E+04  0.13734929078E+04  0.10000000000E+02 0.  1.
</event>
<event>
 5    1  0.1247473E-008  0.3852803E+03  0.7957747E-01  0.3428484E+00
         13   -1    0    0    0    0  0.00000000000E+00  0.00000000000E+00  0.14999999963E+04  0.15000000000E+04  0.10566000000E+00 0. -1.
        994   -1    0    0    0    0 -0.00000000000E+00 -0.00000000000E+00  0.11368683772E-12  0.17120000000E+03  0.17120000000E+03 0.  0.
         13    1    1    2    0    0 -0.50694194672E+01  0.11946514647E+02  0.58515673001E+02  0.59937579003E+02  0.10566000000E+00 0. -1.
        994    1    1    2    0    0 -0.15087401943E+01 -0.43497201365E+01  0.15606953896E+01  0.17126900517E+03  0.17120000000E+03 0.  0.
        998    1    1    2    0    0  0.65781596615E+01 -0.75967945102E+01  0.14399236279E+04  0.14399934158E+04  0.10000000000E+02 0. -1.
</event>
<event>
 5    1  0.1247473E-008  0.3778224E+03  0.7957747E-01  0.3460696E+00
         13   -1    0    0    0    0  0.00000000000E+00  0.00000000000E+00  0.14999999963E+04  0.15000000000E+04  0.10566000000E+00 0. -1.
        994   -1    0    0    0    0 -0.00000000000E+00 -0.00000000000E+00  0.11368683772E-12  0.17120000000E+03  0.17120000000E+03 0.  0.
         13    1    1    2    0    0  0.27339399234E+02 -0.25377322437E+02  0.12545537668E+03  0.13088358930E+03  0.10566000000E+00 0. -1.
        994    1    1    2    0    0 -0.17556275823E+02  0.26191493867E+02  0.85914238836E+01  0.17429133580E+03  0.17120000000E+03 0.  0.
        998    1    1    2    0    0 -0.97831234111E+01 -0.81417142960E+00  0.13659531957E+04  0.13660250749E+04  0.10000000000E+02 0. -1.
</event>
<event>
 5    1  0.1262360E-008  0.3855630E+03  0.7957747E-01  0.3427288E+00
         13   -1    0    0    0    0  0.00000000000E+00  0.00000000000E+00  0.14999999963E+04  0.15000000000E+04  0.10566000000E+00 0. -1.
        994   -1    0    0    0    0 -0.00000000000E+00 -0.00000000000E+00  0.11368683772E-12  0.17120000000E+03  0.17120000000E+03 0.  0.
         13    1    1    2    0    0  0.84854228861E+01  0.78381946050E+01  0.49812963659E+02  0.51134941173E+02  0.10566000000E+00 0. -1.
        994    1    1    2    0    0 -0.44915304731E+01 -0.57564530744E+01  0.15259090816E+01  0.17136242002E+03  0.17120000000E+03 0.  0.
        998    1    1    2    0    0 -0.39938924130E+01 -0.20817415305E+01  0.14486611235E+04  0.14487026388E+04  0.10000000000E+02 0. -1.
</event>
<event>
 5    1  0.1247473E-008  0.3769191E+03  0.7957747E-01  0.3464684E+00
         13   -1    0    0    0    0  0.00000000000E+00  0.00000000000E+00  0.14999999963E+04  0.15000000000E+04  0.10566000000E+00 0. -1.
        994   -1    0    0    0    0 -0.00000000000E+00 -0.00000000000E+00  0.11368683772E-12  0.17120000000E+03  0.17120000000E+03 0.  0.
         13    1    1    2    0    0  0.46197539048E+02 -0.27820439730E+01  0.15707015487E+03  0.16374674683E+03  0.10566000000E+00 0. -1.
        994    1    1    2    0    0 -0.57633247497E+02  0.34917504104E+01  0.17039922985E+02  0.18147612106E+03  0.17120000000E+03 0.  0.
        998    1    1    2    0    0  0.11435708448E+02 -0.70970643743E+00  0.13258899184E+04  0.13259771321E+04  0.10000000000E+02 0. -1.
</event>
<event>
 5    1  0.1247473E-008  0.3827944E+03  0.7957747E-01  0.3439081E+00
         13   -1    0    0    0    0  0.00000000000E+00  0.00000000000E+00  0.14999999963E+04  0.15000000000E+04  0.10566000000E+00 0. -1.
        994   -1    0    0    0    0 -0.00000000000E+00 -0.00000000000E+00  0.11368683772E-12  0.17120000000E+03  0.17120000000E+03 0.  0.
         13    1    1    2    0    0 -0.38898592566E+02  0.71142269303E+01  0.23718466911E+03  0.24045850194E+03  0.10566000000E+00 0. -1.
        994    1    1    2    0    0  0.39883356489E+02 -0.18435500931E+02  0.91502917233E+01  0.17698507750E+03  0.17120000000E+03 0.  0.
        998    1    1    2    0    0 -0.98476392335E+00  0.11321274001E+02  0.12536650354E+04  0.12537564206E+04  0.10000000000E+02 0. -1.
</event>
<event>
 5    1  0.1247473E-008  0.3832966E+03  0.7957747E-01  0.3436929E+00
         13   -1    0    0    0    0  0.00000000000E+00  0.00000000000E+00  0.14999999963E+04  0.15000000000E+04  0.10566000000E+00 0.  1.
        994   -1    0    0    0    0 -0.00000000000E+00 -0.00000000000E+00  0.11368683772E-12  0.17120000000E+03  0.17120000000E+03 0.  0.
         13    1    1    2    0    0 -0.51877659757E+01  0.11058681130E+02  0.29919485158E+02  0.32317086816E+02  0.10566000000E+00 0.  1.
        994    1    1    2    0    0 -0.10451038929E+02 -0.78981442506E+01  0.30459012997E+01  0.17172746551E+03  0.17120000000E+03 0.  0.
        998    1    1    2    0    0  0.15638804905E+02 -0.31605368792E+01  0.14670346098E+04  0.14671554477E+04  0.10000000000E+02 0.  1.
</event>
<event>
 5    1  0.1247473E-008  0.3719710E+03  0.7957747E-01  0.3486881E+00
         13   -1    0    0    0    0  0.00000000000E+00  0.00000000000E+00  0.14999999963E+04  0.15000000000E+04  0.10566000000E+00 0. -1.
        994   -1    0    0    0    0 -0.00000000000E+00 -0.00000000000E+00  0.11368683772E-12  0.17120000000E+03  0.17120000000E+03 0.  0.
         13    1    1    2    0    0 -0.99262110485E+01 -0.10408071759E+02  0.87867099717E+01  0.16854526386E+02  0.10566000000E+00 0. -1.
        994    1    1    2    0    0  0.69578344575E+01  0.11114795442E+02  0.88332010434E+01  0.17192851881E+03  0.17120000000E+03 0.  0.
        998    1    1    2    0    0  0.29683765910E+01 -0.70672368332E+00  0.14823800853E+04  0.14824169548E+04  0.10000000000E+02 0. -1.
</event>
<event>
 5    1  0.1247473E-008  0.3770031E+03  0.7957747E-01  0.3464313E+00
         13   -1    0    0    0    0  0.00000000000E+00  0.00000000000E+00  0.14999999963E+04  0.15000000000E+04  0.10566000000E+00 0.  1.
        994   -1    0    0    0    0 -0.00000000000E+00 -0.00000000000E+00  0.11368683772E-12  0.17120000000E+03  0.17120000000E+03 0.  0.
         13    1    1    2    0    0 -0.74824404176E+01  0.20649743099E+02  0.41482663849E+02  0.46938484942E+02  0.10566000000E+00 0.  1.
        994    1    1    2    0    0  0.11882835295E+02 -0.24240948226E+01  0.61504378248E+01  0.17173917985E+03  0.17120000000E+03 0.  0.
        998    1    1    2    0    0 -0.44003948777E+01 -0.18225648276E+02  0.14523668946E+04  0.14525223352E+04  0.10000000000E+02 0.  1.
</event>
<event>
 5    1  0.1247473E-008  0.3697615E+03  0.7957747E-01  0.3496988E+00
         13   -1    0    0    0    0  0.00000000000E+00  0.00000000000E+00  0.14999999963E+04  0.15000000000E+04  0.10566000000E+00 0. -1.
        994   -1    0    0    0    0 -0.00000000000E+00 -0.00000000000E+00  0.11368683772E-12  0.17120000000E+03  0.17120000000E+03 0.  0.
         13    1    1    2    0    0 -0.25324558069E+02  0.32313321627E+02  0.69045472758E+02  0.80329150801E+02  0.10566000000E+00 0. -1.
        994    1    1    2    0    0  0.28972885066E+02 -0.39793026430E+02  0.19324509038E+02  0.17918088534E+03  0.17120000000E+03 0.  0.
        998    1    1    2    0    0 -0.36483269967E+01  0.74797048032E+01  0.14116300145E+04  0.14116899639E+04  0.10000000000E+02 0. -1.
</event>
<event>
 5    1  0.1247473E-008  0.3842627E+03  0.7957747E-01  0.3432805E+00
         13   -1    0    0    0    0  0.00000000000E+00  0.00000000000E+00  0.14999999963E+04  0.15000000000E+04  0.10566000000E+00 0. -1.
        994   -1    0    0    0    0 -0.00000000000E+00 -0.00000000000E+00  0.11368683772E-12  0.17120000000E+03  0.17120000000E+03 0.  0.
         13    1    1    2    0    0 -0.10502636566E+02 -0.65539589566E+01  0.39341142272E+02  0.41243137516E+02  0.10566000000E+00 0. -1.
        994    1    1    2    0    0 -0.51046386985E+01  0.91542082839E+01  0.23588719920E+01  0.17153676324E+03  0.17120000000E+03 0.  0.
        998    1    1    2    0    0  0.15607275264E+02 -0.26002493273E+01  0.14582999820E+04  0.14584200992E+04  0.10000000000E+02 0. -1.
</event>
<event>
 5    1  0.1247473E-008  0.3834676E+03  0.7957747E-01  0.3436197E+00
         13   -1    0    0    0    0  0.00000000000E+00  0.00000000000E+00  0.14999999963E+04  0.15000000000E+04  0.10566000000E+00 0.  1.
        994   -1    0    0    0    0 -0.00000000000E+00 -0.00000000000E+00  0.11368683772E-12  0.17120000000E+03  0.17120000000E+03 0.  0.
         13    1    1    2    0    0  0.42109695029E+02 -0.26438888589E+02  0.27093814012E+03  0.27546275280E+03  0.10566000000E+00 0.  1.
        994    1    1    2    0    0 -0.93761283137E+02  0.27837894380E+02  0.34678975208E+02  0.20019539930E+03  0.17120000000E+03 0.  0.
        998    1    1    2    0    0  0.51651588108E+02 -0.13990057913E+01  0.11943828810E+04  0.11955418479E+04  0.10000000000E+02 0.  1.
</event>
<event>
 5    1  0.1247473E-008  0.3800641E+03  0.7957747E-01  0.3450879E+00
         13   -1    0    0    0    0  0.00000000000E+00  0.00000000000E+00  0.14999999963E+04  0.15000000000E+04  0.10566000000E+00 0. -1.
        994   -1    0    0    0    0 -0.00000000000E+00 -0.00000000000E+00  0.11368683772E-12  0.17120000000E+03  0.17120000000E+03 0.  0.
         13    1    1    2    0    0 -0.40555029383E+02  0.14796530988E+02  0.24858547693E+03  0.25230615974E+03  0.10566000000E+00 0. -1.
        994    1    1    2    0    0  0.11026892089E+02 -0.92608990412E+01  0.47941292980E+01  0.17187140622E+03  0.17120000000E+03 0.  0.
        998    1    1    2    0    0  0.29528137295E+02 -0.55356319473E+01  0.12466203900E+04  0.12470224340E+04  0.10000000000E+02 0. -1.
</event>
<event>
 5    1  0.1247473E-008  0.3811035E+03  0.7957747E-01  0.3446368E+00
         13   -1    0    0    0    0  0.00000000000E+00  0.00000000000E+00  0.14999999963E+04  0.15000000000E+04  0.10566000000E+00 0. -1.
        994   -1    0    0    0    0 -0.00000000000E+00 -0.00000000000E+00  0.11368683772E-12  0.17120000000E+03  0.17120000000E+03 0.  0.
         13    1    1    2    0    0  0.47204224852E+02 -0.10474900682E+02  0.26268386052E+03  0.26709695642E+03  0.10566000000E+00 0. -1.
        994    1    1    2    0    0 -0.53658087553E+02 -0.14558962354E+01  0.13234336828E+02  0.17990524635E+03  0.17120000000E+03 0.  0.
        998    1    1    2    0    0  0.64538627008E+01  0.11930796917E+02  0.12240817989E+04  0.12241977972E+04  0.10000000000E+02 0. -1.
</event>
<event>
 5    1  0.1247473E-008  0.3707466E+03  0.7957747E-01  0.3492467E+00
         13   -1    0    0    0    0  0.00000000000E+00  0.00000000000E+00  0.14999999963E+04  0.15000000000E+04  0.10566000000E+00 0.  1.
        994   -1    0    0    0    0 -0.00000000000E+00 -0.00000000000E+00  0.11368683772E-12  0.17120000000E+03  0.17120000000E+03 0.  0.
         13    1    1    2    0    0 -0.48511649472E+02  0.32741024207E+02  0.17852331384E+03  0.18787213617E+03  0.10566000000E+00 0.  1.
        994    1    1    2    0    0  0.40674853454E+02 -0.23941515134E+02  0.16601453446E+02  0.17836111714E+03  0.17120000000E+03 0.  0.
        998    1    1    2    0    0  0.78367960186E+01 -0.87995090731E+01  0.13048752290E+04  0.13049667467E+04  0.10000000000E+02 0.  1.
</event>
<event>
 5    1  0.1247473E-008  0.3724050E+03  0.7957747E-01  0.3484910E+00
         13   -1    0    0    0    0  0.00000000000E+00  0.00000000000E+00  0.14999999963E+04  0.15000000000E+04  0.10566000000E+00 0. -1.
        994   -1    0    0    0    0 -0.00000000000E+00 -0.00000000000E+00  0.11368683772E-12  0.17120000000E+03  0.17120000000E+03 0.  0.
         13    1    1    2    0    0 -0.37735518961E+02 -0.24380055612E+02  0.11755750037E+03  0.12584964664E+03  0.10566000000E+00 0. -1.
        994    1    1    2    0    0  0.22137597428E+02  0.36421501874E+02  0.14272693119E+02  0.17700211521E+03  0.17120000000E+03 0.  0.
        998    1    1    2    0    0  0.15597921533E+02 -0.12041446262E+02  0.13681698028E+04  0.13683482382E+04  0.10000000000E+02 0. -1.
</event>
<event>
 5    1  0.1247473E-008  0.3768663E+03  0.7957747E-01  0.3464918E+00
         13   -1    0    0    0    0  0.00000000000E+00  0.00000000000E+00  0.14999999963E+04  0.15000000000E+04  0.10566000000E+00 0.  1.
        994   -1    0    0    0    0 -0.00000000000E+00 -0.00000000000E+00  0.11368683772E-12  0.17120000000E+03  0.17120000000E+03 0.  0.
         13    1    1    2    0    0 -0.19245991968E+02 -0.37679812503E+02  0.16743411559E+03  0.17269733844E+03  0.10566000000E+00 0.  1.
        994    1    1    2    0    0  0.15076847724E+02  0.48193913816E+01  0.65702195091E+01  0.17205564697E+03  0.17120000000E+03 0.  0.
        998    1    1    2    0    0  0.41691442437E+01  0.32860421122E+02  0.13259956612E+04  0.13264470146E+04  0.10000000000E+02 0.  1.
</event>
<event>
 5    1  0.1247473E-008  0.3816157E+03  0.7957747E-01  0.3444154E+00
         13   -1    0    0    0    0  0.00000000000E+00  0.00000000000E+00  0.14999999963E+04  0.15000000000E+04  0.10566000000E+00 0.  1.
        994   -1    0    0    0    0 -0.00000000000E+00 -0.00000000000E+00  0.11368683772E-12  0.17120000000E+03  0.17120000000E+03 0.  0.
         13    1    1    2    0    0  0.23795725329E+02 -0.94331357190E+00  0.79694827467E+02  0.83176938352E+02  0.10566000000E+00 0.  1.
        994    1    1    2    0    0 -0.26238694360E+02 -0.36598290760E+01  0.56570993514E+01  0.17333004992E+03  0.17120000000E+03 0.  0.
        998    1    1    2    0    0  0.24429690308E+01  0.46031426479E+01  0.14146480695E+04  0.14146930117E+04  0.10000000000E+02 0.  1.
</event>
<event>
 5    1  0.1247473E-008  0.3858846E+03  0.7957747E-01  0.3425929E+00
         13   -1    0    0    0    0  0.00000000000E+00  0.00000000000E+00  0.14999999963E+04  0.15000000000E+04  0.10566000000E+00 0. -1.
        994   -1    0    0    0    0 -0.00000000000E+00 -0.00000000000E+00  0.11368683772E-12  0.17120000000E+03  0.17120000000E+03 0.  0.
         13    1    1    2    0    0  0.11239621046E+02  0.40589944508E+00  0.54161199843E+02  0.55316729549E+02  0.10566000000E+00 0. -1.
        994    1    1    2    0    0 -0.60981891333E+01  0.19186699719E+01  0.13256071793E+01  0.17132444787E+03  0.17120000000E+03 0.  0.
        998    1    1    2    0    0 -0.51414319126E+01 -0.23245694169E+01  0.14445131893E+04  0.14445588226E+04  0.10000000000E+02 0. -1.
</event>
<event>
 5    1  0.1247473E-008  0.3818945E+03  0.7957747E-01  0.3442951E+00
         13   -1    0    0    0    0  0.00000000000E+00  0.00000000000E+00  0.14999999963E+04  0.15000000000E+04  0.10566000000E+00 0. -1.
        994   -1    0    0    0    0 -0.00000000000E+00 -0.00000000000E+00  0.11368683772E-12  0.17120000000E+03  0.17120000000E+03 0.  0.
         13    1    1    2    0    0  0.46650671526E+02  0.30569188558E+02  0.79423492361E+02  0.97050825580E+02  0.10566000000E+00 0. -1.
        994    1    1    2    0    0 -0.47703156300E+02 -0.28891172278E+02  0.28809757470E+02  0.18234509339E+03  0.17120000000E+03 0.  0.
        998    1    1    2    0    0  0.10524847744E+01 -0.16780162799E+01  0.13917667464E+04  0.13918040810E+04  0.10000000000E+02 0. -1.
</event>
<event>
 5    1  0.1247473E-008  0.3787348E+03  0.7957747E-01  0.3456686E+00
         13   -1    0    0    0    0  0.00000000000E+00  0.00000000000E+00  0.14999999963E+04  0.15000000000E+04  0.10566000000E+00 0. -1.
        994   -1    0    0    0    0 -0.00000000000E+00 -0.00000000000E+00  0.11368683772E-12  0.17120000000E+03  0.17120000000E+03 0.  0.
         13    1    1    2    0    0 -0.30434841080E+01  0.12465075511E+02  0.14804958107E+02  0.19591805726E+02  0.10566000000E+00 0. -1.
        994    1    1    2    0    0  0.91000452615E+01 -0.17619757991E+02  0.60944849395E+01  0.17245245560E+03  0.17120000000E+03 0.  0.
        998    1    1    2    0    0 -0.60565611535E+01  0.51546824794E+01  0.14791005532E+04  0.14791557387E+04  0.10000000000E+02 0. -1.
</event>
<event>
 5    1  0.1247473E-008  0.3835441E+03  0.7957747E-01  0.3435870E+00
         13   -1    0    0    0    0  0.00000000000E+00  0.00000000000E+00  0.14999999963E+04  0.15000000000E+04  0.10566000000E+00 0.  1.
        994   -1    0    0    0    0 -0.00000000000E+00 -0.00000000000E+00  0.11368683772E-12  0.17120000000E+03  0.17120000000E+03 0.  0.
         13    1    1    2    0    0 -0.11721623142E+02  0.22832722778E+01  0.28956513760E+02  0.31322525993E+02  0.10566000000E+00 0.  1.
        994    1    1    2    0    0  0.13076011156E+02 -0.39191510552E+01  0.29706526732E+01  0.17176905015E+03  0.17120000000E+03 0.  0.
        998    1    1    2    0    0 -0.13543880138E+01  0.16358787773E+01  0.14680728298E+04  0.14681084239E+04  0.10000000000E+02 0.  1.
</event>
<event>
 5    1  0.1247473E-008  0.3697845E+03  0.7957747E-01  0.3496882E+00
         13   -1    0    0    0    0  0.00000000000E+00  0.00000000000E+00  0.14999999963E+04  0.15000000000E+04  0.10566000000E+00 0. -1.
        994   -1    0    0    0    0 -0.00000000000E+00 -0.00000000000E+00  0.11368683772E-12  0.17120000000E+03  0.17120000000E+03 0.  0.
         13    1    1    2    0    0 -0.67468042904E+01  0.21714612990E+02  0.23348644815E+02  0.32591627209E+02  0.10566000000E+00 0. -1.
        994    1    1    2    0    0 -0.22235262108E+00 -0.21805866776E+02  0.11028981840E+02  0.17293531654E+03  0.17120000000E+03 0.  0.
        998    1    1    2    0    0  0.69691569115E+01  0.91253786318E-01  0.14656223696E+04  0.14656730563E+04  0.10000000000E+02 0. -1.
</event>
<event>
 5    1  0.1247473E-008  0.3724898E+03  0.7957747E-01  0.3484526E+00
         13   -1    0    0    0    0  0.00000000000E+00  0.00000000000E+00  0.14999999963E+04  0.15000000000E+04  0.10566000000E+00 0. -1.
        994   -1    0    0    0    0 -0.00000000000E+00 -0.00000000000E+00  0.11368683772E-12  0.17120000000E+03  0.17120000000E+03 0.  0.
         13    1    1    2    0    0 -0.11962211893E+02 -0.20790189176E+03  0.94607353817E+03  0.96872155024E+03  0.10566000000E+00 0. -1.
        994    1    1    2    0    0  0.69559270479E+01  0.19715269059E+03  0.15598338169E+03  0.30423317323E+03  0.17120000000E+03 0.  0.
        998    1    1    2    0    0  0.50062848452E+01  0.10749201171E+02  0.39794307641E+03  0.39824527653E+03  0.10000000000E+02 0. -1.
</event>
<event>
 5    1  0.1247473E-008  0.3847034E+03  0.7957747E-01  0.3430931E+00
         13   -1    0    0    0    0  0.00000000000E+00  0.00000000000E+00  0.14999999963E+04  0.15000000000E+04  0.10566000000E+00 0. -1.
        994   -1    0    0    0    0 -0.00000000000E+00 -0.00000000000E+00  0.11368683772E-12  0.17120000000E+03  0.17120000000E+03 0.  0.
         13    1    1    2    0    0  0.17187653766E+02 -0.57684121699E+01  0.84045018548E+02  0.85978289863E+02  0.10566000000E+00 0. -1.
        994    1    1    2    0    0 -0.24977110025E+02  0.57687516148E+01  0.39436400959E+01  0.17315347764E+03  0.17120000000E+03 0.  0.
        998    1    1    2    0    0  0.77894562590E+01 -0.33944490152E-03  0.14120113376E+04  0.14120682325E+04  0.10000000000E+02 0. -1.
</event>
<event>
 5    1  0.1247473E-008  0.3843719E+03  0.7957747E-01  0.3432341E+00
         13   -1    0    0    0    0  0.00000000000E+00  0.00000000000E+00  0.14999999963E+04  0.15000000000E+04  0.10566000000E+00 0.  1.
        994   -1    0    0    0    0 -0.00000000000E+00 -0.00000000000E+00  0.11368683772E-12  0.17120000000E+03  0.17120000000E+03 0.  0.
         13    1    1    2    0    0  0.36697684969E+01 -0.23593607352E+02  0.13566491382E+03  0.13775015613E+03  0.10566000000E+00 0.  1.
        994    1    1    2    0    0  0.27415953017E+01  0.24542156339E+02  0.39545166437E+01  0.17301708582E+03  0.17120000000E+03 0.  0.
        998    1    1    2    0    0 -0.64113637987E+01 -0.94854898658E+00  0.13603805658E+04  0.13604327580E+04  0.10000000000E+02 0.  1.
</event>
