<event>
 5    1  0.1321379E-008  0.3848112E+03  0.7957747E-01  0.3430473E+00
         13   -1    0    0    0    0  0.00000000000E+00  0.00000000000E+00  0.14999999963E+04  0.15000000000E+04  0.10566000000E+00 0.  1.
        994   -1    0    0    0    0 -0.00000000000E+00 -0.00000000000E+00  0.11368683772E-12  0.17120000000E+03  0.17120000000E+03 0.  0.
         13    1    1    2    0    0 -0.11972477839E+02 -0.52426336052E+01  0.50422769539E+02  0.52089272261E+02  0.10566000000E+00 0.  1.
        994    1    1    2    0    0  0.77473309898E+01 -0.51175805770E+01  0.20076303794E+01  0.17146335278E+03  0.17120000000E+03 0.  0.
        998    1    1    2    0    0  0.42251468491E+01  0.10360214182E+02  0.14475695964E+04  0.14476473750E+04  0.10000000000E+02 0.  1.
</event>
<event>
 5    1  0.1321379E-008  0.3762120E+03  0.7957747E-01  0.3467820E+00
         13   -1    0    0    0    0  0.00000000000E+00  0.00000000000E+00  0.14999999963E+04  0.15000000000E+04  0.10566000000E+00 0.  1.
        994   -1    0    0    0    0 -0.00000000000E+00 -0.00000000000E+00  0.11368683772E-12  0.17120000000E+03  0.17120000000E+03 0.  0.
         13    1    1    2    0    0  0.49298672233E+01 -0.18259770606E+02  0.27947233323E+02  0.33745841638E+02  0.10566000000E+00 0.  1.
        994    1    1    2    0    0 -0.15504102069E+02 -0.39597453537E+01  0.69249501782E+01  0.17208559411E+03  0.17120000000E+03 0.  0.
        998    1    1    2    0    0  0.10574234846E+02  0.22219515959E+02  0.14651278128E+04  0.14653685643E+04  0.10000000000E+02 0.  1.
</event>
<event>
 5    1  0.1321379E-008  0.3793160E+03  0.7957747E-01  0.3454142E+00
         13   -1    0    0    0    0  0.00000000000E+00  0.00000000000E+00  0.14999999963E+04  0.15000000000E+04  0.10566000000E+00 0.  1.
        994   -1    0    0    0    0 -0.00000000000E+00 -0.00000000000E+00  0.11368683772E-12  0.17120000000E+03  0.17120000000E+03 0.  0.
         13    1    1    2    0    0 -0.82080656111E+01  0.24781050818E+02  0.70576618043E+02  0.75249870426E+02  0.10566000000E+00 0.  1.
        994    1    1    2    0    0  0.77204269135E+01 -0.28104672109E+02  0.73302394795E+01  0.17381786444E+03  0.17120000000E+03 0.  0.
        998    1    1    2    0    0  0.48763869760E+00  0.33236212903E+01  0.14220931388E+04  0.14221322651E+04  0.10000000000E+02 0.  1.
</event>
<event>
 5    1  0.1321379E-008  0.3785208E+03  0.7957747E-01  0.3457625E+00
         13   -1    0    0    0    0  0.00000000000E+00  0.00000000000E+00  0.14999999963E+04  0.15000000000E+04  0.10566000000E+00 0. -1.
        994   -1    0    0    0    0 -0.00000000000E+00 -0.00000000000E+00  0.11368683772E-12  0.17120000000E+03  0.17120000000E+03 0.  0.
         13    1    1    2    0    0  0.30062625692E+02 -0.25627822323E+02  0.14912381051E+03  0.15426752336E+03  0.10566000000E+00 0. -1.
        994    1    1    2    0    0 -0.21655204139E+02  0.26011603447E+02  0.87396379678E+01  0.17473228852E+03  0.17120000000E+03 0.  0.
        998    1    1    2    0    0 -0.84074215535E+01 -0.38378112335E+00  0.13421365478E+04  0.13422001881E+04  0.10000000000E+02 0.  0.
</event>
<event>
 5    1  0.1321379E-008  0.3778024E+03  0.7957747E-01  0.3460784E+00
         13   -1    0    0    0    0  0.00000000000E+00  0.00000000000E+00  0.14999999963E+04  0.15000000000E+04  0.10566000000E+00 0. -1.
        994   -1    0    0    0    0 -0.00000000000E+00 -0.00000000000E+00  0.11368683772E-12  0.17120000000E+03  0.17120000000E+03 0.  0.
         13    1    1    2    0    0  0.11397822341E+02 -0.17565861134E+03  0.94454573642E+03  0.96080826259E+03  0.10566000000E+00 0. -1.
        994    1    1    2    0    0 -0.12217547688E+02  0.17331237549E+03  0.11474051995E+03  0.26955755394E+03  0.17120000000E+03 0.  0.
        998    1    1    2    0    0  0.81972534727E+00  0.23462358484E+01  0.44071373991E+03  0.44083418347E+03  0.10000000000E+02 0. -1.
</event>
<event>
 5    1  0.1321379E-008  0.3844313E+03  0.7957747E-01  0.3432088E+00
         13   -1    0    0    0    0  0.00000000000E+00  0.00000000000E+00  0.14999999963E+04  0.15000000000E+04  0.10566000000E+00 0.  1.
        994   -1    0    0    0    0 -0.00000000000E+00 -0.00000000000E+00  0.11368683772E-12  0.17120000000E+03  0.17120000000E+03 0.  0.
         13    1    1    2    0    0 -0.27015673075E+00  0.14277167077E+02  0.54691096316E+02  0.56524664215E+02  0.10566000000E+00 0.  1.
        994    1    1    2    0    0  0.43713627626E+01 -0.36627892351E+01  0.20199363789E+01  0.17130687371E+03  0.17120000000E+03 0.  0.
        998    1    1    2    0    0 -0.41012060319E+01 -0.10614377842E+02  0.14432889636E+04  0.14433684621E+04  0.10000000000E+02 0.  1.
</event>
<event>
 5    1  0.1321379E-008  0.3697549E+03  0.7957747E-01  0.3497018E+00
         13   -1    0    0    0    0  0.00000000000E+00  0.00000000000E+00  0.14999999963E+04  0.15000000000E+04  0.10566000000E+00 0.  1.
        994   -1    0    0    0    0 -0.00000000000E+00 -0.00000000000E+00  0.11368683772E-12  0.17120000000E+03  0.17120000000E+03 0.  0.
         13    1    1    2    0    0  0.37650488178E+02  0.25241483388E+02  0.10842096021E+03  0.11751513741E+03  0.10566000000E+00 0.  1.
        994    1    1    2    0    0  0.16682403445E+02  0.75077790451E+01  0.11979077651E+02  0.17259086775E+03  0.17120000000E+03 0.  0.
        998    1    1    2    0    0 -0.54332891623E+02 -0.32749262433E+02  0.13795999584E+04  0.13810939948E+04  0.10000000000E+02 0.  1.
</event>
<event>
 5    1  0.1321379E-008  0.3763891E+03  0.7957747E-01  0.3467033E+00
         13   -1    0    0    0    0  0.00000000000E+00  0.00000000000E+00  0.14999999963E+04  0.15000000000E+04  0.10566000000E+00 0.  1.
        994   -1    0    0    0    0 -0.00000000000E+00 -0.00000000000E+00  0.11368683772E-12  0.17120000000E+03  0.17120000000E+03 0.  0.
         13    1    1    2    0    0 -0.56134266801E+02 -0.18957903237E+01  0.20982703033E+03  0.21721428073E+03  0.10566000000E+00 0.  1.
        994    1    1    2    0    0  0.67891153802E+02  0.39072977848E+01  0.21777107303E+02  0.18549436149E+03  0.17120000000E+03 0.  0.
        998    1    1    2    0    0 -0.11756887000E+02 -0.20115074611E+01  0.12683958586E+04  0.12684913578E+04  0.10000000000E+02 0.  1.
</event>
<event>
 5    1  0.1321379E-008  0.3796936E+03  0.7957747E-01  0.3452494E+00
         13   -1    0    0    0    0  0.00000000000E+00  0.00000000000E+00  0.14999999963E+04  0.15000000000E+04  0.10566000000E+00 0. -1.
        994   -1    0    0    0    0 -0.00000000000E+00 -0.00000000000E+00  0.11368683772E-12  0.17120000000E+03  0.17120000000E+03 0.  0.
         13    1    1    2    0    0 -0.76042131445E+01 -0.11058648072E+02  0.18899626211E+02  0.23180267248E+02  0.10566000000E+00 0. -1.
        994    1    1    2    0    0  0.12473046082E+02  0.10139906166E+02  0.51530255690E+01  0.17203019575E+03  0.17120000000E+03 0.  0.
        998    1    1    2    0    0 -0.48688329373E+01  0.91874190648E+00  0.14759473445E+04  0.14759895370E+04  0.10000000000E+02 0. -1.
</event>
<event>
 5    1  0.1321379E-008  0.3841545E+03  0.7957747E-01  0.3433266E+00
         13   -1    0    0    0    0  0.00000000000E+00  0.00000000000E+00  0.14999999963E+04  0.15000000000E+04  0.10566000000E+00 0.  1.
        994   -1    0    0    0    0 -0.00000000000E+00 -0.00000000000E+00  0.11368683772E-12  0.17120000000E+03  0.17120000000E+03 0.  0.
         13    1    1    2    0    0 -0.80848034313E+01 -0.11151887131E+02  0.46381658981E+02  0.48383861844E+02  0.10566000000E+00 0.  1.
        994    1    1    2    0    0  0.65904356125E+01  0.35703827017E+01  0.22358065110E+01  0.17137858765E+03  0.17120000000E+03 0.  0.
        998    1    1    2    0    0  0.14943678189E+01  0.75815044296E+01  0.14513825308E+04  0.14514375505E+04  0.10000000000E+02 0.  1.
</event>
<event>
 5    1  0.1321379E-008  0.3716033E+03  0.7957747E-01  0.3488555E+00
         13   -1    0    0    0    0  0.00000000000E+00  0.00000000000E+00  0.14999999963E+04  0.15000000000E+04  0.10566000000E+00 0. -1.
        994   -1    0    0    0    0 -0.00000000000E+00 -0.00000000000E+00  0.11368683772E-12  0.17120000000E+03  0.17120000000E+03 0.  0.
         13    1    1    2    0    0  0.15134462395E+02 -0.14652761246E+02  0.23028987037E+02  0.31210587500E+02  0.10566000000E+00 0. -1.
        994    1    1    2    0    0 -0.97415810020E+01  0.39267223830E+01  0.88128786309E+01  0.17174814229E+03  0.17120000000E+03 0.  0.
        998    1    1    2    0    0 -0.53928813926E+01  0.10726038863E+02  0.14681581306E+04  0.14682412702E+04  0.10000000000E+02 0. -1.
</event>
<event>
 5    1  0.1321379E-008  0.2632540E+03  0.7957747E-01  0.4199184E+00
         13   -1    0    0    0    0  0.00000000000E+00  0.00000000000E+00  0.14999999963E+04  0.15000000000E+04  0.10566000000E+00 0. -1.
        994   -1    0    0    0    0 -0.00000000000E+00 -0.00000000000E+00  0.11368683772E-12  0.17120000000E+03  0.17120000000E+03 0.  0.
         13    1    1    2    0    0  0.15983826127E+03 -0.14079705640E+03  0.57107051904E+03  0.60950277254E+03  0.10566000000E+00 0. -1.
        994    1    1    2    0    0 -0.45517913336E+02  0.59186732939E+02  0.83445327361E+02  0.20456664549E+03  0.17120000000E+03 0.  0.
        998    1    1    2    0    0 -0.11432034793E+03  0.81610323457E+02  0.84548414988E+03  0.85713058196E+03  0.10000000000E+02 0. -1.
</event>
<event>
 5    1  0.1321379E-008  0.3833237E+03  0.7957747E-01  0.3436813E+00
         13   -1    0    0    0    0  0.00000000000E+00  0.00000000000E+00  0.14999999963E+04  0.15000000000E+04  0.10566000000E+00 0. -1.
        994   -1    0    0    0    0 -0.00000000000E+00 -0.00000000000E+00  0.11368683772E-12  0.17120000000E+03  0.17120000000E+03 0.  0.
         13    1    1    2    0    0 -0.63278500992E+01 -0.27163084160E+02  0.14223630375E+03  0.14494499680E+03  0.10566000000E+00 0. -1.
        994    1    1    2    0    0 -0.60246481886E+02  0.52881733333E+02  0.24011634925E+02  0.19055737958E+03  0.17120000000E+03 0.  0.
        998    1    1    2    0    0  0.66574331985E+02 -0.25718649173E+02  0.13337520576E+04  0.13356976236E+04  0.10000000000E+02 0.  1.
</event>
<event>
 5    1  0.1321379E-008  0.3831553E+03  0.7957747E-01  0.3437534E+00
         13   -1    0    0    0    0  0.00000000000E+00  0.00000000000E+00  0.14999999963E+04  0.15000000000E+04  0.10566000000E+00 0. -1.
        994   -1    0    0    0    0 -0.00000000000E+00 -0.00000000000E+00  0.11368683772E-12  0.17120000000E+03  0.17120000000E+03 0.  0.
         13    1    1    2    0    0  0.56671788586E+00 -0.18630867940E+02  0.68591678513E+02  0.71079251084E+02  0.10566000000E+00 0. -1.
        994    1    1    2    0    0 -0.10818329753E+02  0.86003626872E+01  0.31809699977E+01  0.17178638208E+03  0.17120000000E+03 0.  0.
        998    1    1    2    0    0  0.10251611868E+02  0.10030505253E+02  0.14282273478E+04  0.14283343668E+04  0.10000000000E+02 0. -1.
</event>
<event>
 5    1  0.1321379E-008  0.3801022E+03  0.7957747E-01  0.3450713E+00
         13   -1    0    0    0    0  0.00000000000E+00  0.00000000000E+00  0.14999999963E+04  0.15000000000E+04  0.10566000000E+00 0.  1.
        994   -1    0    0    0    0 -0.00000000000E+00 -0.00000000000E+00  0.11368683772E-12  0.17120000000E+03  0.17120000000E+03 0.  0.
         13    1    1    2    0    0  0.10278582263E+02  0.71353748001E-01  0.11179906494E+02  0.15187357175E+02  0.10566000000E+00 0.  1.
        994    1    1    2    0    0 -0.62575429899E+01 -0.38609377328E+01  0.42622319806E+01  0.17141082319E+03  0.17120000000E+03 0.  0.
        998    1    1    2    0    0 -0.40210392734E+01  0.37895839848E+01  0.14845578578E+04  0.14846018196E+04  0.10000000000E+02 0.  1.
</event>
<event>
 5    1  0.1321379E-008  0.3793607E+03  0.7957747E-01  0.3453947E+00
         13   -1    0    0    0    0  0.00000000000E+00  0.00000000000E+00  0.14999999963E+04  0.15000000000E+04  0.10566000000E+00 0. -1.
        994   -1    0    0    0    0 -0.00000000000E+00 -0.00000000000E+00  0.11368683772E-12  0.17120000000E+03  0.17120000000E+03 0.  0.
         13    1    1    2    0    0  0.24727379957E+02 -0.23403222507E+02  0.13984320206E+03  0.14392806005E+03  0.10566000000E+00 0. -1.
        994    1    1    2    0    0 -0.13156263247E+02 -0.48535563627E+01  0.51152224017E+01  0.17184949745E+03  0.17120000000E+03 0.  0.
        998    1    1    2    0    0 -0.11571116710E+02  0.28256778870E+02  0.13550415718E+04  0.13554224425E+04  0.10000000000E+02 0. -1.
</event>
<event>
 5    1  0.1321379E-008  0.3794863E+03  0.7957747E-01  0.3453399E+00
         13   -1    0    0    0    0  0.00000000000E+00  0.00000000000E+00  0.14999999963E+04  0.15000000000E+04  0.10566000000E+00 0. -1.
        994   -1    0    0    0    0 -0.00000000000E+00 -0.00000000000E+00  0.11368683772E-12  0.17120000000E+03  0.17120000000E+03 0.  0.
         13    1    1    2    0    0  0.57087291651E+01 -0.10254445408E+02  0.13956146489E+02  0.18235362024E+02  0.10566000000E+00 0. -1.
        994    1    1    2    0    0  0.95010448451E+00  0.38507935259E+01  0.44453875645E+01  0.17130362746E+03  0.17120000000E+03 0.  0.
        998    1    1    2    0    0 -0.66588336496E+01  0.64036518820E+01  0.14815984622E+04  0.14816610105E+04  0.10000000000E+02 0. -1.
</event>
<event>
 5    1  0.1321379E-008  0.3895502E+03  0.7957747E-01  0.3410601E+00
         13   -1    0    0    0    0  0.00000000000E+00  0.00000000000E+00  0.14999999963E+04  0.15000000000E+04  0.10566000000E+00 0. -1.
        994   -1    0    0    0    0 -0.00000000000E+00 -0.00000000000E+00  0.11368683772E-12  0.17120000000E+03  0.17120000000E+03 0.  0.
         13    1    1    2    0    0  0.25430555675E+02 -0.64968778666E+02  0.10403828314E+03  0.12526624001E+03  0.10566000000E+00 0. -1.
        994    1    1    2    0    0 -0.69945382319E+02  0.27496258474E+02  0.43215172729E+02  0.19189943171E+03  0.17120000000E+03 0.  0.
        998    1    1    2    0    0  0.44514826644E+02  0.37472520192E+02  0.13527465404E+04  0.13540343283E+04  0.10000000000E+02 0. -1.
</event>
<event>
 5    1  0.1321379E-008  0.3688326E+03  0.7957747E-01  0.3501273E+00
         13   -1    0    0    0    0  0.00000000000E+00  0.00000000000E+00  0.14999999963E+04  0.15000000000E+04  0.10566000000E+00 0.  1.
        994   -1    0    0    0    0 -0.00000000000E+00 -0.00000000000E+00  0.11368683772E-12  0.17120000000E+03  0.17120000000E+03 0.  0.
         13    1    1    2    0    0 -0.44717272642E+02  0.15912995419E+02  0.17952204042E+03  0.18569068920E+03  0.10566000000E+00 0.  1.
        994    1    1    2    0    0 -0.65166438882E+02  0.13051519656E+02  0.25375459494E+02  0.18539245094E+03  0.17120000000E+03 0.  0.
        998    1    1    2    0    0  0.10988371152E+03 -0.28964515075E+02  0.12951024964E+04  0.13001168599E+04  0.10000000000E+02 0.  1.
</event>
<event>
 5    1  0.1321379E-008  0.3836101E+03  0.7957747E-01  0.3435588E+00
         13   -1    0    0    0    0  0.00000000000E+00  0.00000000000E+00  0.14999999963E+04  0.15000000000E+04  0.10566000000E+00 0. -1.
        994   -1    0    0    0    0 -0.00000000000E+00 -0.00000000000E+00  0.11368683772E-12  0.17120000000E+03  0.17120000000E+03 0.  0.
         13    1    1    2    0    0  0.30056453489E+02  0.15232521978E+01  0.13612882595E+03  0.13941584958E+03  0.10566000000E+00 0. -1.
        994    1    1    2    0    0 -0.66871451751E+02  0.46553577396E+01  0.17310223895E+02  0.18466875011E+03  0.17120000000E+03 0.  0.
        998    1    1    2    0    0  0.36814998262E+02 -0.61786099375E+01  0.13465609464E+04  0.13471154003E+04  0.10000000000E+02 0. -1.
</event>
<event>
 5    1  0.1321379E-008  0.3807751E+03  0.7957747E-01  0.3447790E+00
         13   -1    0    0    0    0  0.00000000000E+00  0.00000000000E+00  0.14999999963E+04  0.15000000000E+04  0.10566000000E+00 0.  1.
        994   -1    0    0    0    0 -0.00000000000E+00 -0.00000000000E+00  0.11368683772E-12  0.17120000000E+03  0.17120000000E+03 0.  0.
         13    1    1    2    0    0 -0.28863320111E+02  0.70475511055E+01  0.10808318902E+03  0.11209257842E+03  0.10566000000E+00 0.  1.
        994    1    1    2    0    0  0.31917757692E+02 -0.32953321160E+01  0.71830559030E+01  0.17432911048E+03  0.17120000000E+03 0.  0.
        998    1    1    2    0    0 -0.30544375809E+01 -0.37522189895E+01  0.13847337514E+04  0.13847783111E+04  0.10000000000E+02 0.  1.
</event>
<event>
 5    1  0.1321379E-008  0.3813837E+03  0.7957747E-01  0.3445156E+00
         13   -1    0    0    0    0  0.00000000000E+00  0.00000000000E+00  0.14999999963E+04  0.15000000000E+04  0.10566000000E+00 0.  1.
        994   -1    0    0    0    0 -0.00000000000E+00 -0.00000000000E+00  0.11368683772E-12  0.17120000000E+03  0.17120000000E+03 0.  0.
         13    1    1    2    0    0 -0.38683421377E+02  0.11326883249E+02  0.49854344852E+02  0.64110625003E+02  0.10566000000E+00 0.  1.
        994    1    1    2    0    0 -0.46047585177E+02  0.24365557183E+02  0.27040886151E+02  0.18098262348E+03  0.17120000000E+03 0.  0.
        998    1    1    2    0    0  0.84731006554E+02 -0.35692440432E+02  0.14231047653E+04  0.14261067515E+04  0.10000000000E+02 0.  1.
</event>
<event>
 5    1  0.1321379E-008  0.3823803E+03  0.7957747E-01  0.3440859E+00
         13   -1    0    0    0    0  0.00000000000E+00  0.00000000000E+00  0.14999999963E+04  0.15000000000E+04  0.10566000000E+00 0.  1.
        994   -1    0    0    0    0 -0.00000000000E+00 -0.00000000000E+00  0.11368683772E-12  0.17120000000E+03  0.17120000000E+03 0.  0.
         13    1    1    2    0    0  0.19177256435E+02 -0.23178269002E+02  0.15623826815E+03  0.15910816106E+03  0.10566000000E+00 0.  1.
        994    1    1    2    0    0 -0.26242695463E+01  0.17736443819E+02  0.40033642753E+01  0.17218285384E+03  0.17120000000E+03 0.  0.
        998    1    1    2    0    0 -0.16552986888E+02  0.54418251824E+01  0.13397583639E+04  0.13399089851E+04  0.10000000000E+02 0.  1.
</event>
<event>
 5    1  0.1321379E-008  0.3833380E+03  0.7957747E-01  0.3436752E+00
         13   -1    0    0    0    0  0.00000000000E+00  0.00000000000E+00  0.14999999963E+04  0.15000000000E+04  0.10566000000E+00 0. -1.
        994   -1    0    0    0    0 -0.00000000000E+00 -0.00000000000E+00  0.11368683772E-12  0.17120000000E+03  0.17120000000E+03 0.  0.
         13    1    1    2    0    0  0.10625346372E+02  0.17445110488E+02  0.88821393740E+02  0.91139898043E+02  0.10566000000E+00 0. -1.
        994    1    1    2    0    0 -0.38835371224E+00 -0.48138886869E+01  0.25346805231E+01  0.17128686158E+03  0.17120000000E+03 0.  0.
        998    1    1    2    0    0 -0.10236992659E+02 -0.12631221801E+02  0.14086439220E+04  0.14087732404E+04  0.10000000000E+02 0. -1.
</event>
<event>
 5    1  0.1321379E-008  0.3831813E+03  0.7957747E-01  0.3437422E+00
         13   -1    0    0    0    0  0.00000000000E+00  0.00000000000E+00  0.14999999963E+04  0.15000000000E+04  0.10566000000E+00 0.  1.
        994   -1    0    0    0    0 -0.00000000000E+00 -0.00000000000E+00  0.11368683772E-12  0.17120000000E+03  0.17120000000E+03 0.  0.
         13    1    1    2    0    0  0.32216709482E+01  0.28289237849E+02  0.16893749874E+03  0.17132002156E+03  0.10566000000E+00 0.  1.
        994    1    1    2    0    0 -0.15851675393E+02 -0.85497385069E+01  0.36095975397E+01  0.17218258575E+03  0.17120000000E+03 0.  0.
        998    1    1    2    0    0  0.12630004444E+02 -0.19739499343E+02  0.13274529000E+04  0.13276973927E+04  0.10000000000E+02 0.  1.
</event>
<event>
 5    1  0.1321379E-008  0.3719403E+03  0.7957747E-01  0.3487021E+00
         13   -1    0    0    0    0  0.00000000000E+00  0.00000000000E+00  0.14999999963E+04  0.15000000000E+04  0.10566000000E+00 0.  1.
        994   -1    0    0    0    0 -0.00000000000E+00 -0.00000000000E+00  0.11368683772E-12  0.17120000000E+03  0.17120000000E+03 0.  0.
         13    1    1    2    0    0  0.23499125777E+02  0.41873097402E+02  0.12681311147E+03  0.13559919470E+03  0.10566000000E+00 0.  1.
        994    1    1    2    0    0 -0.16122941663E+02 -0.44294173241E+02  0.15928858903E+02  0.17828373896E+03  0.17120000000E+03 0.  0.
        998    1    1    2    0    0 -0.73761841139E+01  0.24210758393E+01  0.13572580259E+04  0.13573170663E+04  0.10000000000E+02 0.  1.
</event>
<event>
 5    1  0.1321379E-008  0.3759120E+03  0.7957747E-01  0.3469154E+00
         13   -1    0    0    0    0  0.00000000000E+00  0.00000000000E+00  0.14999999963E+04  0.15000000000E+04  0.10566000000E+00 0. -1.
        994   -1    0    0    0    0 -0.00000000000E+00 -0.00000000000E+00  0.11368683772E-12  0.17120000000E+03  0.17120000000E+03 0.  0.
         13    1    1    2    0    0  0.14970114773E+03  0.45107625493E+00  0.89729780587E+03  0.90969995091E+03  0.10566000000E+00 0. -1.
        994    1    1    2    0    0 -0.13540268564E+03 -0.10976059282E+02  0.71559227271E+02  0.22996635441E+03  0.17120000000E+03 0.  0.
        998    1    1    2    0    0 -0.14298462094E+02  0.10524983027E+02  0.53114296314E+03  0.53153369468E+03  0.10000000000E+02 0. -1.
</event>
<event>
 5    1  0.1321379E-008  0.3790332E+03  0.7957747E-01  0.3455379E+00
         13   -1    0    0    0    0  0.00000000000E+00  0.00000000000E+00  0.14999999963E+04  0.15000000000E+04  0.10566000000E+00 0. -1.
        994   -1    0    0    0    0 -0.00000000000E+00 -0.00000000000E+00  0.11368683772E-12  0.17120000000E+03  0.17120000000E+03 0.  0.
         13    1    1    2    0    0 -0.10340072720E+02  0.45281537960E+02  0.67016687722E+02  0.81538839709E+02  0.10566000000E+00 0. -1.
        994    1    1    2    0    0  0.36192875065E+02  0.11400424572E+01  0.20546338622E+02  0.17618971574E+03  0.17120000000E+03 0.  0.
        998    1    1    2    0    0 -0.25852802346E+02 -0.46421580417E+02  0.14124369699E+04  0.14134714445E+04  0.10000000000E+02 0. -1.
</event>
<event>
 5    1  0.1321379E-008  0.3850196E+03  0.7957747E-01  0.3429589E+00
         13   -1    0    0    0    0  0.00000000000E+00  0.00000000000E+00  0.14999999963E+04  0.15000000000E+04  0.10566000000E+00 0. -1.
        994   -1    0    0    0    0 -0.00000000000E+00 -0.00000000000E+00  0.11368683772E-12  0.17120000000E+03  0.17120000000E+03 0.  0.
         13    1    1    2    0    0  0.64077150569E+01 -0.91390523286E+01  0.37273834704E+02  0.38909266342E+02  0.10566000000E+00 0. -1.
        994    1    1    2    0    0  0.31344471735E+01  0.18409551721E+02  0.27680266715E+01  0.17223773781E+03  0.17120000000E+03 0.  0.
        998    1    1    2    0    0 -0.95421622304E+01 -0.92704993929E+01  0.14599581349E+04  0.14600529958E+04  0.10000000000E+02 0. -1.
</event>
<event>
 5    1  0.1321379E-008  0.3852480E+03  0.7957747E-01  0.3428621E+00
         13   -1    0    0    0    0  0.00000000000E+00  0.00000000000E+00  0.14999999963E+04  0.15000000000E+04  0.10566000000E+00 0.  1.
        994   -1    0    0    0    0 -0.00000000000E+00 -0.00000000000E+00  0.11368683772E-12  0.17120000000E+03  0.17120000000E+03 0.  0.
         13    1    1    2    0    0  0.66555191768E+01  0.76609293071E+01  0.33440709939E+02  0.34946788388E+02  0.10566000000E+00 0.  1.
        994    1    1    2    0    0 -0.14671599591E+02 -0.17752789976E+01  0.22250812281E+01  0.17185109379E+03  0.17120000000E+03 0.  0.
        998    1    1    2    0    0  0.80160804145E+01 -0.58856503095E+01  0.14643342051E+04  0.14644021178E+04  0.10000000000E+02 0.  1.
</event>
<event>
 5    1  0.1321379E-008  0.3829869E+03  0.7957747E-01  0.3438255E+00
         13   -1    0    0    0    0  0.00000000000E+00  0.00000000000E+00  0.14999999963E+04  0.15000000000E+04  0.10566000000E+00 0. -1.
        994   -1    0    0    0    0 -0.00000000000E+00 -0.00000000000E+00  0.11368683772E-12  0.17120000000E+03  0.17120000000E+03 0.  0.
         13    1    1    2    0    0  0.81275287484E+01  0.11874301555E+02  0.36447882496E+02  0.39185648692E+02  0.10566000000E+00 0. -1.
        994    1    1    2    0    0 -0.11400870357E+02 -0.20715607297E+02  0.44859165550E+01  0.17288342800E+03  0.17120000000E+03 0.  0.
        998    1    1    2    0    0  0.32733416087E+01  0.88413057425E+01  0.14590661972E+04  0.14591309233E+04  0.10000000000E+02 0. -1.
</event>
<event>
 5    1  0.1321379E-008  0.3859985E+03  0.7957747E-01  0.3425449E+00
         13   -1    0    0    0    0  0.00000000000E+00  0.00000000000E+00  0.14999999963E+04  0.15000000000E+04  0.10566000000E+00 0. -1.
        994   -1    0    0    0    0 -0.00000000000E+00 -0.00000000000E+00  0.11368683772E-12  0.17120000000E+03  0.17120000000E+03 0.  0.
         13    1    1    2    0    0  0.40055004052E+01  0.13728777955E+02  0.85010972575E+02  0.86205568265E+02  0.10566000000E+00 0. -1.
        994    1    1    2    0    0 -0.27076541884E+01 -0.17365033573E+02  0.21483919147E+01  0.17211313538E+03  0.17120000000E+03 0.  0.
        998    1    1    2    0    0 -0.12978462167E+01  0.36362556173E+01  0.14128406318E+04  0.14128812964E+04  0.10000000000E+02 0. -1.
</event>
<event>
 5    1  0.1321379E-008  0.3718760E+03  0.7957747E-01  0.3487313E+00
         13   -1    0    0    0    0  0.00000000000E+00  0.00000000000E+00  0.14999999963E+04  0.15000000000E+04  0.10566000000E+00 0.  1.
        994   -1    0    0    0    0 -0.00000000000E+00 -0.00000000000E+00  0.11368683772E-12  0.17120000000E+03  0.17120000000E+03 0.  0.
         13    1    1    2    0    0  0.20300196627E+02 -0.16109906581E+02  0.35439631599E+02  0.43904506888E+02  0.10566000000E+00 0.  1.
        994    1    1    2    0    0 -0.28296787523E+02  0.21019804370E+02  0.12572449585E+02  0.17524282253E+03  0.17120000000E+03 0.  0.
        998    1    1    2    0    0  0.79965908958E+01 -0.49098977892E+01  0.14519879151E+04  0.14520526706E+04  0.10000000000E+02 0.  1.
</event>
<event>
 5    1  0.1321379E-008  0.3859366E+03  0.7957747E-01  0.3425710E+00
         13   -1    0    0    0    0  0.00000000000E+00  0.00000000000E+00  0.14999999963E+04  0.15000000000E+04  0.10566000000E+00 0.  1.
        994   -1    0    0    0    0 -0.00000000000E+00 -0.00000000000E+00  0.11368683772E-12  0.17120000000E+03  0.17120000000E+03 0.  0.
         13    1    1    2    0    0  0.10070003391E+02 -0.45938320117E+01  0.52743140795E+02  0.53892098918E+02  0.10566000000E+00 0.  1.
        994    1    1    2    0    0 -0.62311121654E+01  0.67505753149E+01  0.14426202413E+01  0.17145237875E+03  0.17120000000E+03 0.  0.
        998    1    1    2    0    0 -0.38388912260E+01 -0.21567433032E+01  0.14458142352E+04  0.14458555223E+04  0.10000000000E+02 0.  1.
</event>
<event>
 5    1  0.1321379E-008  0.3822587E+03  0.7957747E-01  0.3441382E+00
         13   -1    0    0    0    0  0.00000000000E+00  0.00000000000E+00  0.14999999963E+04  0.15000000000E+04  0.10566000000E+00 0.  1.
        994   -1    0    0    0    0 -0.00000000000E+00 -0.00000000000E+00  0.11368683772E-12  0.17120000000E+03  0.17120000000E+03 0.  0.
         13    1    1    2    0    0 -0.39005065360E+01  0.15022805123E+02  0.38747903408E+02  0.41740984746E+02  0.10566000000E+00 0.  1.
        994    1    1    2    0    0  0.53572211310E+01 -0.12144053171E+02  0.35820744213E+01  0.17175112548E+03  0.17120000000E+03 0.  0.
        998    1    1    2    0    0 -0.14567145950E+01 -0.28787519523E+01  0.14576700184E+04  0.14577078898E+04  0.10000000000E+02 0.  1.
</event>
<event>
 5    1  0.1321379E-008  0.3825086E+03  0.7957747E-01  0.3440308E+00
         13   -1    0    0    0    0  0.00000000000E+00  0.00000000000E+00  0.14999999963E+04  0.15000000000E+04  0.10566000000E+00 0.  1.
        994   -1    0    0    0    0 -0.00000000000E+00 -0.00000000000E+00  0.11368683772E-12  0.17120000000E+03  0.17120000000E+03 0.  0.
         13    1    1    2    0    0  0.14568794213E+02  0.21776599106E+02  0.13941841032E+03  0.14185899455E+03  0.10566000000E+00 0.  1.
        994    1    1    2    0    0  0.74662692025E+01  0.22438941521E+01  0.30736793247E+01  0.17140498167E+03  0.17120000000E+03 0.  0.
        998    1    1    2    0    0 -0.22035063415E+02 -0.24020493258E+02  0.13575079066E+04  0.13579360238E+04  0.10000000000E+02 0.  1.
</event>
<event>
 5    1  0.1321379E-008  0.3843856E+03  0.7957747E-01  0.3432282E+00
         13   -1    0    0    0    0  0.00000000000E+00  0.00000000000E+00  0.14999999963E+04  0.15000000000E+04  0.10566000000E+00 0.  1.
        994   -1    0    0    0    0 -0.00000000000E+00 -0.00000000000E+00  0.11368683772E-12  0.17120000000E+03  0.17120000000E+03 0.  0.
         13    1    1    2    0    0 -0.64965762750E+00 -0.23392671867E+02  0.13859270400E+03  0.14055457274E+03  0.10566000000E+00 0.  1.
        994    1    1    2    0    0  0.11095331088E+02  0.16391790351E+02  0.32275765331E+01  0.17237068896E+03  0.17120000000E+03 0.  0.
        998    1    1    2    0    0 -0.10445673461E+02  0.70008815162E+01  0.13581797157E+04  0.13582747383E+04  0.10000000000E+02 0.  1.
</event>
<event>
 5    1  0.1321379E-008  0.3757024E+03  0.7957747E-01  0.3470087E+00
         13   -1    0    0    0    0  0.00000000000E+00  0.00000000000E+00  0.14999999963E+04  0.15000000000E+04  0.10566000000E+00 0.  1.
        994   -1    0    0    0    0 -0.00000000000E+00 -0.00000000000E+00  0.11368683772E-12  0.17120000000E+03  0.17120000000E+03 0.  0.
         13    1    1    2    0    0 -0.87356003674E+02 -0.26013199298E+02  0.45118296040E+03  0.46029754815E+03  0.10566000000E+00 0.  1.
        994    1    1    2    0    0  0.85502867450E+02  0.33767521230E+02  0.35538781992E+02  0.19754349105E+03  0.17120000000E+03 0.  0.
        998    1    1    2    0    0  0.18531362238E+01 -0.77543219314E+01  0.10132782539E+04  0.10133589608E+04  0.10000000000E+02 0.  1.
</event>
<event>
 5    1  0.1321379E-008  0.3741089E+03  0.7957747E-01  0.3477218E+00
         13   -1    0    0    0    0  0.00000000000E+00  0.00000000000E+00  0.14999999963E+04  0.15000000000E+04  0.10566000000E+00 0.  1.
        994   -1    0    0    0    0 -0.00000000000E+00 -0.00000000000E+00  0.11368683772E-12  0.17120000000E+03  0.17120000000E+03 0.  0.
         13    1    1    2    0    0 -0.13206748104E+02 -0.10831961118E+02  0.17096519562E+02  0.24167162066E+02  0.10566000000E+00 0.  1.
        994    1    1    2    0    0  0.14650969996E+02  0.10946479054E+02  0.82782409223E+01  0.17237298396E+03  0.17120000000E+03 0.  0.
        998    1    1    2    0    0 -0.14442218927E+01 -0.11451793566E+00  0.14746252358E+04  0.14746598540E+04  0.10000000000E+02 0.  1.
</event>
<event>
 5    1  0.1321379E-008  0.3838502E+03  0.7957747E-01  0.3434563E+00
         13   -1    0    0    0    0  0.00000000000E+00  0.00000000000E+00  0.14999999963E+04  0.15000000000E+04  0.10566000000E+00 0. -1.
        994   -1    0    0    0    0 -0.00000000000E+00 -0.00000000000E+00  0.11368683772E-12  0.17120000000E+03  0.17120000000E+03 0.  0.
         13    1    1    2    0    0 -0.22880614045E+02  0.33934694669E+01  0.11655963273E+03  0.11883264401E+03  0.10566000000E+00 0. -1.
        994    1    1    2    0    0  0.20314283898E+02  0.45921552466E+01  0.36352099660E+01  0.17250047180E+03  0.17120000000E+03 0.  0.
        998    1    1    2    0    0  0.25663301468E+01 -0.79856247136E+01  0.13798051536E+04  0.13798668842E+04  0.10000000000E+02 0. -1.
</event>
<event>
 5    1  0.1321379E-008  0.3780965E+03  0.7957747E-01  0.3459489E+00
         13   -1    0    0    0    0  0.00000000000E+00  0.00000000000E+00  0.14999999963E+04  0.15000000000E+04  0.10566000000E+00 0. -1.
        994   -1    0    0    0    0 -0.00000000000E+00 -0.00000000000E+00  0.11368683772E-12  0.17120000000E+03  0.17120000000E+03 0.  0.
         13    1    1    2    0    0 -0.43231692753E+02 -0.43387945571E+00  0.15796895573E+03  0.16377841631E+03  0.10566000000E+00 0. -1.
        994    1    1    2    0    0  0.49267640465E+02 -0.32850380253E+01  0.13343295329E+02  0.17867729403E+03  0.17120000000E+03 0.  0.
        998    1    1    2    0    0 -0.60359477128E+01  0.37189174810E+01  0.13286877452E+04  0.13287442897E+04  0.10000000000E+02 0. -1.
</event>
<event>
 5    1  0.1321379E-008  0.3858348E+03  0.7957747E-01  0.3426139E+00
         13   -1    0    0    0    0  0.00000000000E+00  0.00000000000E+00  0.14999999963E+04  0.15000000000E+04  0.10566000000E+00 0. -1.
        994   -1    0    0    0    0 -0.00000000000E+00 -0.00000000000E+00  0.11368683772E-12  0.17120000000E+03  0.17120000000E+03 0.  0.
         13    1    1    2    0    0  0.95504242330E+01 -0.73851101775E+01  0.59112500886E+02  0.60332821751E+02  0.10566000000E+00 0. -1.
        994    1    1    2    0    0 -0.13341579091E+02  0.14192612958E+01  0.18068571275E+01  0.17173443676E+03  0.17120000000E+03 0.  0.
        998    1    1    2    0    0  0.37911548584E+01  0.59658488816E+01  0.14390806383E+04  0.14391327415E+04  0.10000000000E+02 0.  1.
</event>
<event>
 5    1  0.1321379E-008  0.3823341E+03  0.7957747E-01  0.3441058E+00
         13   -1    0    0    0    0  0.00000000000E+00  0.00000000000E+00  0.14999999963E+04  0.15000000000E+04  0.10566000000E+00 0. -1.
        994   -1    0    0    0    0 -0.00000000000E+00 -0.00000000000E+00  0.11368683772E-12  0.17120000000E+03  0.17120000000E+03 0.  0.
         13    1    1    2    0    0 -0.12149562672E+02 -0.16731308929E+02  0.69171428999E+02  0.72195888563E+02  0.10566000000E+00 0. -1.
        994    1    1    2    0    0  0.90497601987E+01  0.17248653858E+02  0.42191527497E+01  0.17235618779E+03  0.17120000000E+03 0.  0.
        998    1    1    2    0    0  0.30998024737E+01 -0.51734492902E+00  0.14266094145E+04  0.14266479236E+04  0.10000000000E+02 0. -1.
</event>
<event>
 5    1  0.1321379E-008  0.3840190E+03  0.7957747E-01  0.3433844E+00
         13   -1    0    0    0    0  0.00000000000E+00  0.00000000000E+00  0.14999999963E+04  0.15000000000E+04  0.10566000000E+00 0. -1.
        994   -1    0    0    0    0 -0.00000000000E+00 -0.00000000000E+00  0.11368683772E-12  0.17120000000E+03  0.17120000000E+03 0.  0.
         13    1    1    2    0    0 -0.16154216519E+02 -0.16282884383E+02  0.13051040617E+03  0.13251063474E+03  0.10566000000E+00 0. -1.
        994    1    1    2    0    0  0.36672496980E+01  0.69417485694E+01  0.23213668916E+01  0.17139563979E+03  0.17120000000E+03 0.  0.
        998    1    1    2    0    0  0.12486966821E+02  0.93411358134E+01  0.13671682232E+04  0.13672937255E+04  0.10000000000E+02 0. -1.
</event>
<event>
 5    1  0.1321379E-008  0.3838225E+03  0.7957747E-01  0.3434682E+00
         13   -1    0    0    0    0  0.00000000000E+00  0.00000000000E+00  0.14999999963E+04  0.15000000000E+04  0.10566000000E+00 0.  1.
        994   -1    0    0    0    0 -0.00000000000E+00 -0.00000000000E+00  0.11368683772E-12  0.17120000000E+03  0.17120000000E+03 0.  0.
         13    1    1    2    0    0  0.20905761174E+02 -0.12793287574E+00  0.10261967148E+03  0.10472762460E+03  0.10566000000E+00 0.  1.
        994    1    1    2    0    0 -0.71115975474E+01 -0.15956842059E+02  0.32240609038E+01  0.17211923250E+03  0.17120000000E+03 0.  0.
        998    1    1    2    0    0 -0.13794163627E+02  0.16084774935E+02  0.13941562639E+04  0.13943531429E+04  0.10000000000E+02 0.  1.
</event>
<event>
 5    1  0.1321379E-008  0.3776604E+03  0.7957747E-01  0.3461409E+00
         13   -1    0    0    0    0  0.00000000000E+00  0.00000000000E+00  0.14999999963E+04  0.15000000000E+04  0.10566000000E+00 0. -1.
        994   -1    0    0    0    0 -0.00000000000E+00 -0.00000000000E+00  0.11368683772E-12  0.17120000000E+03  0.17120000000E+03 0.  0.
         13    1    1    2    0    0  0.88782468413E+01  0.18233252257E+02  0.35550450507E+02  0.40928235365E+02  0.10566000000E+00 0. -1.
        994    1    1    2    0    0 -0.10903508622E+02 -0.19923741110E+02  0.70586442156E+01  0.17284416802E+03  0.17120000000E+03 0.  0.
        998    1    1    2    0    0  0.20252617810E+01  0.16904888535E+01  0.14573909016E+04  0.14574275966E+04  0.10000000000E+02 0. -1.
</event>
<event>
 5    1  0.1321379E-008  0.3741969E+03  0.7957747E-01  0.3476822E+00
         13   -1    0    0    0    0  0.00000000000E+00  0.00000000000E+00  0.14999999963E+04  0.15000000000E+04  0.10566000000E+00 0.  1.
        994   -1    0    0    0    0 -0.00000000000E+00 -0.00000000000E+00  0.11368683772E-12  0.17120000000E+03  0.17120000000E+03 0.  0.
         13    1    1    2    0    0 -0.39186587951E+02 -0.42907785475E+02  0.34711446329E+03  0.35194478050E+03  0.10566000000E+00 0.  1.
        994    1    1    2    0    0 -0.61309761343E+01 -0.10062082970E+02  0.75650435659E+01  0.17177166316E+03  0.17120000000E+03 0.  0.
        998    1    1    2    0    0  0.45317564085E+02  0.52969868445E+02  0.11453204894E+04  0.11474835563E+04  0.10000000000E+02 0.  1.
</event>
<event>
 5    1  0.1321379E-008  0.3815433E+03  0.7957747E-01  0.3444466E+00
         13   -1    0    0    0    0  0.00000000000E+00  0.00000000000E+00  0.14999999963E+04  0.15000000000E+04  0.10566000000E+00 0.  1.
        994   -1    0    0    0    0 -0.00000000000E+00 -0.00000000000E+00  0.11368683772E-12  0.17120000000E+03  0.17120000000E+03 0.  0.
         13    1    1    2    0    0 -0.35904980336E+01  0.23866719450E+02  0.90534432240E+02  0.93696352962E+02  0.10566000000E+00 0.  1.
        994    1    1    2    0    0  0.10413470865E+02 -0.33332581654E+01  0.37538650576E+01  0.17158986709E+03  0.17120000000E+03 0.  0.
        998    1    1    2    0    0 -0.68229728310E+01 -0.20533461285E+02  0.14057116990E+04  0.14059137799E+04  0.10000000000E+02 0.  1.
</event>
<event>
 5    1  0.1321379E-008  0.3849136E+03  0.7957747E-01  0.3430039E+00
         13   -1    0    0    0    0  0.00000000000E+00  0.00000000000E+00  0.14999999963E+04  0.15000000000E+04  0.10566000000E+00 0. -1.
        994   -1    0    0    0    0 -0.00000000000E+00 -0.00000000000E+00  0.11368683772E-12  0.17120000000E+03  0.17120000000E+03 0.  0.
         13    1    1    2    0    0  0.17786988760E+02 -0.92676339007E+01  0.11580323703E+03  0.11752730269E+03  0.10566000000E+00 0. -1.
        994    1    1    2    0    0 -0.15266974673E+02  0.77010192090E+01  0.26354346087E+01  0.17207199577E+03  0.17120000000E+03 0.  0.
        998    1    1    2    0    0 -0.25200140867E+01  0.15666146917E+01  0.13815613246E+04  0.13816007015E+04  0.10000000000E+02 0. -1.
</event>
<event>
 5    1  0.1321379E-008  0.3750341E+03  0.7957747E-01  0.3473070E+00
         13   -1    0    0    0    0  0.00000000000E+00  0.00000000000E+00  0.14999999963E+04  0.15000000000E+04  0.10566000000E+00 0.  1.
        994   -1    0    0    0    0 -0.00000000000E+00 -0.00000000000E+00  0.11368683772E-12  0.17120000000E+03  0.17120000000E+03 0.  0.
         13    1    1    2    0    0 -0.10028057598E+03 -0.32989536774E+02  0.56236868277E+03  0.57219144522E+03  0.10566000000E+00 0.  1.
        994    1    1    2    0    0  0.94171878749E+02  0.25900313573E+02  0.39807388579E+02  0.20108017599E+03  0.17120000000E+03 0.  0.
        998    1    1    2    0    0  0.61086972291E+01  0.70892232005E+01  0.89782392493E+03  0.89792837879E+03  0.10000000000E+02 0.  1.
</event>
<event>
 5    1  0.1321379E-008  0.3819982E+03  0.7957747E-01  0.3442504E+00
         13   -1    0    0    0    0  0.00000000000E+00  0.00000000000E+00  0.14999999963E+04  0.15000000000E+04  0.10566000000E+00 0. -1.
        994   -1    0    0    0    0 -0.00000000000E+00 -0.00000000000E+00  0.11368683772E-12  0.17120000000E+03  0.17120000000E+03 0.  0.
         13    1    1    2    0    0  0.24239578916E+02 -0.14032212881E+02  0.12062396678E+03  0.12383300332E+03  0.10566000000E+00 0. -1.
        994    1    1    2    0    0 -0.19391443111E+02  0.98451659292E+01  0.47000881031E+01  0.17263975842E+03  0.17120000000E+03 0.  0.
        998    1    1    2    0    0 -0.48481358042E+01  0.41870469520E+01  0.13746759414E+04  0.13747272383E+04  0.10000000000E+02 0. -1.
</event>
<event>
 5    1  0.1321379E-008  0.3806998E+03  0.7957747E-01  0.3448117E+00
         13   -1    0    0    0    0  0.00000000000E+00  0.00000000000E+00  0.14999999963E+04  0.15000000000E+04  0.10566000000E+00 0.  1.
        994   -1    0    0    0    0 -0.00000000000E+00 -0.00000000000E+00  0.11368683772E-12  0.17120000000E+03  0.17120000000E+03 0.  0.
         13    1    1    2    0    0  0.24780392767E+01  0.18596079762E+02  0.44350088004E+02  0.48154920114E+02  0.10566000000E+00 0.  1.
        994    1    1    2    0    0 -0.70605495842E+00 -0.17291548771E+02  0.47798057796E+01  0.17213884720E+03  0.17120000000E+03 0.  0.
        998    1    1    2    0    0 -0.17719843183E+01 -0.13045309911E+01  0.14508701025E+04  0.14509062327E+04  0.10000000000E+02 0.  1.
</event>
<event>
 5    1  0.1321379E-008  0.3816349E+03  0.7957747E-01  0.3444071E+00
         13   -1    0    0    0    0  0.00000000000E+00  0.00000000000E+00  0.14999999963E+04  0.15000000000E+04  0.10566000000E+00 0. -1.
        994   -1    0    0    0    0 -0.00000000000E+00 -0.00000000000E+00  0.11368683772E-12  0.17120000000E+03  0.17120000000E+03 0.  0.
         13    1    1    2    0    0 -0.26657028844E+02 -0.14672503216E+02  0.12229131667E+03  0.12602006520E+03  0.10566000000E+00 0. -1.
        994    1    1    2    0    0  0.34050405121E+02  0.18426467916E+02  0.83102057727E+01  0.17571984614E+03  0.17120000000E+03 0.  0.
        998    1    1    2    0    0 -0.73933762772E+01 -0.37539647008E+01  0.13693984738E+04  0.13694600887E+04  0.10000000000E+02 0. -1.
</event>
<event>
 5    1  0.1321379E-008  0.3746730E+03  0.7957747E-01  0.3474687E+00
         13   -1    0    0    0    0  0.00000000000E+00  0.00000000000E+00  0.14999999963E+04  0.15000000000E+04  0.10566000000E+00 0.  1.
        994   -1    0    0    0    0 -0.00000000000E+00 -0.00000000000E+00  0.11368683772E-12  0.17120000000E+03  0.17120000000E+03 0.  0.
         13    1    1    2    0    0  0.35554160680E+02  0.25038582863E+02  0.12911675543E+03  0.13624307935E+03  0.10566000000E+00 0.  1.
        994    1    1    2    0    0 -0.23826710614E+02 -0.29973410293E+02  0.11852222561E+02  0.17582955566E+03  0.17120000000E+03 0.  0.
        998    1    1    2    0    0 -0.11727450066E+02  0.49348274300E+01  0.13590310183E+04  0.13591273650E+04  0.10000000000E+02 0.  1.
</event>
<event>
 5    1  0.1321379E-008  0.3780526E+03  0.7957747E-01  0.3459682E+00
         13   -1    0    0    0    0  0.00000000000E+00  0.00000000000E+00  0.14999999963E+04  0.15000000000E+04  0.10566000000E+00 0.  1.
        994   -1    0    0    0    0 -0.00000000000E+00 -0.00000000000E+00  0.11368683772E-12  0.17120000000E+03  0.17120000000E+03 0.  0.
         13    1    1    2    0    0 -0.36197019045E+01 -0.97746090921E+01 -0.35781299015E+01  0.11020862145E+02  0.10566000000E+00 0.  1.
        994    1    1    2    0    0  0.33340491451E+01  0.11201819764E+02  0.15753372735E+02  0.17232006674E+03  0.17120000000E+03 0.  0.
        998    1    1    2    0    0  0.28565275939E+00 -0.14272106719E+01  0.14878247534E+04  0.14878590711E+04  0.10000000000E+02 0.  1.
</event>
<event>
 5    1  0.1321379E-008  0.3762723E+03  0.7957747E-01  0.3467552E+00
         13   -1    0    0    0    0  0.00000000000E+00  0.00000000000E+00  0.14999999963E+04  0.15000000000E+04  0.10566000000E+00 0. -1.
        994   -1    0    0    0    0 -0.00000000000E+00 -0.00000000000E+00  0.11368683772E-12  0.17120000000E+03  0.17120000000E+03 0.  0.
         13    1    1    2    0    0  0.12886074504E+02 -0.13110683881E+02  0.25300899224E+02  0.31274392297E+02  0.10566000000E+00 0. -1.
        994    1    1    2    0    0 -0.11125495374E+02  0.11487897021E+02  0.68929184817E+01  0.17208341219E+03  0.17120000000E+03 0.  0.
        998    1    1    2    0    0 -0.17605791301E+01  0.16227868596E+01  0.14678061786E+04  0.14678421955E+04  0.10000000000E+02 0. -1.
</event>
<event>
 5    1  0.1321379E-008  0.3808154E+03  0.7957747E-01  0.3447616E+00
         13   -1    0    0    0    0  0.00000000000E+00  0.00000000000E+00  0.14999999963E+04  0.15000000000E+04  0.10566000000E+00 0.  1.
        994   -1    0    0    0    0 -0.00000000000E+00 -0.00000000000E+00  0.11368683772E-12  0.17120000000E+03  0.17120000000E+03 0.  0.
         13    1    1    2    0    0  0.23278512872E+02  0.20594297458E+02  0.11971586434E+03  0.12368473466E+03  0.10566000000E+00 0.  1.
        994    1    1    2    0    0 -0.33239226736E+02 -0.91845558224E+01  0.76969934687E+01  0.17480814045E+03  0.17120000000E+03 0.  0.
        998    1    1    2    0    0  0.99607138632E+01 -0.11409741635E+02  0.13725871385E+04  0.13727071249E+04  0.10000000000E+02 0.  1.
</event>
<event>
 5    1  0.1321379E-008  0.3812618E+03  0.7957747E-01  0.3445683E+00
         13   -1    0    0    0    0  0.00000000000E+00  0.00000000000E+00  0.14999999963E+04  0.15000000000E+04  0.10566000000E+00 0. -1.
        994   -1    0    0    0    0 -0.00000000000E+00 -0.00000000000E+00  0.11368683772E-12  0.17120000000E+03  0.17120000000E+03 0.  0.
         13    1    1    2    0    0 -0.21397412495E+02  0.94731100019E+00  0.62222920945E+02  0.65806152558E+02  0.10566000000E+00 0. -1.
        994    1    1    2    0    0  0.21584197502E+02  0.34957532047E+01  0.50907565157E+01  0.17266572814E+03  0.17120000000E+03 0.  0.
        998    1    1    2    0    0 -0.18678500770E+00 -0.44430642049E+01  0.14326863188E+04  0.14327281193E+04  0.10000000000E+02 0. -1.
</event>
<event>
 5    1  0.1321379E-008  0.3840404E+03  0.7957747E-01  0.3433752E+00
         13   -1    0    0    0    0  0.00000000000E+00  0.00000000000E+00  0.14999999963E+04  0.15000000000E+04  0.10566000000E+00 0. -1.
        994   -1    0    0    0    0 -0.00000000000E+00 -0.00000000000E+00  0.11368683772E-12  0.17120000000E+03  0.17120000000E+03 0.  0.
         13    1    1    2    0    0 -0.58183124520E+01 -0.19248984683E+02  0.11052272312E+03  0.11233725856E+03  0.10566000000E+00 0. -1.
        994    1    1    2    0    0  0.20615188302E+01 -0.75896012826E+01  0.23113977660E+01  0.17139613317E+03  0.17120000000E+03 0.  0.
        998    1    1    2    0    0  0.37567936218E+01  0.26838585966E+02  0.13871658754E+04  0.13874666083E+04  0.10000000000E+02 0. -1.
</event>
<event>
 5    1  0.1321379E-008  0.3790290E+03  0.7957747E-01  0.3455397E+00
         13   -1    0    0    0    0  0.00000000000E+00  0.00000000000E+00  0.14999999963E+04  0.15000000000E+04  0.10566000000E+00 0. -1.
        994   -1    0    0    0    0 -0.00000000000E+00 -0.00000000000E+00  0.11368683772E-12  0.17120000000E+03  0.17120000000E+03 0.  0.
         13    1    1    2    0    0 -0.58106041570E+01  0.10550595461E+03  0.62386481395E+03  0.63275001922E+03  0.10566000000E+00 0. -1.
        994    1    1    2    0    0 -0.47014853157E+00 -0.11197974064E+03  0.47897802861E+02  0.21010312438E+03  0.17120000000E+03 0.  0.
        998    1    1    2    0    0  0.62807526885E+01  0.64737860313E+01  0.82823737947E+03  0.82834685640E+03  0.10000000000E+02 0. -1.
</event>
<event>
 5    1  0.1321379E-008  0.3837896E+03  0.7957747E-01  0.3434822E+00
         13   -1    0    0    0    0  0.00000000000E+00  0.00000000000E+00  0.14999999963E+04  0.15000000000E+04  0.10566000000E+00 0.  1.
        994   -1    0    0    0    0 -0.00000000000E+00 -0.00000000000E+00  0.11368683772E-12  0.17120000000E+03  0.17120000000E+03 0.  0.
         13    1    1    2    0    0 -0.16600256900E+02 -0.61429740843E+01  0.70513425114E+02  0.72701161924E+02  0.10566000000E+00 0.  1.
        994    1    1    2    0    0  0.91160162152E+01  0.22922609295E+01  0.25240264522E+01  0.17147643255E+03  0.17120000000E+03 0.  0.
        998    1    1    2    0    0  0.74842406851E+01  0.38507131547E+01  0.14269625447E+04  0.14270224055E+04  0.10000000000E+02 0.  1.
</event>
<event>
 5    1  0.1321379E-008  0.3750465E+03  0.7957747E-01  0.3473015E+00
         13   -1    0    0    0    0  0.00000000000E+00  0.00000000000E+00  0.14999999963E+04  0.15000000000E+04  0.10566000000E+00 0. -1.
        994   -1    0    0    0    0 -0.00000000000E+00 -0.00000000000E+00  0.11368683772E-12  0.17120000000E+03  0.17120000000E+03 0.  0.
         13    1    1    2    0    0 -0.88098491698E+02 -0.24045279335E+02  0.43569903872E+03  0.44516646684E+03  0.10566000000E+00 0. -1.
        994    1    1    2    0    0  0.88719260171E+02  0.23530861755E+02  0.35849785327E+02  0.19753342929E+03  0.17120000000E+03 0.  0.
        998    1    1    2    0    0 -0.62076847273E+00  0.51441758044E+00  0.10284511722E+04  0.10285001039E+04  0.10000000000E+02 0.  0.
</event>
<event>
 5    1  0.1321379E-008  0.3837471E+03  0.7957747E-01  0.3435003E+00
         13   -1    0    0    0    0  0.00000000000E+00  0.00000000000E+00  0.14999999963E+04  0.15000000000E+04  0.10566000000E+00 0.  1.
        994   -1    0    0    0    0 -0.00000000000E+00 -0.00000000000E+00  0.11368683772E-12  0.17120000000E+03  0.17120000000E+03 0.  0.
         13    1    1    2    0    0 -0.10933737118E+02  0.41547612491E+01  0.30722863534E+02  0.32874217195E+02  0.10566000000E+00 0.  1.
        994    1    1    2    0    0  0.34599065550E+01  0.11283583849E+02  0.27135154852E+01  0.17162777568E+03  0.17120000000E+03 0.  0.
        998    1    1    2    0    0  0.74738305628E+01 -0.15438345098E+02  0.14665636173E+04  0.14666980071E+04  0.10000000000E+02 0.  1.
</event>
<event>
 5    1  0.1321379E-008  0.3830667E+03  0.7957747E-01  0.3437913E+00
         13   -1    0    0    0    0  0.00000000000E+00  0.00000000000E+00  0.14999999963E+04  0.15000000000E+04  0.10566000000E+00 0. -1.
        994   -1    0    0    0    0 -0.00000000000E+00 -0.00000000000E+00  0.11368683772E-12  0.17120000000E+03  0.17120000000E+03 0.  0.
         13    1    1    2    0    0 -0.91281571716E+01  0.17377481820E+02  0.70146979571E+02  0.72841677868E+02  0.10566000000E+00 0. -1.
        994    1    1    2    0    0  0.47575196565E+01 -0.21883471479E+02  0.42545055551E+01  0.17271091782E+03  0.17120000000E+03 0.  0.
        998    1    1    2    0    0  0.43706375150E+01  0.45059896592E+01  0.14255985112E+04  0.14256474043E+04  0.10000000000E+02 0. -1.
</event>
<event>
 5    1  0.1321379E-008  0.3778918E+03  0.7957747E-01  0.3460390E+00
         13   -1    0    0    0    0  0.00000000000E+00  0.00000000000E+00  0.14999999963E+04  0.15000000000E+04  0.10566000000E+00 0.  1.
        994   -1    0    0    0    0 -0.00000000000E+00 -0.00000000000E+00  0.11368683772E-12  0.17120000000E+03  0.17120000000E+03 0.  0.
         13    1    1    2    0    0  0.32943550355E+00  0.20688362551E+02  0.41822212649E+02  0.46660749112E+02  0.10566000000E+00 0.  1.
        994    1    1    2    0    0  0.38686183458E+02  0.65563368403E+01  0.10401592023E+02  0.17594669494E+03  0.17120000000E+03 0.  0.
        998    1    1    2    0    0 -0.39015618961E+02 -0.27244699392E+02  0.14477761916E+04  0.14485925559E+04  0.10000000000E+02 0.  1.
</event>
<event>
 5    1  0.1321379E-008  0.3827098E+03  0.7957747E-01  0.3439443E+00
         13   -1    0    0    0    0  0.00000000000E+00  0.00000000000E+00  0.14999999963E+04  0.15000000000E+04  0.10566000000E+00 0. -1.
        994   -1    0    0    0    0 -0.00000000000E+00 -0.00000000000E+00  0.11368683772E-12  0.17120000000E+03  0.17120000000E+03 0.  0.
         13    1    1    2    0    0 -0.16652439763E+02  0.74319661176E+01  0.62541510475E+02  0.65145909825E+02  0.10566000000E+00 0. -1.
        994    1    1    2    0    0  0.70646328903E+01  0.14192188451E+02  0.36045932824E+01  0.17197023098E+03  0.17120000000E+03 0.  0.
        998    1    1    2    0    0  0.95878068730E+01 -0.21624154569E+02  0.14338538925E+04  0.14340838592E+04  0.10000000000E+02 0. -1.
</event>
<event>
 5    1  0.1321379E-008  0.3827980E+03  0.7957747E-01  0.3439065E+00
         13   -1    0    0    0    0  0.00000000000E+00  0.00000000000E+00  0.14999999963E+04  0.15000000000E+04  0.10566000000E+00 0.  1.
        994   -1    0    0    0    0 -0.00000000000E+00 -0.00000000000E+00  0.11368683772E-12  0.17120000000E+03  0.17120000000E+03 0.  0.
         13    1    1    2    0    0 -0.82459541739E+01 -0.97170998543E+01  0.28938205075E+02  0.31620383723E+02  0.10566000000E+00 0.  1.
        994    1    1    2    0    0  0.20631664794E+01  0.82190532176E+01  0.29652574786E+01  0.17143524213E+03  0.17120000000E+03 0.  0.
        998    1    1    2    0    0  0.61827876945E+01  0.14980466367E+01  0.14680965337E+04  0.14681443741E+04  0.10000000000E+02 0.  1.
</event>
<event>
 5    1  0.1321379E-008  0.3806356E+03  0.7957747E-01  0.3448396E+00
         13   -1    0    0    0    0  0.00000000000E+00  0.00000000000E+00  0.14999999963E+04  0.15000000000E+04  0.10566000000E+00 0.  1.
        994   -1    0    0    0    0 -0.00000000000E+00 -0.00000000000E+00  0.11368683772E-12  0.17120000000E+03  0.17120000000E+03 0.  0.
         13    1    1    2    0    0 -0.12575717664E+03  0.36897108657E+02  0.34131281664E+03  0.36561005739E+03  0.10566000000E+00 0.  1.
        994    1    1    2    0    0  0.14282878031E+03 -0.37266853783E+02  0.10077935861E+03  0.24749706665E+03  0.17120000000E+03 0.  0.
        998    1    1    2    0    0 -0.17071603671E+02  0.36974512589E+00  0.10579078210E+04  0.10580928760E+04  0.10000000000E+02 0.  1.
</event>
<event>
 5    1  0.1321379E-008  0.3749867E+03  0.7957747E-01  0.3473282E+00
         13   -1    0    0    0    0  0.00000000000E+00  0.00000000000E+00  0.14999999963E+04  0.15000000000E+04  0.10566000000E+00 0. -1.
        994   -1    0    0    0    0 -0.00000000000E+00 -0.00000000000E+00  0.11368683772E-12  0.17120000000E+03  0.17120000000E+03 0.  0.
         13    1    1    2    0    0 -0.43359526416E+02 -0.87735124780E+02  0.57525922070E+03  0.58352436351E+03  0.10566000000E+00 0. -1.
        994    1    1    2    0    0  0.58392817388E+01  0.84807315793E+02  0.31661651826E+02  0.19374797604E+03  0.17120000000E+03 0.  0.
        998    1    1    2    0    0  0.37520244678E+02  0.29278089866E+01  0.89307912375E+03  0.89392766045E+03  0.10000000000E+02 0. -1.
</event>
<event>
 5    1  0.1321379E-008  0.3844790E+03  0.7957747E-01  0.3431885E+00
         13   -1    0    0    0    0  0.00000000000E+00  0.00000000000E+00  0.14999999963E+04  0.15000000000E+04  0.10566000000E+00 0. -1.
        994   -1    0    0    0    0 -0.00000000000E+00 -0.00000000000E+00  0.11368683772E-12  0.17120000000E+03  0.17120000000E+03 0.  0.
         13    1    1    2    0    0 -0.11561695465E+02 -0.15572589764E+02  0.11411709720E+03  0.11575362366E+03  0.10566000000E+00 0. -1.
        994    1    1    2    0    0 -0.39861662566E+01 -0.32128356595E+01  0.19753934895E+01  0.17128792723E+03  0.17120000000E+03 0.  0.
        998    1    1    2    0    0  0.15547861721E+02  0.18785425424E+02  0.13839075056E+04  0.13841584491E+04  0.10000000000E+02 0. -1.
</event>
<event>
 5    1  0.1321379E-008  0.4130419E+03  0.7957747E-01  0.3318806E+00
         13   -1    0    0    0    0  0.00000000000E+00  0.00000000000E+00  0.14999999963E+04  0.15000000000E+04  0.10566000000E+00 0.  1.
        994   -1    0    0    0    0 -0.00000000000E+00 -0.00000000000E+00  0.11368683772E-12  0.17120000000E+03  0.17120000000E+03 0.  0.
         13    1    1    2    0    0  0.30476216914E+02  0.12109850715E+02  0.25064298398E+00  0.32795156162E+02  0.10566000000E+00 0.  1.
        994    1    1    2    0    0 -0.32762064756E+02 -0.67157812073E+01  0.40456506795E+02  0.17906597540E+03  0.17120000000E+03 0.  0.
        998    1    1    2    0    0  0.22858478422E+01 -0.53940695080E+01  0.14592928465E+04  0.14593388684E+04  0.10000000000E+02 0.  1.
</event>
<event>
 5    1  0.1321379E-008  0.3807773E+03  0.7957747E-01  0.3447781E+00
         13   -1    0    0    0    0  0.00000000000E+00  0.00000000000E+00  0.14999999963E+04  0.15000000000E+04  0.10566000000E+00 0.  1.
        994   -1    0    0    0    0 -0.00000000000E+00 -0.00000000000E+00  0.11368683772E-12  0.17120000000E+03  0.17120000000E+03 0.  0.
         13    1    1    2    0    0  0.17152040458E+02  0.13346458727E+02  0.62075835333E+02  0.65770365278E+02  0.10566000000E+00 0.  1.
        994    1    1    2    0    0 -0.10775214323E+02 -0.70865125197E+01  0.42960641398E+01  0.17173881352E+03  0.17120000000E+03 0.  0.
        998    1    1    2    0    0 -0.63768261350E+01 -0.62599462073E+01  0.14336280968E+04  0.14336908212E+04  0.10000000000E+02 0.  1.
</event>
<event>
 5    1  0.1321379E-008  0.3826198E+03  0.7957747E-01  0.3439830E+00
         13   -1    0    0    0    0  0.00000000000E+00  0.00000000000E+00  0.14999999963E+04  0.15000000000E+04  0.10566000000E+00 0. -1.
        994   -1    0    0    0    0 -0.00000000000E+00 -0.00000000000E+00  0.11368683772E-12  0.17120000000E+03  0.17120000000E+03 0.  0.
         13    1    1    2    0    0 -0.81378769775E+01 -0.72179721744E+01  0.19953729062E+02  0.22726342238E+02  0.10566000000E+00 0. -1.
        994    1    1    2    0    0  0.26435036543E+01  0.78848620867E+01  0.30457545603E+01  0.17142892341E+03  0.17120000000E+03 0.  0.
        998    1    1    2    0    0  0.54943733231E+01 -0.66688991231E+00  0.14770005127E+04  0.14770447343E+04  0.10000000000E+02 0. -1.
</event>
<event>
 5    1  0.1321379E-008  0.3854630E+03  0.7957747E-01  0.3427711E+00
         13   -1    0    0    0    0  0.00000000000E+00  0.00000000000E+00  0.14999999963E+04  0.15000000000E+04  0.10566000000E+00 0. -1.
        994   -1    0    0    0    0 -0.00000000000E+00 -0.00000000000E+00  0.11368683772E-12  0.17120000000E+03  0.17120000000E+03 0.  0.
         13    1    1    2    0    0  0.93081067936E+01 -0.10193141096E+02  0.72305639907E+02  0.73611532411E+02  0.10566000000E+00 0. -1.
        994    1    1    2    0    0  0.53774371971E+01  0.68874110571E+01  0.16511959331E+01  0.17143080152E+03  0.17120000000E+03 0.  0.
        998    1    1    2    0    0 -0.14685543991E+02  0.33057300384E+01  0.14260431604E+04  0.14261576661E+04  0.10000000000E+02 0. -1.
</event>
<event>
 5    1  0.1321379E-008  0.3802431E+03  0.7957747E-01  0.3450101E+00
         13   -1    0    0    0    0  0.00000000000E+00  0.00000000000E+00  0.14999999963E+04  0.15000000000E+04  0.10566000000E+00 0.  1.
        994   -1    0    0    0    0 -0.00000000000E+00 -0.00000000000E+00  0.11368683772E-12  0.17120000000E+03  0.17120000000E+03 0.  0.
         13    1    1    2    0    0  0.36158334647E+02  0.56868213337E+01  0.18428084493E+03  0.18788082945E+03  0.10566000000E+00 0.  1.
        994    1    1    2    0    0 -0.54646609590E+01 -0.89973885708E+01  0.43807117221E+01  0.17157927076E+03  0.17120000000E+03 0.  0.
        998    1    1    2    0    0 -0.30693673688E+02  0.33105672371E+01  0.13113384396E+04  0.13117398998E+04  0.10000000000E+02 0.  1.
</event>
<event>
 5    1  0.1321379E-008  0.3818846E+03  0.7957747E-01  0.3442993E+00
         13   -1    0    0    0    0  0.00000000000E+00  0.00000000000E+00  0.14999999963E+04  0.15000000000E+04  0.10566000000E+00 0.  1.
        994   -1    0    0    0    0 -0.00000000000E+00 -0.00000000000E+00  0.11368683772E-12  0.17120000000E+03  0.17120000000E+03 0.  0.
         13    1    1    2    0    0  0.21901237723E+03  0.35764711640E+02  0.10065821421E+04  0.10307536834E+04  0.10566000000E+00 0.  1.
        994    1    1    2    0    0 -0.23171989201E+03 -0.31063118561E+02  0.21327586862E+03  0.35979864066E+03  0.17120000000E+03 0.  0.
        998    1    1    2    0    0  0.12707514780E+02 -0.47015930791E+01  0.28014198559E+03  0.28064767593E+03  0.10000000000E+02 0.  1.
</event>
<event>
 5    1  0.1321379E-008  0.4202667E+03  0.7957747E-01  0.3292617E+00
         13   -1    0    0    0    0  0.00000000000E+00  0.00000000000E+00  0.14999999963E+04  0.15000000000E+04  0.10566000000E+00 0. -1.
        994   -1    0    0    0    0 -0.00000000000E+00 -0.00000000000E+00  0.11368683772E-12  0.17120000000E+03  0.17120000000E+03 0.  0.
         13    1    1    2    0    0 -0.48862693441E+02 -0.17347508885E+02  0.22817201789E+02  0.56649225382E+02  0.10566000000E+00 0. -1.
        994    1    1    2    0    0 -0.47993091531E+02  0.31200397651E+02  0.54629613574E+02  0.18860179301E+03  0.17120000000E+03 0.  0.
        998    1    1    2    0    0  0.96855784972E+02 -0.13852888766E+02  0.14225531809E+04  0.14259489816E+04  0.10000000000E+02 0. -1.
</event>
<event>
 5    1  0.1321379E-008  0.3855648E+03  0.7957747E-01  0.3427280E+00
         13   -1    0    0    0    0  0.00000000000E+00  0.00000000000E+00  0.14999999963E+04  0.15000000000E+04  0.10566000000E+00 0.  1.
        994   -1    0    0    0    0 -0.00000000000E+00 -0.00000000000E+00  0.11368683772E-12  0.17120000000E+03  0.17120000000E+03 0.  0.
         13    1    1    2    0    0 -0.77818539095E+01  0.93350479777E+01  0.54939884317E+02  0.56268129734E+02  0.10566000000E+00 0.  1.
        994    1    1    2    0    0  0.24609330803E+02  0.87198476359E+01  0.35907948107E+01  0.17321659480E+03  0.17120000000E+03 0.  0.
        998    1    1    2    0    0 -0.16827476894E+02 -0.18054895614E+02  0.14414693172E+04  0.14417152755E+04  0.10000000000E+02 0.  1.
</event>
<event>
 5    1  0.1333354E-008  0.3862408E+03  0.7957747E-01  0.3424427E+00
         13   -1    0    0    0    0  0.00000000000E+00  0.00000000000E+00  0.14999999963E+04  0.15000000000E+04  0.10566000000E+00 0. -1.
        994   -1    0    0    0    0 -0.00000000000E+00 -0.00000000000E+00  0.11368683772E-12  0.17120000000E+03  0.17120000000E+03 0.  0.
         13    1    1    2    0    0 -0.50497302473E+01 -0.10384805751E+02  0.68112257447E+02  0.69084258298E+02  0.10566000000E+00 0. -1.
        994    1    1    2    0    0  0.14993525714E+02 -0.11770672806E+01  0.17565725713E+01  0.17186831252E+03  0.17120000000E+03 0.  0.
        998    1    1    2    0    0 -0.99437954669E+01  0.11561873032E+02  0.14301311663E+04  0.14302474292E+04  0.10000000000E+02 0. -1.
</event>
<event>
 5    1  0.1321379E-008  0.3902627E+03  0.7957747E-01  0.3407655E+00
         13   -1    0    0    0    0  0.00000000000E+00  0.00000000000E+00  0.14999999963E+04  0.15000000000E+04  0.10566000000E+00 0. -1.
        994   -1    0    0    0    0 -0.00000000000E+00 -0.00000000000E+00  0.11368683772E-12  0.17120000000E+03  0.17120000000E+03 0.  0.
         13    1    1    2    0    0 -0.77326884955E+01  0.12056584693E+02 -0.53551399420E+01  0.15291971543E+02  0.10566000000E+00 0. -1.
        994    1    1    2    0    0  0.97819881495E+01 -0.35213917490E+01  0.22490471148E+02  0.17298366624E+03  0.17120000000E+03 0.  0.
        998    1    1    2    0    0 -0.20492996540E+01 -0.85351929443E+01  0.14828646651E+04  0.14829243622E+04  0.10000000000E+02 0. -1.
</event>
<event>
 5    1  0.1321379E-008  0.3713588E+03  0.7957747E-01  0.3489669E+00
         13   -1    0    0    0    0  0.00000000000E+00  0.00000000000E+00  0.14999999963E+04  0.15000000000E+04  0.10566000000E+00 0.  1.
        994   -1    0    0    0    0 -0.00000000000E+00 -0.00000000000E+00  0.11368683772E-12  0.17120000000E+03  0.17120000000E+03 0.  0.
         13    1    1    2    0    0  0.11555346946E+03  0.52997150773E+01  0.65736002913E+03  0.66746004401E+03  0.10566000000E+00 0.  1.
        994    1    1    2    0    0 -0.82819589384E+02 -0.79980111097E+01  0.32777241242E+02  0.19314978672E+03  0.17120000000E+03 0.  0.
        998    1    1    2    0    0 -0.32733880074E+02  0.26982960324E+01  0.80986272590E+03  0.81059016927E+03  0.10000000000E+02 0.  1.
</event>
<event>
 5    1  0.1321379E-008  0.3901842E+03  0.7957747E-01  0.3407978E+00
         13   -1    0    0    0    0  0.00000000000E+00  0.00000000000E+00  0.14999999963E+04  0.15000000000E+04  0.10566000000E+00 0.  1.
        994   -1    0    0    0    0 -0.00000000000E+00 -0.00000000000E+00  0.11368683772E-12  0.17120000000E+03  0.17120000000E+03 0.  0.
         13    1    1    2    0    0 -0.14318348459E+03 -0.54718229189E+02  0.44056729376E+03  0.46647094911E+03  0.10566000000E+00 0.  1.
        994    1    1    2    0    0  0.12572611598E+03  0.11562997277E+02  0.84905922363E+02  0.22903976685E+03  0.17120000000E+03 0.  0.
        998    1    1    2    0    0  0.17457368601E+02  0.43155231912E+02  0.97452678015E+03  0.97568928404E+03  0.10000000000E+02 0. -1.
</event>
<event>
 5    1  0.1321379E-008  0.3752972E+03  0.7957747E-01  0.3471895E+00
         13   -1    0    0    0    0  0.00000000000E+00  0.00000000000E+00  0.14999999963E+04  0.15000000000E+04  0.10566000000E+00 0. -1.
        994   -1    0    0    0    0 -0.00000000000E+00 -0.00000000000E+00  0.11368683772E-12  0.17120000000E+03  0.17120000000E+03 0.  0.
         13    1    1    2    0    0 -0.23180230971E+02  0.33519349645E+02  0.13187372971E+03  0.13802739461E+03  0.10566000000E+00 0. -1.
        994    1    1    2    0    0  0.58401260408E+01 -0.12295348144E+02  0.71556023754E+01  0.17188928211E+03  0.17120000000E+03 0.  0.
        998    1    1    2    0    0  0.17340104930E+02 -0.21224001501E+02  0.13609706642E+04  0.13612833233E+04  0.10000000000E+02 0. -1.
</event>
<event>
 5    1  0.1321379E-008  0.3809700E+03  0.7957747E-01  0.3446946E+00
         13   -1    0    0    0    0  0.00000000000E+00  0.00000000000E+00  0.14999999963E+04  0.15000000000E+04  0.10566000000E+00 0. -1.
        994   -1    0    0    0    0 -0.00000000000E+00 -0.00000000000E+00  0.11368683772E-12  0.17120000000E+03  0.17120000000E+03 0.  0.
         13    1    1    2    0    0 -0.10085283761E+02  0.56797305081E+01  0.16834463154E+02  0.20429943732E+02  0.10566000000E+00 0. -1.
        994    1    1    2    0    0  0.55387704921E+01 -0.80572591617E+01  0.39629330154E+01  0.17152475694E+03  0.17120000000E+03 0.  0.
        998    1    1    2    0    0  0.45465132692E+01  0.23775286536E+01  0.14792026001E+04  0.14792452993E+04  0.10000000000E+02 0. -1.
</event>
<event>
 5    1  0.1321379E-008  0.3824505E+03  0.7957747E-01  0.3440557E+00
         13   -1    0    0    0    0  0.00000000000E+00  0.00000000000E+00  0.14999999963E+04  0.15000000000E+04  0.10566000000E+00 0.  1.
        994   -1    0    0    0    0 -0.00000000000E+00 -0.00000000000E+00  0.11368683772E-12  0.17120000000E+03  0.17120000000E+03 0.  0.
         13    1    1    2    0    0  0.96543746440E+01  0.56284717842E+01  0.20091839409E+02  0.22990863822E+02  0.10566000000E+00 0.  1.
        994    1    1    2    0    0 -0.12024210058E+02 -0.51710954660E+01  0.34695360227E+01  0.17173467773E+03  0.17120000000E+03 0.  0.
        998    1    1    2    0    0  0.23698354144E+01 -0.45737631818E+00  0.14764386208E+04  0.14764744584E+04  0.10000000000E+02 0.  1.
</event>
<event>
 5    1  0.1321379E-008  0.3849483E+03  0.7957747E-01  0.3429892E+00
         13   -1    0    0    0    0  0.00000000000E+00  0.00000000000E+00  0.14999999963E+04  0.15000000000E+04  0.10566000000E+00 0.  1.
        994   -1    0    0    0    0 -0.00000000000E+00 -0.00000000000E+00  0.11368683772E-12  0.17120000000E+03  0.17120000000E+03 0.  0.
         13    1    1    2    0    0 -0.36557424422E+01  0.93631057151E+01  0.30312446315E+02  0.31935681722E+02  0.10566000000E+00 0.  1.
        994    1    1    2    0    0  0.11036328440E+01 -0.64767360129E+01  0.17978052699E+01  0.17133545523E+03  0.17120000000E+03 0.  0.
        998    1    1    2    0    0  0.25521095982E+01 -0.28863697022E+01  0.14678897447E+04  0.14679288630E+04  0.10000000000E+02 0.  1.
</event>
<event>
 5    1  0.1321379E-008  0.3742488E+03  0.7957747E-01  0.3476589E+00
         13   -1    0    0    0    0  0.00000000000E+00  0.00000000000E+00  0.14999999963E+04  0.15000000000E+04  0.10566000000E+00 0.  1.
        994   -1    0    0    0    0 -0.00000000000E+00 -0.00000000000E+00  0.11368683772E-12  0.17120000000E+03  0.17120000000E+03 0.  0.
         13    1    1    2    0    0 -0.54954499881E+02  0.33667919394E+00  0.17918953034E+03  0.18742734421E+03  0.10566000000E+00 0.  1.
        994    1    1    2    0    0  0.62607107606E+02  0.30953958396E+01  0.20575435731E+02  0.18347212310E+03  0.17120000000E+03 0.  0.
        998    1    1    2    0    0 -0.76526077245E+01 -0.34320750335E+01  0.13002350302E+04  0.13003005327E+04  0.10000000000E+02 0.  1.
</event>
<event>
 5    1  0.1321379E-008  0.3730530E+03  0.7957747E-01  0.3481977E+00
         13   -1    0    0    0    0  0.00000000000E+00  0.00000000000E+00  0.14999999963E+04  0.15000000000E+04  0.10566000000E+00 0.  1.
        994   -1    0    0    0    0 -0.00000000000E+00 -0.00000000000E+00  0.11368683772E-12  0.17120000000E+03  0.17120000000E+03 0.  0.
         13    1    1    2    0    0  0.81085529446E+01 -0.35623618277E+02  0.53581713990E+02  0.64852155308E+02  0.10566000000E+00 0.  1.
        994    1    1    2    0    0 -0.71442699712E+02 -0.32476748761E+02  0.34658260820E+02  0.19149264632E+03  0.17120000000E+03 0.  0.
        998    1    1    2    0    0  0.63334146767E+02  0.68100367037E+02  0.14117600215E+04  0.14148551984E+04  0.10000000000E+02 0.  1.
</event>
<event>
 5    1  0.1321379E-008  0.3833248E+03  0.7957747E-01  0.3436808E+00
         13   -1    0    0    0    0  0.00000000000E+00  0.00000000000E+00  0.14999999963E+04  0.15000000000E+04  0.10566000000E+00 0. -1.
        994   -1    0    0    0    0 -0.00000000000E+00 -0.00000000000E+00  0.11368683772E-12  0.17120000000E+03  0.17120000000E+03 0.  0.
         13    1    1    2    0    0  0.10827246135E+02  0.93132004887E+01  0.43588881671E+02  0.45869017120E+02  0.10566000000E+00 0. -1.
        994    1    1    2    0    0  0.11287266168E+02 -0.35989866260E+01  0.29283925864E+01  0.17163440962E+03  0.17120000000E+03 0.  0.
        998    1    1    2    0    0 -0.22114512303E+02 -0.57142138627E+01  0.14534827220E+04  0.14536965733E+04  0.10000000000E+02 0. -1.
</event>
<event>
 5    1  0.1321379E-008  0.3759258E+03  0.7957747E-01  0.3469092E+00
         13   -1    0    0    0    0  0.00000000000E+00  0.00000000000E+00  0.14999999963E+04  0.15000000000E+04  0.10566000000E+00 0. -1.
        994   -1    0    0    0    0 -0.00000000000E+00 -0.00000000000E+00  0.11368683772E-12  0.17120000000E+03  0.17120000000E+03 0.  0.
         13    1    1    2    0    0  0.59516313223E+02 -0.47444048149E+01  0.13250108781E+03  0.14533151878E+03  0.10566000000E+00 0. -1.
        994    1    1    2    0    0 -0.15295787633E+02 -0.40292544212E+01  0.15000862142E+02  0.17258233361E+03  0.17120000000E+03 0.  0.
        998    1    1    2    0    0 -0.44220525590E+02  0.87736592360E+01  0.13524980463E+04  0.13532861476E+04  0.10000000000E+02 0. -1.
</event>
<event>
 5    1  0.1321379E-008  0.3856069E+03  0.7957747E-01  0.3427102E+00
         13   -1    0    0    0    0  0.00000000000E+00  0.00000000000E+00  0.14999999963E+04  0.15000000000E+04  0.10566000000E+00 0.  1.
        994   -1    0    0    0    0 -0.00000000000E+00 -0.00000000000E+00  0.11368683772E-12  0.17120000000E+03  0.17120000000E+03 0.  0.
         13    1    1    2    0    0 -0.11248841315E+02 -0.17672885552E+01  0.48278774330E+02  0.49603537723E+02  0.10566000000E+00 0.  1.
        994    1    1    2    0    0  0.10838591676E+02 -0.24784110223E+01  0.17349411779E+01  0.17156942505E+03  0.17120000000E+03 0.  0.
        998    1    1    2    0    0  0.41024963903E+00  0.42456995776E+01  0.14499862808E+04  0.14500270372E+04  0.10000000000E+02 0.  1.
</event>
<event>
 5    1  0.1321379E-008  0.3847063E+03  0.7957747E-01  0.3430919E+00
         13   -1    0    0    0    0  0.00000000000E+00  0.00000000000E+00  0.14999999963E+04  0.15000000000E+04  0.10566000000E+00 0.  1.
        994   -1    0    0    0    0 -0.00000000000E+00 -0.00000000000E+00  0.11368683772E-12  0.17120000000E+03  0.17120000000E+03 0.  0.
         13    1    1    2    0    0  0.13578336412E+02 -0.33964814316E+01  0.54264490007E+02  0.56040640124E+02  0.10566000000E+00 0.  1.
        994    1    1    2    0    0 -0.11547237962E+02  0.18872851427E+01  0.22268100188E+01  0.17161380840E+03  0.17120000000E+03 0.  0.
        998    1    1    2    0    0 -0.20310984501E+01  0.15091962889E+01  0.14435086963E+04  0.14435455515E+04  0.10000000000E+02 0.  1.
</event>
<event>
 5    1  0.1321379E-008  0.3841684E+03  0.7957747E-01  0.3433207E+00
         13   -1    0    0    0    0  0.00000000000E+00  0.00000000000E+00  0.14999999963E+04  0.15000000000E+04  0.10566000000E+00 0.  1.
        994   -1    0    0    0    0 -0.00000000000E+00 -0.00000000000E+00  0.11368683772E-12  0.17120000000E+03  0.17120000000E+03 0.  0.
         13    1    1    2    0    0 -0.11337648728E+02 -0.13353655237E+02  0.74081097028E+02  0.76124125530E+02  0.10566000000E+00 0.  1.
        994    1    1    2    0    0  0.86490540642E+01  0.93630581815E+01  0.25795212012E+01  0.17169323494E+03  0.17120000000E+03 0.  0.
        998    1    1    2    0    0  0.26885946642E+01  0.39905970558E+01  0.14233393780E+04  0.14233826395E+04  0.10000000000E+02 0.  1.
</event>
<event>
 5    1  0.1321379E-008  0.3812060E+03  0.7957747E-01  0.3445924E+00
         13   -1    0    0    0    0  0.00000000000E+00  0.00000000000E+00  0.14999999963E+04  0.15000000000E+04  0.10566000000E+00 0.  1.
        994   -1    0    0    0    0 -0.00000000000E+00 -0.00000000000E+00  0.11368683772E-12  0.17120000000E+03  0.17120000000E+03 0.  0.
         13    1    1    2    0    0  0.11655118634E+00 -0.24853079454E+02  0.83874875396E+02  0.87479683523E+02  0.10566000000E+00 0.  1.
        994    1    1    2    0    0 -0.12702573397E+02  0.21386742286E+02  0.55885564879E+01  0.17308789698E+03  0.17120000000E+03 0.  0.
        998    1    1    2    0    0  0.12586022211E+02  0.34663371679E+01  0.14105365644E+04  0.14106324195E+04  0.10000000000E+02 0.  1.
</event>
<event>
 5    1  0.1321379E-008  0.3768026E+03  0.7957747E-01  0.3465200E+00
         13   -1    0    0    0    0  0.00000000000E+00  0.00000000000E+00  0.14999999963E+04  0.15000000000E+04  0.10566000000E+00 0.  1.
        994   -1    0    0    0    0 -0.00000000000E+00 -0.00000000000E+00  0.11368683772E-12  0.17120000000E+03  0.17120000000E+03 0.  0.
         13    1    1    2    0    0  0.21017020607E+02  0.42077147071E+02  0.23793237645E+03  0.24253665370E+03  0.10566000000E+00 0.  1.
        994    1    1    2    0    0  0.24147580193E+01  0.28074668433E+01  0.58023027771E+01  0.17133831925E+03  0.17120000000E+03 0.  0.
        998    1    1    2    0    0 -0.23431778627E+02 -0.44884613915E+02  0.12562653171E+04  0.12573250271E+04  0.10000000000E+02 0.  1.
</event>
<event>
 5    1  0.1321379E-008  0.3756205E+03  0.7957747E-01  0.3470452E+00
         13   -1    0    0    0    0  0.00000000000E+00  0.00000000000E+00  0.14999999963E+04  0.15000000000E+04  0.10566000000E+00 0. -1.
        994   -1    0    0    0    0 -0.00000000000E+00 -0.00000000000E+00  0.11368683772E-12  0.17120000000E+03  0.17120000000E+03 0.  0.
         13    1    1    2    0    0  0.39180637776E+01 -0.11711192135E+02  0.94475496270E+01  0.15548974339E+02  0.10566000000E+00 0. -1.
        994    1    1    2    0    0  0.14825393534E+02 -0.24137708518E+01  0.71261218389E+01  0.17200534932E+03  0.17120000000E+03 0.  0.
        998    1    1    2    0    0 -0.18743457311E+02  0.14124962987E+02  0.14834263248E+04  0.14836456763E+04  0.10000000000E+02 0. -1.
</event>
<event>
 5    1  0.1321379E-008  0.3723551E+03  0.7957747E-01  0.3485137E+00
         13   -1    0    0    0    0  0.00000000000E+00  0.00000000000E+00  0.14999999963E+04  0.15000000000E+04  0.10566000000E+00 0.  1.
        994   -1    0    0    0    0 -0.00000000000E+00 -0.00000000000E+00  0.11368683772E-12  0.17120000000E+03  0.17120000000E+03 0.  0.
         13    1    1    2    0    0 -0.12741923935E+03 -0.29792352642E+02  0.75407300314E+03  0.76534263704E+03  0.10566000000E+00 0.  1.
        994    1    1    2    0    0  0.10731997468E+03  0.62539694536E+01  0.48785046194E+02  0.20795699034E+03  0.17120000000E+03 0.  0.
        998    1    1    2    0    0  0.20099264673E+02  0.23538383188E+02  0.69714194694E+03  0.69790037262E+03  0.10000000000E+02 0.  1.
</event>
<event>
 5    1  0.1321379E-008  0.3842328E+03  0.7957747E-01  0.3432933E+00
         13   -1    0    0    0    0  0.00000000000E+00  0.00000000000E+00  0.14999999963E+04  0.15000000000E+04  0.10566000000E+00 0. -1.
        994   -1    0    0    0    0 -0.00000000000E+00 -0.00000000000E+00  0.11368683772E-12  0.17120000000E+03  0.17120000000E+03 0.  0.
         13    1    1    2    0    0  0.11000417472E+02 -0.95436651106E+01  0.63600899480E+02  0.65247040599E+02  0.10566000000E+00 0. -1.
        994    1    1    2    0    0  0.51094686016E+01 -0.29361025740E+02  0.49452185311E+01  0.17384496452E+03  0.17120000000E+03 0.  0.
        998    1    1    2    0    0 -0.16109886074E+02  0.38904690850E+02  0.14314538783E+04  0.14321079949E+04  0.10000000000E+02 0. -1.
</event>
<event>
 5    1  0.1321379E-008  0.3813211E+03  0.7957747E-01  0.3445426E+00
         13   -1    0    0    0    0  0.00000000000E+00  0.00000000000E+00  0.14999999963E+04  0.15000000000E+04  0.10566000000E+00 0. -1.
        994   -1    0    0    0    0 -0.00000000000E+00 -0.00000000000E+00  0.11368683772E-12  0.17120000000E+03  0.17120000000E+03 0.  0.
         13    1    1    2    0    0 -0.37871259164E+02  0.12571589995E+02  0.23602359725E+03  0.23937298672E+03  0.10566000000E+00 0. -1.
        994    1    1    2    0    0  0.20424653021E+02  0.22889212107E+00  0.48576377071E+01  0.17248262372E+03  0.17120000000E+03 0.  0.
        998    1    1    2    0    0  0.17446606143E+02 -0.12800482116E+02  0.12591187613E+04  0.12593443896E+04  0.10000000000E+02 0. -1.
</event>
<event>
 5    1  0.1321379E-008  0.3786325E+03  0.7957747E-01  0.3457135E+00
         13   -1    0    0    0    0  0.00000000000E+00  0.00000000000E+00  0.14999999963E+04  0.15000000000E+04  0.10566000000E+00 0. -1.
        994   -1    0    0    0    0 -0.00000000000E+00 -0.00000000000E+00  0.11368683772E-12  0.17120000000E+03  0.17120000000E+03 0.  0.
         13    1    1    2    0    0 -0.27863333479E+02  0.67629973084E-01  0.73711568340E+02  0.78802134473E+02  0.10566000000E+00 0. -1.
        994    1    1    2    0    0  0.33166978584E+02 -0.13679721027E+02  0.91597066578E+01  0.17515856662E+03  0.17120000000E+03 0.  0.
        998    1    1    2    0    0 -0.53036451054E+01  0.13612091054E+02  0.14171287213E+04  0.14172392989E+04  0.10000000000E+02 0. -1.
</event>
<event>
 5    1  0.1321379E-008  0.3820294E+03  0.7957747E-01  0.3442370E+00
         13   -1    0    0    0    0  0.00000000000E+00  0.00000000000E+00  0.14999999963E+04  0.15000000000E+04  0.10566000000E+00 0.  1.
        994   -1    0    0    0    0 -0.00000000000E+00 -0.00000000000E+00  0.11368683772E-12  0.17120000000E+03  0.17120000000E+03 0.  0.
         13    1    1    2    0    0 -0.24491489720E+00  0.11634956645E+02  0.20277061597E+02  0.23379533581E+02  0.10566000000E+00 0.  1.
        994    1    1    2    0    0 -0.64678183621E+01 -0.12563086754E+02  0.37755267641E+01  0.17182362592E+03  0.17120000000E+03 0.  0.
        998    1    1    2    0    0  0.67127332593E+01  0.92813010916E+00  0.14759474079E+04  0.14759968405E+04  0.10000000000E+02 0.  1.
</event>
<event>
 5    1  0.1321379E-008  0.3832113E+03  0.7957747E-01  0.3437294E+00
         13   -1    0    0    0    0  0.00000000000E+00  0.00000000000E+00  0.14999999963E+04  0.15000000000E+04  0.10566000000E+00 0. -1.
        994   -1    0    0    0    0 -0.00000000000E+00 -0.00000000000E+00  0.11368683772E-12  0.17120000000E+03  0.17120000000E+03 0.  0.
         13    1    1    2    0    0  0.23661736409E+02  0.11737433152E+02  0.15279206200E+03  0.15505828092E+03  0.10566000000E+00 0. -1.
        994    1    1    2    0    0 -0.58897263167E+01  0.47186832505E+01  0.27092194053E+01  0.17138767376E+03  0.17120000000E+03 0.  0.
        998    1    1    2    0    0 -0.17772010092E+02 -0.16456116403E+02  0.13444987149E+04  0.13447540453E+04  0.10000000000E+02 0. -1.
</event>
<event>
 5    1  0.1321379E-008  0.3818791E+03  0.7957747E-01  0.3443017E+00
         13   -1    0    0    0    0  0.00000000000E+00  0.00000000000E+00  0.14999999963E+04  0.15000000000E+04  0.10566000000E+00 0.  1.
        994   -1    0    0    0    0 -0.00000000000E+00 -0.00000000000E+00  0.11368683772E-12  0.17120000000E+03  0.17120000000E+03 0.  0.
         13    1    1    2    0    0  0.27543562549E+02 -0.70943629750E+02  0.42238166477E+03  0.42918286119E+03  0.10566000000E+00 0.  1.
        994    1    1    2    0    0 -0.32091233548E+02  0.10614452801E+03  0.45178199343E+02  0.20891868704E+03  0.17120000000E+03 0.  0.
        998    1    1    2    0    0  0.45476709982E+01 -0.35200898264E+02  0.10324401322E+04  0.10330984518E+04  0.10000000000E+02 0.  1.
</event>
<event>
 5    1  0.1321379E-008  0.3818868E+03  0.7957747E-01  0.3442984E+00
         13   -1    0    0    0    0  0.00000000000E+00  0.00000000000E+00  0.14999999963E+04  0.15000000000E+04  0.10566000000E+00 0. -1.
        994   -1    0    0    0    0 -0.00000000000E+00 -0.00000000000E+00  0.11368683772E-12  0.17120000000E+03  0.17120000000E+03 0.  0.
         13    1    1    2    0    0  0.14488576253E+02  0.17989651660E+02  0.91558722899E+02  0.94427524121E+02  0.10566000000E+00 0. -1.
        994    1    1    2    0    0  0.41917106564E+01  0.12807609206E+01  0.32475352077E+01  0.17128688587E+03  0.17120000000E+03 0.  0.
        998    1    1    2    0    0 -0.18680286910E+02 -0.19270412580E+02  0.14051937382E+04  0.14054855900E+04  0.10000000000E+02 0. -1.
</event>
<event>
 5    1  0.1321379E-008  0.3857090E+03  0.7957747E-01  0.3426671E+00
         13   -1    0    0    0    0  0.00000000000E+00  0.00000000000E+00  0.14999999963E+04  0.15000000000E+04  0.10566000000E+00 0. -1.
        994   -1    0    0    0    0 -0.00000000000E+00 -0.00000000000E+00  0.11368683772E-12  0.17120000000E+03  0.17120000000E+03 0.  0.
         13    1    1    2    0    0 -0.99173371967E+01 -0.29605974173E+01  0.42892470426E+02  0.44123620629E+02  0.10566000000E+00 0. -1.
        994    1    1    2    0    0  0.28945459736E+01  0.44373185852E+01  0.13706202543E+01  0.17128743910E+03  0.17120000000E+03 0.  0.
        998    1    1    2    0    0  0.70227912231E+01 -0.14767211679E+01  0.14557369056E+04  0.14557889403E+04  0.10000000000E+02 0. -1.
</event>
<event>
 5    1  0.1321379E-008  0.3708683E+03  0.7957747E-01  0.3491910E+00
         13   -1    0    0    0    0  0.00000000000E+00  0.00000000000E+00  0.14999999963E+04  0.15000000000E+04  0.10566000000E+00 0.  1.
        994   -1    0    0    0    0 -0.00000000000E+00 -0.00000000000E+00  0.11368683772E-12  0.17120000000E+03  0.17120000000E+03 0.  0.
         13    1    1    2    0    0 -0.50793556931E+02  0.23540554791E+02  0.16019881295E+03  0.16969918674E+03  0.10566000000E+00 0.  1.
        994    1    1    2    0    0  0.52268093086E+02 -0.10728819854E+02  0.18695417431E+02  0.18029425882E+03  0.17120000000E+03 0.  0.
        998    1    1    2    0    0 -0.14745361549E+01 -0.12811734937E+02  0.13211057659E+04  0.13212065544E+04  0.10000000000E+02 0.  1.
</event>
<event>
 5    1  0.1321379E-008  0.2467098E+03  0.7957747E-01  0.4369479E+00
         13   -1    0    0    0    0  0.00000000000E+00  0.00000000000E+00  0.14999999963E+04  0.15000000000E+04  0.10566000000E+00 0. -1.
        994   -1    0    0    0    0 -0.00000000000E+00 -0.00000000000E+00  0.11368683772E-12  0.17120000000E+03  0.17120000000E+03 0.  0.
         13    1    1    2    0    0 -0.12270982878E+03 -0.11572369379E+03  0.46522547333E+03  0.49485798729E+03  0.10566000000E+00 0. -1.
        994    1    1    2    0    0  0.33248026828E+01  0.64359616040E+02  0.59450512709E+02  0.19234608899E+03  0.17120000000E+03 0.  0.
        998    1    1    2    0    0  0.11938502610E+03  0.51364077754E+02  0.97532401023E+03  0.98399592371E+03  0.10000000000E+02 0. -1.
</event>
<event>
 5    1  0.1321379E-008  0.3795603E+03  0.7957747E-01  0.3453075E+00
         13   -1    0    0    0    0  0.00000000000E+00  0.00000000000E+00  0.14999999963E+04  0.15000000000E+04  0.10566000000E+00 0.  1.
        994   -1    0    0    0    0 -0.00000000000E+00 -0.00000000000E+00  0.11368683772E-12  0.17120000000E+03  0.17120000000E+03 0.  0.
         13    1    1    2    0    0  0.47567384236E+02  0.20204489127E+02  0.28299719751E+03  0.28767742767E+03  0.10566000000E+00 0.  1.
        994    1    1    2    0    0 -0.48647189852E+02  0.12693696728E+02  0.12864267056E+02  0.17889272871E+03  0.17120000000E+03 0.  0.
        998    1    1    2    0    0  0.10798056161E+01 -0.32898185855E+02  0.12041385317E+04  0.12046298436E+04  0.10000000000E+02 0.  1.
</event>
<event>
 5    1  0.1321379E-008  0.3857442E+03  0.7957747E-01  0.3426522E+00
         13   -1    0    0    0    0  0.00000000000E+00  0.00000000000E+00  0.14999999963E+04  0.15000000000E+04  0.10566000000E+00 0.  1.
        994   -1    0    0    0    0 -0.00000000000E+00 -0.00000000000E+00  0.11368683772E-12  0.17120000000E+03  0.17120000000E+03 0.  0.
         13    1    1    2    0    0  0.72878065093E+01  0.98077555973E+01  0.58185581054E+02  0.59454833279E+02  0.10566000000E+00 0.  1.
        994    1    1    2    0    0 -0.54441837439E+01 -0.10776181309E+02  0.17394772611E+01  0.17163400305E+03  0.17120000000E+03 0.  0.
        998    1    1    2    0    0 -0.18436227654E+01  0.96842571210E+00  0.14400749380E+04  0.14401111637E+04  0.10000000000E+02 0.  1.
</event>
<event>
 5    1  0.1321379E-008  0.3846936E+03  0.7957747E-01  0.3430973E+00
         13   -1    0    0    0    0  0.00000000000E+00  0.00000000000E+00  0.14999999963E+04  0.15000000000E+04  0.10566000000E+00 0. -1.
        994   -1    0    0    0    0 -0.00000000000E+00 -0.00000000000E+00  0.11368683772E-12  0.17120000000E+03  0.17120000000E+03 0.  0.
         13    1    1    2    0    0 -0.13502144751E+02  0.40266072547E+01  0.57440967268E+02  0.59143870042E+02  0.10566000000E+00 0. -1.
        994    1    1    2    0    0  0.77410254418E+01  0.13163836360E+02  0.25504209854E+01  0.17189867571E+03  0.17120000000E+03 0.  0.
        998    1    1    2    0    0  0.57611193091E+01 -0.17190443615E+02  0.14400086080E+04  0.14401574543E+04  0.10000000000E+02 0. -1.
</event>
<event>
 5    1  0.1321379E-008  0.3829701E+03  0.7957747E-01  0.3438327E+00
         13   -1    0    0    0    0  0.00000000000E+00  0.00000000000E+00  0.14999999963E+04  0.15000000000E+04  0.10566000000E+00 0.  1.
        994   -1    0    0    0    0 -0.00000000000E+00 -0.00000000000E+00  0.11368683772E-12  0.17120000000E+03  0.17120000000E+03 0.  0.
         13    1    1    2    0    0  0.24307627747E+02 -0.67164380393E+01  0.11806236007E+03  0.12072573601E+03  0.10566000000E+00 0.  1.
        994    1    1    2    0    0 -0.17324742370E+02  0.22633105998E+01  0.36525361203E+01  0.17212800555E+03  0.17120000000E+03 0.  0.
        998    1    1    2    0    0 -0.69828853774E+01  0.44531274395E+01  0.13782851001E+04  0.13783462584E+04  0.10000000000E+02 0.  1.
</event>
<event>
 5    1  0.1321379E-008  0.3843651E+03  0.7957747E-01  0.3432369E+00
         13   -1    0    0    0    0  0.00000000000E+00  0.00000000000E+00  0.14999999963E+04  0.15000000000E+04  0.10566000000E+00 0. -1.
        994   -1    0    0    0    0 -0.00000000000E+00 -0.00000000000E+00  0.11368683772E-12  0.17120000000E+03  0.17120000000E+03 0.  0.
         13    1    1    2    0    0  0.68023118732E+02  0.68387270985E+01  0.10903973401E+03  0.12869960228E+03  0.10566000000E+00 0. -1.
        994    1    1    2    0    0 -0.71940648882E+02 -0.34787702369E+01  0.38109825476E+02  0.18960315821E+03  0.17120000000E+03 0.  0.
        998    1    1    2    0    0  0.39175301499E+01 -0.33599568616E+01  0.13528504368E+04  0.13528972395E+04  0.10000000000E+02 0. -1.
</event>
<event>
 5    1  0.1321379E-008  0.3803642E+03  0.7957747E-01  0.3449574E+00
         13   -1    0    0    0    0  0.00000000000E+00  0.00000000000E+00  0.14999999963E+04  0.15000000000E+04  0.10566000000E+00 0. -1.
        994   -1    0    0    0    0 -0.00000000000E+00 -0.00000000000E+00  0.11368683772E-12  0.17120000000E+03  0.17120000000E+03 0.  0.
         13    1    1    2    0    0 -0.95143065861E+01  0.30659968834E+02  0.11789167342E+03  0.12218434247E+03  0.10566000000E+00 0. -1.
        994    1    1    2    0    0  0.79181557160E+01 -0.34583362485E+02  0.81635536326E+01  0.17502796850E+03  0.17120000000E+03 0.  0.
        998    1    1    2    0    0  0.15961508701E+01  0.39233936515E+01  0.13739447692E+04  0.13739876890E+04  0.10000000000E+02 0. -1.
</event>
<event>
 5    1  0.1321379E-008  0.3737944E+03  0.7957747E-01  0.3478632E+00
         13   -1    0    0    0    0  0.00000000000E+00  0.00000000000E+00  0.14999999963E+04  0.15000000000E+04  0.10566000000E+00 0.  1.
        994   -1    0    0    0    0 -0.00000000000E+00 -0.00000000000E+00  0.11368683772E-12  0.17120000000E+03  0.17120000000E+03 0.  0.
         13    1    1    2    0    0  0.60349403447E+01  0.19164277109E+02  0.24214925867E+02  0.31465279608E+02  0.10566000000E+00 0.  1.
        994    1    1    2    0    0 -0.46512720011E+01 -0.19564389193E+02  0.86805962151E+01  0.17259545882E+03  0.17120000000E+03 0.  0.
        998    1    1    2    0    0 -0.13836683435E+01  0.40011208491E+00  0.14671044742E+04  0.14671392616E+04  0.10000000000E+02 0.  1.
</event>
<event>
 5    1  0.1321379E-008  0.3821412E+03  0.7957747E-01  0.3441888E+00
         13   -1    0    0    0    0  0.00000000000E+00  0.00000000000E+00  0.14999999963E+04  0.15000000000E+04  0.10566000000E+00 0. -1.
        994   -1    0    0    0    0 -0.00000000000E+00 -0.00000000000E+00  0.11368683772E-12  0.17120000000E+03  0.17120000000E+03 0.  0.
         13    1    1    2    0    0  0.48717888249E+01 -0.10686719276E+02  0.21681693852E+02  0.24658615281E+02  0.10566000000E+00 0. -1.
        994    1    1    2    0    0 -0.22194194152E+01  0.29411255386E+01  0.31012539461E+01  0.17126772556E+03  0.17120000000E+03 0.  0.
        998    1    1    2    0    0 -0.26523694096E+01  0.77455937371E+01  0.14752170485E+04  0.14752736592E+04  0.10000000000E+02 0. -1.
</event>
<event>
 5    1  0.1321379E-008  0.3884223E+03  0.7957747E-01  0.3415286E+00
         13   -1    0    0    0    0  0.00000000000E+00  0.00000000000E+00  0.14999999963E+04  0.15000000000E+04  0.10566000000E+00 0. -1.
        994   -1    0    0    0    0 -0.00000000000E+00 -0.00000000000E+00  0.11368683772E-12  0.17120000000E+03  0.17120000000E+03 0.  0.
         13    1    1    2    0    0  0.36123509000E+02 -0.79138770745E+02  0.24641918377E+03  0.26132408659E+03  0.10566000000E+00 0. -1.
        994    1    1    2    0    0  0.93648763971E+02  0.20940348438E+02  0.56355661667E+02  0.20419106197E+03  0.17120000000E+03 0.  0.
        998    1    1    2    0    0 -0.12977227297E+03  0.58198422307E+02  0.11972251508E+04  0.12056848514E+04  0.10000000000E+02 0. -1.
</event>
<event>
 5    1  0.1321379E-008  0.3695750E+03  0.7957747E-01  0.3497846E+00
         13   -1    0    0    0    0  0.00000000000E+00  0.00000000000E+00  0.14999999963E+04  0.15000000000E+04  0.10566000000E+00 0. -1.
        994   -1    0    0    0    0 -0.00000000000E+00 -0.00000000000E+00  0.11368683772E-12  0.17120000000E+03  0.17120000000E+03 0.  0.
         13    1    1    2    0    0 -0.33327518105E+02 -0.41692920132E+02  0.13453485962E+03  0.14473652845E+03  0.10566000000E+00 0. -1.
        994    1    1    2    0    0  0.37294472015E+02  0.38298196806E+02  0.19452574369E+02  0.18040363680E+03  0.17120000000E+03 0.  0.
        998    1    1    2    0    0 -0.39669539096E+01  0.33947233258E+01  0.13460125623E+04  0.13460598347E+04  0.10000000000E+02 0. -1.
</event>
<event>
 5    1  0.1321379E-008  0.3744189E+03  0.7957747E-01  0.3475826E+00
         13   -1    0    0    0    0  0.00000000000E+00  0.00000000000E+00  0.14999999963E+04  0.15000000000E+04  0.10566000000E+00 0.  1.
        994   -1    0    0    0    0 -0.00000000000E+00 -0.00000000000E+00  0.11368683772E-12  0.17120000000E+03  0.17120000000E+03 0.  0.
         13    1    1    2    0    0  0.64643416182E+02 -0.56900826248E+02  0.31573217681E+03  0.32726639596E+03  0.10566000000E+00 0.  1.
        994    1    1    2    0    0 -0.20758136986E+02  0.17859406171E+02  0.15961988594E+02  0.17410940158E+03  0.17120000000E+03 0.  0.
        998    1    1    2    0    0 -0.43885279196E+02  0.39041420078E+02  0.11683058309E+04  0.11698242025E+04  0.10000000000E+02 0.  1.
</event>
<event>
 5    1  0.1321379E-008  0.3099198E+03  0.7957747E-01  0.3827651E+00
         13   -1    0    0    0    0  0.00000000000E+00  0.00000000000E+00  0.14999999963E+04  0.15000000000E+04  0.10566000000E+00 0. -1.
        994   -1    0    0    0    0 -0.00000000000E+00 -0.00000000000E+00  0.11368683772E-12  0.17120000000E+03  0.17120000000E+03 0.  0.
         13    1    1    2    0    0  0.73283115634E+02 -0.18083580122E+03  0.69715466460E+03  0.72394519100E+03  0.10566000000E+00 0. -1.
        994    1    1    2    0    0 -0.75080817549E+02  0.17977025080E+03  0.16086005463E+03  0.30518825241E+03  0.17120000000E+03 0.  0.
        998    1    1    2    0    0  0.17977019151E+01  0.10655504161E+01  0.64198527706E+03  0.64206655659E+03  0.10000000000E+02 0.  0.
</event>
<event>
 5    1  0.1321379E-008  0.3880724E+03  0.7957747E-01  0.3416745E+00
         13   -1    0    0    0    0  0.00000000000E+00  0.00000000000E+00  0.14999999963E+04  0.15000000000E+04  0.10566000000E+00 0. -1.
        994   -1    0    0    0    0 -0.00000000000E+00 -0.00000000000E+00  0.11368683772E-12  0.17120000000E+03  0.17120000000E+03 0.  0.
         13    1    1    2    0    0 -0.14421185541E+02  0.61888832085E+02  0.86758602214E+02  0.10754191904E+03  0.10566000000E+00 0. -1.
        994    1    1    2    0    0  0.14981277763E+02 -0.55246297907E+02  0.33174723139E+02  0.18353908132E+03  0.17120000000E+03 0.  0.
        998    1    1    2    0    0 -0.56009222279E+00 -0.66425341782E+01  0.13800666709E+04  0.13801189996E+04  0.10000000000E+02 0. -1.
</event>
<event>
 5    1  0.1321379E-008  0.3845638E+03  0.7957747E-01  0.3431524E+00
         13   -1    0    0    0    0  0.00000000000E+00  0.00000000000E+00  0.14999999963E+04  0.15000000000E+04  0.10566000000E+00 0.  1.
        994   -1    0    0    0    0 -0.00000000000E+00 -0.00000000000E+00  0.11368683772E-12  0.17120000000E+03  0.17120000000E+03 0.  0.
         13    1    1    2    0    0  0.97670064422E+01 -0.15097434654E+02  0.90467037060E+02  0.92236776323E+02  0.10566000000E+00 0.  1.
        994    1    1    2    0    0  0.14041761393E+01  0.88001608439E+01  0.21084242201E+01  0.17144474327E+03  0.17120000000E+03 0.  0.
        998    1    1    2    0    0 -0.11171182582E+02  0.62972738103E+01  0.14074245350E+04  0.14075184804E+04  0.10000000000E+02 0.  1.
</event>
<event>
 5    1  0.1321379E-008  0.3854306E+03  0.7957747E-01  0.3427848E+00
         13   -1    0    0    0    0  0.00000000000E+00  0.00000000000E+00  0.14999999963E+04  0.15000000000E+04  0.10566000000E+00 0.  1.
        994   -1    0    0    0    0 -0.00000000000E+00 -0.00000000000E+00  0.11368683772E-12  0.17120000000E+03  0.17120000000E+03 0.  0.
         13    1    1    2    0    0  0.11801336624E+02  0.14900898809E+01  0.56033859575E+02  0.57282602043E+02  0.10566000000E+00 0.  1.
        994    1    1    2    0    0  0.97328141237E+01 -0.24078550474E+01  0.17466864919E+01  0.17150223424E+03  0.17120000000E+03 0.  0.
        998    1    1    2    0    0 -0.21534150747E+02  0.91776516652E+00  0.14422194502E+04  0.14424151637E+04  0.10000000000E+02 0.  1.
</event>
<event>
 5    1  0.1321379E-008  0.3845730E+03  0.7957747E-01  0.3431485E+00
         13   -1    0    0    0    0  0.00000000000E+00  0.00000000000E+00  0.14999999963E+04  0.15000000000E+04  0.10566000000E+00 0.  1.
        994   -1    0    0    0    0 -0.00000000000E+00 -0.00000000000E+00  0.11368683772E-12  0.17120000000E+03  0.17120000000E+03 0.  0.
         13    1    1    2    0    0  0.13902818138E+02 -0.66605878806E+01  0.62115578520E+02  0.64000062828E+02  0.10566000000E+00 0.  1.
        994    1    1    2    0    0 -0.13828510115E+02  0.83206451326E+01  0.27004933880E+01  0.17198021250E+03  0.17120000000E+03 0.  0.
        998    1    1    2    0    0 -0.74308023365E-01 -0.16600572520E+01  0.14351839244E+04  0.14352197247E+04  0.10000000000E+02 0.  1.
</event>
<event>
 5    1  0.1321379E-008  0.3792916E+03  0.7957747E-01  0.3454249E+00
         13   -1    0    0    0    0  0.00000000000E+00  0.00000000000E+00  0.14999999963E+04  0.15000000000E+04  0.10566000000E+00 0. -1.
        994   -1    0    0    0    0 -0.00000000000E+00 -0.00000000000E+00  0.11368683772E-12  0.17120000000E+03  0.17120000000E+03 0.  0.
         13    1    1    2    0    0 -0.16602298161E+02  0.20145120820E+02  0.81746876976E+02  0.85813898970E+02  0.10566000000E+00 0. -1.
        994    1    1    2    0    0 -0.80072838618E+01 -0.41000187700E+00  0.47065840948E+01  0.17145225758E+03  0.17120000000E+03 0.  0.
        998    1    1    2    0    0  0.24609582023E+02 -0.19735118943E+02  0.14135465352E+04  0.14139338434E+04  0.10000000000E+02 0. -1.
</event>
<event>
 5    1  0.1321379E-008  0.3854885E+03  0.7957747E-01  0.3427603E+00
         13   -1    0    0    0    0  0.00000000000E+00  0.00000000000E+00  0.14999999963E+04  0.15000000000E+04  0.10566000000E+00 0.  1.
        994   -1    0    0    0    0 -0.00000000000E+00 -0.00000000000E+00  0.11368683772E-12  0.17120000000E+03  0.17120000000E+03 0.  0.
         13    1    1    2    0    0  0.10091438864E+02  0.95742061206E+01  0.74167432742E+02  0.75460730216E+02  0.10566000000E+00 0.  1.
        994    1    1    2    0    0  0.28712850655E+01 -0.52048977586E+01  0.15038511722E+01  0.17130976857E+03  0.17120000000E+03 0.  0.
        998    1    1    2    0    0 -0.12962723929E+02 -0.43693083620E+01  0.14243287124E+04  0.14244295012E+04  0.10000000000E+02 0.  1.
</event>
<event>
 5    1  0.1321379E-008  0.3830863E+03  0.7957747E-01  0.3437829E+00
         13   -1    0    0    0    0  0.00000000000E+00  0.00000000000E+00  0.14999999963E+04  0.15000000000E+04  0.10566000000E+00 0. -1.
        994   -1    0    0    0    0 -0.00000000000E+00 -0.00000000000E+00  0.11368683772E-12  0.17120000000E+03  0.17120000000E+03 0.  0.
         13    1    1    2    0    0 -0.11242987563E+02 -0.47204938872E+01  0.27415623056E+02  0.30005255930E+02  0.10566000000E+00 0. -1.
        994    1    1    2    0    0  0.12809598994E+02  0.39492087861E+01  0.31780697346E+01  0.17175337611E+03  0.17120000000E+03 0.  0.
        998    1    1    2    0    0 -0.15666114309E+01  0.77128510108E+00  0.14694063035E+04  0.14694413680E+04  0.10000000000E+02 0. -1.
</event>
<event>
 5    1  0.1321379E-008  0.3821862E+03  0.7957747E-01  0.3441694E+00
         13   -1    0    0    0    0  0.00000000000E+00  0.00000000000E+00  0.14999999963E+04  0.15000000000E+04  0.10566000000E+00 0. -1.
        994   -1    0    0    0    0 -0.00000000000E+00 -0.00000000000E+00  0.11368683772E-12  0.17120000000E+03  0.17120000000E+03 0.  0.
         13    1    1    2    0    0 -0.99845523549E+01  0.26458532546E+01  0.16545473641E+02  0.19505273318E+02  0.10566000000E+00 0. -1.
        994    1    1    2    0    0  0.70041679474E+00 -0.10032538632E+02  0.33693601385E+01  0.17152823384E+03  0.17120000000E+03 0.  0.
        998    1    1    2    0    0  0.92841355601E+01  0.73866853774E+01  0.14800851625E+04  0.14801664928E+04  0.10000000000E+02 0. -1.
</event>
<event>
 5    1  0.1321379E-008  0.4270340E+03  0.7957747E-01  0.3268876E+00
         13   -1    0    0    0    0  0.00000000000E+00  0.00000000000E+00  0.14999999963E+04  0.15000000000E+04  0.10566000000E+00 0. -1.
        994   -1    0    0    0    0 -0.00000000000E+00 -0.00000000000E+00  0.11368683772E-12  0.17120000000E+03  0.17120000000E+03 0.  0.
         13    1    1    2    0    0  0.52745709088E+02  0.95743919221E+02  0.11225408696E+03  0.15668439328E+03  0.10566000000E+00 0. -1.
        994    1    1    2    0    0 -0.52835671789E+02 -0.91405887728E+02  0.96261358018E+02  0.22298505235E+03  0.17120000000E+03 0.  0.
        998    1    1    2    0    0  0.89962701310E-01 -0.43380314927E+01  0.12914845513E+04  0.12915305544E+04  0.10000000000E+02 0. -1.
</event>
<event>
 5    1  0.1321379E-008  0.3755046E+03  0.7957747E-01  0.3470969E+00
         13   -1    0    0    0    0  0.00000000000E+00  0.00000000000E+00  0.14999999963E+04  0.15000000000E+04  0.10566000000E+00 0.  1.
        994   -1    0    0    0    0 -0.00000000000E+00 -0.00000000000E+00  0.11368683772E-12  0.17120000000E+03  0.17120000000E+03 0.  0.
         13    1    1    2    0    0  0.36327258135E+02  0.20856156406E+01  0.92671145910E+02  0.99558886718E+02  0.10566000000E+00 0.  1.
        994    1    1    2    0    0 -0.41837739585E+02 -0.19157312290E+02  0.13639126617E+02  0.17780006986E+03  0.17120000000E+03 0.  0.
        998    1    1    2    0    0  0.55104814495E+01  0.17071696650E+02  0.13936897238E+04  0.13938410434E+04  0.10000000000E+02 0.  1.
</event>
<event>
 5    1  0.1321379E-008  0.4146240E+03  0.7957747E-01  0.3312994E+00
         13   -1    0    0    0    0  0.00000000000E+00  0.00000000000E+00  0.14999999963E+04  0.15000000000E+04  0.10566000000E+00 0. -1.
        994   -1    0    0    0    0 -0.00000000000E+00 -0.00000000000E+00  0.11368683772E-12  0.17120000000E+03  0.17120000000E+03 0.  0.
         13    1    1    2    0    0  0.56600992521E+02  0.10386062344E+03  0.18655795870E+03  0.22089496276E+03  0.10566000000E+00 0. -1.
        994    1    1    2    0    0 -0.19507448425E+02 -0.71990961002E+02  0.60397242749E+02  0.19626641573E+03  0.17120000000E+03 0.  0.
        998    1    1    2    0    0 -0.37093544096E+02 -0.31869662434E+02  0.12530447948E+04  0.12540386215E+04  0.10000000000E+02 0. -1.
</event>
<event>
 5    1  0.1321379E-008  0.3812836E+03  0.7957747E-01  0.3445588E+00
         13   -1    0    0    0    0  0.00000000000E+00  0.00000000000E+00  0.14999999963E+04  0.15000000000E+04  0.10566000000E+00 0. -1.
        994   -1    0    0    0    0 -0.00000000000E+00 -0.00000000000E+00  0.11368683772E-12  0.17120000000E+03  0.17120000000E+03 0.  0.
         13    1    1    2    0    0  0.22400700247E+02  0.16088580401E+01  0.74247579572E+02  0.77569929947E+02  0.10566000000E+00 0. -1.
        994    1    1    2    0    0 -0.48649921085E+01 -0.69458164652E+01  0.37260238404E+01  0.17145038865E+03  0.17120000000E+03 0.  0.
        998    1    1    2    0    0 -0.17535708139E+02  0.53369584252E+01  0.14220263929E+04  0.14221796814E+04  0.10000000000E+02 0. -1.
</event>
<event>
 5    1  0.1321379E-008  0.3787167E+03  0.7957747E-01  0.3456765E+00
         13   -1    0    0    0    0  0.00000000000E+00  0.00000000000E+00  0.14999999963E+04  0.15000000000E+04  0.10566000000E+00 0. -1.
        994   -1    0    0    0    0 -0.00000000000E+00 -0.00000000000E+00  0.11368683772E-12  0.17120000000E+03  0.17120000000E+03 0.  0.
         13    1    1    2    0    0 -0.70531979881E+01 -0.12520635510E+02  0.20335897311E+02  0.24901281069E+02  0.10566000000E+00 0. -1.
        994    1    1    2    0    0  0.61994139994E+01 -0.90097407385E+01  0.51839947560E+01  0.17162727628E+03  0.17120000000E+03 0.  0.
        998    1    1    2    0    0  0.85378398868E+00  0.21530376248E+02  0.14744801042E+04  0.14746714426E+04  0.10000000000E+02 0. -1.
</event>
<event>
 5    1  0.1321379E-008  0.3725234E+03  0.7957747E-01  0.3484373E+00
         13   -1    0    0    0    0  0.00000000000E+00  0.00000000000E+00  0.14999999963E+04  0.15000000000E+04  0.10566000000E+00 0.  1.
        994   -1    0    0    0    0 -0.00000000000E+00 -0.00000000000E+00  0.11368683772E-12  0.17120000000E+03  0.17120000000E+03 0.  0.
         13    1    1    2    0    0 -0.26319478415E+02  0.88863809618E+01  0.46742103997E+02  0.54373873880E+02  0.10566000000E+00 0.  1.
        994    1    1    2    0    0  0.29487570088E+01 -0.17375827590E+02  0.90214710268E+01  0.17234106154E+03  0.17120000000E+03 0.  0.
        998    1    1    2    0    0  0.23370721406E+02  0.84894466278E+01  0.14442364213E+04  0.14444850646E+04  0.10000000000E+02 0.  1.
</event>
<event>
 5    1  0.1321379E-008  0.3805842E+03  0.7957747E-01  0.3448619E+00
         13   -1    0    0    0    0  0.00000000000E+00  0.00000000000E+00  0.14999999963E+04  0.15000000000E+04  0.10566000000E+00 0. -1.
        994   -1    0    0    0    0 -0.00000000000E+00 -0.00000000000E+00  0.11368683772E-12  0.17120000000E+03  0.17120000000E+03 0.  0.
         13    1    1    2    0    0  0.85788919270E+01  0.85820358799E+01  0.17710648145E+02  0.21469209308E+02  0.10566000000E+00 0. -1.
        994    1    1    2    0    0 -0.26091888069E+01 -0.54054830520E+01  0.39587680168E+01  0.17135092342E+03  0.17120000000E+03 0.  0.
        998    1    1    2    0    0 -0.59697031200E+01 -0.31765528279E+01  0.14783305801E+04  0.14783798673E+04  0.10000000000E+02 0. -1.
</event>
<event>
 5    1  0.1321379E-008  0.3849286E+03  0.7957747E-01  0.3429975E+00
         13   -1    0    0    0    0  0.00000000000E+00  0.00000000000E+00  0.14999999963E+04  0.15000000000E+04  0.10566000000E+00 0.  1.
        994   -1    0    0    0    0 -0.00000000000E+00 -0.00000000000E+00  0.11368683772E-12  0.17120000000E+03  0.17120000000E+03 0.  0.
         13    1    1    2    0    0  0.78823057228E+01  0.92833511604E+01  0.47082549171E+02  0.48632180218E+02  0.10566000000E+00 0.  1.
        994    1    1    2    0    0  0.51676317308E+01 -0.93601698304E+00  0.17562988463E+01  0.17128953597E+03  0.17120000000E+03 0.  0.
        998    1    1    2    0    0 -0.13049937454E+02 -0.83473341773E+01  0.14511611483E+04  0.14512782838E+04  0.10000000000E+02 0.  1.
</event>
<event>
 5    1  0.1321379E-008  0.3713276E+03  0.7957747E-01  0.3489812E+00
         13   -1    0    0    0    0  0.00000000000E+00  0.00000000000E+00  0.14999999963E+04  0.15000000000E+04  0.10566000000E+00 0. -1.
        994   -1    0    0    0    0 -0.00000000000E+00 -0.00000000000E+00  0.11368683772E-12  0.17120000000E+03  0.17120000000E+03 0.  0.
         13    1    1    2    0    0 -0.11727700065E+02 -0.82029884671E+00  0.40390892987E+01  0.12431301035E+02  0.10566000000E+00 0. -1.
        994    1    1    2    0    0  0.14132006614E+02 -0.14852213611E+02  0.10024772691E+02  0.17271432462E+03  0.17120000000E+03 0.  0.
        998    1    1    2    0    0 -0.24043065486E+01  0.15672512458E+02  0.14859361343E+04  0.14860543743E+04  0.10000000000E+02 0. -1.
</event>
<event>
 5    1  0.1321379E-008  0.3702224E+03  0.7957747E-01  0.3494869E+00
         13   -1    0    0    0    0  0.00000000000E+00  0.00000000000E+00  0.14999999963E+04  0.15000000000E+04  0.10566000000E+00 0.  1.
        994   -1    0    0    0    0 -0.00000000000E+00 -0.00000000000E+00  0.11368683772E-12  0.17120000000E+03  0.17120000000E+03 0.  0.
         13    1    1    2    0    0 -0.45438858762E+02  0.54922546946E+02  0.39454771586E+03  0.40093526573E+03  0.10566000000E+00 0.  1.
        994    1    1    2    0    0  0.19355098809E+02  0.17716473410E+02  0.11535268294E+02  0.17358282085E+03  0.17120000000E+03 0.  0.
        998    1    1    2    0    0  0.26083759953E+02 -0.72639020357E+02  0.10939170121E+04  0.10966819134E+04  0.10000000000E+02 0.  1.
</event>
<event>
 5    1  0.1321379E-008  0.3797683E+03  0.7957747E-01  0.3452168E+00
         13   -1    0    0    0    0  0.00000000000E+00  0.00000000000E+00  0.14999999963E+04  0.15000000000E+04  0.10566000000E+00 0. -1.
        994   -1    0    0    0    0 -0.00000000000E+00 -0.00000000000E+00  0.11368683772E-12  0.17120000000E+03  0.17120000000E+03 0.  0.
         13    1    1    2    0    0  0.18835416821E+02 -0.46564910999E+02  0.24346276961E+03  0.24859041658E+03  0.10566000000E+00 0. -1.
        994    1    1    2    0    0 -0.11432079617E+02  0.52849359443E+02  0.14094243679E+02  0.18008840869E+03  0.17120000000E+03 0.  0.
        998    1    1    2    0    0 -0.74033372040E+01 -0.62844484440E+01  0.12424429830E+04  0.12425211747E+04  0.10000000000E+02 0. -1.
</event>
<event>
 5    1  0.1321379E-008  0.3843911E+03  0.7957747E-01  0.3432259E+00
         13   -1    0    0    0    0  0.00000000000E+00  0.00000000000E+00  0.14999999963E+04  0.15000000000E+04  0.10566000000E+00 0.  1.
        994   -1    0    0    0    0 -0.00000000000E+00 -0.00000000000E+00  0.11368683772E-12  0.17120000000E+03  0.17120000000E+03 0.  0.
         13    1    1    2    0    0  0.31709017576E+00 -0.16413983640E+02  0.66320358920E+02  0.68322182170E+02  0.10566000000E+00 0.  1.
        994    1    1    2    0    0 -0.25786640216E+01  0.18532754283E+02  0.30872852967E+01  0.17224715911E+03  0.17120000000E+03 0.  0.
        998    1    1    2    0    0  0.22615738458E+01 -0.21187706426E+01  0.14305923521E+04  0.14306306587E+04  0.10000000000E+02 0.  1.
</event>
<event>
 5    1  0.1321379E-008  0.3856853E+03  0.7957747E-01  0.3426771E+00
         13   -1    0    0    0    0  0.00000000000E+00  0.00000000000E+00  0.14999999963E+04  0.15000000000E+04  0.10566000000E+00 0.  1.
        994   -1    0    0    0    0 -0.00000000000E+00 -0.00000000000E+00  0.11368683772E-12  0.17120000000E+03  0.17120000000E+03 0.  0.
         13    1    1    2    0    0 -0.13568394772E+02 -0.31066604616E+01  0.79178612785E+02  0.80392888756E+02  0.10566000000E+00 0.  1.
        994    1    1    2    0    0  0.49350078465E+01 -0.63150212057E+01  0.15010956722E+01  0.17139406957E+03  0.17120000000E+03 0.  0.
        998    1    1    2    0    0  0.86333869257E+01  0.94216816673E+01  0.14193202878E+04  0.14194130417E+04  0.10000000000E+02 0.  1.
</event>
<event>
 5    1  0.1321379E-008  0.3833969E+03  0.7957747E-01  0.3436500E+00
         13   -1    0    0    0    0  0.00000000000E+00  0.00000000000E+00  0.14999999963E+04  0.15000000000E+04  0.10566000000E+00 0.  1.
        994   -1    0    0    0    0 -0.00000000000E+00 -0.00000000000E+00  0.11368683772E-12  0.17120000000E+03  0.17120000000E+03 0.  0.
         13    1    1    2    0    0 -0.36208958441E+02 -0.24466655997E+02  0.45758707753E+02  0.63273821019E+02  0.10566000000E+00 0.  1.
        994    1    1    2    0    0  0.59090511071E+01  0.44996234741E+02  0.25801393944E+02  0.17898248505E+03  0.17120000000E+03 0.  0.
        998    1    1    2    0    0  0.30299907334E+02 -0.20529578743E+02  0.14284398946E+04  0.14289436939E+04  0.10000000000E+02 0.  1.
</event>
<event>
 5    1  0.1321379E-008  0.3807058E+03  0.7957747E-01  0.3448091E+00
         13   -1    0    0    0    0  0.00000000000E+00  0.00000000000E+00  0.14999999963E+04  0.15000000000E+04  0.10566000000E+00 0. -1.
        994   -1    0    0    0    0 -0.00000000000E+00 -0.00000000000E+00  0.11368683772E-12  0.17120000000E+03  0.17120000000E+03 0.  0.
         13    1    1    2    0    0  0.19710357421E+02 -0.35289355420E+01  0.52866804834E+02  0.56531953735E+02  0.10566000000E+00 0. -1.
        994    1    1    2    0    0 -0.62334959912E+01  0.75213548726E+01  0.40956231929E+01  0.17152737793E+03  0.17120000000E+03 0.  0.
        998    1    1    2    0    0 -0.13476861430E+02 -0.39924193307E+01  0.14430375683E+04  0.14431406683E+04  0.10000000000E+02 0. -1.
</event>
<event>
 5    1  0.1321379E-008  0.3726963E+03  0.7957747E-01  0.3483590E+00
         13   -1    0    0    0    0  0.00000000000E+00  0.00000000000E+00  0.14999999963E+04  0.15000000000E+04  0.10566000000E+00 0. -1.
        994   -1    0    0    0    0 -0.00000000000E+00 -0.00000000000E+00  0.11368683772E-12  0.17120000000E+03  0.17120000000E+03 0.  0.
         13    1    1    2    0    0  0.17258083492E+02  0.20371487605E+02  0.22003555775E+02  0.34597782933E+02  0.10566000000E+00 0. -1.
        994    1    1    2    0    0 -0.18218487394E+02 -0.48409518111E+02  0.21874628266E+02  0.18017584213E+03  0.17120000000E+03 0.  0.
        998    1    1    2    0    0  0.96040390180E+00  0.28038030506E+02  0.14561218122E+04  0.14564263749E+04  0.10000000000E+02 0. -1.
</event>
<event>
 5    1  0.1321379E-008  0.3714022E+03  0.7957747E-01  0.3489471E+00
         13   -1    0    0    0    0  0.00000000000E+00  0.00000000000E+00  0.14999999963E+04  0.15000000000E+04  0.10566000000E+00 0. -1.
        994   -1    0    0    0    0 -0.00000000000E+00 -0.00000000000E+00  0.11368683772E-12  0.17120000000E+03  0.17120000000E+03 0.  0.
         13    1    1    2    0    0 -0.58619806612E+02 -0.20479179160E+02  0.21058602989E+03  0.21954991609E+03  0.10566000000E+00 0. -1.
        994    1    1    2    0    0 -0.12532664151E+02 -0.11757778460E+02  0.12720348228E+02  0.17252988229E+03  0.17120000000E+03 0.  0.
        998    1    1    2    0    0  0.71152470763E+02  0.32236957620E+02  0.12766936182E+04  0.12791202016E+04  0.10000000000E+02 0. -1.
</event>
<event>
 5    1  0.1321379E-008  0.3848179E+03  0.7957747E-01  0.3430445E+00
         13   -1    0    0    0    0  0.00000000000E+00  0.00000000000E+00  0.14999999963E+04  0.15000000000E+04  0.10566000000E+00 0.  1.
        994   -1    0    0    0    0 -0.00000000000E+00 -0.00000000000E+00  0.11368683772E-12  0.17120000000E+03  0.17120000000E+03 0.  0.
         13    1    1    2    0    0  0.29383965738E+03 -0.46435321253E+02  0.10591965449E+04  0.11001796741E+04  0.10566000000E+00 0.  1.
        994    1    1    2    0    0 -0.29933411244E+03  0.52555760603E+02  0.41478778225E+03  0.54196066569E+03  0.17120000000E+03 0.  0.
        998    1    1    2    0    0  0.54944550634E+01 -0.61204393500E+01  0.26015669093E+02  0.29059660229E+02  0.10000000000E+02 0.  0.
</event>
<event>
 5    1  0.1321379E-008  0.3733537E+03  0.7957747E-01  0.3480619E+00
         13   -1    0    0    0    0  0.00000000000E+00  0.00000000000E+00  0.14999999963E+04  0.15000000000E+04  0.10566000000E+00 0.  1.
        994   -1    0    0    0    0 -0.00000000000E+00 -0.00000000000E+00  0.11368683772E-12  0.17120000000E+03  0.17120000000E+03 0.  0.
         13    1    1    2    0    0 -0.49617077237E+02 -0.76970004168E+02  0.53539226527E+03  0.54316767648E+03  0.10566000000E+00 0.  1.
        994    1    1    2    0    0  0.34617494797E+01  0.68006906641E+02  0.23546159689E+02  0.18574386853E+03  0.17120000000E+03 0.  0.
        998    1    1    2    0    0  0.46155327757E+02  0.89630975265E+01  0.94106157132E+03  0.94228845499E+03  0.10000000000E+02 0.  0.
</event>
<event>
 5    1  0.1321379E-008  0.3846418E+03  0.7957747E-01  0.3431193E+00
         13   -1    0    0    0    0  0.00000000000E+00  0.00000000000E+00  0.14999999963E+04  0.15000000000E+04  0.10566000000E+00 0. -1.
        994   -1    0    0    0    0 -0.00000000000E+00 -0.00000000000E+00  0.11368683772E-12  0.17120000000E+03  0.17120000000E+03 0.  0.
         13    1    1    2    0    0 -0.71602863676E+01  0.94368293835E+01  0.36762275238E+02  0.38623820298E+02  0.10566000000E+00 0. -1.
        994    1    1    2    0    0  0.86272198900E+01 -0.16193013278E+02  0.29172346068E+01  0.17220508953E+03  0.17120000000E+03 0.  0.
        998    1    1    2    0    0 -0.14669335224E+01  0.67561838941E+01  0.14603204864E+04  0.14603710902E+04  0.10000000000E+02 0. -1.
</event>
<event>
 5    1  0.1321379E-008  0.3688023E+03  0.7957747E-01  0.3501414E+00
         13   -1    0    0    0    0  0.00000000000E+00  0.00000000000E+00  0.14999999963E+04  0.15000000000E+04  0.10566000000E+00 0. -1.
        994   -1    0    0    0    0 -0.00000000000E+00 -0.00000000000E+00  0.11368683772E-12  0.17120000000E+03  0.17120000000E+03 0.  0.
         13    1    1    2    0    0 -0.27186866605E+02 -0.11749965575E+02  0.41901891490E+02  0.51312445676E+02  0.10566000000E+00 0. -1.
        994    1    1    2    0    0 -0.12026687492E+02 -0.30463726204E+01  0.10842918095E+02  0.17199107672E+03  0.17120000000E+03 0.  0.
        998    1    1    2    0    0  0.39213554097E+02  0.14796338195E+02  0.14472551867E+04  0.14478964776E+04  0.10000000000E+02 0. -1.
</event>
<event>
 5    1  0.1321379E-008  0.3807726E+03  0.7957747E-01  0.3447801E+00
         13   -1    0    0    0    0  0.00000000000E+00  0.00000000000E+00  0.14999999963E+04  0.15000000000E+04  0.10566000000E+00 0. -1.
        994   -1    0    0    0    0 -0.00000000000E+00 -0.00000000000E+00  0.11368683772E-12  0.17120000000E+03  0.17120000000E+03 0.  0.
         13    1    1    2    0    0  0.32663865142E+01  0.96197020064E+01  0.12043134922E+02  0.15756148334E+02  0.10566000000E+00 0. -1.
        994    1    1    2    0    0 -0.30039876495E+01 -0.11034641456E+02  0.41798565648E+01  0.17163245164E+03  0.17120000000E+03 0.  0.
        998    1    1    2    0    0 -0.26239886472E+00  0.14149394499E+01  0.14837770048E+04  0.14838114000E+04  0.10000000000E+02 0. -1.
</event>
<event>
 5    1  0.1321379E-008  0.3745347E+03  0.7957747E-01  0.3475306E+00
         13   -1    0    0    0    0  0.00000000000E+00  0.00000000000E+00  0.14999999963E+04  0.15000000000E+04  0.10566000000E+00 0.  1.
        994   -1    0    0    0    0 -0.00000000000E+00 -0.00000000000E+00  0.11368683772E-12  0.17120000000E+03  0.17120000000E+03 0.  0.
         13    1    1    2    0    0  0.39399377370E+02 -0.54394969663E+01  0.12424490291E+03  0.13045576311E+03  0.10566000000E+00 0.  1.
        994    1    1    2    0    0 -0.37729918247E+01 -0.14511368545E+02  0.76836178688E+01  0.17202701319E+03  0.17120000000E+03 0.  0.
        998    1    1    2    0    0 -0.35626385545E+02  0.19950865511E+02  0.13680714755E+04  0.13687172237E+04  0.10000000000E+02 0.  1.
</event>
<event>
 5    1  0.1321379E-008  0.3855380E+03  0.7957747E-01  0.3427393E+00
         13   -1    0    0    0    0  0.00000000000E+00  0.00000000000E+00  0.14999999963E+04  0.15000000000E+04  0.10566000000E+00 0. -1.
        994   -1    0    0    0    0 -0.00000000000E+00 -0.00000000000E+00  0.11368683772E-12  0.17120000000E+03  0.17120000000E+03 0.  0.
         13    1    1    2    0    0  0.63390924262E+00  0.13315894392E+02  0.65755056147E+02  0.67092871881E+02  0.10566000000E+00 0. -1.
        994    1    1    2    0    0 -0.92583783503E+01 -0.80396825265E+01  0.18570004967E+01  0.17164860185E+03  0.17120000000E+03 0.  0.
        998    1    1    2    0    0  0.86244691076E+01 -0.52762118657E+01  0.14323879396E+04  0.14324585263E+04  0.10000000000E+02 0. -1.
</event>
<event>
 5    1  0.1321379E-008  0.3834471E+03  0.7957747E-01  0.3436285E+00
         13   -1    0    0    0    0  0.00000000000E+00  0.00000000000E+00  0.14999999963E+04  0.15000000000E+04  0.10566000000E+00 0. -1.
        994   -1    0    0    0    0 -0.00000000000E+00 -0.00000000000E+00  0.11368683772E-12  0.17120000000E+03  0.17120000000E+03 0.  0.
         13    1    1    2    0    0  0.13990527195E+02 -0.14567634555E+02  0.85080774345E+02  0.87445412429E+02  0.10566000000E+00 0. -1.
        994    1    1    2    0    0 -0.10425192683E+02  0.55385026689E+01  0.28638310680E+01  0.17163042033E+03  0.17120000000E+03 0.  0.
        998    1    1    2    0    0 -0.35653345115E+01  0.90291318856E+01  0.14120553909E+04  0.14121241672E+04  0.10000000000E+02 0. -1.
</event>
<event>
 5    1  0.1321379E-008  0.3781279E+03  0.7957747E-01  0.3459351E+00
         13   -1    0    0    0    0  0.00000000000E+00  0.00000000000E+00  0.14999999963E+04  0.15000000000E+04  0.10566000000E+00 0.  1.
        994   -1    0    0    0    0 -0.00000000000E+00 -0.00000000000E+00  0.11368683772E-12  0.17120000000E+03  0.17120000000E+03 0.  0.
         13    1    1    2    0    0 -0.17331496451E+02  0.92474566462E+01  0.35108172980E+02  0.40230475981E+02  0.10566000000E+00 0.  1.
        994    1    1    2    0    0  0.19638493860E+02 -0.76975695786E+01  0.65791880340E+01  0.17261995462E+03  0.17120000000E+03 0.  0.
        998    1    1    2    0    0 -0.23069974093E+01 -0.15498870676E+01  0.14583126353E+04  0.14583495694E+04  0.10000000000E+02 0.  1.
</event>
<event>
 5    1  0.1321379E-008  0.3844608E+03  0.7957747E-01  0.3431962E+00
         13   -1    0    0    0    0  0.00000000000E+00  0.00000000000E+00  0.14999999963E+04  0.15000000000E+04  0.10566000000E+00 0. -1.
        994   -1    0    0    0    0 -0.00000000000E+00 -0.00000000000E+00  0.11368683772E-12  0.17120000000E+03  0.17120000000E+03 0.  0.
         13    1    1    2    0    0  0.93772802428E+01  0.66038876052E+01  0.33345029192E+02  0.35262541770E+02  0.10566000000E+00 0. -1.
        994    1    1    2    0    0 -0.12151103901E+02 -0.70880988517E+01  0.25502756860E+01  0.17179590908E+03  0.17120000000E+03 0.  0.
        998    1    1    2    0    0  0.27738236581E+01  0.48421124652E+00  0.14641046914E+04  0.14641415491E+04  0.10000000000E+02 0. -1.
</event>
<event>
 5    1  0.1321379E-008  0.3831225E+03  0.7957747E-01  0.3437674E+00
         13   -1    0    0    0    0  0.00000000000E+00  0.00000000000E+00  0.14999999963E+04  0.15000000000E+04  0.10566000000E+00 0. -1.
        994   -1    0    0    0    0 -0.00000000000E+00 -0.00000000000E+00  0.11368683772E-12  0.17120000000E+03  0.17120000000E+03 0.  0.
         13    1    1    2    0    0  0.88793434990E+01 -0.10851721068E+02  0.36702878721E+02  0.39290139495E+02  0.10566000000E+00 0. -1.
        994    1    1    2    0    0 -0.33793233829E+01  0.16588585359E+02  0.35140263567E+01  0.17207088473E+03  0.17120000000E+03 0.  0.
        998    1    1    2    0    0 -0.55000201161E+01 -0.57368642914E+01  0.14597830912E+04  0.14598389758E+04  0.10000000000E+02 0. -1.
</event>
<event>
 5    1  0.1321379E-008  0.3850077E+03  0.7957747E-01  0.3429640E+00
         13   -1    0    0    0    0  0.00000000000E+00  0.00000000000E+00  0.14999999963E+04  0.15000000000E+04  0.10566000000E+00 0.  1.
        994   -1    0    0    0    0 -0.00000000000E+00 -0.00000000000E+00  0.11368683772E-12  0.17120000000E+03  0.17120000000E+03 0.  0.
         13    1    1    2    0    0 -0.21763704191E+01 -0.38650445759E+02  0.32373256220E+02  0.50464169743E+02  0.10566000000E+00 0.  1.
        994    1    1    2    0    0 -0.59006267514E+01  0.22150773947E+02  0.21047619847E+02  0.17400550705E+03  0.17120000000E+03 0.  0.
        998    1    1    2    0    0  0.80769971705E+01  0.16499671811E+02  0.14465791202E+04  0.14467303232E+04  0.10000000000E+02 0.  1.
</event>
<event>
 5    1  0.1321379E-008  0.3856635E+03  0.7957747E-01  0.3426863E+00
         13   -1    0    0    0    0  0.00000000000E+00  0.00000000000E+00  0.14999999963E+04  0.15000000000E+04  0.10566000000E+00 0. -1.
        994   -1    0    0    0    0 -0.00000000000E+00 -0.00000000000E+00  0.11368683772E-12  0.17120000000E+03  0.17120000000E+03 0.  0.
         13    1    1    2    0    0  0.17025419440E+01 -0.13888044410E+02  0.73319478476E+02  0.74642705703E+02  0.10566000000E+00 0. -1.
        994    1    1    2    0    0  0.20502104599E+02  0.17003497303E+02  0.36326864753E+01  0.17329769654E+03  0.17120000000E+03 0.  0.
        998    1    1    2    0    0 -0.22204646543E+02 -0.31154528934E+01  0.14230478313E+04  0.14232595978E+04  0.10000000000E+02 0. -1.
</event>
<event>
 5    1  0.1321379E-008  0.3840787E+03  0.7957747E-01  0.3433589E+00
         13   -1    0    0    0    0  0.00000000000E+00  0.00000000000E+00  0.14999999963E+04  0.15000000000E+04  0.10566000000E+00 0.  1.
        994   -1    0    0    0    0 -0.00000000000E+00 -0.00000000000E+00  0.11368683772E-12  0.17120000000E+03  0.17120000000E+03 0.  0.
         13    1    1    2    0    0  0.15334382154E+02 -0.45460072405E+00  0.52321558507E+02  0.54524366906E+02  0.10566000000E+00 0.  1.
        994    1    1    2    0    0 -0.23515739837E+02 -0.53097250216E+01  0.40076184686E+01  0.17293549146E+03  0.17120000000E+03 0.  0.
        998    1    1    2    0    0  0.81813576830E+01  0.57643257457E+01  0.14436708193E+04  0.14437401416E+04  0.10000000000E+02 0.  1.
</event>
<event>
 5    1  0.1321379E-008  0.3792492E+03  0.7957747E-01  0.3454434E+00
         13   -1    0    0    0    0  0.00000000000E+00  0.00000000000E+00  0.14999999963E+04  0.15000000000E+04  0.10566000000E+00 0. -1.
        994   -1    0    0    0    0 -0.00000000000E+00 -0.00000000000E+00  0.11368683772E-12  0.17120000000E+03  0.17120000000E+03 0.  0.
         13    1    1    2    0    0  0.17049438827E+02  0.20204196699E+02  0.87991494145E+02  0.91877130639E+02  0.10566000000E+00 0. -1.
        994    1    1    2    0    0  0.37127404480E+02 -0.12979566200E+02  0.97141762829E+01  0.17592816296E+03  0.17120000000E+03 0.  0.
        998    1    1    2    0    0 -0.54176843306E+02 -0.72246304995E+01  0.14022943259E+04  0.14033947064E+04  0.10000000000E+02 0. -1.
</event>
<event>
 5    1  0.1321379E-008  0.3827245E+03  0.7957747E-01  0.3439381E+00
         13   -1    0    0    0    0  0.00000000000E+00  0.00000000000E+00  0.14999999963E+04  0.15000000000E+04  0.10566000000E+00 0. -1.
        994   -1    0    0    0    0 -0.00000000000E+00 -0.00000000000E+00  0.11368683772E-12  0.17120000000E+03  0.17120000000E+03 0.  0.
         13    1    1    2    0    0 -0.12865437400E+02 -0.21435736093E+01  0.29615832913E+02  0.32360826789E+02  0.10566000000E+00 0. -1.
        994    1    1    2    0    0  0.10628783561E+02  0.14806198725E+01  0.31457760456E+01  0.17156485416E+03  0.17120000000E+03 0.  0.
        998    1    1    2    0    0  0.22366538380E+01  0.66295373676E+00  0.14672383873E+04  0.14672743191E+04  0.10000000000E+02 0. -1.
</event>
<event>
 5    1  0.1321379E-008  0.3860505E+03  0.7957747E-01  0.3425229E+00
         13   -1    0    0    0    0  0.00000000000E+00  0.00000000000E+00  0.14999999963E+04  0.15000000000E+04  0.10566000000E+00 0. -1.
        994   -1    0    0    0    0 -0.00000000000E+00 -0.00000000000E+00  0.11368683772E-12  0.17120000000E+03  0.17120000000E+03 0.  0.
         13    1    1    2    0    0 -0.65924330691E+01 -0.10394811484E+02  0.68145244991E+02  0.69248089204E+02  0.10566000000E+00 0. -1.
        994    1    1    2    0    0  0.38756162920E+01  0.94143431567E+01  0.14492844234E+01  0.17150857321E+03  0.17120000000E+03 0.  0.
        998    1    1    2    0    0  0.27168167771E+01  0.98046832727E+00  0.14304054669E+04  0.14304433376E+04  0.10000000000E+02 0. -1.
</event>
<event>
 5    1  0.1321379E-008  0.3845961E+03  0.7957747E-01  0.3431387E+00
         13   -1    0    0    0    0  0.00000000000E+00  0.00000000000E+00  0.14999999963E+04  0.15000000000E+04  0.10566000000E+00 0. -1.
        994   -1    0    0    0    0 -0.00000000000E+00 -0.00000000000E+00  0.11368683772E-12  0.17120000000E+03  0.17120000000E+03 0.  0.
         13    1    1    2    0    0  0.14457459167E+02  0.12501121698E+02  0.95072130065E+02  0.96974312312E+02  0.10566000000E+00 0. -1.
        994    1    1    2    0    0 -0.90099897439E+00 -0.28388831915E+02  0.44918604466E+01  0.17359825571E+03  0.17120000000E+03 0.  0.
        998    1    1    2    0    0 -0.13556460192E+02  0.15887710217E+02  0.14004360058E+04  0.14006274320E+04  0.10000000000E+02 0. -1.
</event>
<event>
 5    1  0.1321379E-008  0.3808404E+03  0.7957747E-01  0.3447508E+00
         13   -1    0    0    0    0  0.00000000000E+00  0.00000000000E+00  0.14999999963E+04  0.15000000000E+04  0.10566000000E+00 0.  1.
        994   -1    0    0    0    0 -0.00000000000E+00 -0.00000000000E+00  0.11368683772E-12  0.17120000000E+03  0.17120000000E+03 0.  0.
         13    1    1    2    0    0 -0.26861505789E+02 -0.10771058218E+02  0.10706606635E+03  0.11090856556E+03  0.10566000000E+00 0.  1.
        994    1    1    2    0    0  0.23271404916E+02  0.92776040813E+01  0.58046601451E+01  0.17312066978E+03  0.17120000000E+03 0.  0.
        998    1    1    2    0    0  0.35901008729E+01  0.14934541372E+01  0.13871292698E+04  0.13871707647E+04  0.10000000000E+02 0.  0.
</event>
<event>
 5    1  0.1321379E-008  0.3724382E+03  0.7957747E-01  0.3484760E+00
         13   -1    0    0    0    0  0.00000000000E+00  0.00000000000E+00  0.14999999963E+04  0.15000000000E+04  0.10566000000E+00 0.  1.
        994   -1    0    0    0    0 -0.00000000000E+00 -0.00000000000E+00  0.11368683772E-12  0.17120000000E+03  0.17120000000E+03 0.  0.
         13    1    1    2    0    0  0.89210648413E+01 -0.16924046914E+03  0.94769600508E+03  0.96273031063E+03  0.10566000000E+00 0.  1.
        994    1    1    2    0    0  0.25314406340E+02  0.15253203193E+03  0.95015047504E+02  0.24948775358E+03  0.17120000000E+03 0.  0.
        998    1    1    2    0    0 -0.34235471181E+02  0.16708437217E+02  0.45728894369E+03  0.45898193580E+03  0.10000000000E+02 0.  1.
</event>
<event>
 5    1  0.1321379E-008  0.3750791E+03  0.7957747E-01  0.3472869E+00
         13   -1    0    0    0    0  0.00000000000E+00  0.00000000000E+00  0.14999999963E+04  0.15000000000E+04  0.10566000000E+00 0.  1.
        994   -1    0    0    0    0 -0.00000000000E+00 -0.00000000000E+00  0.11368683772E-12  0.17120000000E+03  0.17120000000E+03 0.  0.
         13    1    1    2    0    0  0.45581346931E+01 -0.27672102003E+02  0.54714364799E+02  0.61483287978E+02  0.10566000000E+00 0.  1.
        994    1    1    2    0    0 -0.39328886840E+01  0.28807800582E+02  0.95162490553E+01  0.17391192019E+03  0.17120000000E+03 0.  0.
        998    1    1    2    0    0 -0.62524600909E+00 -0.11356985786E+01  0.14357693824E+04  0.14358047918E+04  0.10000000000E+02 0.  1.
</event>
<event>
 5    1  0.1321379E-008  0.3840523E+03  0.7957747E-01  0.3433702E+00
         13   -1    0    0    0    0  0.00000000000E+00  0.00000000000E+00  0.14999999963E+04  0.15000000000E+04  0.10566000000E+00 0.  1.
        994   -1    0    0    0    0 -0.00000000000E+00 -0.00000000000E+00  0.11368683772E-12  0.17120000000E+03  0.17120000000E+03 0.  0.
         13    1    1    2    0    0  0.96761211371E+01 -0.61186493111E+01  0.31428688894E+02  0.33449048407E+02  0.10566000000E+00 0.  1.
        994    1    1    2    0    0 -0.69619923157E+01 -0.83700924725E+01  0.24924870125E+01  0.17156392475E+03  0.17120000000E+03 0.  0.
        998    1    1    2    0    0 -0.27141288214E+01  0.14488741784E+02  0.14660788204E+04  0.14661870268E+04  0.10000000000E+02 0.  1.
</event>
<event>
 5    1  0.1321379E-008  0.3850282E+03  0.7957747E-01  0.3429553E+00
         13   -1    0    0    0    0  0.00000000000E+00  0.00000000000E+00  0.14999999963E+04  0.15000000000E+04  0.10566000000E+00 0. -1.
        994   -1    0    0    0    0 -0.00000000000E+00 -0.00000000000E+00  0.11368683772E-12  0.17120000000E+03  0.17120000000E+03 0.  0.
         13    1    1    2    0    0  0.12526831767E+02 -0.14425521868E+01  0.51788205439E+02  0.53301330729E+02  0.10566000000E+00 0. -1.
        994    1    1    2    0    0 -0.55663967385E-02 -0.56516388952E+01  0.17211819980E+01  0.17130190752E+03  0.17120000000E+03 0.  0.
        998    1    1    2    0    0 -0.12521265371E+02  0.70941910820E+01  0.14464906088E+04  0.14465967617E+04  0.10000000000E+02 0. -1.
</event>
<event>
 5    1  0.1321379E-008  0.3837535E+03  0.7957747E-01  0.3434976E+00
         13   -1    0    0    0    0  0.00000000000E+00  0.00000000000E+00  0.14999999963E+04  0.15000000000E+04  0.10566000000E+00 0.  1.
        994   -1    0    0    0    0 -0.00000000000E+00 -0.00000000000E+00  0.11368683772E-12  0.17120000000E+03  0.17120000000E+03 0.  0.
         13    1    1    2    0    0  0.16308508659E+03  0.88166933231E+01  0.98773902556E+03  0.10011507745E+04  0.10566000000E+00 0.  1.
        994    1    1    2    0    0 -0.17818319842E+03 -0.64749604000E+01  0.11544833791E+03  0.27281667111E+03  0.17120000000E+03 0.  0.
        998    1    1    2    0    0  0.15098111822E+02 -0.23417329231E+01  0.39681263280E+03  0.39723255436E+03  0.10000000000E+02 0.  1.
</event>
<event>
 5    1  0.1321379E-008  0.3828940E+03  0.7957747E-01  0.3438653E+00
         13   -1    0    0    0    0  0.00000000000E+00  0.00000000000E+00  0.14999999963E+04  0.15000000000E+04  0.10566000000E+00 0.  1.
        994   -1    0    0    0    0 -0.00000000000E+00 -0.00000000000E+00  0.11368683772E-12  0.17120000000E+03  0.17120000000E+03 0.  0.
         13    1    1    2    0    0 -0.22296218228E+02 -0.15876717794E+02  0.13356731861E+03  0.13634306466E+03  0.10566000000E+00 0.  1.
        994    1    1    2    0    0  0.20436847514E+02  0.93020775011E+01  0.43506373694E+01  0.17272105091E+03  0.17120000000E+03 0.  0.
        998    1    1    2    0    0  0.18593707145E+01  0.65746402932E+01  0.13620820403E+04  0.13621358844E+04  0.10000000000E+02 0.  1.
</event>
<event>
 5    1  0.1321379E-008  0.3795207E+03  0.7957747E-01  0.3453248E+00
         13   -1    0    0    0    0  0.00000000000E+00  0.00000000000E+00  0.14999999963E+04  0.15000000000E+04  0.10566000000E+00 0. -1.
        994   -1    0    0    0    0 -0.00000000000E+00 -0.00000000000E+00  0.11368683772E-12  0.17120000000E+03  0.17120000000E+03 0.  0.
         13    1    1    2    0    0  0.50316450848E+02 -0.72070278429E+01  0.30505489014E+03  0.30926070497E+03  0.10566000000E+00 0. -1.
        994    1    1    2    0    0 -0.28145227352E+02 -0.15761635462E+02  0.78672209183E+01  0.17439012627E+03  0.17120000000E+03 0.  0.
        998    1    1    2    0    0 -0.22171223497E+02  0.22968663305E+02  0.11870778852E+04  0.11875491688E+04  0.10000000000E+02 0. -1.
</event>
<event>
 5    1  0.1321379E-008  0.3825775E+03  0.7957747E-01  0.3440012E+00
         13   -1    0    0    0    0  0.00000000000E+00  0.00000000000E+00  0.14999999963E+04  0.15000000000E+04  0.10566000000E+00 0. -1.
        994   -1    0    0    0    0 -0.00000000000E+00 -0.00000000000E+00  0.11368683772E-12  0.17120000000E+03  0.17120000000E+03 0.  0.
         13    1    1    2    0    0 -0.91511235337E+01  0.17368199675E+02  0.65525661981E+02  0.68403369537E+02  0.10566000000E+00 0. -1.
        994    1    1    2    0    0  0.10833093505E+02 -0.13745497494E+02  0.38535963978E+01  0.17213536772E+03  0.17120000000E+03 0.  0.
        998    1    1    2    0    0 -0.16819699712E+01 -0.36227021810E+01  0.14306207379E+04  0.14306612627E+04  0.10000000000E+02 0. -1.
</event>
<event>
 5    1  0.1321379E-008  0.3832348E+03  0.7957747E-01  0.3437193E+00
         13   -1    0    0    0    0  0.00000000000E+00  0.00000000000E+00  0.14999999963E+04  0.15000000000E+04  0.10566000000E+00 0.  1.
        994   -1    0    0    0    0 -0.00000000000E+00 -0.00000000000E+00  0.11368683772E-12  0.17120000000E+03  0.17120000000E+03 0.  0.
         13    1    1    2    0    0 -0.60076425052E+01 -0.28174992393E+02  0.16847989802E+03  0.17092515662E+03  0.10566000000E+00 0.  1.
        994    1    1    2    0    0  0.14500721635E+02  0.11889685475E+02  0.36729995849E+01  0.17226307345E+03  0.17120000000E+03 0.  0.
        998    1    1    2    0    0 -0.84930791297E+01  0.16285306918E+02  0.13278470987E+04  0.13280117699E+04  0.10000000000E+02 0.  1.
</event>
<event>
 5    1  0.1321379E-008  0.3843423E+03  0.7957747E-01  0.3432466E+00
         13   -1    0    0    0    0  0.00000000000E+00  0.00000000000E+00  0.14999999963E+04  0.15000000000E+04  0.10566000000E+00 0. -1.
        994   -1    0    0    0    0 -0.00000000000E+00 -0.00000000000E+00  0.11368683772E-12  0.17120000000E+03  0.17120000000E+03 0.  0.
         13    1    1    2    0    0  0.21207593096E+02 -0.43522383680E+01  0.11805461020E+03  0.12002335664E+03  0.10566000000E+00 0. -1.
        994    1    1    2    0    0 -0.13138621114E+02  0.10844029431E+02  0.29140683345E+01  0.17207018374E+03  0.17120000000E+03 0.  0.
        998    1    1    2    0    0 -0.80689719820E+01 -0.64917910630E+01  0.13790313177E+04  0.13791064596E+04  0.10000000000E+02 0. -1.
</event>
<event>
 5    1  0.1321379E-008  0.3858468E+03  0.7957747E-01  0.3426089E+00
         13   -1    0    0    0    0  0.00000000000E+00  0.00000000000E+00  0.14999999963E+04  0.15000000000E+04  0.10566000000E+00 0.  1.
        994   -1    0    0    0    0 -0.00000000000E+00 -0.00000000000E+00  0.11368683772E-12  0.17120000000E+03  0.17120000000E+03 0.  0.
         13    1    1    2    0    0  0.89613207321E+01 -0.84321154989E+01  0.64112264220E+02  0.65282458812E+02  0.10566000000E+00 0.  1.
        994    1    1    2    0    0 -0.96883390975E+01 -0.12760208375E+01  0.15235173031E+01  0.17148543159E+03  0.17120000000E+03 0.  0.
        998    1    1    2    0    0  0.72701836540E+00  0.97081363364E+01  0.14343642148E+04  0.14344321096E+04  0.10000000000E+02 0.  1.
</event>
<event>
 5    1  0.1321379E-008  0.3810999E+03  0.7957747E-01  0.3446383E+00
         13   -1    0    0    0    0  0.00000000000E+00  0.00000000000E+00  0.14999999963E+04  0.15000000000E+04  0.10566000000E+00 0.  1.
        994   -1    0    0    0    0 -0.00000000000E+00 -0.00000000000E+00  0.11368683772E-12  0.17120000000E+03  0.17120000000E+03 0.  0.
         13    1    1    2    0    0  0.80306290838E+02 -0.83232942690E+02  0.62718932682E+03  0.63776428713E+03  0.10566000000E+00 0.  1.
        994    1    1    2    0    0 -0.17750871348E+02  0.77574135005E+01  0.18299220484E+02  0.17326157210E+03  0.17120000000E+03 0.  0.
        998    1    1    2    0    0 -0.62555419490E+02  0.75475529189E+02  0.85451144897E+03  0.86017414076E+03  0.10000000000E+02 0.  1.
</event>
<event>
 5    1  0.1321379E-008  0.3852684E+03  0.7957747E-01  0.3428535E+00
         13   -1    0    0    0    0  0.00000000000E+00  0.00000000000E+00  0.14999999963E+04  0.15000000000E+04  0.10566000000E+00 0. -1.
        994   -1    0    0    0    0 -0.00000000000E+00 -0.00000000000E+00  0.11368683772E-12  0.17120000000E+03  0.17120000000E+03 0.  0.
         13    1    1    2    0    0  0.11963240171E+02 -0.56864771140E+01  0.57551104990E+02  0.59055871740E+02  0.10566000000E+00 0. -1.
        994    1    1    2    0    0 -0.14054205713E+02 -0.11799154836E+01  0.21507809529E+01  0.17179341884E+03  0.17120000000E+03 0.  0.
        998    1    1    2    0    0  0.20909655422E+01  0.68663925976E+01  0.14402981103E+04  0.14403507094E+04  0.10000000000E+02 0. -1.
</event>
<event>
 5    1  0.1321379E-008  0.3832966E+03  0.7957747E-01  0.3436929E+00
         13   -1    0    0    0    0  0.00000000000E+00  0.00000000000E+00  0.14999999963E+04  0.15000000000E+04  0.10566000000E+00 0. -1.
        994   -1    0    0    0    0 -0.00000000000E+00 -0.00000000000E+00  0.11368683772E-12  0.17120000000E+03  0.17120000000E+03 0.  0.
         13    1    1    2    0    0  0.17758304852E+01  0.13153197204E+02  0.34283564703E+02  0.36763217261E+02  0.10566000000E+00 0. -1.
        994    1    1    2    0    0 -0.54521844965E+01 -0.11971209467E+02  0.30506472306E+01  0.17173171699E+03  0.17120000000E+03 0.  0.
        998    1    1    2    0    0  0.36763540112E+01 -0.11819877366E+01  0.14626657843E+04  0.14627050657E+04  0.10000000000E+02 0. -1.
</event>
<event>
 5    1  0.1321379E-008  0.3849098E+03  0.7957747E-01  0.3430055E+00
         13   -1    0    0    0    0  0.00000000000E+00  0.00000000000E+00  0.14999999963E+04  0.15000000000E+04  0.10566000000E+00 0. -1.
        994   -1    0    0    0    0 -0.00000000000E+00 -0.00000000000E+00  0.11368683772E-12  0.17120000000E+03  0.17120000000E+03 0.  0.
         13    1    1    2    0    0 -0.11488845833E+02 -0.11920809571E+02  0.78332946891E+02  0.80063481139E+02  0.10566000000E+00 0. -1.
        994    1    1    2    0    0  0.11991970450E+02  0.12258413350E+02  0.26429156308E+01  0.17207702071E+03  0.17120000000E+03 0.  0.
        998    1    1    2    0    0 -0.50312461753E+00 -0.33760377903E+00  0.14190241338E+04  0.14190594982E+04  0.10000000000E+02 0. -1.
</event>
<event>
 5    1  0.1321379E-008  0.3836348E+03  0.7957747E-01  0.3435483E+00
         13   -1    0    0    0    0  0.00000000000E+00  0.00000000000E+00  0.14999999963E+04  0.15000000000E+04  0.10566000000E+00 0.  1.
        994   -1    0    0    0    0 -0.00000000000E+00 -0.00000000000E+00  0.11368683772E-12  0.17120000000E+03  0.17120000000E+03 0.  0.
         13    1    1    2    0    0  0.18908869902E+02  0.21074267181E+02  0.16485662276E+03  0.16727040184E+03  0.10566000000E+00 0.  1.
        994    1    1    2    0    0 -0.28195296941E+01 -0.28315834561E+02  0.49888368796E+01  0.17362046172E+03  0.17120000000E+03 0.  0.
        998    1    1    2    0    0 -0.16089340208E+02  0.72415673799E+01  0.13301545366E+04  0.13303091364E+04  0.10000000000E+02 0.  1.
</event>
<event>
 5    1  0.1321379E-008  0.3692278E+03  0.7957747E-01  0.3499447E+00
         13   -1    0    0    0    0  0.00000000000E+00  0.00000000000E+00  0.14999999963E+04  0.15000000000E+04  0.10566000000E+00 0. -1.
        994   -1    0    0    0    0 -0.00000000000E+00 -0.00000000000E+00  0.11368683772E-12  0.17120000000E+03  0.17120000000E+03 0.  0.
         13    1    1    2    0    0 -0.27082419865E+02 -0.45895858684E+02  0.12090461417E+03  0.13212805986E+03  0.10566000000E+00 0. -1.
        994    1    1    2    0    0  0.19806239791E+02  0.51155261060E+02  0.21097357535E+02  0.18100742074E+03  0.17120000000E+03 0.  0.
        998    1    1    2    0    0  0.72761800742E+01 -0.52594023764E+01  0.13579980246E+04  0.13580645194E+04  0.10000000000E+02 0. -1.
</event>
<event>
 5    1  0.1321379E-008  0.3836248E+03  0.7957747E-01  0.3435526E+00
         13   -1    0    0    0    0  0.00000000000E+00  0.00000000000E+00  0.14999999963E+04  0.15000000000E+04  0.10566000000E+00 0.  1.
        994   -1    0    0    0    0 -0.00000000000E+00 -0.00000000000E+00  0.11368683772E-12  0.17120000000E+03  0.17120000000E+03 0.  0.
         13    1    1    2    0    0 -0.14374618325E+02 -0.49005999436E+01  0.45392706254E+02  0.47866005442E+02  0.10566000000E+00 0.  1.
        994    1    1    2    0    0  0.20540875234E+02  0.27085614314E+02  0.61410715986E+01  0.17465025284E+03  0.17120000000E+03 0.  0.
        998    1    1    2    0    0 -0.61662569082E+01 -0.22185014370E+02  0.14484662184E+04  0.14486837417E+04  0.10000000000E+02 0.  1.
</event>
<event>
 5    1  0.1321379E-008  0.3761383E+03  0.7957747E-01  0.3468148E+00
         13   -1    0    0    0    0  0.00000000000E+00  0.00000000000E+00  0.14999999963E+04  0.15000000000E+04  0.10566000000E+00 0. -1.
        994   -1    0    0    0    0 -0.00000000000E+00 -0.00000000000E+00  0.11368683772E-12  0.17120000000E+03  0.17120000000E+03 0.  0.
         13    1    1    2    0    0 -0.57358071085E+01 -0.29103686358E+02  0.64361577823E+02  0.70868525501E+02  0.10566000000E+00 0. -1.
        994    1    1    2    0    0  0.19364033775E+02  0.38723077143E+02  0.12469097373E+02  0.17702926565E+03  0.17120000000E+03 0.  0.
        998    1    1    2    0    0 -0.13628226667E+02 -0.96193907846E+01  0.14231693211E+04  0.14233022088E+04  0.10000000000E+02 0. -1.
</event>
<event>
 5    1  0.1321379E-008  0.3859754E+03  0.7957747E-01  0.3425546E+00
         13   -1    0    0    0    0  0.00000000000E+00  0.00000000000E+00  0.14999999963E+04  0.15000000000E+04  0.10566000000E+00 0. -1.
        994   -1    0    0    0    0 -0.00000000000E+00 -0.00000000000E+00  0.11368683772E-12  0.17120000000E+03  0.17120000000E+03 0.  0.
         13    1    1    2    0    0 -0.21816530301E+01 -0.10054882865E+02  0.45431128395E+02  0.46581743963E+02  0.10566000000E+00 0. -1.
        994    1    1    2    0    0 -0.23584756928E+01  0.12058923820E+02  0.16417315064E+01  0.17164823137E+03  0.17120000000E+03 0.  0.
        998    1    1    2    0    0  0.45401287229E+01 -0.20040409550E+01  0.14529271364E+04  0.14529700247E+04  0.10000000000E+02 0. -1.
</event>
<event>
 5    1  0.1321379E-008  0.3787713E+03  0.7957747E-01  0.3456526E+00
         13   -1    0    0    0    0  0.00000000000E+00  0.00000000000E+00  0.14999999963E+04  0.15000000000E+04  0.10566000000E+00 0.  1.
        994   -1    0    0    0    0 -0.00000000000E+00 -0.00000000000E+00  0.11368683772E-12  0.17120000000E+03  0.17120000000E+03 0.  0.
         13    1    1    2    0    0 -0.21829902040E+02  0.52525370721E+02  0.12977905030E+03  0.14169711449E+03  0.10566000000E+00 0.  1.
        994    1    1    2    0    0 -0.62587763579E+02  0.19481634933E+02  0.31321403356E+02  0.18597643011E+03  0.17120000000E+03 0.  0.
        998    1    1    2    0    0  0.84417665619E+02 -0.72007005654E+02  0.13388995426E+04  0.13435264554E+04  0.10000000000E+02 0.  1.
</event>
<event>
 5    1  0.1321379E-008  0.3840657E+03  0.7957747E-01  0.3433644E+00
         13   -1    0    0    0    0  0.00000000000E+00  0.00000000000E+00  0.14999999963E+04  0.15000000000E+04  0.10566000000E+00 0.  1.
        994   -1    0    0    0    0 -0.00000000000E+00 -0.00000000000E+00  0.11368683772E-12  0.17120000000E+03  0.17120000000E+03 0.  0.
         13    1    1    2    0    0 -0.24987056772E+01  0.19674733136E+02  0.11009957269E+03  0.11187164844E+03  0.10566000000E+00 0.  1.
        994    1    1    2    0    0 -0.77324727758E+00  0.90869793056E+01  0.23691228355E+01  0.17145910255E+03  0.17120000000E+03 0.  0.
        998    1    1    2    0    0  0.32719529548E+01 -0.28761712442E+02  0.13875313008E+04  0.13878692490E+04  0.10000000000E+02 0.  1.
</event>
<event>
 5    1  0.1321379E-008  0.3857180E+03  0.7957747E-01  0.3426633E+00
         13   -1    0    0    0    0  0.00000000000E+00  0.00000000000E+00  0.14999999963E+04  0.15000000000E+04  0.10566000000E+00 0. -1.
        994   -1    0    0    0    0 -0.00000000000E+00 -0.00000000000E+00  0.11368683772E-12  0.17120000000E+03  0.17120000000E+03 0.  0.
         13    1    1    2    0    0  0.27206500107E+01  0.12145267214E+02  0.60074702028E+02  0.61350553705E+02  0.10566000000E+00 0. -1.
        994    1    1    2    0    0  0.43152024418E+01 -0.12469678663E+02  0.18455386566E+01  0.17171767489E+03  0.17120000000E+03 0.  0.
        998    1    1    2    0    0 -0.70358524525E+01  0.32441144895E+00  0.14380797556E+04  0.14381317714E+04  0.10000000000E+02 0. -1.
</event>
<event>
 5    1  0.1321379E-008  0.3697023E+03  0.7957747E-01  0.3497260E+00
         13   -1    0    0    0    0  0.00000000000E+00  0.00000000000E+00  0.14999999963E+04  0.15000000000E+04  0.10566000000E+00 0.  1.
        994   -1    0    0    0    0 -0.00000000000E+00 -0.00000000000E+00  0.11368683772E-12  0.17120000000E+03  0.17120000000E+03 0.  0.
         13    1    1    2    0    0 -0.26815406244E+02  0.27186642253E+02  0.75031227536E+02  0.84189523093E+02  0.10566000000E+00 0.  1.
        994    1    1    2    0    0  0.20254584973E+02 -0.82670943975E+01  0.11083033474E+02  0.17294758366E+03  0.17120000000E+03 0.  0.
        998    1    1    2    0    0  0.65608212709E+01 -0.18919547856E+02  0.14138857353E+04  0.14140628932E+04  0.10000000000E+02 0.  1.
</event>
<event>
 5    1  0.1321379E-008  0.3835167E+03  0.7957747E-01  0.3435987E+00
         13   -1    0    0    0    0  0.00000000000E+00  0.00000000000E+00  0.14999999963E+04  0.15000000000E+04  0.10566000000E+00 0.  1.
        994   -1    0    0    0    0 -0.00000000000E+00 -0.00000000000E+00  0.11368683772E-12  0.17120000000E+03  0.17120000000E+03 0.  0.
         13    1    1    2    0    0  0.20815033218E+02 -0.23570318187E+02  0.17274564300E+03  0.17558443509E+03  0.10566000000E+00 0.  1.
        994    1    1    2    0    0 -0.27356849731E+02  0.29783054042E+02  0.77915251700E+01  0.17608400098E+03  0.17120000000E+03 0.  0.
        998    1    1    2    0    0  0.65418165137E+01 -0.62127358549E+01  0.13194628281E+04  0.13195315639E+04  0.10000000000E+02 0.  1.
</event>
<event>
 5    1  0.2258905E-008  0.3860069E+03  0.7957747E-01  0.3425413E+00
         13   -1    0    0    0    0  0.00000000000E+00  0.00000000000E+00  0.14999999963E+04  0.15000000000E+04  0.10566000000E+00 0.  1.
        994   -1    0    0    0    0 -0.00000000000E+00 -0.00000000000E+00  0.11368683772E-12  0.17120000000E+03  0.17120000000E+03 0.  0.
         13    1    1    2    0    0 -0.97030938931E+01 -0.38549046702E+01  0.48606682076E+02  0.49715500878E+02  0.10566000000E+00 0.  1.
        994    1    1    2    0    0  0.69397544267E+01  0.28784838062E+01  0.13160852157E+01  0.17136982798E+03  0.17120000000E+03 0.  0.
        998    1    1    2    0    0  0.27633394663E+01  0.97642086408E+00  0.14500772290E+04  0.14501146711E+04  0.10000000000E+02 0.  1.
</event>
<event>
 5    1  0.1967008E-008  0.3864326E+03  0.7957747E-01  0.3423619E+00
         13   -1    0    0    0    0  0.00000000000E+00  0.00000000000E+00  0.14999999963E+04  0.15000000000E+04  0.10566000000E+00 0. -1.
        994   -1    0    0    0    0 -0.00000000000E+00 -0.00000000000E+00  0.11368683772E-12  0.17120000000E+03  0.17120000000E+03 0.  0.
         13    1    1    2    0    0 -0.80081827921E+01  0.68721657763E+01  0.60221297716E+02  0.61138968889E+02  0.10566000000E+00 0. -1.
        994    1    1    2    0    0 -0.20568330487E+01 -0.18585813598E+02  0.20659650415E+01  0.17223057580E+03  0.17120000000E+03 0.  0.
        998    1    1    2    0    0  0.10065015841E+02  0.11713647822E+02  0.14377127335E+04  0.14378304553E+04  0.10000000000E+02 0. -1.
</event>
<event>
 5    1  0.1321379E-008  0.3854109E+03  0.7957747E-01  0.3427932E+00
         13   -1    0    0    0    0  0.00000000000E+00  0.00000000000E+00  0.14999999963E+04  0.15000000000E+04  0.10566000000E+00 0.  1.
        994   -1    0    0    0    0 -0.00000000000E+00 -0.00000000000E+00  0.11368683772E-12  0.17120000000E+03  0.17120000000E+03 0.  0.
         13    1    1    2    0    0  0.12027607913E+02 -0.72196337089E+00  0.53884269449E+02  0.55215126925E+02  0.10566000000E+00 0.  1.
        994    1    1    2    0    0  0.90536971046E+00  0.67028518303E+01  0.15765498279E+01  0.17134081074E+03  0.17120000000E+03 0.  0.
        998    1    1    2    0    0 -0.12932977623E+02 -0.59808884594E+01  0.14445391770E+04  0.14446440623E+04  0.10000000000E+02 0.  1.
</event>
<event>
 5    1  0.1321379E-008  0.3754231E+03  0.7957747E-01  0.3471333E+00
         13   -1    0    0    0    0  0.00000000000E+00  0.00000000000E+00  0.14999999963E+04  0.15000000000E+04  0.10566000000E+00 0. -1.
        994   -1    0    0    0    0 -0.00000000000E+00 -0.00000000000E+00  0.11368683772E-12  0.17120000000E+03  0.17120000000E+03 0.  0.
         13    1    1    2    0    0 -0.20970411296E+02  0.10301430955E+02  0.37544799100E+02  0.44221044008E+02  0.10566000000E+00 0. -1.
        994    1    1    2    0    0  0.26238658341E+02 -0.24577693796E+02  0.10861498306E+02  0.17527105400E+03  0.17120000000E+03 0.  0.
        998    1    1    2    0    0 -0.52682470444E+01  0.14276262841E+02  0.14515936989E+04  0.14517079020E+04  0.10000000000E+02 0. -1.
</event>
<event>
 5    1  0.1321379E-008  0.3744023E+03  0.7957747E-01  0.3475900E+00
         13   -1    0    0    0    0  0.00000000000E+00  0.00000000000E+00  0.14999999963E+04  0.15000000000E+04  0.10566000000E+00 0. -1.
        994   -1    0    0    0    0 -0.00000000000E+00 -0.00000000000E+00  0.11368683772E-12  0.17120000000E+03  0.17120000000E+03 0.  0.
         13    1    1    2    0    0  0.37369702165E+02 -0.38370042715E+02  0.20740659379E+03  0.21421078668E+03  0.10566000000E+00 0. -1.
        994    1    1    2    0    0 -0.31458724382E+02  0.81515630453E+01  0.10591593517E+02  0.17457869622E+03  0.17120000000E+03 0.  0.
        998    1    1    2    0    0 -0.59109777828E+01  0.30218479670E+02  0.12820018090E+04  0.12824105171E+04  0.10000000000E+02 0. -1.
</event>
<event>
 5    1  0.1321379E-008  0.3838017E+03  0.7957747E-01  0.3434770E+00
         13   -1    0    0    0    0  0.00000000000E+00  0.00000000000E+00  0.14999999963E+04  0.15000000000E+04  0.10566000000E+00 0. -1.
        994   -1    0    0    0    0 -0.00000000000E+00 -0.00000000000E+00  0.11368683772E-12  0.17120000000E+03  0.17120000000E+03 0.  0.
         13    1    1    2    0    0 -0.11953515040E+02 -0.22696571683E+01  0.35041507574E+02  0.37093884706E+02  0.10566000000E+00 0. -1.
        994    1    1    2    0    0 -0.78017905619E+01 -0.67250643887E+01  0.25765784937E+01  0.17152892813E+03  0.17120000000E+03 0.  0.
        998    1    1    2    0    0  0.19755305602E+02  0.89947215570E+01  0.14623819102E+04  0.14625771872E+04  0.10000000000E+02 0. -1.
</event>
<event>
 5    1  0.1321379E-008  0.3841804E+03  0.7957747E-01  0.3433156E+00
         13   -1    0    0    0    0  0.00000000000E+00  0.00000000000E+00  0.14999999963E+04  0.15000000000E+04  0.10566000000E+00 0.  1.
        994   -1    0    0    0    0 -0.00000000000E+00 -0.00000000000E+00  0.11368683772E-12  0.17120000000E+03  0.17120000000E+03 0.  0.
         13    1    1    2    0    0  0.16058617518E+02 -0.62022707841E+01  0.80988684439E+02  0.82798101009E+02  0.10566000000E+00 0.  1.
        994    1    1    2    0    0  0.25968102986E+01 -0.10294228196E+02  0.24093701241E+01  0.17154579453E+03  0.17120000000E+03 0.  0.
        998    1    1    2    0    0 -0.18655427817E+02  0.16496498980E+02  0.14166019417E+04  0.14168561045E+04  0.10000000000E+02 0.  1.
</event>
<event>
 5    1  0.1321379E-008  0.3837755E+03  0.7957747E-01  0.3434882E+00
         13   -1    0    0    0    0  0.00000000000E+00  0.00000000000E+00  0.14999999963E+04  0.15000000000E+04  0.10566000000E+00 0.  1.
        994   -1    0    0    0    0 -0.00000000000E+00 -0.00000000000E+00  0.11368683772E-12  0.17120000000E+03  0.17120000000E+03 0.  0.
         13    1    1    2    0    0  0.22195947486E+02 -0.76923028262E+00  0.12104117200E+03  0.12306188802E+03  0.10566000000E+00 0.  1.
        994    1    1    2    0    0 -0.95205781571E+00 -0.54588121623E+01  0.23406663492E+01  0.17130564428E+03  0.17120000000E+03 0.  0.
        998    1    1    2    0    0 -0.21243889671E+02  0.62280424450E+01  0.13766181579E+04  0.13768324677E+04  0.10000000000E+02 0.  1.
</event>
<event>
 5    1  0.1321379E-008  0.3857544E+03  0.7957747E-01  0.3426479E+00
         13   -1    0    0    0    0  0.00000000000E+00  0.00000000000E+00  0.14999999963E+04  0.15000000000E+04  0.10566000000E+00 0.  1.
        994   -1    0    0    0    0 -0.00000000000E+00 -0.00000000000E+00  0.11368683772E-12  0.17120000000E+03  0.17120000000E+03 0.  0.
         13    1    1    2    0    0  0.10541525267E+02  0.80059383924E+01  0.70507037453E+02  0.71738917604E+02  0.10566000000E+00 0.  1.
        994    1    1    2    0    0 -0.42896073110E+01 -0.82649516039E+01  0.15405769363E+01  0.17145997648E+03  0.17120000000E+03 0.  0.
        998    1    1    2    0    0 -0.62519179564E+01  0.25901321154E+00  0.14279523819E+04  0.14280011059E+04  0.10000000000E+02 0.  1.
</event>
<event>
 5    1  0.1321379E-008  0.3784649E+03  0.7957747E-01  0.3457870E+00
         13   -1    0    0    0    0  0.00000000000E+00  0.00000000000E+00  0.14999999963E+04  0.15000000000E+04  0.10566000000E+00 0. -1.
        994   -1    0    0    0    0 -0.00000000000E+00 -0.00000000000E+00  0.11368683772E-12  0.17120000000E+03  0.17120000000E+03 0.  0.
         13    1    1    2    0    0 -0.56251929006E+02 -0.20019043732E+02  0.31883961327E+03  0.32438210768E+03  0.10566000000E+00 0. -1.
        994    1    1    2    0    0  0.36758080160E+02  0.45593242059E+02  0.16522192932E+02  0.18169293613E+03  0.17120000000E+03 0.  0.
        998    1    1    2    0    0  0.19493848846E+02 -0.25574198327E+02  0.11646381901E+04  0.11651249562E+04  0.10000000000E+02 0. -1.
</event>
<event>
 5    1  0.1321379E-008  0.3761679E+03  0.7957747E-01  0.3468016E+00
         13   -1    0    0    0    0  0.00000000000E+00  0.00000000000E+00  0.14999999963E+04  0.15000000000E+04  0.10566000000E+00 0.  1.
        994   -1    0    0    0    0 -0.00000000000E+00 -0.00000000000E+00  0.11368683772E-12  0.17120000000E+03  0.17120000000E+03 0.  0.
         13    1    1    2    0    0 -0.26334383817E+02  0.97900244335E+01  0.61819520199E+02  0.67904407744E+02  0.10566000000E+00 0.  1.
        994    1    1    2    0    0  0.17472872775E+02 -0.15053403976E+02  0.78832360253E+01  0.17292626077E+03  0.17120000000E+03 0.  0.
        998    1    1    2    0    0  0.88615110422E+01  0.52633795425E+01  0.14302972401E+04  0.14303693315E+04  0.10000000000E+02 0.  1.
</event>
<event>
 5    1  0.1321379E-008  0.3770696E+03  0.7957747E-01  0.3464018E+00
         13   -1    0    0    0    0  0.00000000000E+00  0.00000000000E+00  0.14999999963E+04  0.15000000000E+04  0.10566000000E+00 0.  1.
        994   -1    0    0    0    0 -0.00000000000E+00 -0.00000000000E+00  0.11368683772E-12  0.17120000000E+03  0.17120000000E+03 0.  0.
         13    1    1    2    0    0  0.27114319595E+02  0.18240532520E+01  0.18655760138E+02  0.32963040633E+02  0.10566000000E+00 0.  1.
        994    1    1    2    0    0 -0.25976189015E+02 -0.87951347801E-01  0.17149555411E+02  0.17400665902E+03  0.17120000000E+03 0.  0.
        998    1    1    2    0    0 -0.11381305799E+01 -0.17361019042E+01  0.14641946807E+04  0.14642303004E+04  0.10000000000E+02 0.  1.
</event>
<event>
 5    1  0.1321379E-008  0.3808163E+03  0.7957747E-01  0.3447612E+00
         13   -1    0    0    0    0  0.00000000000E+00  0.00000000000E+00  0.14999999963E+04  0.15000000000E+04  0.10566000000E+00 0. -1.
        994   -1    0    0    0    0 -0.00000000000E+00 -0.00000000000E+00  0.11368683772E-12  0.17120000000E+03  0.17120000000E+03 0.  0.
         13    1    1    2    0    0 -0.17239282838E+02 -0.13411289272E+02  0.67202462445E+02  0.70662845084E+02  0.10566000000E+00 0. -1.
        994    1    1    2    0    0 -0.42836983947E+01  0.35142213943E+01  0.38240293268E+01  0.17133231751E+03  0.17120000000E+03 0.  0.
        998    1    1    2    0    0  0.21522981232E+02  0.98970678781E+01  0.14289735045E+04  0.14292048374E+04  0.10000000000E+02 0. -1.
</event>
<event>
 5    1  0.1321379E-008  0.3897005E+03  0.7957747E-01  0.3409978E+00
         13   -1    0    0    0    0  0.00000000000E+00  0.00000000000E+00  0.14999999963E+04  0.15000000000E+04  0.10566000000E+00 0. -1.
        994   -1    0    0    0    0 -0.00000000000E+00 -0.00000000000E+00  0.11368683772E-12  0.17120000000E+03  0.17120000000E+03 0.  0.
         13    1    1    2    0    0  0.86036188593E+02 -0.35341313931E+02  0.16922708754E+03  0.19310373518E+03  0.10566000000E+00 0. -1.
        994    1    1    2    0    0 -0.88811933532E+02  0.32781957047E+02  0.56290247181E+02  0.20356877996E+03  0.17120000000E+03 0.  0.
        998    1    1    2    0    0  0.27757449392E+01  0.25593568842E+01  0.12744826616E+04  0.12745274849E+04  0.10000000000E+02 0. -1.
</event>
<event>
 5    1  0.1321379E-008  0.3710959E+03  0.7957747E-01  0.3490869E+00
         13   -1    0    0    0    0  0.00000000000E+00  0.00000000000E+00  0.14999999963E+04  0.15000000000E+04  0.10566000000E+00 0. -1.
        994   -1    0    0    0    0 -0.00000000000E+00 -0.00000000000E+00  0.11368683772E-12  0.17120000000E+03  0.17120000000E+03 0.  0.
         13    1    1    2    0    0  0.12731865587E+02  0.15793876121E+02  0.12615154205E+02  0.23889332429E+02  0.10566000000E+00 0. -1.
        994    1    1    2    0    0 -0.17076716229E+02 -0.14680803198E+02  0.13301242030E+02  0.17318632527E+03  0.17120000000E+03 0.  0.
        998    1    1    2    0    0  0.43448506419E+01 -0.11130729227E+01  0.14740836000E+04  0.14741243423E+04  0.10000000000E+02 0. -1.
</event>
<event>
 5    1  0.1321379E-008  0.2630207E+03  0.7957747E-01  0.4201415E+00
         13   -1    0    0    0    0  0.00000000000E+00  0.00000000000E+00  0.14999999963E+04  0.15000000000E+04  0.10566000000E+00 0. -1.
        994   -1    0    0    0    0 -0.00000000000E+00 -0.00000000000E+00  0.11368683772E-12  0.17120000000E+03  0.17120000000E+03 0.  0.
         13    1    1    2    0    0 -0.35333222897E+02 -0.20898097896E+03  0.46300975399E+03  0.50921462043E+03  0.10566000000E+00 0. -1.
        994    1    1    2    0    0 -0.19984898182E+02  0.12557042704E+03  0.13067463094E+03  0.25010523280E+03  0.17120000000E+03 0.  0.
        998    1    1    2    0    0  0.55318121080E+02  0.83410551923E+02  0.90631561135E+03  0.91188014677E+03  0.10000000000E+02 0. -1.
</event>
<event>
 5    1  0.1321379E-008  0.3844648E+03  0.7957747E-01  0.3431945E+00
         13   -1    0    0    0    0  0.00000000000E+00  0.00000000000E+00  0.14999999963E+04  0.15000000000E+04  0.10566000000E+00 0.  1.
        994   -1    0    0    0    0 -0.00000000000E+00 -0.00000000000E+00  0.11368683772E-12  0.17120000000E+03  0.17120000000E+03 0.  0.
         13    1    1    2    0    0  0.95148206251E+01  0.16262905147E+02  0.96085068869E+02  0.97915093417E+02  0.10566000000E+00 0.  1.
        994    1    1    2    0    0 -0.82678529288E+01 -0.45075929909E+01  0.21882861348E+01  0.17147275114E+03  0.17120000000E+03 0.  0.
        998    1    1    2    0    0 -0.12469676963E+01 -0.11755312156E+02  0.14017266413E+04  0.14018121554E+04  0.10000000000E+02 0.  1.
</event>
<event>
 5    1  0.1321379E-008  0.3795559E+03  0.7957747E-01  0.3453094E+00
         13   -1    0    0    0    0  0.00000000000E+00  0.00000000000E+00  0.14999999963E+04  0.15000000000E+04  0.10566000000E+00 0.  1.
        994   -1    0    0    0    0 -0.00000000000E+00 -0.00000000000E+00  0.11368683772E-12  0.17120000000E+03  0.17120000000E+03 0.  0.
         13    1    1    2    0    0 -0.57635703456E+01  0.20033007170E+02  0.48249181397E+02  0.52559821051E+02  0.10566000000E+00 0.  1.
        994    1    1    2    0    0  0.22996793287E+01 -0.13334393852E+02  0.49706754145E+01  0.17180582702E+03  0.17120000000E+03 0.  0.
        998    1    1    2    0    0  0.34638910168E+01 -0.66986133183E+01  0.14467801395E+04  0.14468343519E+04  0.10000000000E+02 0.  1.
</event>
<event>
 5    1  0.1321379E-008  0.2785332E+03  0.7957747E-01  0.4062290E+00
         13   -1    0    0    0    0  0.00000000000E+00  0.00000000000E+00  0.14999999963E+04  0.15000000000E+04  0.10566000000E+00 0. -1.
        994   -1    0    0    0    0 -0.00000000000E+00 -0.00000000000E+00  0.11368683772E-12  0.17120000000E+03  0.17120000000E+03 0.  0.
         13    1    1    2    0    0  0.13567308066E+03  0.14533854959E+03  0.62292156116E+03  0.65388206990E+03  0.10566000000E+00 0. -1.
        994    1    1    2    0    0 -0.59022412791E+02 -0.79305428905E+02  0.79165698469E+02  0.21295455872E+03  0.17120000000E+03 0.  0.
        998    1    1    2    0    0 -0.76650667865E+02 -0.66033120689E+02  0.79791273665E+03  0.80436337138E+03  0.10000000000E+02 0. -1.
</event>
<event>
 5    1  0.1321379E-008  0.3842436E+03  0.7957747E-01  0.3432887E+00
         13   -1    0    0    0    0  0.00000000000E+00  0.00000000000E+00  0.14999999963E+04  0.15000000000E+04  0.10566000000E+00 0. -1.
        994   -1    0    0    0    0 -0.00000000000E+00 -0.00000000000E+00  0.11368683772E-12  0.17120000000E+03  0.17120000000E+03 0.  0.
         13    1    1    2    0    0  0.88034393344E+02  0.58124363559E+02  0.25406233085E+03  0.27509303003E+03  0.10566000000E+00 0. -1.
        994    1    1    2    0    0 -0.73952362826E+02 -0.59798493948E+02  0.52789191559E+02  0.20283232137E+03  0.17120000000E+03 0.  0.
        998    1    1    2    0    0 -0.14082030518E+02  0.16741303895E+01  0.11931484739E+04  0.11932746486E+04  0.10000000000E+02 0. -1.
</event>
<event>
 5    1  0.1321379E-008  0.3855774E+03  0.7957747E-01  0.3427227E+00
         13   -1    0    0    0    0  0.00000000000E+00  0.00000000000E+00  0.14999999963E+04  0.15000000000E+04  0.10566000000E+00 0.  1.
        994   -1    0    0    0    0 -0.00000000000E+00 -0.00000000000E+00  0.11368683772E-12  0.17120000000E+03  0.17120000000E+03 0.  0.
         13    1    1    2    0    0  0.52119567298E+01 -0.11767724166E+02  0.70668957285E+02  0.71831445154E+02  0.10566000000E+00 0.  1.
        994    1    1    2    0    0  0.69101944018E+01 -0.68466261107E+01  0.16544257048E+01  0.17148412230E+03  0.17120000000E+03 0.  0.
        998    1    1    2    0    0 -0.12122151132E+02  0.18614350277E+02  0.14276766133E+04  0.14278844325E+04  0.10000000000E+02 0.  1.
</event>
<event>
 5    1  0.1321379E-008  0.3833129E+03  0.7957747E-01  0.3436859E+00
         13   -1    0    0    0    0  0.00000000000E+00  0.00000000000E+00  0.14999999963E+04  0.15000000000E+04  0.10566000000E+00 0.  1.
        994   -1    0    0    0    0 -0.00000000000E+00 -0.00000000000E+00  0.11368683772E-12  0.17120000000E+03  0.17120000000E+03 0.  0.
         13    1    1    2    0    0 -0.19375697652E+01 -0.11163863678E+02  0.24779199450E+02  0.27247126788E+02  0.10566000000E+00 0.  1.
        994    1    1    2    0    0  0.43596446227E+01  0.11551036108E+02  0.29743083612E+01  0.17167038023E+03  0.17120000000E+03 0.  0.
        998    1    1    2    0    0 -0.24220748575E+01 -0.38717243000E+00  0.14722464885E+04  0.14722824930E+04  0.10000000000E+02 0.  1.
</event>
<event>
 5    1  0.1321379E-008  0.3847510E+03  0.7957747E-01  0.3430729E+00
         13   -1    0    0    0    0  0.00000000000E+00  0.00000000000E+00  0.14999999963E+04  0.15000000000E+04  0.10566000000E+00 0.  1.
        994   -1    0    0    0    0 -0.00000000000E+00 -0.00000000000E+00  0.11368683772E-12  0.17120000000E+03  0.17120000000E+03 0.  0.
         13    1    1    2    0    0  0.46145731622E+02 -0.40803766802E+02  0.11157330703E+03  0.12744798915E+03  0.10566000000E+00 0.  1.
        994    1    1    2    0    0  0.27444175020E+02  0.10001424254E+02  0.22114495547E+02  0.17507627521E+03  0.17120000000E+03 0.  0.
        998    1    1    2    0    0 -0.73589906642E+02  0.30802342549E+02  0.13663121937E+04  0.13686757356E+04  0.10000000000E+02 0.  1.
</event>
<event>
 5    1  0.1321379E-008  0.3855980E+03  0.7957747E-01  0.3427140E+00
         13   -1    0    0    0    0  0.00000000000E+00  0.00000000000E+00  0.14999999963E+04  0.15000000000E+04  0.10566000000E+00 0.  1.
        994   -1    0    0    0    0 -0.00000000000E+00 -0.00000000000E+00  0.11368683772E-12  0.17120000000E+03  0.17120000000E+03 0.  0.
         13    1    1    2    0    0  0.43982708467E+02  0.81434498718E+02  0.22713176018E+03  0.24526496667E+03  0.10566000000E+00 0.  1.
        994    1    1    2    0    0  0.12803822963E+02 -0.58116298591E+02  0.32658806950E+02  0.18416698867E+03  0.17120000000E+03 0.  0.
        998    1    1    2    0    0 -0.56786531429E+02 -0.23318200127E+02  0.12402094291E+04  0.12417680447E+04  0.10000000000E+02 0.  1.
</event>
<event>
 5    1  0.1321379E-008  0.3766602E+03  0.7957747E-01  0.3465831E+00
         13   -1    0    0    0    0  0.00000000000E+00  0.00000000000E+00  0.14999999963E+04  0.15000000000E+04  0.10566000000E+00 0. -1.
        994   -1    0    0    0    0 -0.00000000000E+00 -0.00000000000E+00  0.11368683772E-12  0.17120000000E+03  0.17120000000E+03 0.  0.
         13    1    1    2    0    0  0.11744362633E+01  0.22846174605E+02  0.63524774095E+02  0.67518405509E+02  0.10566000000E+00 0. -1.
        994    1    1    2    0    0 -0.28007797242E+02  0.92441947389E+02  0.38047365957E+02  0.20021736288E+03  0.17120000000E+03 0.  0.
        998    1    1    2    0    0  0.26833360978E+02 -0.11528812199E+03  0.13984278562E+04  0.14034642316E+04  0.10000000000E+02 0. -1.
</event>
<event>
 5    1  0.1321379E-008  0.3700208E+03  0.7957747E-01  0.3495796E+00
         13   -1    0    0    0    0  0.00000000000E+00  0.00000000000E+00  0.14999999963E+04  0.15000000000E+04  0.10566000000E+00 0.  1.
        994   -1    0    0    0    0 -0.00000000000E+00 -0.00000000000E+00  0.11368683772E-12  0.17120000000E+03  0.17120000000E+03 0.  0.
         13    1    1    2    0    0  0.13317787712E+03 -0.12236319962E+02  0.67796198572E+03  0.69102716280E+03  0.10566000000E+00 0.  1.
        994    1    1    2    0    0 -0.11189594541E+03 -0.33839504230E+01  0.53924355876E+02  0.21154061047E+03  0.17120000000E+03 0.  0.
        998    1    1    2    0    0 -0.21281931705E+02  0.15620270385E+02  0.76811365468E+03  0.76863222674E+03  0.10000000000E+02 0.  1.
</event>
<event>
 5    1  0.1321379E-008  0.3710725E+03  0.7957747E-01  0.3490976E+00
         13   -1    0    0    0    0  0.00000000000E+00  0.00000000000E+00  0.14999999963E+04  0.15000000000E+04  0.10566000000E+00 0. -1.
        994   -1    0    0    0    0 -0.00000000000E+00 -0.00000000000E+00  0.11368683772E-12  0.17120000000E+03  0.17120000000E+03 0.  0.
         13    1    1    2    0    0 -0.23504041703E+02  0.13268897311E+02  0.38301032904E+02  0.46855991055E+02  0.10566000000E+00 0. -1.
        994    1    1    2    0    0  0.15464413783E+02 -0.10792075480E+02  0.99355711566E+01  0.17252180315E+03  0.17120000000E+03 0.  0.
        998    1    1    2    0    0  0.80396279200E+01 -0.24768218311E+01  0.14517633922E+04  0.14518222058E+04  0.10000000000E+02 0. -1.
</event>
<event>
 5    1  0.1321379E-008  0.3751040E+03  0.7957747E-01  0.3472758E+00
         13   -1    0    0    0    0  0.00000000000E+00  0.00000000000E+00  0.14999999963E+04  0.15000000000E+04  0.10566000000E+00 0.  1.
        994   -1    0    0    0    0 -0.00000000000E+00 -0.00000000000E+00  0.11368683772E-12  0.17120000000E+03  0.17120000000E+03 0.  0.
         13    1    1    2    0    0  0.16502415985E+02 -0.28155848891E+02  0.74212729857E+02  0.81071708980E+02  0.10566000000E+00 0.  1.
        994    1    1    2    0    0 -0.15917099295E+02  0.29792375852E+02  0.10512085414E+02  0.17481671444E+03  0.17120000000E+03 0.  0.
        998    1    1    2    0    0 -0.58531669047E+00 -0.16365269611E+01  0.14152751810E+04  0.14153115766E+04  0.10000000000E+02 0.  1.
</event>
<event>
 5    1  0.1321379E-008  0.3936633E+03  0.7957747E-01  0.3393741E+00
         13   -1    0    0    0    0  0.00000000000E+00  0.00000000000E+00  0.14999999963E+04  0.15000000000E+04  0.10566000000E+00 0.  1.
        994   -1    0    0    0    0 -0.00000000000E+00 -0.00000000000E+00  0.11368683772E-12  0.17120000000E+03  0.17120000000E+03 0.  0.
         13    1    1    2    0    0  0.60921167814E+02 -0.21003513322E+02  0.77001454269E+02  0.10040802450E+03  0.10566000000E+00 0.  1.
        994    1    1    2    0    0 -0.34978461442E+02  0.58017035999E+02  0.41779451752E+02  0.18879733001E+03  0.17120000000E+03 0.  0.
        998    1    1    2    0    0 -0.25942706372E+02 -0.37013522677E+02  0.13812190903E+04  0.13819946455E+04  0.10000000000E+02 0.  1.
</event>
<event>
 5    1  0.1321379E-008  0.3698660E+03  0.7957747E-01  0.3496507E+00
         13   -1    0    0    0    0  0.00000000000E+00  0.00000000000E+00  0.14999999963E+04  0.15000000000E+04  0.10566000000E+00 0.  1.
        994   -1    0    0    0    0 -0.00000000000E+00 -0.00000000000E+00  0.11368683772E-12  0.17120000000E+03  0.17120000000E+03 0.  0.
         13    1    1    2    0    0 -0.56802738281E+02  0.16401583095E+03  0.75376271917E+03  0.77348949046E+03  0.10566000000E+00 0.  1.
        994    1    1    2    0    0  0.62722007873E+02 -0.14536160206E+03  0.10438044147E+03  0.25547751797E+03  0.17120000000E+03 0.  0.
        998    1    1    2    0    0 -0.59192695920E+01 -0.18654228884E+02  0.64185683564E+03  0.64223299157E+03  0.10000000000E+02 0.  0.
</event>
<event>
 5    1  0.1321379E-008  0.3925749E+03  0.7957747E-01  0.3398168E+00
         13   -1    0    0    0    0  0.00000000000E+00  0.00000000000E+00  0.14999999963E+04  0.15000000000E+04  0.10566000000E+00 0. -1.
        994   -1    0    0    0    0 -0.00000000000E+00 -0.00000000000E+00  0.11368683772E-12  0.17120000000E+03  0.17120000000E+03 0.  0.
         13    1    1    2    0    0  0.80660788277E+02 -0.21302698716E+02  0.14840315711E+03  0.17024534044E+03  0.10566000000E+00 0. -1.
        994    1    1    2    0    0 -0.47724527141E+02 -0.15667514411E+02  0.33064008472E+02  0.18145459530E+03  0.17120000000E+03 0.  0.
        998    1    1    2    0    0 -0.32936261136E+02  0.36970213127E+02  0.13185328307E+04  0.13195000643E+04  0.10000000000E+02 0. -1.
</event>
<event>
 5    1  0.1321379E-008  0.3793329E+03  0.7957747E-01  0.3454068E+00
         13   -1    0    0    0    0  0.00000000000E+00  0.00000000000E+00  0.14999999963E+04  0.15000000000E+04  0.10566000000E+00 0. -1.
        994   -1    0    0    0    0 -0.00000000000E+00 -0.00000000000E+00  0.11368683772E-12  0.17120000000E+03  0.17120000000E+03 0.  0.
         13    1    1    2    0    0  0.16905661966E+03 -0.12286085877E+03  0.82279334185E+03  0.84891921043E+03  0.10566000000E+00 0. -1.
        994    1    1    2    0    0 -0.19387156240E+03  0.13846095286E+03  0.22681666118E+03  0.37082725893E+03  0.17120000000E+03 0.  0.
        998    1    1    2    0    0  0.24814942740E+02 -0.15600094094E+02  0.45038999324E+03  0.45145353064E+03  0.10000000000E+02 0. -1.
</event>
<event>
 5    1  0.1321379E-008  0.3916238E+03  0.7957747E-01  0.3402057E+00
         13   -1    0    0    0    0  0.00000000000E+00  0.00000000000E+00  0.14999999963E+04  0.15000000000E+04  0.10566000000E+00 0.  1.
        994   -1    0    0    0    0 -0.00000000000E+00 -0.00000000000E+00  0.11368683772E-12  0.17120000000E+03  0.17120000000E+03 0.  0.
         13    1    1    2    0    0  0.92251214528E+02 -0.31134431283E+02  0.28239402204E+03  0.29870727182E+03  0.10566000000E+00 0.  1.
        994    1    1    2    0    0  0.31588338404E+02  0.62585848383E+02  0.41721041688E+02  0.18964413215E+03  0.17120000000E+03 0.  0.
        998    1    1    2    0    0 -0.12383955293E+03 -0.31451417100E+02  0.11758849326E+04  0.11828485960E+04  0.10000000000E+02 0.  1.
</event>
<event>
 5    1  0.1321379E-008  0.3839308E+03  0.7957747E-01  0.3434220E+00
         13   -1    0    0    0    0  0.00000000000E+00  0.00000000000E+00  0.14999999963E+04  0.15000000000E+04  0.10566000000E+00 0.  1.
        994   -1    0    0    0    0 -0.00000000000E+00 -0.00000000000E+00  0.11368683772E-12  0.17120000000E+03  0.17120000000E+03 0.  0.
         13    1    1    2    0    0  0.18526398882E+02 -0.94744013475E+01  0.10137838915E+03  0.10349193538E+03  0.10566000000E+00 0.  1.
        994    1    1    2    0    0 -0.85638035185E+01  0.66084693279E+01  0.25481652398E+01  0.17156032101E+03  0.17120000000E+03 0.  0.
        998    1    1    2    0    0 -0.99625953636E+01  0.28659320196E+01  0.13960734419E+04  0.13961477436E+04  0.10000000000E+02 0.  1.
</event>
<event>
 5    1  0.1321379E-008  0.3799783E+03  0.7957747E-01  0.3451253E+00
         13   -1    0    0    0    0  0.00000000000E+00  0.00000000000E+00  0.14999999963E+04  0.15000000000E+04  0.10566000000E+00 0. -1.
        994   -1    0    0    0    0 -0.00000000000E+00 -0.00000000000E+00  0.11368683772E-12  0.17120000000E+03  0.17120000000E+03 0.  0.
         13    1    1    2    0    0 -0.38822142718E+02 -0.21830066291E+01  0.17818508859E+03  0.18237834642E+03  0.10566000000E+00 0. -1.
        994    1    1    2    0    0  0.24776068226E+02  0.22750072431E+01  0.62163560095E+01  0.17311011610E+03  0.17120000000E+03 0.  0.
        998    1    1    2    0    0  0.14046074492E+02 -0.92000614035E-01  0.13155985517E+04  0.13157115375E+04  0.10000000000E+02 0. -1.
</event>
<event>
 5    1  0.1321379E-008  0.3846710E+03  0.7957747E-01  0.3431069E+00
         13   -1    0    0    0    0  0.00000000000E+00  0.00000000000E+00  0.14999999963E+04  0.15000000000E+04  0.10566000000E+00 0.  1.
        994   -1    0    0    0    0 -0.00000000000E+00 -0.00000000000E+00  0.11368683772E-12  0.17120000000E+03  0.17120000000E+03 0.  0.
         13    1    1    2    0    0  0.15901687927E+01  0.14798824743E+02  0.66067400063E+02  0.67723307404E+02  0.10566000000E+00 0.  1.
        994    1    1    2    0    0  0.85297827002E+01  0.54879738509E+00  0.20341338724E+01  0.17142530756E+03  0.17120000000E+03 0.  0.
        998    1    1    2    0    0 -0.10119951493E+02 -0.15347622128E+02  0.14318984623E+04  0.14320513850E+04  0.10000000000E+02 0.  1.
</event>
<event>
 5    1  0.1321379E-008  0.3828388E+03  0.7957747E-01  0.3438890E+00
         13   -1    0    0    0    0  0.00000000000E+00  0.00000000000E+00  0.14999999963E+04  0.15000000000E+04  0.10566000000E+00 0. -1.
        994   -1    0    0    0    0 -0.00000000000E+00 -0.00000000000E+00  0.11368683772E-12  0.17120000000E+03  0.17120000000E+03 0.  0.
         13    1    1    2    0    0  0.27453307381E+00  0.16765396977E+02  0.53936682880E+02  0.56483013627E+02  0.10566000000E+00 0. -1.
        994    1    1    2    0    0 -0.43108952444E+01  0.67598658875E+00  0.27699924293E+01  0.17127800102E+03  0.17120000000E+03 0.  0.
        998    1    1    2    0    0  0.40363621706E+01 -0.17441383566E+02  0.14432933210E+04  0.14434389854E+04  0.10000000000E+02 0. -1.
</event>
<event>
 5    1  0.1321379E-008  0.3808195E+03  0.7957747E-01  0.3447598E+00
         13   -1    0    0    0    0  0.00000000000E+00  0.00000000000E+00  0.14999999963E+04  0.15000000000E+04  0.10566000000E+00 0. -1.
        994   -1    0    0    0    0 -0.00000000000E+00 -0.00000000000E+00  0.11368683772E-12  0.17120000000E+03  0.17120000000E+03 0.  0.
         13    1    1    2    0    0  0.89456178534E+02  0.72157915361E+02  0.65055630620E+03  0.66063052558E+03  0.10566000000E+00 0. -1.
        994    1    1    2    0    0 -0.15547014287E+02 -0.56027962052E+01  0.17771367844E+02  0.17291142962E+03  0.17120000000E+03 0.  0.
        998    1    1    2    0    0 -0.73909164247E+02 -0.66555119156E+02  0.83167232224E+03  0.83765804480E+03  0.10000000000E+02 0.  1.
</event>
<event>
 5    1  0.1544194E-008  0.3861151E+03  0.7957747E-01  0.3424957E+00
         13   -1    0    0    0    0  0.00000000000E+00  0.00000000000E+00  0.14999999963E+04  0.15000000000E+04  0.10566000000E+00 0. -1.
        994   -1    0    0    0    0 -0.00000000000E+00 -0.00000000000E+00  0.11368683772E-12  0.17120000000E+03  0.17120000000E+03 0.  0.
         13    1    1    2    0    0 -0.37857492266E+01 -0.10643437487E+02  0.60701426225E+02  0.61743736270E+02  0.10566000000E+00 0. -1.
        994    1    1    2    0    0  0.14841289743E+01  0.59255027511E+01  0.11997998647E+01  0.17131314527E+03  0.17120000000E+03 0.  0.
        998    1    1    2    0    0  0.23016202523E+01  0.47179347355E+01  0.14380987702E+04  0.14381431185E+04  0.10000000000E+02 0. -1.
</event>
<event>
 5    1  0.1321379E-008  0.3802384E+03  0.7957747E-01  0.3450121E+00
         13   -1    0    0    0    0  0.00000000000E+00  0.00000000000E+00  0.14999999963E+04  0.15000000000E+04  0.10566000000E+00 0.  1.
        994   -1    0    0    0    0 -0.00000000000E+00 -0.00000000000E+00  0.11368683772E-12  0.17120000000E+03  0.17120000000E+03 0.  0.
         13    1    1    2    0    0 -0.44293020580E+02  0.54127525637E+01  0.22725709358E+03  0.23159656152E+03  0.10566000000E+00 0.  1.
        994    1    1    2    0    0  0.40369454357E+02  0.23423020296E+02  0.11323609790E+02  0.17780887172E+03  0.17120000000E+03 0.  0.
        998    1    1    2    0    0  0.39235662232E+01 -0.28835772860E+02  0.12614192929E+04  0.12617945668E+04  0.10000000000E+02 0.  1.
</event>
<event>
 5    1  0.1321379E-008  0.3841836E+03  0.7957747E-01  0.3433142E+00
         13   -1    0    0    0    0  0.00000000000E+00  0.00000000000E+00  0.14999999963E+04  0.15000000000E+04  0.10566000000E+00 0.  1.
        994   -1    0    0    0    0 -0.00000000000E+00 -0.00000000000E+00  0.11368683772E-12  0.17120000000E+03  0.17120000000E+03 0.  0.
         13    1    1    2    0    0 -0.71493858454E+01 -0.19287513672E+02  0.97096630237E+02  0.99251643156E+02  0.10566000000E+00 0.  1.
        994    1    1    2    0    0 -0.80570927755E+00  0.24184457247E+02  0.39691301521E+01  0.17294719175E+03  0.17120000000E+03 0.  0.
        998    1    1    2    0    0  0.79550951229E+01 -0.48969435750E+01  0.13989342359E+04  0.13990011651E+04  0.10000000000E+02 0.  1.
</event>
<event>
 5    1  0.1321379E-008  0.3856182E+03  0.7957747E-01  0.3427055E+00
         13   -1    0    0    0    0  0.00000000000E+00  0.00000000000E+00  0.14999999963E+04  0.15000000000E+04  0.10566000000E+00 0.  1.
        994   -1    0    0    0    0 -0.00000000000E+00 -0.00000000000E+00  0.11368683772E-12  0.17120000000E+03  0.17120000000E+03 0.  0.
         13    1    1    2    0    0 -0.11376467814E+02 -0.17946955307E+01  0.51358584387E+02  0.52634212317E+02  0.10566000000E+00 0.  1.
        994    1    1    2    0    0  0.55531520626E+01 -0.45118451206E+01  0.14915742918E+01  0.17135594252E+03  0.17120000000E+03 0.  0.
        998    1    1    2    0    0  0.58233157514E+01  0.63065406513E+01  0.14471498376E+04  0.14472098452E+04  0.10000000000E+02 0.  1.
</event>
<event>
 5    1  0.1321379E-008  0.3700717E+03  0.7957747E-01  0.3495561E+00
         13   -1    0    0    0    0  0.00000000000E+00  0.00000000000E+00  0.14999999963E+04  0.15000000000E+04  0.10566000000E+00 0.  1.
        994   -1    0    0    0    0 -0.00000000000E+00 -0.00000000000E+00  0.11368683772E-12  0.17120000000E+03  0.17120000000E+03 0.  0.
         13    1    1    2    0    0  0.27250308224E+02 -0.67253432016E+02  0.31461970939E+03  0.32287950712E+03  0.10566000000E+00 0.  1.
        994    1    1    2    0    0 -0.39443347301E+02 -0.15126496634E+02  0.17243245359E+02  0.17717606514E+03  0.17120000000E+03 0.  0.
        998    1    1    2    0    0  0.12193039078E+02  0.82379928649E+02  0.11681370415E+04  0.11711444277E+04  0.10000000000E+02 0.  1.
</event>
<event>
 5    1  0.1321379E-008  0.3809740E+03  0.7957747E-01  0.3446928E+00
         13   -1    0    0    0    0  0.00000000000E+00  0.00000000000E+00  0.14999999963E+04  0.15000000000E+04  0.10566000000E+00 0.  1.
        994   -1    0    0    0    0 -0.00000000000E+00 -0.00000000000E+00  0.11368683772E-12  0.17120000000E+03  0.17120000000E+03 0.  0.
         13    1    1    2    0    0 -0.32754692676E+01  0.10040644561E+02  0.13767402007E+02  0.17352111231E+02  0.10566000000E+00 0.  1.
        994    1    1    2    0    0  0.18953504629E+01 -0.71005672420E+01  0.38222843626E+01  0.17140029249E+03  0.17120000000E+03 0.  0.
        998    1    1    2    0    0  0.13801188047E+01 -0.29400773189E+01  0.14824103099E+04  0.14824475963E+04  0.10000000000E+02 0.  1.
</event>
<event>
 5    1  0.1321379E-008  0.4262333E+03  0.7957747E-01  0.3271646E+00
         13   -1    0    0    0    0  0.00000000000E+00  0.00000000000E+00  0.14999999963E+04  0.15000000000E+04  0.10566000000E+00 0. -1.
        994   -1    0    0    0    0 -0.00000000000E+00 -0.00000000000E+00  0.11368683772E-12  0.17120000000E+03  0.17120000000E+03 0.  0.
         13    1    1    2    0    0 -0.72827830705E+02  0.32947397824E+02  0.56957483083E+02  0.98150853241E+02  0.10566000000E+00 0. -1.
        994    1    1    2    0    0  0.68739753010E+02 -0.24596457567E+02  0.68322468770E+02  0.19826128999E+03  0.17120000000E+03 0.  0.
        998    1    1    2    0    0  0.40880776952E+01 -0.83509402568E+01  0.13747200444E+04  0.13747878568E+04  0.10000000000E+02 0. -1.
</event>
<event>
 5    1  0.1321379E-008  0.3799021E+03  0.7957747E-01  0.3451585E+00
         13   -1    0    0    0    0  0.00000000000E+00  0.00000000000E+00  0.14999999963E+04  0.15000000000E+04  0.10566000000E+00 0.  1.
        994   -1    0    0    0    0 -0.00000000000E+00 -0.00000000000E+00  0.11368683772E-12  0.17120000000E+03  0.17120000000E+03 0.  0.
         13    1    1    2    0    0 -0.25474960025E+02 -0.45827992420E+01  0.14076554512E+02  0.29464150898E+02  0.10566000000E+00 0.  1.
        994    1    1    2    0    0  0.10992640732E+02 -0.18239390872E+02  0.17917871724E+02  0.17344740891E+03  0.17120000000E+03 0.  0.
        998    1    1    2    0    0  0.14482319293E+02  0.22822190114E+02  0.14680055700E+04  0.14682884402E+04  0.10000000000E+02 0.  1.
</event>
<event>
 5    1  0.1321379E-008  0.3859067E+03  0.7957747E-01  0.3425836E+00
         13   -1    0    0    0    0  0.00000000000E+00  0.00000000000E+00  0.14999999963E+04  0.15000000000E+04  0.10566000000E+00 0.  1.
        994   -1    0    0    0    0 -0.00000000000E+00 -0.00000000000E+00  0.11368683772E-12  0.17120000000E+03  0.17120000000E+03 0.  0.
         13    1    1    2    0    0 -0.99716801311E+01  0.36411154463E+01  0.48931081436E+02  0.50069491917E+02  0.10566000000E+00 0.  1.
        994    1    1    2    0    0  0.19096909547E+01 -0.90820036952E+01  0.14631319832E+01  0.17145760545E+03  0.17120000000E+03 0.  0.
        998    1    1    2    0    0  0.80619891764E+01  0.54408882488E+01  0.14496057829E+04  0.14496729026E+04  0.10000000000E+02 0.  1.
</event>
<event>
 5    1  0.1321379E-008  0.3838249E+03  0.7957747E-01  0.3434671E+00
         13   -1    0    0    0    0  0.00000000000E+00  0.00000000000E+00  0.14999999963E+04  0.15000000000E+04  0.10566000000E+00 0.  1.
        994   -1    0    0    0    0 -0.00000000000E+00 -0.00000000000E+00  0.11368683772E-12  0.17120000000E+03  0.17120000000E+03 0.  0.
         13    1    1    2    0    0 -0.10803074759E+02  0.12442005207E+02  0.67066598464E+02  0.69061202650E+02  0.10566000000E+00 0.  1.
        994    1    1    2    0    0 -0.89854143916E+01  0.82305913535E+00  0.24835163286E+01  0.17145560053E+03  0.17120000000E+03 0.  0.
        998    1    1    2    0    0  0.19788489150E+02 -0.13265064342E+02  0.14304498815E+04  0.14306831968E+04  0.10000000000E+02 0.  1.
</event>
<event>
 5    1  0.1321379E-008  0.3707715E+03  0.7957747E-01  0.3492353E+00
         13   -1    0    0    0    0  0.00000000000E+00  0.00000000000E+00  0.14999999963E+04  0.15000000000E+04  0.10566000000E+00 0.  1.
        994   -1    0    0    0    0 -0.00000000000E+00 -0.00000000000E+00  0.11368683772E-12  0.17120000000E+03  0.17120000000E+03 0.  0.
         13    1    1    2    0    0  0.44806489869E+02  0.40702176068E+02  0.16355972435E+03  0.17440207356E+03  0.10566000000E+00 0.  1.
        994    1    1    2    0    0 -0.33722609846E+02 -0.56146032616E+01  0.15455366954E+02  0.17526279283E+03  0.17120000000E+03 0.  0.
        998    1    1    2    0    0 -0.11083880022E+02 -0.35087572806E+02  0.13209849050E+04  0.13215351336E+04  0.10000000000E+02 0.  0.
</event>
<event>
 5    1  0.1321379E-008  0.3834292E+03  0.7957747E-01  0.3436362E+00
         13   -1    0    0    0    0  0.00000000000E+00  0.00000000000E+00  0.14999999963E+04  0.15000000000E+04  0.10566000000E+00 0. -1.
        994   -1    0    0    0    0 -0.00000000000E+00 -0.00000000000E+00  0.11368683772E-12  0.17120000000E+03  0.17120000000E+03 0.  0.
         13    1    1    2    0    0 -0.14327027724E+02  0.19783448902E+02  0.11394928371E+03  0.11653797234E+03  0.10566000000E+00 0. -1.
        994    1    1    2    0    0  0.14307598822E+02 -0.21854070108E+02  0.46706609655E+01  0.17324422887E+03  0.17120000000E+03 0.  0.
        998    1    1    2    0    0  0.19428902149E-01  0.20706212055E+01  0.13813800516E+04  0.13814177988E+04  0.10000000000E+02 0. -1.
</event>
<event>
 5    1  0.1321379E-008  0.3854590E+03  0.7957747E-01  0.3427728E+00
         13   -1    0    0    0    0  0.00000000000E+00  0.00000000000E+00  0.14999999963E+04  0.15000000000E+04  0.10566000000E+00 0.  1.
        994   -1    0    0    0    0 -0.00000000000E+00 -0.00000000000E+00  0.11368683772E-12  0.17120000000E+03  0.17120000000E+03 0.  0.
         13    1    1    2    0    0  0.25580064629E+01 -0.15401127219E+02  0.90785725755E+02  0.92118387316E+02  0.10566000000E+00 0.  1.
        994    1    1    2    0    0  0.20647600360E+02  0.96331437156E+01  0.31089632710E+01  0.17273744965E+03  0.17120000000E+03 0.  0.
        998    1    1    2    0    0 -0.23205606823E+02  0.57679835036E+01  0.14061053073E+04  0.14063441630E+04  0.10000000000E+02 0.  1.
</event>
<event>
 5    1  0.1321379E-008  0.3984616E+03  0.7957747E-01  0.3374512E+00
         13   -1    0    0    0    0  0.00000000000E+00  0.00000000000E+00  0.14999999963E+04  0.15000000000E+04  0.10566000000E+00 0. -1.
        994   -1    0    0    0    0 -0.00000000000E+00 -0.00000000000E+00  0.11368683772E-12  0.17120000000E+03  0.17120000000E+03 0.  0.
         13    1    1    2    0    0  0.24926556831E+00  0.10309401047E+03  0.17553775499E+03  0.20357296412E+03  0.10566000000E+00 0. -1.
        994    1    1    2    0    0  0.60469992248E+00 -0.90794460447E+02  0.59713333907E+02  0.20277850467E+03  0.17120000000E+03 0.  0.
        998    1    1    2    0    0 -0.85396549079E+00 -0.12299550026E+02  0.12647489074E+04  0.12648485312E+04  0.10000000000E+02 0. -1.
</event>
<event>
 5    1  0.1321379E-008  0.3785972E+03  0.7957747E-01  0.3457289E+00
         13   -1    0    0    0    0  0.00000000000E+00  0.00000000000E+00  0.14999999963E+04  0.15000000000E+04  0.10566000000E+00 0. -1.
        994   -1    0    0    0    0 -0.00000000000E+00 -0.00000000000E+00  0.11368683772E-12  0.17120000000E+03  0.17120000000E+03 0.  0.
         13    1    1    2    0    0  0.29735889256E+02  0.65328487682E+02  0.42069074017E+03  0.42677013068E+03  0.10566000000E+00 0. -1.
        994    1    1    2    0    0 -0.50015241508E+01 -0.68628634903E+02  0.20913246022E+02  0.18569251097E+03  0.17120000000E+03 0.  0.
        998    1    1    2    0    0 -0.24734365105E+02  0.33001472211E+01  0.10583960101E+04  0.10587373583E+04  0.10000000000E+02 0. -1.
</event>
<event>
 5    1  0.1321379E-008  0.3703403E+03  0.7957747E-01  0.3494329E+00
         13   -1    0    0    0    0  0.00000000000E+00  0.00000000000E+00  0.14999999963E+04  0.15000000000E+04  0.10566000000E+00 0. -1.
        994   -1    0    0    0    0 -0.00000000000E+00 -0.00000000000E+00  0.11368683772E-12  0.17120000000E+03  0.17120000000E+03 0.  0.
         13    1    1    2    0    0  0.64743898565E+01  0.24502101865E+02  0.23691236006E+02  0.34692312511E+02  0.10566000000E+00 0. -1.
        994    1    1    2    0    0 -0.17337906285E+02 -0.24146670190E+02  0.14218025867E+02  0.17434235554E+03  0.17120000000E+03 0.  0.
        998    1    1    2    0    0  0.10863516429E+02 -0.35543167533E+00  0.14620907344E+04  0.14621653319E+04  0.10000000000E+02 0. -1.
</event>
<event>
 5    1  0.1321379E-008  0.3837817E+03  0.7957747E-01  0.3434856E+00
         13   -1    0    0    0    0  0.00000000000E+00  0.00000000000E+00  0.14999999963E+04  0.15000000000E+04  0.10566000000E+00 0.  1.
        994   -1    0    0    0    0 -0.00000000000E+00 -0.00000000000E+00  0.11368683772E-12  0.17120000000E+03  0.17120000000E+03 0.  0.
         13    1    1    2    0    0  0.71996736565E+01  0.99632997078E+01  0.32979465051E+02  0.35196007173E+02  0.10566000000E+00 0.  1.
        994    1    1    2    0    0 -0.69042059942E+01 -0.69103049749E+01  0.25513254230E+01  0.17149743332E+03  0.17120000000E+03 0.  0.
        998    1    1    2    0    0 -0.29546766231E+00 -0.30529947329E+01  0.14644692058E+04  0.14645065595E+04  0.10000000000E+02 0.  1.
</event>
<event>
 5    1  0.1321379E-008  0.3791559E+03  0.7957747E-01  0.3454842E+00
         13   -1    0    0    0    0  0.00000000000E+00  0.00000000000E+00  0.14999999963E+04  0.15000000000E+04  0.10566000000E+00 0. -1.
        994   -1    0    0    0    0 -0.00000000000E+00 -0.00000000000E+00  0.11368683772E-12  0.17120000000E+03  0.17120000000E+03 0.  0.
         13    1    1    2    0    0 -0.18121827102E+02  0.16674057013E+02  0.62469541902E+02  0.67148191518E+02  0.10566000000E+00 0. -1.
        994    1    1    2    0    0  0.18878761865E+02 -0.16367534656E+02  0.66554967411E+01  0.17314167458E+03  0.17120000000E+03 0.  0.
        998    1    1    2    0    0 -0.75693476305E+00 -0.30652235696E+00  0.14308749576E+04  0.14309101339E+04  0.10000000000E+02 0. -1.
</event>
<event>
 5    1  0.1321379E-008  0.3815506E+03  0.7957747E-01  0.3444434E+00
         13   -1    0    0    0    0  0.00000000000E+00  0.00000000000E+00  0.14999999963E+04  0.15000000000E+04  0.10566000000E+00 0.  1.
        994   -1    0    0    0    0 -0.00000000000E+00 -0.00000000000E+00  0.11368683772E-12  0.17120000000E+03  0.17120000000E+03 0.  0.
         13    1    1    2    0    0  0.26732951515E+02  0.15735570121E+02  0.13919742204E+03  0.14261203431E+03  0.10566000000E+00 0.  1.
        994    1    1    2    0    0 -0.17996941148E+02 -0.12510916397E+02  0.49518551224E+01  0.17266839256E+03  0.17120000000E+03 0.  0.
        998    1    1    2    0    0 -0.87360103669E+01 -0.32246537236E+01  0.13558507191E+04  0.13559195731E+04  0.10000000000E+02 0.  1.
</event>
<event>
 5    1  0.1321379E-008  0.3862003E+03  0.7957747E-01  0.3424597E+00
         13   -1    0    0    0    0  0.00000000000E+00  0.00000000000E+00  0.14999999963E+04  0.15000000000E+04  0.10566000000E+00 0.  1.
        994   -1    0    0    0    0 -0.00000000000E+00 -0.00000000000E+00  0.11368683772E-12  0.17120000000E+03  0.17120000000E+03 0.  0.
         13    1    1    2    0    0  0.87886882925E+01 -0.60735589302E+01  0.55874873092E+02  0.56887096666E+02  0.10566000000E+00 0.  1.
        994    1    1    2    0    0 -0.51238520539E+01  0.56058160791E+01  0.12243476902E+01  0.17137274597E+03  0.17120000000E+03 0.  0.
        998    1    1    2    0    0 -0.36648362386E+01  0.46774285111E+00  0.14429007755E+04  0.14429401574E+04  0.10000000000E+02 0.  1.
</event>
<event>
 5    1  0.1321379E-008  0.3835214E+03  0.7957747E-01  0.3435968E+00
         13   -1    0    0    0    0  0.00000000000E+00  0.00000000000E+00  0.14999999963E+04  0.15000000000E+04  0.10566000000E+00 0.  1.
        994   -1    0    0    0    0 -0.00000000000E+00 -0.00000000000E+00  0.11368683772E-12  0.17120000000E+03  0.17120000000E+03 0.  0.
         13    1    1    2    0    0 -0.97748413669E+01 -0.45421540524E+01  0.23720255250E+02  0.26054565058E+02  0.10566000000E+00 0.  1.
        994    1    1    2    0    0  0.69614474042E+01  0.38392897301E+01  0.25749142999E+01  0.17140382749E+03  0.17120000000E+03 0.  0.
        998    1    1    2    0    0  0.28133939627E+01  0.70286432226E+00  0.14737048267E+04  0.14737416074E+04  0.10000000000E+02 0.  1.
</event>
<event>
 5    1  0.1321379E-008  0.3842135E+03  0.7957747E-01  0.3433014E+00
         13   -1    0    0    0    0  0.00000000000E+00  0.00000000000E+00  0.14999999963E+04  0.15000000000E+04  0.10566000000E+00 0.  1.
        994   -1    0    0    0    0 -0.00000000000E+00 -0.00000000000E+00  0.11368683772E-12  0.17120000000E+03  0.17120000000E+03 0.  0.
         13    1    1    2    0    0 -0.14480694353E+02 -0.20223578168E+01  0.55054316262E+02  0.56962876887E+02  0.10566000000E+00 0.  1.
        994    1    1    2    0    0 -0.68710284047E+00  0.11566323304E+02  0.24638615456E+01  0.17160933121E+03  0.17120000000E+03 0.  0.
        998    1    1    2    0    0  0.15167797193E+02 -0.95439654873E+01  0.14424818185E+04  0.14426277919E+04  0.10000000000E+02 0.  1.
</event>
<event>
 5    1  0.1321379E-008  0.3719885E+03  0.7957747E-01  0.3486802E+00
         13   -1    0    0    0    0  0.00000000000E+00  0.00000000000E+00  0.14999999963E+04  0.15000000000E+04  0.10566000000E+00 0. -1.
        994   -1    0    0    0    0 -0.00000000000E+00 -0.00000000000E+00  0.11368683772E-12  0.17120000000E+03  0.17120000000E+03 0.  0.
         13    1    1    2    0    0  0.22671894336E+02  0.12488692311E+03  0.57003423080E+03  0.58399468645E+03  0.10566000000E+00 0. -1.
        994    1    1    2    0    0 -0.77776856987E+02 -0.86368112331E+02  0.61201994758E+02  0.21578650206E+03  0.17120000000E+03 0.  0.
        998    1    1    2    0    0  0.55104962651E+02 -0.38518810776E+02  0.86876377072E+03  0.87141881148E+03  0.10000000000E+02 0. -1.
</event>
<event>
 5    1  0.1321379E-008  0.3793837E+03  0.7957747E-01  0.3453846E+00
         13   -1    0    0    0    0  0.00000000000E+00  0.00000000000E+00  0.14999999963E+04  0.15000000000E+04  0.10566000000E+00 0. -1.
        994   -1    0    0    0    0 -0.00000000000E+00 -0.00000000000E+00  0.11368683772E-12  0.17120000000E+03  0.17120000000E+03 0.  0.
         13    1    1    2    0    0 -0.18026918953E+02 -0.13420631546E+02  0.56831937379E+02  0.61114347156E+02  0.10566000000E+00 0. -1.
        994    1    1    2    0    0 -0.11694173948E+01  0.12995115074E+02  0.50150461550E+01  0.17176970408E+03  0.17120000000E+03 0.  0.
        998    1    1    2    0    0  0.19196336348E+02  0.42551647231E+00  0.14381530127E+04  0.14383159488E+04  0.10000000000E+02 0. -1.
</event>
<event>
 5    1  0.1321379E-008  0.3704496E+03  0.7957747E-01  0.3493827E+00
         13   -1    0    0    0    0  0.00000000000E+00  0.00000000000E+00  0.14999999963E+04  0.15000000000E+04  0.10566000000E+00 0.  1.
        994   -1    0    0    0    0 -0.00000000000E+00 -0.00000000000E+00  0.11368683772E-12  0.17120000000E+03  0.17120000000E+03 0.  0.
         13    1    1    2    0    0  0.22475919196E+02  0.37824678050E+02  0.10477384184E+03  0.11363732799E+03  0.10566000000E+00 0.  1.
        994    1    1    2    0    0 -0.34202809118E+02 -0.93781047477E+01  0.13388930289E+02  0.17534675490E+03  0.17120000000E+03 0.  0.
        998    1    1    2    0    0  0.11726889921E+02 -0.28446573302E+02  0.13818372241E+04  0.13822159171E+04  0.10000000000E+02 0.  1.
</event>
<event>
 5    1  0.1321379E-008  0.3824291E+03  0.7957747E-01  0.3440649E+00
         13   -1    0    0    0    0  0.00000000000E+00  0.00000000000E+00  0.14999999963E+04  0.15000000000E+04  0.10566000000E+00 0.  1.
        994   -1    0    0    0    0 -0.00000000000E+00 -0.00000000000E+00  0.11368683772E-12  0.17120000000E+03  0.17120000000E+03 0.  0.
         13    1    1    2    0    0  0.76439190938E+01 -0.20745926245E+02  0.91825534638E+02  0.94449790526E+02  0.10566000000E+00 0.  1.
        994    1    1    2    0    0 -0.52150735452E+00 -0.37963563019E+01  0.29606486932E+01  0.17126847267E+03  0.17120000000E+03 0.  0.
        998    1    1    2    0    0 -0.71224117393E+01  0.24542282547E+02  0.14052138129E+04  0.14054817368E+04  0.10000000000E+02 0.  1.
</event>
<event>
 5    1  0.1321379E-008  0.3784414E+03  0.7957747E-01  0.3457973E+00
         13   -1    0    0    0    0  0.00000000000E+00  0.00000000000E+00  0.14999999963E+04  0.15000000000E+04  0.10566000000E+00 0.  1.
        994   -1    0    0    0    0 -0.00000000000E+00 -0.00000000000E+00  0.11368683772E-12  0.17120000000E+03  0.17120000000E+03 0.  0.
         13    1    1    2    0    0 -0.12111164196E+02 -0.11502965971E+02  0.25735306301E+02  0.30680868286E+02  0.10566000000E+00 0.  1.
        994    1    1    2    0    0  0.14717256396E+02  0.12823204733E+02  0.62033867836E+01  0.17242086365E+03  0.17120000000E+03 0.  0.
        998    1    1    2    0    0 -0.26060921998E+01 -0.13202387614E+01  0.14680613032E+04  0.14680982681E+04  0.10000000000E+02 0.  1.
</event>
<event>
 5    1  0.1321379E-008  0.3707261E+03  0.7957747E-01  0.3492560E+00
         13   -1    0    0    0    0  0.00000000000E+00  0.00000000000E+00  0.14999999963E+04  0.15000000000E+04  0.10566000000E+00 0. -1.
        994   -1    0    0    0    0 -0.00000000000E+00 -0.00000000000E+00  0.11368683772E-12  0.17120000000E+03  0.17120000000E+03 0.  0.
         13    1    1    2    0    0  0.29005334348E+00 -0.35101207356E+02  0.65505692211E+02  0.74318138868E+02  0.10566000000E+00 0. -1.
        994    1    1    2    0    0  0.39371281152E+01  0.25148314299E+02  0.11128002393E+02  0.17343935864E+03  0.17120000000E+03 0.  0.
        998    1    1    2    0    0 -0.42271814587E+01  0.99528930569E+01  0.14233663017E+04  0.14234425025E+04  0.10000000000E+02 0. -1.
</event>
<event>
 5    1  0.1321379E-008  0.3695019E+03  0.7957747E-01  0.3498183E+00
         13   -1    0    0    0    0  0.00000000000E+00  0.00000000000E+00  0.14999999963E+04  0.15000000000E+04  0.10566000000E+00 0. -1.
        994   -1    0    0    0    0 -0.00000000000E+00 -0.00000000000E+00  0.11368683772E-12  0.17120000000E+03  0.17120000000E+03 0.  0.
         13    1    1    2    0    0  0.36310606498E+02  0.71914128452E+01  0.67118798654E+02  0.76649336982E+02  0.10566000000E+00 0. -1.
        994    1    1    2    0    0 -0.31366433130E-01  0.61839508330E+02  0.24143222953E+02  0.18362042639E+03  0.17120000000E+03 0.  0.
        998    1    1    2    0    0 -0.36279240065E+02 -0.69030921175E+02  0.14087379747E+04  0.14109302366E+04  0.10000000000E+02 0. -1.
</event>
<event>
 5    1  0.1321379E-008  0.2817828E+03  0.7957747E-01  0.4035319E+00
         13   -1    0    0    0    0  0.00000000000E+00  0.00000000000E+00  0.14999999963E+04  0.15000000000E+04  0.10566000000E+00 0.  1.
        994   -1    0    0    0    0 -0.00000000000E+00 -0.00000000000E+00  0.11368683772E-12  0.17120000000E+03  0.17120000000E+03 0.  0.
         13    1    1    2    0    0 -0.13239076347E+03 -0.11788005608E+03  0.51305106605E+03  0.54281159661E+03  0.10566000000E+00 0.  1.
        994    1    1    2    0    0  0.16931215314E+03  0.84562608285E+02  0.16285620510E+03  0.30273589721E+03  0.17120000000E+03 0.  0.
        998    1    1    2    0    0 -0.36921389674E+02  0.33317447800E+02  0.82409272513E+03  0.82565250618E+03  0.10000000000E+02 0.  1.
</event>
<event>
 5    1  0.1321379E-008  0.3846708E+03  0.7957747E-01  0.3431069E+00
         13   -1    0    0    0    0  0.00000000000E+00  0.00000000000E+00  0.14999999963E+04  0.15000000000E+04  0.10566000000E+00 0.  1.
        994   -1    0    0    0    0 -0.00000000000E+00 -0.00000000000E+00  0.11368683772E-12  0.17120000000E+03  0.17120000000E+03 0.  0.
         13    1    1    2    0    0 -0.91403986243E+01  0.12923824764E+02  0.73616201887E+02  0.75298927468E+02  0.10566000000E+00 0.  1.
        994    1    1    2    0    0  0.53787313719E+01  0.13863446293E+01  0.18952313051E+01  0.17130056802E+03  0.17120000000E+03 0.  0.
        998    1    1    2    0    0  0.37616672524E+01 -0.14310169393E+02  0.14244885631E+04  0.14246005045E+04  0.10000000000E+02 0.  1.
</event>
<event>
 5    1  0.1321379E-008  0.3802222E+03  0.7957747E-01  0.3450191E+00
         13   -1    0    0    0    0  0.00000000000E+00  0.00000000000E+00  0.14999999963E+04  0.15000000000E+04  0.10566000000E+00 0.  1.
        994   -1    0    0    0    0 -0.00000000000E+00 -0.00000000000E+00  0.11368683772E-12  0.17120000000E+03  0.17120000000E+03 0.  0.
         13    1    1    2    0    0  0.28497021227E+02  0.25454954512E+01  0.10070315375E+03  0.10468856721E+03  0.10566000000E+00 0.  1.
        994    1    1    2    0    0 -0.15320709119E+02 -0.21421039263E+02  0.63413462355E+01  0.17332985237E+03  0.17120000000E+03 0.  0.
        998    1    1    2    0    0 -0.13176312108E+02  0.18875543812E+02  0.13929554963E+04  0.13931815804E+04  0.10000000000E+02 0.  1.
</event>
<event>
 5    1  0.1321379E-008  0.3847662E+03  0.7957747E-01  0.3430664E+00
         13   -1    0    0    0    0  0.00000000000E+00  0.00000000000E+00  0.14999999963E+04  0.15000000000E+04  0.10566000000E+00 0. -1.
        994   -1    0    0    0    0 -0.00000000000E+00 -0.00000000000E+00  0.11368683772E-12  0.17120000000E+03  0.17120000000E+03 0.  0.
         13    1    1    2    0    0  0.13760914540E+02 -0.88730223731E+01  0.74205278474E+02  0.75990313939E+02  0.10566000000E+00 0. -1.
        994    1    1    2    0    0 -0.11152568663E+02  0.11677801868E+02  0.26048987025E+01  0.17197958118E+03  0.17120000000E+03 0.  0.
        998    1    1    2    0    0 -0.26083458775E+01 -0.28047794948E+01  0.14231898191E+04  0.14232301049E+04  0.10000000000E+02 0. -1.
</event>
<event>
 5    1  0.1321379E-008  0.3812617E+03  0.7957747E-01  0.3445683E+00
         13   -1    0    0    0    0  0.00000000000E+00  0.00000000000E+00  0.14999999963E+04  0.15000000000E+04  0.10566000000E+00 0.  1.
        994   -1    0    0    0    0 -0.00000000000E+00 -0.00000000000E+00  0.11368683772E-12  0.17120000000E+03  0.17120000000E+03 0.  0.
         13    1    1    2    0    0 -0.19753245446E+02 -0.35561981277E+01  0.61853496934E+02  0.65028482204E+02  0.10566000000E+00 0.  1.
        994    1    1    2    0    0 -0.82159709916E+01  0.80435083967E+00  0.37245053764E+01  0.17143938025E+03  0.17120000000E+03 0.  0.
        998    1    1    2    0    0  0.27969216438E+02  0.27518472880E+01  0.14344219940E+04  0.14347321375E+04  0.10000000000E+02 0.  1.
</event>
<event>
 5    1  0.1321379E-008  0.3840550E+03  0.7957747E-01  0.3433690E+00
         13   -1    0    0    0    0  0.00000000000E+00  0.00000000000E+00  0.14999999963E+04  0.15000000000E+04  0.10566000000E+00 0. -1.
        994   -1    0    0    0    0 -0.00000000000E+00 -0.00000000000E+00  0.11368683772E-12  0.17120000000E+03  0.17120000000E+03 0.  0.
         13    1    1    2    0    0 -0.23143795973E+02  0.42361371170E+01  0.13085867569E+03  0.13295707697E+03  0.10566000000E+00 0. -1.
        994    1    1    2    0    0  0.15018239216E+02 -0.75165086965E+00  0.28462708965E+01  0.17188267436E+03  0.17120000000E+03 0.  0.
        998    1    1    2    0    0  0.81255567567E+01 -0.34844862474E+01  0.13662950497E+04  0.13663602487E+04  0.10000000000E+02 0. -1.
</event>
<event>
 5    1  0.1321379E-008  0.3818389E+03  0.7957747E-01  0.3443191E+00
         13   -1    0    0    0    0  0.00000000000E+00  0.00000000000E+00  0.14999999963E+04  0.15000000000E+04  0.10566000000E+00 0. -1.
        994   -1    0    0    0    0 -0.00000000000E+00 -0.00000000000E+00  0.11368683772E-12  0.17120000000E+03  0.17120000000E+03 0.  0.
         13    1    1    2    0    0  0.71285498532E+01 -0.14483014954E+02  0.41279928467E+02  0.44324007078E+02  0.10566000000E+00 0. -1.
        994    1    1    2    0    0 -0.11510555393E+02 -0.65894681447E+01  0.37925038001E+01  0.17175487493E+03  0.17120000000E+03 0.  0.
        998    1    1    2    0    0  0.43820055399E+01  0.21072483099E+02  0.14549275640E+04  0.14551211180E+04  0.10000000000E+02 0. -1.
</event>
<event>
 5    1  0.1321379E-008  0.3797358E+03  0.7957747E-01  0.3452310E+00
         13   -1    0    0    0    0  0.00000000000E+00  0.00000000000E+00  0.14999999963E+04  0.15000000000E+04  0.10566000000E+00 0. -1.
        994   -1    0    0    0    0 -0.00000000000E+00 -0.00000000000E+00  0.11368683772E-12  0.17120000000E+03  0.17120000000E+03 0.  0.
         13    1    1    2    0    0  0.20331490898E+01 -0.18727855218E+02  0.39416790131E+02  0.43687077775E+02  0.10566000000E+00 0. -1.
        994    1    1    2    0    0 -0.87336925710E+01  0.15628177234E+02  0.53397147693E+01  0.17221634610E+03  0.17120000000E+03 0.  0.
        998    1    1    2    0    0  0.67005434812E+01  0.30996779834E+01  0.14552434914E+04  0.14552965761E+04  0.10000000000E+02 0. -1.
</event>
<event>
 5    1  0.1321379E-008  0.3805640E+03  0.7957747E-01  0.3448706E+00
         13   -1    0    0    0    0  0.00000000000E+00  0.00000000000E+00  0.14999999963E+04  0.15000000000E+04  0.10566000000E+00 0.  1.
        994   -1    0    0    0    0 -0.00000000000E+00 -0.00000000000E+00  0.11368683772E-12  0.17120000000E+03  0.17120000000E+03 0.  0.
         13    1    1    2    0    0  0.20972327550E+02  0.28783730710E+02  0.18422713269E+03  0.18763792063E+03  0.10566000000E+00 0.  1.
        994    1    1    2    0    0 -0.63530670933E+01 -0.12260779293E+01  0.39884052524E+01  0.17136864388E+03  0.17120000000E+03 0.  0.
        998    1    1    2    0    0 -0.14619260457E+02 -0.27557652781E+02  0.13117844583E+04  0.13121934355E+04  0.10000000000E+02 0.  1.
</event>
<event>
 5    1  0.1681486E-008  0.3864273E+03  0.7957747E-01  0.3423641E+00
         13   -1    0    0    0    0  0.00000000000E+00  0.00000000000E+00  0.14999999963E+04  0.15000000000E+04  0.10566000000E+00 0. -1.
        994   -1    0    0    0    0 -0.00000000000E+00 -0.00000000000E+00  0.11368683772E-12  0.17120000000E+03  0.17120000000E+03 0.  0.
         13    1    1    2    0    0 -0.30395965047E+01  0.10454499334E+02  0.60406219379E+02  0.61379623711E+02  0.10566000000E+00 0. -1.
        994    1    1    2    0    0 -0.17972671365E+00 -0.18317332417E+02  0.20223904673E+01  0.17218910253E+03  0.17120000000E+03 0.  0.
        998    1    1    2    0    0  0.32193232183E+01  0.78628330833E+01  0.14375713864E+04  0.14376312738E+04  0.10000000000E+02 0. -1.
</event>
<event>
 5    1  0.1321379E-008  0.3829758E+03  0.7957747E-01  0.3438303E+00
         13   -1    0    0    0    0  0.00000000000E+00  0.00000000000E+00  0.14999999963E+04  0.15000000000E+04  0.10566000000E+00 0.  1.
        994   -1    0    0    0    0 -0.00000000000E+00 -0.00000000000E+00  0.11368683772E-12  0.17120000000E+03  0.17120000000E+03 0.  0.
         13    1    1    2    0    0 -0.91394000019E+01 -0.64094899129E+01  0.22783640778E+02  0.25371551874E+02  0.10566000000E+00 0.  1.
        994    1    1    2    0    0  0.65012912219E-01  0.10471163034E+02  0.30015457662E+01  0.17154620007E+03  0.17120000000E+03 0.  0.
        998    1    1    2    0    0  0.90743870897E+01 -0.40616731216E+01  0.14742148097E+04  0.14742822481E+04  0.10000000000E+02 0.  1.
</event>
<event>
 5    1  0.1321379E-008  0.3772567E+03  0.7957747E-01  0.3463191E+00
         13   -1    0    0    0    0  0.00000000000E+00  0.00000000000E+00  0.14999999963E+04  0.15000000000E+04  0.10566000000E+00 0. -1.
        994   -1    0    0    0    0 -0.00000000000E+00 -0.00000000000E+00  0.11368683772E-12  0.17120000000E+03  0.17120000000E+03 0.  0.
         13    1    1    2    0    0  0.37504829103E+02 -0.38659488370E+02  0.28001151446E+03  0.28514492393E+03  0.10566000000E+00 0. -1.
        994    1    1    2    0    0 -0.14944171775E+02  0.15829004633E+02  0.71247118867E+01  0.17272546766E+03  0.17120000000E+03 0.  0.
        998    1    1    2    0    0 -0.22560657328E+02  0.22830483736E+02  0.12128637699E+04  0.12133296084E+04  0.10000000000E+02 0. -1.
</event>
<event>
 5    1  0.1321379E-008  0.3815611E+03  0.7957747E-01  0.3444389E+00
         13   -1    0    0    0    0  0.00000000000E+00  0.00000000000E+00  0.14999999963E+04  0.15000000000E+04  0.10566000000E+00 0.  1.
        994   -1    0    0    0    0 -0.00000000000E+00 -0.00000000000E+00  0.11368683772E-12  0.17120000000E+03  0.17120000000E+03 0.  0.
         13    1    1    2    0    0 -0.17967740666E+02 -0.19813328510E+02  0.10132665114E+03  0.10479746698E+03  0.10566000000E+00 0.  1.
        994    1    1    2    0    0  0.28979846711E+02  0.63837919882E+01  0.62812910924E+01  0.17386626738E+03  0.17120000000E+03 0.  0.
        998    1    1    2    0    0 -0.11012106046E+02  0.13429536522E+02  0.13923920540E+04  0.13925362656E+04  0.10000000000E+02 0.  1.
</event>
<event>
 5    1  0.1321379E-008  0.3751136E+03  0.7957747E-01  0.3472715E+00
         13   -1    0    0    0    0  0.00000000000E+00  0.00000000000E+00  0.14999999963E+04  0.15000000000E+04  0.10566000000E+00 0. -1.
        994   -1    0    0    0    0 -0.00000000000E+00 -0.00000000000E+00  0.11368683772E-12  0.17120000000E+03  0.17120000000E+03 0.  0.
         13    1    1    2    0    0  0.21856281532E+02 -0.80522765340E+01  0.37031378155E+02  0.43747803738E+02  0.10566000000E+00 0. -1.
        994    1    1    2    0    0 -0.26435723859E+02  0.79317403616E+01  0.92130964354E+01  0.17365506370E+03  0.17120000000E+03 0.  0.
        998    1    1    2    0    0  0.45794423270E+01  0.12053617245E+00  0.14537555217E+04  0.14537971326E+04  0.10000000000E+02 0. -1.
</event>
<event>
 5    1  0.1321379E-008  0.3839724E+03  0.7957747E-01  0.3434042E+00
         13   -1    0    0    0    0  0.00000000000E+00  0.00000000000E+00  0.14999999963E+04  0.15000000000E+04  0.10566000000E+00 0.  1.
        994   -1    0    0    0    0 -0.00000000000E+00 -0.00000000000E+00  0.11368683772E-12  0.17120000000E+03  0.17120000000E+03 0.  0.
         13    1    1    2    0    0 -0.96686024992E+01 -0.61331703096E+01  0.30634571904E+02  0.32704522809E+02  0.10566000000E+00 0.  1.
        994    1    1    2    0    0  0.76105041740E+01 -0.69214261718E+01  0.24904374876E+01  0.17152687309E+03  0.17120000000E+03 0.  0.
        998    1    1    2    0    0  0.20580983252E+01  0.13054596481E+02  0.14668749869E+04  0.14669686041E+04  0.10000000000E+02 0.  1.
</event>
<event>
 5    1  0.1321379E-008  0.3843173E+03  0.7957747E-01  0.3432573E+00
         13   -1    0    0    0    0  0.00000000000E+00  0.00000000000E+00  0.14999999963E+04  0.15000000000E+04  0.10566000000E+00 0.  1.
        994   -1    0    0    0    0 -0.00000000000E+00 -0.00000000000E+00  0.11368683772E-12  0.17120000000E+03  0.17120000000E+03 0.  0.
         13    1    1    2    0    0  0.18837689474E+02  0.12331128601E+02  0.13445208620E+03  0.13632420887E+03  0.10566000000E+00 0.  1.
        994    1    1    2    0    0 -0.16417650768E+02  0.88570220499E+01  0.31172342478E+01  0.17224152590E+03  0.17120000000E+03 0.  0.
        998    1    1    2    0    0 -0.24200387062E+01 -0.21188150651E+02  0.13624306758E+04  0.13626342652E+04  0.10000000000E+02 0.  1.
</event>
<event>
 5    1  0.1597732E-008  0.3856196E+03  0.7957747E-01  0.3427049E+00
         13   -1    0    0    0    0  0.00000000000E+00  0.00000000000E+00  0.14999999963E+04  0.15000000000E+04  0.10566000000E+00 0. -1.
        994   -1    0    0    0    0 -0.00000000000E+00 -0.00000000000E+00  0.11368683772E-12  0.17120000000E+03  0.17120000000E+03 0.  0.
         13    1    1    2    0    0 -0.48243513382E+01 -0.89543744899E+01  0.38437028006E+02  0.39760174476E+02  0.10566000000E+00 0. -1.
        994    1    1    2    0    0  0.39830402637E+01  0.10222865891E+02  0.17179804710E+01  0.17155979440E+03  0.17120000000E+03 0.  0.
        998    1    1    2    0    0  0.84131107450E+00 -0.12684914008E+01  0.14598449878E+04  0.14598800311E+04  0.10000000000E+02 0. -1.
</event>
<event>
 5    1  0.1321379E-008  0.3608904E+03  0.7957747E-01  0.3538834E+00
         13   -1    0    0    0    0  0.00000000000E+00  0.00000000000E+00  0.14999999963E+04  0.15000000000E+04  0.10566000000E+00 0. -1.
        994   -1    0    0    0    0 -0.00000000000E+00 -0.00000000000E+00  0.11368683772E-12  0.17120000000E+03  0.17120000000E+03 0.  0.
         13    1    1    2    0    0 -0.10436229858E+03  0.23890251083E+03  0.10739671461E+04  0.11051567043E+04  0.10566000000E+00 0. -1.
        994    1    1    2    0    0  0.94954602003E+02 -0.20181780884E+03  0.22208970671E+03  0.35830166373E+03  0.17120000000E+03 0.  0.
        998    1    1    2    0    0  0.94076965720E+01 -0.37084701987E+02  0.20394314344E+03  0.20774163192E+03  0.10000000000E+02 0.  1.
</event>
<event>
 5    1  0.1321379E-008  0.3698789E+03  0.7957747E-01  0.3496448E+00
         13   -1    0    0    0    0  0.00000000000E+00  0.00000000000E+00  0.14999999963E+04  0.15000000000E+04  0.10566000000E+00 0.  1.
        994   -1    0    0    0    0 -0.00000000000E+00 -0.00000000000E+00  0.11368683772E-12  0.17120000000E+03  0.17120000000E+03 0.  0.
         13    1    1    2    0    0  0.69636271676E+02  0.14672633673E+02  0.33123471644E+03  0.33879336630E+03  0.10566000000E+00 0.  1.
        994    1    1    2    0    0 -0.28765597084E+02  0.55469993013E+02  0.22961877670E+02  0.18368741799E+03  0.17120000000E+03 0.  0.
        998    1    1    2    0    0 -0.40870674591E+02 -0.70142626687E+02  0.11458034022E+04  0.11487192157E+04  0.10000000000E+02 0.  1.
</event>
<event>
 5    1  0.1321379E-008  0.3816153E+03  0.7957747E-01  0.3444155E+00
         13   -1    0    0    0    0  0.00000000000E+00  0.00000000000E+00  0.14999999963E+04  0.15000000000E+04  0.10566000000E+00 0. -1.
        994   -1    0    0    0    0 -0.00000000000E+00 -0.00000000000E+00  0.11368683772E-12  0.17120000000E+03  0.17120000000E+03 0.  0.
         13    1    1    2    0    0  0.94127118567E+02  0.22597809459E+02  0.53393193218E+03  0.54263606110E+03  0.10566000000E+00 0. -1.
        994    1    1    2    0    0 -0.12816750597E+03 -0.30263598420E+02  0.63313034742E+02  0.22507948672E+03  0.17120000000E+03 0.  0.
        998    1    1    2    0    0  0.34040387399E+02  0.76657889613E+01  0.90275502936E+03  0.90348445218E+03  0.10000000000E+02 0. -1.
</event>
<event>
 5    1  0.1321379E-008  0.3726521E+03  0.7957747E-01  0.3483791E+00
         13   -1    0    0    0    0  0.00000000000E+00  0.00000000000E+00  0.14999999963E+04  0.15000000000E+04  0.10566000000E+00 0.  1.
        994   -1    0    0    0    0 -0.00000000000E+00 -0.00000000000E+00  0.11368683772E-12  0.17120000000E+03  0.17120000000E+03 0.  0.
         13    1    1    2    0    0  0.52606845301E+02  0.13872189351E+03  0.51784374604E+03  0.53867745487E+03  0.10566000000E+00 0.  1.
        994    1    1    2    0    0 -0.47053543323E+02 -0.14583114260E+03  0.10052711296E+03  0.25079054714E+03  0.17120000000E+03 0.  0.
        998    1    1    2    0    0 -0.55533019786E+01  0.71092490950E+01  0.88162913728E+03  0.88173199799E+03  0.10000000000E+02 0. -1.
</event>
<event>
 5    1  0.1321379E-008  0.3761953E+03  0.7957747E-01  0.3467894E+00
         13   -1    0    0    0    0  0.00000000000E+00  0.00000000000E+00  0.14999999963E+04  0.15000000000E+04  0.10566000000E+00 0. -1.
        994   -1    0    0    0    0 -0.00000000000E+00 -0.00000000000E+00  0.11368683772E-12  0.17120000000E+03  0.17120000000E+03 0.  0.
         13    1    1    2    0    0 -0.15433754768E+02 -0.46663729422E+01  0.18620770545E+02  0.24631688582E+02  0.10566000000E+00 0. -1.
        994    1    1    2    0    0  0.13852319157E+02  0.85712923812E+01  0.69650682927E+01  0.17211422363E+03  0.17120000000E+03 0.  0.
        998    1    1    2    0    0  0.15814356110E+01 -0.39049194389E+01  0.14744141574E+04  0.14744540878E+04  0.10000000000E+02 0. -1.
</event>
<event>
 5    1  0.1367332E-008  0.3852488E+03  0.7957747E-01  0.3428618E+00
         13   -1    0    0    0    0  0.00000000000E+00  0.00000000000E+00  0.14999999963E+04  0.15000000000E+04  0.10566000000E+00 0. -1.
        994   -1    0    0    0    0 -0.00000000000E+00 -0.00000000000E+00  0.11368683772E-12  0.17120000000E+03  0.17120000000E+03 0.  0.
         13    1    1    2    0    0  0.17102932610E+02  0.63468742566E+01  0.10528615531E+03  0.10685494271E+03  0.10566000000E+00 0. -1.
        994    1    1    2    0    0 -0.15525570461E+02 -0.89098182720E+01  0.25602771137E+01  0.17215232563E+03  0.17120000000E+03 0.  0.
        998    1    1    2    0    0 -0.15773621484E+01  0.25629440155E+01  0.13921535639E+04  0.13921927317E+04  0.10000000000E+02 0. -1.
</event>
<event>
 5    1  0.1321379E-008  0.3789733E+03  0.7957747E-01  0.3455641E+00
         13   -1    0    0    0    0  0.00000000000E+00  0.00000000000E+00  0.14999999963E+04  0.15000000000E+04  0.10566000000E+00 0. -1.
        994   -1    0    0    0    0 -0.00000000000E+00 -0.00000000000E+00  0.11368683772E-12  0.17120000000E+03  0.17120000000E+03 0.  0.
         13    1    1    2    0    0  0.42865002058E+00  0.14236136227E+02  0.20347552986E+02  0.24837177619E+02  0.10566000000E+00 0. -1.
        994    1    1    2    0    0  0.31740463537E+02 -0.81909307851E+00  0.80412899382E+01  0.17430499213E+03  0.17120000000E+03 0.  0.
        998    1    1    2    0    0 -0.32169113558E+02 -0.13417043149E+02  0.14716111534E+04  0.14720578302E+04  0.10000000000E+02 0. -1.
</event>
<event>
 5    1  0.1321379E-008  0.3797226E+03  0.7957747E-01  0.3452367E+00
         13   -1    0    0    0    0  0.00000000000E+00  0.00000000000E+00  0.14999999963E+04  0.15000000000E+04  0.10566000000E+00 0. -1.
        994   -1    0    0    0    0 -0.00000000000E+00 -0.00000000000E+00  0.11368683772E-12  0.17120000000E+03  0.17120000000E+03 0.  0.
         13    1    1    2    0    0  0.20323510026E+02  0.41366057549E+02  0.25496060421E+03  0.25909287261E+03  0.10566000000E+00 0. -1.
        994    1    1    2    0    0 -0.11692630863E+02 -0.19444825626E+02  0.59976988691E+01  0.17280113209E+03  0.17120000000E+03 0.  0.
        998    1    1    2    0    0 -0.86308791625E+01 -0.21921231923E+02  0.12390416932E+04  0.12393059953E+04  0.10000000000E+02 0. -1.
</event>
<event>
 5    1  0.1321379E-008  0.3854639E+03  0.7957747E-01  0.3427707E+00
         13   -1    0    0    0    0  0.00000000000E+00  0.00000000000E+00  0.14999999963E+04  0.15000000000E+04  0.10566000000E+00 0. -1.
        994   -1    0    0    0    0 -0.00000000000E+00 -0.00000000000E+00  0.11368683772E-12  0.17120000000E+03  0.17120000000E+03 0.  0.
         13    1    1    2    0    0 -0.11301163454E+02 -0.87226823666E+01  0.75771619928E+02  0.77104805516E+02  0.10566000000E+00 0. -1.
        994    1    1    2    0    0 -0.22111104532E+01  0.10606245296E+02  0.17855243482E+01  0.17155176929E+03  0.17120000000E+03 0.  0.
        998    1    1    2    0    0  0.13512273907E+02 -0.18835629293E+01  0.14224428520E+04  0.14225434252E+04  0.10000000000E+02 0. -1.
</event>
<event>
 5    1  0.1321379E-008  0.3817560E+03  0.7957747E-01  0.3443548E+00
         13   -1    0    0    0    0  0.00000000000E+00  0.00000000000E+00  0.14999999963E+04  0.15000000000E+04  0.10566000000E+00 0.  1.
        994   -1    0    0    0    0 -0.00000000000E+00 -0.00000000000E+00  0.11368683772E-12  0.17120000000E+03  0.17120000000E+03 0.  0.
         13    1    1    2    0    0  0.28668060724E+02  0.22337853621E+02  0.19774760548E+03  0.20105960322E+03  0.10566000000E+00 0.  1.
        994    1    1    2    0    0 -0.95207004435E+01 -0.27151972520E+02  0.60057818490E+01  0.17370487260E+03  0.17120000000E+03 0.  0.
        998    1    1    2    0    0 -0.19147360280E+02  0.48141188984E+01  0.12962466089E+04  0.12964355242E+04  0.10000000000E+02 0.  1.
</event>
<event>
 5    1  0.1321379E-008  0.3849837E+03  0.7957747E-01  0.3429741E+00
         13   -1    0    0    0    0  0.00000000000E+00  0.00000000000E+00  0.14999999963E+04  0.15000000000E+04  0.10566000000E+00 0.  1.
        994   -1    0    0    0    0 -0.00000000000E+00 -0.00000000000E+00  0.11368683772E-12  0.17120000000E+03  0.17120000000E+03 0.  0.
         13    1    1    2    0    0 -0.14792668672E+02 -0.74361123737E+01  0.82427591282E+02  0.84074001821E+02  0.10566000000E+00 0.  1.
        994    1    1    2    0    0  0.11284904830E+02  0.62652185348E+01  0.21863659469E+01  0.17169980267E+03  0.17120000000E+03 0.  0.
        998    1    1    2    0    0  0.35077638423E+01  0.11708938389E+01  0.14153860390E+04  0.14154261955E+04  0.10000000000E+02 0.  1.
</event>
<event>
 5    1  0.1321379E-008  0.3849827E+03  0.7957747E-01  0.3429745E+00
         13   -1    0    0    0    0  0.00000000000E+00  0.00000000000E+00  0.14999999963E+04  0.15000000000E+04  0.10566000000E+00 0. -1.
        994   -1    0    0    0    0 -0.00000000000E+00 -0.00000000000E+00  0.11368683772E-12  0.17120000000E+03  0.17120000000E+03 0.  0.
         13    1    1    2    0    0 -0.87363189768E+01  0.52259183110E+01  0.32251469269E+02  0.33820140826E+02  0.10566000000E+00 0. -1.
        994    1    1    2    0    0  0.47672900701E+01  0.58701081275E+01  0.18268099734E+01  0.17137666836E+03  0.17120000000E+03 0.  0.
        998    1    1    2    0    0  0.39690289067E+01 -0.11096026438E+02  0.14659217170E+04  0.14660031908E+04  0.10000000000E+02 0. -1.
</event>
<event>
 5    1  0.1321379E-008  0.3784759E+03  0.7957747E-01  0.3457822E+00
         13   -1    0    0    0    0  0.00000000000E+00  0.00000000000E+00  0.14999999963E+04  0.15000000000E+04  0.10566000000E+00 0.  1.
        994   -1    0    0    0    0 -0.00000000000E+00 -0.00000000000E+00  0.11368683772E-12  0.17120000000E+03  0.17120000000E+03 0.  0.
         13    1    1    2    0    0 -0.32626368575E+01 -0.13625624397E+02  0.17724647763E+02  0.22593732357E+02  0.10566000000E+00 0.  1.
        994    1    1    2    0    0  0.44592766087E+01  0.13456410619E+02  0.55799480842E+01  0.17187651368E+03  0.17120000000E+03 0.  0.
        998    1    1    2    0    0 -0.11966397513E+01  0.16921377785E+00  0.14766954004E+04  0.14767297540E+04  0.10000000000E+02 0.  1.
</event>
<event>
 5    1  0.1321379E-008  0.3862949E+03  0.7957747E-01  0.3424199E+00
         13   -1    0    0    0    0  0.00000000000E+00  0.00000000000E+00  0.14999999963E+04  0.15000000000E+04  0.10566000000E+00 0. -1.
        994   -1    0    0    0    0 -0.00000000000E+00 -0.00000000000E+00  0.11368683772E-12  0.17120000000E+03  0.17120000000E+03 0.  0.
         13    1    1    2    0    0 -0.11845077039E+02 -0.17285305644E+01  0.71733678043E+02  0.72725685954E+02  0.10566000000E+00 0. -1.
        994    1    1    2    0    0  0.11155078501E+02  0.63659809402E+00  0.13975405477E+01  0.17156991040E+03  0.17120000000E+03 0.  0.
        998    1    1    2    0    0  0.68999853809E+00  0.10919324703E+01  0.14268687777E+04  0.14269044037E+04  0.10000000000E+02 0. -1.
</event>
<event>
 5    1  0.1321379E-008  0.3707741E+03  0.7957747E-01  0.3492341E+00
         13   -1    0    0    0    0  0.00000000000E+00  0.00000000000E+00  0.14999999963E+04  0.15000000000E+04  0.10566000000E+00 0.  1.
        994   -1    0    0    0    0 -0.00000000000E+00 -0.00000000000E+00  0.11368683772E-12  0.17120000000E+03  0.17120000000E+03 0.  0.
         13    1    1    2    0    0 -0.48827266901E+02  0.30734726977E+02  0.21253353144E+03  0.22022542674E+03  0.10566000000E+00 0.  1.
        994    1    1    2    0    0 -0.72353106372E+01 -0.29544310409E+02  0.12062213325E+02  0.17429903324E+03  0.17120000000E+03 0.  0.
        998    1    1    2    0    0  0.56062577538E+02 -0.11904165680E+01  0.12754042515E+04  0.12766755400E+04  0.10000000000E+02 0.  1.
</event>
<event>
 5    1  0.1321379E-008  0.3811784E+03  0.7957747E-01  0.3446044E+00
         13   -1    0    0    0    0  0.00000000000E+00  0.00000000000E+00  0.14999999963E+04  0.15000000000E+04  0.10566000000E+00 0.  1.
        994   -1    0    0    0    0 -0.00000000000E+00 -0.00000000000E+00  0.11368683772E-12  0.17120000000E+03  0.17120000000E+03 0.  0.
         13    1    1    2    0    0 -0.11811615010E+02 -0.44282203606E+01  0.20562382678E+02  0.24123559649E+02  0.10566000000E+00 0.  1.
        994    1    1    2    0    0  0.16901630778E+02  0.33525280103E+01  0.45287799984E+01  0.17212453171E+03  0.17120000000E+03 0.  0.
        998    1    1    2    0    0 -0.50900157680E+01  0.10756923503E+01  0.14749088336E+04  0.14749519086E+04  0.10000000000E+02 0.  1.
</event>
<event>
 5    1  0.1321379E-008  0.3822530E+03  0.7957747E-01  0.3441407E+00
         13   -1    0    0    0    0  0.00000000000E+00  0.00000000000E+00  0.14999999963E+04  0.15000000000E+04  0.10566000000E+00 0.  1.
        994   -1    0    0    0    0 -0.00000000000E+00 -0.00000000000E+00  0.11368683772E-12  0.17120000000E+03  0.17120000000E+03 0.  0.
         13    1    1    2    0    0  0.16198400059E+02  0.16616228516E+02  0.84544498592E+02  0.87671378573E+02  0.10566000000E+00 0.  1.
        994    1    1    2    0    0 -0.14458404822E+02 -0.18782370527E+02  0.48666106598E+01  0.17290155237E+03  0.17120000000E+03 0.  0.
        998    1    1    2    0    0 -0.17399952378E+01  0.21661420110E+01  0.14105888870E+04  0.14106270691E+04  0.10000000000E+02 0.  1.
</event>
<event>
 5    1  0.1321379E-008  0.3811427E+03  0.7957747E-01  0.3446198E+00
         13   -1    0    0    0    0  0.00000000000E+00  0.00000000000E+00  0.14999999963E+04  0.15000000000E+04  0.10566000000E+00 0.  1.
        994   -1    0    0    0    0 -0.00000000000E+00 -0.00000000000E+00  0.11368683772E-12  0.17120000000E+03  0.17120000000E+03 0.  0.
         13    1    1    2    0    0 -0.26501681832E+02  0.27248118245E+02  0.15548007853E+03  0.16005894249E+03  0.10566000000E+00 0.  1.
        994    1    1    2    0    0  0.39604472110E+02 -0.47458435217E+02  0.16388371241E+02  0.18275348422E+03  0.17120000000E+03 0.  0.
        998    1    1    2    0    0 -0.13102790278E+02  0.20210316972E+02  0.13281315465E+04  0.13283875733E+04  0.10000000000E+02 0.  1.
</event>
<event>
 5    1  0.1321379E-008  0.3754264E+03  0.7957747E-01  0.3471318E+00
         13   -1    0    0    0    0  0.00000000000E+00  0.00000000000E+00  0.14999999963E+04  0.15000000000E+04  0.10566000000E+00 0.  1.
        994   -1    0    0    0    0 -0.00000000000E+00 -0.00000000000E+00  0.11368683772E-12  0.17120000000E+03  0.17120000000E+03 0.  0.
         13    1    1    2    0    0  0.18445785482E+02 -0.17288408955E+02  0.46593914363E+02  0.53010754625E+02  0.10566000000E+00 0.  1.
        994    1    1    2    0    0 -0.14556320515E+02  0.12366440522E+02  0.76991711983E+01  0.17243413976E+03  0.17120000000E+03 0.  0.
        998    1    1    2    0    0 -0.38894649663E+01  0.49219684327E+01  0.14457069107E+04  0.14457551056E+04  0.10000000000E+02 0.  1.
</event>
<event>
 5    1  0.1321379E-008  0.3814814E+03  0.7957747E-01  0.3444733E+00
         13   -1    0    0    0    0  0.00000000000E+00  0.00000000000E+00  0.14999999963E+04  0.15000000000E+04  0.10566000000E+00 0. -1.
        994   -1    0    0    0    0 -0.00000000000E+00 -0.00000000000E+00  0.11368683772E-12  0.17120000000E+03  0.17120000000E+03 0.  0.
         13    1    1    2    0    0  0.48562536042E+02  0.18104239127E+02  0.28199295229E+03  0.28671609597E+03  0.10566000000E+00 0. -1.
        994    1    1    2    0    0 -0.61217104581E+02 -0.24425232584E+02  0.17975859225E+02  0.18432769026E+03  0.17120000000E+03 0.  0.
        998    1    1    2    0    0  0.12654568539E+02  0.63209934573E+01  0.12000311848E+04  0.12001562138E+04  0.10000000000E+02 0. -1.
</event>
<event>
 5    1  0.1321379E-008  0.4246359E+03  0.7957747E-01  0.3277204E+00
         13   -1    0    0    0    0  0.00000000000E+00  0.00000000000E+00  0.14999999963E+04  0.15000000000E+04  0.10566000000E+00 0. -1.
        994   -1    0    0    0    0 -0.00000000000E+00 -0.00000000000E+00  0.11368683772E-12  0.17120000000E+03  0.17120000000E+03 0.  0.
         13    1    1    2    0    0  0.43912645009E+02 -0.43090103589E+02  0.28057782173E+02  0.67618989371E+02  0.10566000000E+00 0. -1.
        994    1    1    2    0    0 -0.38803412089E+02  0.45206749017E+02  0.59054187478E+02  0.19064677287E+03  0.17120000000E+03 0.  0.
        998    1    1    2    0    0 -0.51092329200E+01 -0.21166454279E+01  0.14128880266E+04  0.14129342378E+04  0.10000000000E+02 0. -1.
</event>
<event>
 5    1  0.1321379E-008  0.3807762E+03  0.7957747E-01  0.3447786E+00
         13   -1    0    0    0    0  0.00000000000E+00  0.00000000000E+00  0.14999999963E+04  0.15000000000E+04  0.10566000000E+00 0.  1.
        994   -1    0    0    0    0 -0.00000000000E+00 -0.00000000000E+00  0.11368683772E-12  0.17120000000E+03  0.17120000000E+03 0.  0.
         13    1    1    2    0    0  0.33141954239E+02 -0.21033017285E+02  0.18765708889E+03  0.19171846839E+03  0.10566000000E+00 0.  1.
        994    1    1    2    0    0 -0.35426664608E+02  0.89086407181E+01  0.82040683723E+01  0.17524599620E+03  0.17120000000E+03 0.  0.
        998    1    1    2    0    0  0.22847103687E+01  0.12124376567E+02  0.13041388390E+04  0.13042355354E+04  0.10000000000E+02 0.  1.
</event>
<event>
 5    1  0.1321379E-008  0.3732317E+03  0.7957747E-01  0.3481169E+00
         13   -1    0    0    0    0  0.00000000000E+00  0.00000000000E+00  0.14999999963E+04  0.15000000000E+04  0.10566000000E+00 0.  1.
        994   -1    0    0    0    0 -0.00000000000E+00 -0.00000000000E+00  0.11368683772E-12  0.17120000000E+03  0.17120000000E+03 0.  0.
         13    1    1    2    0    0  0.12280620243E+03  0.34454322115E+02  0.60423613967E+03  0.61755144508E+03  0.10566000000E+00 0.  1.
        994    1    1    2    0    0 -0.12925358931E+03 -0.15842439022E+02  0.68000209249E+02  0.22559020741E+03  0.17120000000E+03 0.  0.
        998    1    1    2    0    0  0.64473868762E+01 -0.18611883093E+02  0.82776364736E+03  0.82805834751E+03  0.10000000000E+02 0.  1.
</event>
<event>
 5    1  0.1321379E-008  0.3779685E+03  0.7957747E-01  0.3460052E+00
         13   -1    0    0    0    0  0.00000000000E+00  0.00000000000E+00  0.14999999963E+04  0.15000000000E+04  0.10566000000E+00 0. -1.
        994   -1    0    0    0    0 -0.00000000000E+00 -0.00000000000E+00  0.11368683772E-12  0.17120000000E+03  0.17120000000E+03 0.  0.
         13    1    1    2    0    0 -0.30414659224E+02  0.41941757015E+01  0.90551432554E+02  0.95614934540E+02  0.10566000000E+00 0. -1.
        994    1    1    2    0    0  0.14791874037E+02 -0.11372451344E+02  0.63346699703E+01  0.17233020696E+03  0.17120000000E+03 0.  0.
        998    1    1    2    0    0  0.15622785187E+02  0.71782756421E+01  0.14031138938E+04  0.14032548585E+04  0.10000000000E+02 0. -1.
</event>
<event>
 5    1  0.1321379E-008  0.3758414E+03  0.7957747E-01  0.3469468E+00
         13   -1    0    0    0    0  0.00000000000E+00  0.00000000000E+00  0.14999999963E+04  0.15000000000E+04  0.10566000000E+00 0.  1.
        994   -1    0    0    0    0 -0.00000000000E+00 -0.00000000000E+00  0.11368683772E-12  0.17120000000E+03  0.17120000000E+03 0.  0.
         13    1    1    2    0    0 -0.25714645754E+01 -0.21332594270E+02  0.97398506003E+01  0.23591690531E+02  0.10566000000E+00 0.  1.
        994    1    1    2    0    0  0.50447456343E+01  0.35471004443E+02  0.18656792612E+02  0.17590098785E+03  0.17120000000E+03 0.  0.
        998    1    1    2    0    0 -0.24732810589E+01 -0.14138410172E+02  0.14716033531E+04  0.14717073216E+04  0.10000000000E+02 0.  1.
</event>
<event>
 5    1  0.1321379E-008  0.3899140E+03  0.7957747E-01  0.3409095E+00
         13   -1    0    0    0    0  0.00000000000E+00  0.00000000000E+00  0.14999999963E+04  0.15000000000E+04  0.10566000000E+00 0.  1.
        994   -1    0    0    0    0 -0.00000000000E+00 -0.00000000000E+00  0.11368683772E-12  0.17120000000E+03  0.17120000000E+03 0.  0.
         13    1    1    2    0    0 -0.33549303208E+02 -0.71809522058E+02  0.12949714059E+03  0.15182780967E+03  0.10566000000E+00 0.  1.
        994    1    1    2    0    0  0.52827729047E+01  0.74487933622E+02  0.43174427486E+02  0.19170245469E+03  0.17120000000E+03 0.  0.
        998    1    1    2    0    0  0.28266530304E+02 -0.26784115636E+01  0.13273284282E+04  0.13276697356E+04  0.10000000000E+02 0.  1.
</event>
<event>
 5    1  0.1321379E-008  0.3888988E+03  0.7957747E-01  0.3413304E+00
         13   -1    0    0    0    0  0.00000000000E+00  0.00000000000E+00  0.14999999963E+04  0.15000000000E+04  0.10566000000E+00 0.  1.
        994   -1    0    0    0    0 -0.00000000000E+00 -0.00000000000E+00  0.11368683772E-12  0.17120000000E+03  0.17120000000E+03 0.  0.
         13    1    1    2    0    0  0.85128650741E+02  0.91041877813E+02  0.28089235388E+03  0.30730446844E+03  0.10566000000E+00 0.  1.
        994    1    1    2    0    0 -0.81754877574E+02 -0.97300211187E+02  0.84701659379E+02  0.22942319457E+03  0.17120000000E+03 0.  0.
        998    1    1    2    0    0 -0.33737731675E+01  0.62583333736E+01  0.11344059830E+04  0.11344723370E+04  0.10000000000E+02 0.  1.
</event>
<event>
 5    1  0.1321379E-008  0.3828030E+03  0.7957747E-01  0.3439044E+00
         13   -1    0    0    0    0  0.00000000000E+00  0.00000000000E+00  0.14999999963E+04  0.15000000000E+04  0.10566000000E+00 0.  1.
        994   -1    0    0    0    0 -0.00000000000E+00 -0.00000000000E+00  0.11368683772E-12  0.17120000000E+03  0.17120000000E+03 0.  0.
         13    1    1    2    0    0 -0.87376464682E+01 -0.23005600266E+02  0.12477798707E+03  0.12718160767E+03  0.10566000000E+00 0.  1.
        994    1    1    2    0    0 -0.65700027658E+01  0.24838914999E-01  0.28678216700E+01  0.17135002175E+03  0.17120000000E+03 0.  0.
        998    1    1    2    0    0  0.15307649234E+02  0.22980761351E+02  0.13723541875E+04  0.13726683706E+04  0.10000000000E+02 0.  1.
</event>
<event>
 5    1  0.1321379E-008  0.3800412E+03  0.7957747E-01  0.3450979E+00
         13   -1    0    0    0    0  0.00000000000E+00  0.00000000000E+00  0.14999999963E+04  0.15000000000E+04  0.10566000000E+00 0.  1.
        994   -1    0    0    0    0 -0.00000000000E+00 -0.00000000000E+00  0.11368683772E-12  0.17120000000E+03  0.17120000000E+03 0.  0.
         13    1    1    2    0    0  0.55848968893E+02  0.20856808554E+02  0.35030003485E+03  0.35533679710E+03  0.10566000000E+00 0.  1.
        994    1    1    2    0    0 -0.51260858054E+02 -0.18903831263E+02  0.14154971609E+02  0.18026323426E+03  0.17120000000E+03 0.  0.
        998    1    1    2    0    0 -0.45881108388E+01 -0.19529772918E+01  0.11355449898E+04  0.11355999686E+04  0.10000000000E+02 0.  0.
</event>
<event>
 5    1  0.1321379E-008  0.3742468E+03  0.7957747E-01  0.3476598E+00
         13   -1    0    0    0    0  0.00000000000E+00  0.00000000000E+00  0.14999999963E+04  0.15000000000E+04  0.10566000000E+00 0. -1.
        994   -1    0    0    0    0 -0.00000000000E+00 -0.00000000000E+00  0.11368683772E-12  0.17120000000E+03  0.17120000000E+03 0.  0.
         13    1    1    2    0    0 -0.25622953280E+02  0.36020540528E+02  0.11552414173E+03  0.12369257682E+03  0.10566000000E+00 0. -1.
        994    1    1    2    0    0  0.42675891454E+02 -0.47620940741E+02  0.21131058502E+02  0.18396996315E+03  0.17120000000E+03 0.  0.
        998    1    1    2    0    0 -0.17052938174E+02  0.11600400213E+02  0.13633447960E+04  0.13635374600E+04  0.10000000000E+02 0. -1.
</event>
<event>
 5    1  0.1321379E-008  0.3816024E+03  0.7957747E-01  0.3444211E+00
         13   -1    0    0    0    0  0.00000000000E+00  0.00000000000E+00  0.14999999963E+04  0.15000000000E+04  0.10566000000E+00 0.  1.
        994   -1    0    0    0    0 -0.00000000000E+00 -0.00000000000E+00  0.11368683772E-12  0.17120000000E+03  0.17120000000E+03 0.  0.
         13    1    1    2    0    0 -0.21957043342E+02 -0.33808520947E+01  0.90626427247E+02  0.93309712210E+02  0.10566000000E+00 0.  1.
        994    1    1    2    0    0 -0.19793703809E+02 -0.29292017983E+02  0.74936077009E+01  0.17497258981E+03  0.17120000000E+03 0.  0.
        998    1    1    2    0    0  0.41750747152E+02  0.32672870078E+02  0.14018799613E+04  0.14029176980E+04  0.10000000000E+02 0.  1.
</event>
<event>
 5    1  0.1321379E-008  0.3856855E+03  0.7957747E-01  0.3426770E+00
         13   -1    0    0    0    0  0.00000000000E+00  0.00000000000E+00  0.14999999963E+04  0.15000000000E+04  0.10566000000E+00 0. -1.
        994   -1    0    0    0    0 -0.00000000000E+00 -0.00000000000E+00  0.11368683772E-12  0.17120000000E+03  0.17120000000E+03 0.  0.
         13    1    1    2    0    0  0.28020605800E+01  0.14286202989E+02  0.82052296994E+02  0.83333893137E+02  0.10566000000E+00 0. -1.
        994    1    1    2    0    0 -0.99772791980E+01 -0.88870459517E+01  0.18762242821E+01  0.17173085309E+03  0.17120000000E+03 0.  0.
        998    1    1    2    0    0  0.71752186180E+01 -0.53991570374E+01  0.14160714750E+04  0.14161352538E+04  0.10000000000E+02 0. -1.
</event>
<event>
 5    1  0.1321379E-008  0.3885135E+03  0.7957747E-01  0.3414906E+00
         13   -1    0    0    0    0  0.00000000000E+00  0.00000000000E+00  0.14999999963E+04  0.15000000000E+04  0.10566000000E+00 0.  1.
        994   -1    0    0    0    0 -0.00000000000E+00 -0.00000000000E+00  0.11368683772E-12  0.17120000000E+03  0.17120000000E+03 0.  0.
         13    1    1    2    0    0 -0.60649773466E+02 -0.33235189596E+02  0.98729721214E+02  0.12054269726E+03  0.10566000000E+00 0.  1.
        994    1    1    2    0    0  0.64567178795E+02  0.33777317052E+02  0.41231790882E+02  0.19057630573E+03  0.17120000000E+03 0.  0.
        998    1    1    2    0    0 -0.39174053293E+01 -0.54212745645E+00  0.13600384842E+04  0.13600809970E+04  0.10000000000E+02 0.  1.
</event>
<event>
 5    1  0.1321379E-008  0.3881737E+03  0.7957747E-01  0.3416323E+00
         13   -1    0    0    0    0  0.00000000000E+00  0.00000000000E+00  0.14999999963E+04  0.15000000000E+04  0.10566000000E+00 0. -1.
        994   -1    0    0    0    0 -0.00000000000E+00 -0.00000000000E+00  0.11368683772E-12  0.17120000000E+03  0.17120000000E+03 0.  0.
         13    1    1    2    0    0 -0.11782478037E+02 -0.23374377037E+02  0.62688602381E+01  0.26916501691E+02  0.10566000000E+00 0. -1.
        994    1    1    2    0    0  0.39192895356E+02  0.49982076670E+02  0.36123959494E+02  0.18614153616E+03  0.17120000000E+03 0.  0.
        998    1    1    2    0    0 -0.27410417320E+02 -0.26607699633E+02  0.14576071765E+04  0.14581419621E+04  0.10000000000E+02 0. -1.
</event>
<event>
 5    1  0.1321379E-008  0.3838093E+03  0.7957747E-01  0.3434738E+00
         13   -1    0    0    0    0  0.00000000000E+00  0.00000000000E+00  0.14999999963E+04  0.15000000000E+04  0.10566000000E+00 0. -1.
        994   -1    0    0    0    0 -0.00000000000E+00 -0.00000000000E+00  0.11368683772E-12  0.17120000000E+03  0.17120000000E+03 0.  0.
         13    1    1    2    0    0  0.11177055885E+02  0.16615310983E+02  0.12087249608E+03  0.12252006615E+03  0.10566000000E+00 0. -1.
        994    1    1    2    0    0  0.19319612756E+02  0.16948228213E+02  0.44060180343E+01  0.17317431354E+03  0.17120000000E+03 0.  0.
        998    1    1    2    0    0 -0.30496668642E+02 -0.33563539196E+02  0.13747214822E+04  0.13755056203E+04  0.10000000000E+02 0. -1.
</event>
<event>
 5    1  0.1321379E-008  0.3825960E+03  0.7957747E-01  0.3439932E+00
         13   -1    0    0    0    0  0.00000000000E+00  0.00000000000E+00  0.14999999963E+04  0.15000000000E+04  0.10566000000E+00 0.  1.
        994   -1    0    0    0    0 -0.00000000000E+00 -0.00000000000E+00  0.11368683772E-12  0.17120000000E+03  0.17120000000E+03 0.  0.
         13    1    1    2    0    0 -0.12365472013E+02  0.32786382592E+02  0.20294936256E+03  0.20595219520E+03  0.10566000000E+00 0.  1.
        994    1    1    2    0    0  0.49339760499E+01 -0.27641618315E+02  0.54459190352E+01  0.17357275482E+03  0.17120000000E+03 0.  0.
        998    1    1    2    0    0  0.74314959627E+01 -0.51447642766E+01  0.12916047147E+04  0.12916750500E+04  0.10000000000E+02 0.  1.
</event>
<event>
 5    1  0.1321379E-008  0.3834920E+03  0.7957747E-01  0.3436093E+00
         13   -1    0    0    0    0  0.00000000000E+00  0.00000000000E+00  0.14999999963E+04  0.15000000000E+04  0.10566000000E+00 0. -1.
        994   -1    0    0    0    0 -0.00000000000E+00 -0.00000000000E+00  0.11368683772E-12  0.17120000000E+03  0.17120000000E+03 0.  0.
         13    1    1    2    0    0 -0.32733599246E+01 -0.10243530859E+02  0.23294320134E+02  0.25656993670E+02  0.10566000000E+00 0. -1.
        994    1    1    2    0    0  0.33738231236E+01  0.92458325926E+01  0.27008757577E+01  0.17150394407E+03  0.17120000000E+03 0.  0.
        998    1    1    2    0    0 -0.10046319906E+00  0.99769826626E+00  0.14740048004E+04  0.14740390623E+04  0.10000000000E+02 0. -1.
</event>
<event>
 5    1  0.1321379E-008  0.3699641E+03  0.7957747E-01  0.3496056E+00
         13   -1    0    0    0    0  0.00000000000E+00  0.00000000000E+00  0.14999999963E+04  0.15000000000E+04  0.10566000000E+00 0.  1.
        994   -1    0    0    0    0 -0.00000000000E+00 -0.00000000000E+00  0.11368683772E-12  0.17120000000E+03  0.17120000000E+03 0.  0.
         13    1    1    2    0    0 -0.16198807438E+02  0.22881498602E+02  0.32912523397E+02  0.43234357878E+02  0.10566000000E+00 0.  1.
        994    1    1    2    0    0 -0.17085561723E+02 -0.15067420865E+02  0.12735917131E+02  0.17317790614E+03  0.17120000000E+03 0.  0.
        998    1    1    2    0    0  0.33284369161E+02 -0.78140777367E+01  0.14543515558E+04  0.14547877360E+04  0.10000000000E+02 0.  1.
</event>
<event>
 5    1  0.1321379E-008  0.3694916E+03  0.7957747E-01  0.3498231E+00
         13   -1    0    0    0    0  0.00000000000E+00  0.00000000000E+00  0.14999999963E+04  0.15000000000E+04  0.10566000000E+00 0. -1.
        994   -1    0    0    0    0 -0.00000000000E+00 -0.00000000000E+00  0.11368683772E-12  0.17120000000E+03  0.17120000000E+03 0.  0.
         13    1    1    2    0    0 -0.34842694764E+02  0.11476754584E+03  0.51608455486E+03  0.52983854322E+03  0.10566000000E+00 0. -1.
        994    1    1    2    0    0  0.26912712936E+02 -0.10874672508E+03  0.54354171071E+02  0.21169308030E+03  0.17120000000E+03 0.  0.
        998    1    1    2    0    0  0.79299818285E+01 -0.60208207623E+01  0.92956127035E+03  0.92966837648E+03  0.10000000000E+02 0. -1.
</event>
<event>
 5    1  0.1321379E-008  0.3832704E+03  0.7957747E-01  0.3437041E+00
         13   -1    0    0    0    0  0.00000000000E+00  0.00000000000E+00  0.14999999963E+04  0.15000000000E+04  0.10566000000E+00 0.  1.
        994   -1    0    0    0    0 -0.00000000000E+00 -0.00000000000E+00  0.11368683772E-12  0.17120000000E+03  0.17120000000E+03 0.  0.
         13    1    1    2    0    0 -0.22038976638E+01  0.14772107508E+02  0.42427188178E+02  0.44979437367E+02  0.10566000000E+00 0.  1.
        994    1    1    2    0    0  0.31759140752E+01 -0.18413020943E+02  0.36467491117E+01  0.17225523083E+03  0.17120000000E+03 0.  0.
        998    1    1    2    0    0 -0.97201641138E+00  0.36409134348E+01  0.14539260590E+04  0.14539653318E+04  0.10000000000E+02 0.  1.
</event>
<event>
 5    1  0.1321379E-008  0.3809738E+03  0.7957747E-01  0.3446929E+00
         13   -1    0    0    0    0  0.00000000000E+00  0.00000000000E+00  0.14999999963E+04  0.15000000000E+04  0.10566000000E+00 0. -1.
        994   -1    0    0    0    0 -0.00000000000E+00 -0.00000000000E+00  0.11368683772E-12  0.17120000000E+03  0.17120000000E+03 0.  0.
         13    1    1    2    0    0 -0.11339311916E+02 -0.14435550521E+02  0.44540050858E+02  0.48174603351E+02  0.10566000000E+00 0. -1.
        994    1    1    2    0    0 -0.33467727055E+01  0.21007741682E+02  0.51517389323E+01  0.17259347181E+03  0.17120000000E+03 0.  0.
        998    1    1    2    0    0  0.14686084621E+02 -0.65721911604E+01  0.14503082065E+04  0.14504319248E+04  0.10000000000E+02 0. -1.
</event>
<event>
 5    1  0.1321379E-008  0.3842681E+03  0.7957747E-01  0.3432782E+00
         13   -1    0    0    0    0  0.00000000000E+00  0.00000000000E+00  0.14999999963E+04  0.15000000000E+04  0.10566000000E+00 0.  1.
        994   -1    0    0    0    0 -0.00000000000E+00 -0.00000000000E+00  0.11368683772E-12  0.17120000000E+03  0.17120000000E+03 0.  0.
         13    1    1    2    0    0 -0.20117447139E+01 -0.18456630704E+02  0.10684849099E+03  0.10844955290E+03  0.10566000000E+00 0.  1.
        994    1    1    2    0    0  0.35478586572E+02 -0.17873182612E+02  0.72137907930E+01  0.17589672976E+03  0.17120000000E+03 0.  0.
        998    1    1    2    0    0 -0.33466841858E+02  0.36329813316E+02  0.13859377145E+04  0.13868537173E+04  0.10000000000E+02 0.  1.
</event>
<event>
 5    1  0.1321379E-008  0.3849462E+03  0.7957747E-01  0.3429900E+00
         13   -1    0    0    0    0  0.00000000000E+00  0.00000000000E+00  0.14999999963E+04  0.15000000000E+04  0.10566000000E+00 0. -1.
        994   -1    0    0    0    0 -0.00000000000E+00 -0.00000000000E+00  0.11368683772E-12  0.17120000000E+03  0.17120000000E+03 0.  0.
         13    1    1    2    0    0 -0.11707876898E+02 -0.10823286543E+02  0.76270111778E+02  0.77918925992E+02  0.10566000000E+00 0. -1.
        994    1    1    2    0    0  0.12139755462E+02  0.35369750548E+01  0.21829153526E+01  0.17168019389E+03  0.17120000000E+03 0.  0.
        998    1    1    2    0    0 -0.43187856373E+00  0.72863114885E+01  0.14215469691E+04  0.14216008801E+04  0.10000000000E+02 0. -1.
</event>
<event>
 5    1  0.1321379E-008  0.3818546E+03  0.7957747E-01  0.3443123E+00
         13   -1    0    0    0    0  0.00000000000E+00  0.00000000000E+00  0.14999999963E+04  0.15000000000E+04  0.10566000000E+00 0. -1.
        994   -1    0    0    0    0 -0.00000000000E+00 -0.00000000000E+00  0.11368683772E-12  0.17120000000E+03  0.17120000000E+03 0.  0.
         13    1    1    2    0    0  0.36720936234E+02 -0.10557707310E+03  0.25422325145E+03  0.27771283417E+03  0.10566000000E+00 0. -1.
        994    1    1    2    0    0 -0.62976633987E+02  0.12258130024E+03  0.90397500697E+02  0.23764128372E+03  0.17120000000E+03 0.  0.
        998    1    1    2    0    0  0.26255697752E+02 -0.17004227141E+02  0.11553792441E+04  0.11558458821E+04  0.10000000000E+02 0. -1.
</event>
<event>
 5    1  0.1321379E-008  0.3825500E+03  0.7957747E-01  0.3440130E+00
         13   -1    0    0    0    0  0.00000000000E+00  0.00000000000E+00  0.14999999963E+04  0.15000000000E+04  0.10566000000E+00 0. -1.
        994   -1    0    0    0    0 -0.00000000000E+00 -0.00000000000E+00  0.11368683772E-12  0.17120000000E+03  0.17120000000E+03 0.  0.
         13    1    1    2    0    0 -0.98039674511E+00  0.30588396844E+02  0.16404300789E+03  0.16687339752E+03  0.10566000000E+00 0. -1.
        994    1    1    2    0    0  0.46968135984E+01 -0.17414355508E+02  0.39306119931E+01  0.17219236204E+03  0.17120000000E+03 0.  0.
        998    1    1    2    0    0 -0.37164168533E+01 -0.13174041337E+02  0.13320263764E+04  0.13321342404E+04  0.10000000000E+02 0. -1.
</event>
<event>
 5    1  0.1321379E-008  0.3836726E+03  0.7957747E-01  0.3435321E+00
         13   -1    0    0    0    0  0.00000000000E+00  0.00000000000E+00  0.14999999963E+04  0.15000000000E+04  0.10566000000E+00 0. -1.
        994   -1    0    0    0    0 -0.00000000000E+00 -0.00000000000E+00  0.11368683772E-12  0.17120000000E+03  0.17120000000E+03 0.  0.
         13    1    1    2    0    0 -0.52734890141E+01 -0.21597979052E+02  0.10543908940E+03  0.10775757571E+03  0.10566000000E+00 0. -1.
        994    1    1    2    0    0  0.45550360950E+01  0.15792371086E+02  0.31833450600E+01  0.17201663008E+03  0.17120000000E+03 0.  0.
        998    1    1    2    0    0  0.71845291908E+00  0.58056079663E+01  0.13913775618E+04  0.13914257942E+04  0.10000000000E+02 0.  0.
</event>
<event>
 5    1  0.1321379E-008  0.3825230E+03  0.7957747E-01  0.3440246E+00
         13   -1    0    0    0    0  0.00000000000E+00  0.00000000000E+00  0.14999999963E+04  0.15000000000E+04  0.10566000000E+00 0.  1.
        994   -1    0    0    0    0 -0.00000000000E+00 -0.00000000000E+00  0.11368683772E-12  0.17120000000E+03  0.17120000000E+03 0.  0.
         13    1    1    2    0    0 -0.37009335149E+02  0.11827934123E+02  0.22844857650E+03  0.23172905339E+03  0.10566000000E+00 0.  1.
        994    1    1    2    0    0  0.37739805228E+02 -0.54537170711E+01  0.77004758942E+01  0.17556415710E+03  0.17120000000E+03 0.  0.
        998    1    1    2    0    0 -0.73047007904E+00 -0.63742170518E+01  0.12638509439E+04  0.12639067895E+04  0.10000000000E+02 0.  1.
</event>
<event>
 5    1  0.1321379E-008  0.3792104E+03  0.7957747E-01  0.3454604E+00
         13   -1    0    0    0    0  0.00000000000E+00  0.00000000000E+00  0.14999999963E+04  0.15000000000E+04  0.10566000000E+00 0. -1.
        994   -1    0    0    0    0 -0.00000000000E+00 -0.00000000000E+00  0.11368683772E-12  0.17120000000E+03  0.17120000000E+03 0.  0.
         13    1    1    2    0    0 -0.21431283862E+02  0.11161495690E+02  0.70997638478E+02  0.74997031591E+02  0.10566000000E+00 0. -1.
        994    1    1    2    0    0 -0.11121238345E+02  0.81643130756E+01  0.51704795035E+01  0.17183280190E+03  0.17120000000E+03 0.  0.
        998    1    1    2    0    0  0.32552522207E+02 -0.19325808766E+02  0.14238318783E+04  0.14243701665E+04  0.10000000000E+02 0. -1.
</event>
<event>
 5    1  0.1321379E-008  0.3861082E+03  0.7957747E-01  0.3424986E+00
         13   -1    0    0    0    0  0.00000000000E+00  0.00000000000E+00  0.14999999963E+04  0.15000000000E+04  0.10566000000E+00 0.  1.
        994   -1    0    0    0    0 -0.00000000000E+00 -0.00000000000E+00  0.11368683772E-12  0.17120000000E+03  0.17120000000E+03 0.  0.
         13    1    1    2    0    0  0.13359792040E+02 -0.45975290176E+00  0.80853362615E+02  0.81951039201E+02  0.10566000000E+00 0.  1.
        994    1    1    2    0    0 -0.12898543159E+02 -0.80796745621E+00  0.16284240696E+01  0.17169483682E+03  0.17120000000E+03 0.  0.
        998    1    1    2    0    0 -0.46124888120E+00  0.12677203580E+01  0.14175182096E+04  0.14175541240E+04  0.10000000000E+02 0.  0.
</event>
<event>
 5    1  0.1321379E-008  0.3802562E+03  0.7957747E-01  0.3450044E+00
         13   -1    0    0    0    0  0.00000000000E+00  0.00000000000E+00  0.14999999963E+04  0.15000000000E+04  0.10566000000E+00 0. -1.
        994   -1    0    0    0    0 -0.00000000000E+00 -0.00000000000E+00  0.11368683772E-12  0.17120000000E+03  0.17120000000E+03 0.  0.
         13    1    1    2    0    0 -0.20765760739E+02 -0.11434732975E+02  0.68222631856E+02  0.72224016772E+02  0.10566000000E+00 0. -1.
        994    1    1    2    0    0  0.15135506368E+02  0.72725849603E+01  0.49462498062E+01  0.17209264782E+03  0.17120000000E+03 0.  0.
        998    1    1    2    0    0  0.56302543714E+01  0.41621480144E+01  0.14268311146E+04  0.14268833354E+04  0.10000000000E+02 0. -1.
</event>
<event>
 5    1  0.1321379E-008  0.3801809E+03  0.7957747E-01  0.3450371E+00
         13   -1    0    0    0    0  0.00000000000E+00  0.00000000000E+00  0.14999999963E+04  0.15000000000E+04  0.10566000000E+00 0. -1.
        994   -1    0    0    0    0 -0.00000000000E+00 -0.00000000000E+00  0.11368683772E-12  0.17120000000E+03  0.17120000000E+03 0.  0.
         13    1    1    2    0    0  0.16286416937E+02 -0.13898528320E+02  0.55937938769E+02  0.59895581005E+02  0.10566000000E+00 0. -1.
        994    1    1    2    0    0 -0.86883852573E+01  0.61840293222E+01  0.44219083012E+01  0.17158882111E+03  0.17120000000E+03 0.  0.
        998    1    1    2    0    0 -0.75980316801E+01  0.77144989981E+01  0.14396401492E+04  0.14397155979E+04  0.10000000000E+02 0. -1.
</event>
<event>
 5    1  0.1321379E-008  0.3767504E+03  0.7957747E-01  0.3465431E+00
         13   -1    0    0    0    0  0.00000000000E+00  0.00000000000E+00  0.14999999963E+04  0.15000000000E+04  0.10566000000E+00 0.  1.
        994   -1    0    0    0    0 -0.00000000000E+00 -0.00000000000E+00  0.11368683772E-12  0.17120000000E+03  0.17120000000E+03 0.  0.
         13    1    1    2    0    0 -0.11181480184E+02 -0.64539247380E+01  0.11799156394E+02  0.17490280137E+02  0.10566000000E+00 0.  1.
        994    1    1    2    0    0  0.12231144124E+02  0.57157773423E+00  0.62894150042E+01  0.17175250894E+03  0.17120000000E+03 0.  0.
        998    1    1    2    0    0 -0.10496639400E+01  0.58823470038E+01  0.14819114249E+04  0.14819572109E+04  0.10000000000E+02 0.  1.
</event>
<event>
 5    1  0.1321379E-008  0.3785460E+03  0.7957747E-01  0.3457514E+00
         13   -1    0    0    0    0  0.00000000000E+00  0.00000000000E+00  0.14999999963E+04  0.15000000000E+04  0.10566000000E+00 0. -1.
        994   -1    0    0    0    0 -0.00000000000E+00 -0.00000000000E+00  0.11368683772E-12  0.17120000000E+03  0.17120000000E+03 0.  0.
         13    1    1    2    0    0 -0.11542032917E+01  0.17937913956E+02  0.31849192470E+02  0.36571616964E+02  0.10566000000E+00 0. -1.
        994    1    1    2    0    0 -0.10571669974E+02 -0.61432925695E+01  0.53712391302E+01  0.17172009335E+03  0.17120000000E+03 0.  0.
        998    1    1    2    0    0  0.11725873266E+02 -0.11794621387E+02  0.14627795647E+04  0.14629082897E+04  0.10000000000E+02 0. -1.
</event>
<event>
 5    1  0.1321379E-008  0.3736181E+03  0.7957747E-01  0.3479426E+00
         13   -1    0    0    0    0  0.00000000000E+00  0.00000000000E+00  0.14999999963E+04  0.15000000000E+04  0.10566000000E+00 0. -1.
        994   -1    0    0    0    0 -0.00000000000E+00 -0.00000000000E+00  0.11368683772E-12  0.17120000000E+03  0.17120000000E+03 0.  0.
         13    1    1    2    0    0  0.10078003456E+03 -0.49809948270E+02  0.54915733931E+03  0.56054566343E+03  0.10566000000E+00 0. -1.
        994    1    1    2    0    0 -0.94341581154E+02  0.53858558455E+02  0.48830118566E+02  0.20855430644E+03  0.17120000000E+03 0.  0.
        998    1    1    2    0    0 -0.64384534044E+01 -0.40486101844E+01  0.90201253841E+03  0.90210003013E+03  0.10000000000E+02 0.  0.
</event>
<event>
 5    1  0.1321379E-008  0.3805641E+03  0.7957747E-01  0.3448706E+00
         13   -1    0    0    0    0  0.00000000000E+00  0.00000000000E+00  0.14999999963E+04  0.15000000000E+04  0.10566000000E+00 0.  1.
        994   -1    0    0    0    0 -0.00000000000E+00 -0.00000000000E+00  0.11368683772E-12  0.17120000000E+03  0.17120000000E+03 0.  0.
         13    1    1    2    0    0  0.49025164324E+02 -0.20266269356E+02  0.26270157696E+03  0.26800432480E+03  0.10566000000E+00 0.  1.
        994    1    1    2    0    0 -0.58324414055E+02  0.40466232656E+02  0.20850236264E+02  0.18650315175E+03  0.17120000000E+03 0.  0.
        998    1    1    2    0    0  0.92992497307E+01 -0.20199963299E+02  0.12164481831E+04  0.12166925235E+04  0.10000000000E+02 0.  1.
</event>
<event>
 5    1  0.1321379E-008  0.3802792E+03  0.7957747E-01  0.3449944E+00
         13   -1    0    0    0    0  0.00000000000E+00  0.00000000000E+00  0.14999999963E+04  0.15000000000E+04  0.10566000000E+00 0.  1.
        994   -1    0    0    0    0 -0.00000000000E+00 -0.00000000000E+00  0.11368683772E-12  0.17120000000E+03  0.17120000000E+03 0.  0.
         13    1    1    2    0    0  0.24139733084E+02  0.38362942971E+01  0.76301665201E+02  0.80121152911E+02  0.10566000000E+00 0.  1.
        994    1    1    2    0    0 -0.33496362102E+01 -0.25661935971E+02  0.62323523669E+01  0.17325714195E+03  0.17120000000E+03 0.  0.
        998    1    1    2    0    0 -0.20790096874E+02  0.21825641674E+02  0.14174659787E+04  0.14178217051E+04  0.10000000000E+02 0.  1.
</event>
<event>
 5    1  0.1321379E-008  0.2832680E+03  0.7957747E-01  0.4023220E+00
         13   -1    0    0    0    0  0.00000000000E+00  0.00000000000E+00  0.14999999963E+04  0.15000000000E+04  0.10566000000E+00 0. -1.
        994   -1    0    0    0    0 -0.00000000000E+00 -0.00000000000E+00  0.11368683772E-12  0.17120000000E+03  0.17120000000E+03 0.  0.
         13    1    1    2    0    0  0.14502762820E+03  0.94150153437E+02  0.71119784143E+03  0.73191505324E+03  0.10566000000E+00 0. -1.
        994    1    1    2    0    0 -0.51496233405E+02 -0.28958722976E+02  0.44845947477E+02  0.18657724592E+03  0.17120000000E+03 0.  0.
        998    1    1    2    0    0 -0.93531394798E+02 -0.65191430461E+02  0.74395620737E+03  0.75270770084E+03  0.10000000000E+02 0.  1.
</event>
<event>
 5    1  0.1321379E-008  0.3754499E+03  0.7957747E-01  0.3471213E+00
         13   -1    0    0    0    0  0.00000000000E+00  0.00000000000E+00  0.14999999963E+04  0.15000000000E+04  0.10566000000E+00 0. -1.
        994   -1    0    0    0    0 -0.00000000000E+00 -0.00000000000E+00  0.11368683772E-12  0.17120000000E+03  0.17120000000E+03 0.  0.
         13    1    1    2    0    0  0.68069269043E+01  0.11624891946E+02  0.11113865417E+02  0.17464293149E+02  0.10566000000E+00 0. -1.
        994    1    1    2    0    0 -0.12863993820E+02 -0.73335860005E+01  0.71923975540E+01  0.17198963458E+03  0.17120000000E+03 0.  0.
        998    1    1    2    0    0  0.60570669156E+01 -0.42913059456E+01  0.14816937333E+04  0.14817460723E+04  0.10000000000E+02 0. -1.
</event>
<event>
 5    1  0.1321379E-008  0.3853008E+03  0.7957747E-01  0.3428397E+00
         13   -1    0    0    0    0  0.00000000000E+00  0.00000000000E+00  0.14999999963E+04  0.15000000000E+04  0.10566000000E+00 0. -1.
        994   -1    0    0    0    0 -0.00000000000E+00 -0.00000000000E+00  0.11368683772E-12  0.17120000000E+03  0.17120000000E+03 0.  0.
         13    1    1    2    0    0 -0.28226214273E+01 -0.18420581016E+02  0.10277624940E+03  0.10445215939E+03  0.10566000000E+00 0. -1.
        994    1    1    2    0    0 -0.53736527885E+00  0.28826569417E+02  0.42166884801E+01  0.17366197145E+03  0.17120000000E+03 0.  0.
        998    1    1    2    0    0  0.33599867061E+01 -0.10405988401E+02  0.13930070584E+04  0.13930858692E+04  0.10000000000E+02 0. -1.
</event>
<event>
 5    1  0.1321379E-008  0.3820583E+03  0.7957747E-01  0.3442245E+00
         13   -1    0    0    0    0  0.00000000000E+00  0.00000000000E+00  0.14999999963E+04  0.15000000000E+04  0.10566000000E+00 0. -1.
        994   -1    0    0    0    0 -0.00000000000E+00 -0.00000000000E+00  0.11368683772E-12  0.17120000000E+03  0.17120000000E+03 0.  0.
         13    1    1    2    0    0 -0.13859818594E+02 -0.40007794925E+02  0.43837132490E+02  0.60946071040E+02  0.10566000000E+00 0. -1.
        994    1    1    2    0    0  0.48328662363E+01  0.39610605386E+02  0.23298636389E+02  0.17732631816E+03  0.17120000000E+03 0.  0.
        998    1    1    2    0    0  0.90269523576E+01  0.39718953844E+00  0.14328642274E+04  0.14329276108E+04  0.10000000000E+02 0. -1.
</event>
<event>
 5    1  0.1321379E-008  0.3775513E+03  0.7957747E-01  0.3461890E+00
         13   -1    0    0    0    0  0.00000000000E+00  0.00000000000E+00  0.14999999963E+04  0.15000000000E+04  0.10566000000E+00 0.  1.
        994   -1    0    0    0    0 -0.00000000000E+00 -0.00000000000E+00  0.11368683772E-12  0.17120000000E+03  0.17120000000E+03 0.  0.
         13    1    1    2    0    0  0.43685237088E+02  0.10267620863E+02  0.16891118160E+03  0.17477077104E+03  0.10566000000E+00 0.  1.
        994    1    1    2    0    0 -0.40942610386E+02 -0.92566167294E+01  0.11335699954E+02  0.17663499198E+03  0.17120000000E+03 0.  0.
        998    1    1    2    0    0 -0.27426267022E+01 -0.10110041338E+01  0.13197531147E+04  0.13197942370E+04  0.10000000000E+02 0.  1.
</event>
<event>
 5    1  0.1321379E-008  0.3839921E+03  0.7957747E-01  0.3433958E+00
         13   -1    0    0    0    0  0.00000000000E+00  0.00000000000E+00  0.14999999963E+04  0.15000000000E+04  0.10566000000E+00 0. -1.
        994   -1    0    0    0    0 -0.00000000000E+00 -0.00000000000E+00  0.11368683772E-12  0.17120000000E+03  0.17120000000E+03 0.  0.
         13    1    1    2    0    0  0.44697108878E+01 -0.17004495022E+02  0.76991163436E+02  0.78973296611E+02  0.10566000000E+00 0. -1.
        994    1    1    2    0    0 -0.16133323106E+02 -0.32524278746E+01  0.30255746661E+01  0.17201586120E+03  0.17120000000E+03 0.  0.
        998    1    1    2    0    0  0.11663612218E+02  0.20256922897E+02  0.14199832582E+04  0.14202108422E+04  0.10000000000E+02 0. -1.
</event>
<event>
 5    1  0.1321379E-008  0.3724257E+03  0.7957747E-01  0.3484816E+00
         13   -1    0    0    0    0  0.00000000000E+00  0.00000000000E+00  0.14999999963E+04  0.15000000000E+04  0.10566000000E+00 0.  1.
        994   -1    0    0    0    0 -0.00000000000E+00 -0.00000000000E+00  0.11368683772E-12  0.17120000000E+03  0.17120000000E+03 0.  0.
         13    1    1    2    0    0 -0.15550331926E+02 -0.72408897937E+01  0.14750117532E+02  0.22623448880E+02  0.10566000000E+00 0.  1.
        994    1    1    2    0    0  0.14558718835E+02  0.62726505713E+01  0.88688103899E+01  0.17216096607E+03  0.17120000000E+03 0.  0.
        998    1    1    2    0    0  0.99161309108E+00  0.96823922237E+00  0.14763810684E+04  0.14764155851E+04  0.10000000000E+02 0.  1.
</event>
<event>
 5    1  0.1321379E-008  0.3844891E+03  0.7957747E-01  0.3431842E+00
         13   -1    0    0    0    0  0.00000000000E+00  0.00000000000E+00  0.14999999963E+04  0.15000000000E+04  0.10566000000E+00 0.  1.
        994   -1    0    0    0    0 -0.00000000000E+00 -0.00000000000E+00  0.11368683772E-12  0.17120000000E+03  0.17120000000E+03 0.  0.
         13    1    1    2    0    0 -0.18996465160E+02  0.85867993483E+00  0.10938386932E+03  0.11102452455E+03  0.10566000000E+00 0.  1.
        994    1    1    2    0    0 -0.48731200959E+01 -0.69810215752E+00  0.19638159510E+01  0.17128202246E+03  0.17120000000E+03 0.  0.
        998    1    1    2    0    0  0.23869585256E+02 -0.16057777731E+00  0.13886523110E+04  0.13888934530E+04  0.10000000000E+02 0.  1.
</event>
<event>
 5    1  0.1321379E-008  0.3844014E+03  0.7957747E-01  0.3432215E+00
         13   -1    0    0    0    0  0.00000000000E+00  0.00000000000E+00  0.14999999963E+04  0.15000000000E+04  0.10566000000E+00 0.  1.
        994   -1    0    0    0    0 -0.00000000000E+00 -0.00000000000E+00  0.11368683772E-12  0.17120000000E+03  0.17120000000E+03 0.  0.
         13    1    1    2    0    0 -0.12617754749E+02 -0.10851285358E+01  0.41848668318E+02  0.43723076777E+02  0.10566000000E+00 0.  1.
        994    1    1    2    0    0  0.56786317315E+01 -0.26096619616E+01  0.20563361488E+01  0.17132637191E+03  0.17120000000E+03 0.  0.
        998    1    1    2    0    0  0.69391230177E+01  0.36947904974E+01  0.14560949918E+04  0.14561505513E+04  0.10000000000E+02 0.  1.
</event>
<event>
 5    1  0.1321379E-008  0.3743625E+03  0.7957747E-01  0.3476079E+00
         13   -1    0    0    0    0  0.00000000000E+00  0.00000000000E+00  0.14999999963E+04  0.15000000000E+04  0.10566000000E+00 0. -1.
        994   -1    0    0    0    0 -0.00000000000E+00 -0.00000000000E+00  0.11368683772E-12  0.17120000000E+03  0.17120000000E+03 0.  0.
         13    1    1    2    0    0 -0.64708763449E+02  0.39229513438E+02  0.18433233044E+03  0.19926012647E+03  0.10566000000E+00 0. -1.
        994    1    1    2    0    0  0.69968030576E+02 -0.34094683339E+02  0.35097166843E+02  0.19130923620E+03  0.17120000000E+03 0.  0.
        998    1    1    2    0    0 -0.52592671278E+01 -0.51348300990E+01  0.12805704990E+04  0.12806306373E+04  0.10000000000E+02 0. -1.
</event>
<event>
 5    1  0.1321379E-008  0.3803401E+03  0.7957747E-01  0.3449679E+00
         13   -1    0    0    0    0  0.00000000000E+00  0.00000000000E+00  0.14999999963E+04  0.15000000000E+04  0.10566000000E+00 0. -1.
        994   -1    0    0    0    0 -0.00000000000E+00 -0.00000000000E+00  0.11368683772E-12  0.17120000000E+03  0.17120000000E+03 0.  0.
         13    1    1    2    0    0 -0.23290433770E+02 -0.40692899229E+02  0.22852192749E+03  0.23328231579E+03  0.10566000000E+00 0. -1.
        994    1    1    2    0    0  0.25838791656E+02  0.43842175981E+02  0.12658146213E+02  0.17905152391E+03  0.17120000000E+03 0.  0.
        998    1    1    2    0    0 -0.25483578860E+01 -0.31492767518E+01  0.12588199226E+04  0.12588661603E+04  0.10000000000E+02 0. -1.
</event>
<event>
 5    1  0.1321379E-008  0.3851898E+03  0.7957747E-01  0.3428868E+00
         13   -1    0    0    0    0  0.00000000000E+00  0.00000000000E+00  0.14999999963E+04  0.15000000000E+04  0.10566000000E+00 0.  1.
        994   -1    0    0    0    0 -0.00000000000E+00 -0.00000000000E+00  0.11368683772E-12  0.17120000000E+03  0.17120000000E+03 0.  0.
         13    1    1    2    0    0 -0.87069245886E+01 -0.10661711180E+02  0.58432341671E+02  0.60031927658E+02  0.10566000000E+00 0.  1.
        994    1    1    2    0    0  0.90268155222E+01  0.16214018299E+02  0.26685934641E+01  0.17222351517E+03  0.17120000000E+03 0.  0.
        998    1    1    2    0    0 -0.31989093360E+00 -0.55523071194E+01  0.14388990611E+04  0.14389445572E+04  0.10000000000E+02 0.  1.
</event>
<event>
 5    1  0.1321379E-008  0.3724690E+03  0.7957747E-01  0.3484620E+00
         13   -1    0    0    0    0  0.00000000000E+00  0.00000000000E+00  0.14999999963E+04  0.15000000000E+04  0.10566000000E+00 0.  1.
        994   -1    0    0    0    0 -0.00000000000E+00 -0.00000000000E+00  0.11368683772E-12  0.17120000000E+03  0.17120000000E+03 0.  0.
         13    1    1    2    0    0 -0.24769681602E+02  0.57394923554E+02  0.31306042306E+03  0.31924058957E+03  0.10566000000E+00 0.  1.
        994    1    1    2    0    0  0.82317725381E+02  0.22159062787E+02  0.33326492658E+02  0.19413224124E+03  0.17120000000E+03 0.  0.
        998    1    1    2    0    0 -0.57548043778E+02 -0.79553986340E+02  0.11536130806E+04  0.11578271692E+04  0.10000000000E+02 0.  1.
</event>
<event>
 5    1  0.1321379E-008  0.3839181E+03  0.7957747E-01  0.3434274E+00
         13   -1    0    0    0    0  0.00000000000E+00  0.00000000000E+00  0.14999999963E+04  0.15000000000E+04  0.10566000000E+00 0. -1.
        994   -1    0    0    0    0 -0.00000000000E+00 -0.00000000000E+00  0.11368683772E-12  0.17120000000E+03  0.17120000000E+03 0.  0.
         13    1    1    2    0    0  0.13611622192E+02 -0.50982628870E+00  0.42158173750E+02  0.44304164133E+02  0.10566000000E+00 0. -1.
        994    1    1    2    0    0 -0.95737217707E+01  0.15016719613E+01  0.24782428130E+01  0.17149196149E+03  0.17120000000E+03 0.  0.
        998    1    1    2    0    0 -0.40379004215E+01 -0.99184567265E+00  0.14553635797E+04  0.14554038744E+04  0.10000000000E+02 0. -1.
</event>
<event>
 5    1  0.1321379E-008  0.3818848E+03  0.7957747E-01  0.3442993E+00
         13   -1    0    0    0    0  0.00000000000E+00  0.00000000000E+00  0.14999999963E+04  0.15000000000E+04  0.10566000000E+00 0. -1.
        994   -1    0    0    0    0 -0.00000000000E+00 -0.00000000000E+00  0.11368683772E-12  0.17120000000E+03  0.17120000000E+03 0.  0.
         13    1    1    2    0    0 -0.24142409656E+02 -0.25990552098E+01  0.90738839203E+02  0.93931672698E+02  0.10566000000E+00 0. -1.
        994    1    1    2    0    0  0.16663211936E+02  0.56410087572E+00  0.41088006869E+01  0.17205901047E+03  0.17120000000E+03 0.  0.
        998    1    1    2    0    0  0.74791977200E+01  0.20349543341E+01  0.14051523564E+04  0.14052093168E+04  0.10000000000E+02 0. -1.
</event>
<event>
 5    1  0.1321379E-008  0.3823116E+03  0.7957747E-01  0.3441155E+00
         13   -1    0    0    0    0  0.00000000000E+00  0.00000000000E+00  0.14999999963E+04  0.15000000000E+04  0.10566000000E+00 0.  1.
        994   -1    0    0    0    0 -0.00000000000E+00 -0.00000000000E+00  0.11368683772E-12  0.17120000000E+03  0.17120000000E+03 0.  0.
         13    1    1    2    0    0 -0.97742685985E+01 -0.12175821191E+02  0.48072642209E+02  0.50544802317E+02  0.10566000000E+00 0.  1.
        994    1    1    2    0    0  0.12109527096E+01 -0.41841985087E+02  0.88058184168E+01  0.17646302888E+03  0.17120000000E+03 0.  0.
        998    1    1    2    0    0  0.85633158889E+01  0.54017806278E+02  0.14431215357E+04  0.14441921688E+04  0.10000000000E+02 0.  1.
</event>
<event>
 5    1  0.1321379E-008  0.3726967E+03  0.7957747E-01  0.3483589E+00
         13   -1    0    0    0    0  0.00000000000E+00  0.00000000000E+00  0.14999999963E+04  0.15000000000E+04  0.10566000000E+00 0. -1.
        994   -1    0    0    0    0 -0.00000000000E+00 -0.00000000000E+00  0.11368683772E-12  0.17120000000E+03  0.17120000000E+03 0.  0.
         13    1    1    2    0    0  0.22678936266E+02  0.15849288116E+01  0.29501494919E+02  0.37245073714E+02  0.10566000000E+00 0. -1.
        994    1    1    2    0    0 -0.16178233234E+02 -0.12869727881E+02  0.93317672113E+01  0.17269593801E+03  0.17120000000E+03 0.  0.
        998    1    1    2    0    0 -0.65007030322E+01  0.11284799069E+02  0.14611667341E+04  0.14612589883E+04  0.10000000000E+02 0. -1.
</event>
<event>
 5    1  0.1998350E-008  0.3863616E+03  0.7957747E-01  0.3423918E+00
         13   -1    0    0    0    0  0.00000000000E+00  0.00000000000E+00  0.14999999963E+04  0.15000000000E+04  0.10566000000E+00 0.  1.
        994   -1    0    0    0    0 -0.00000000000E+00 -0.00000000000E+00  0.11368683772E-12  0.17120000000E+03  0.17120000000E+03 0.  0.
         13    1    1    2    0    0  0.72271328712E+01  0.69917837073E+01  0.58304217812E+02  0.59165103462E+02  0.10566000000E+00 0.  1.
        994    1    1    2    0    0  0.75239205622E+01 -0.33531597810E+01  0.11778098769E+01  0.17140210120E+03  0.17120000000E+03 0.  0.
        998    1    1    2    0    0 -0.14751053433E+02 -0.36386239263E+01  0.14405179686E+04  0.14406327953E+04  0.10000000000E+02 0.  1.
</event>
<event>
 5    1  0.1321379E-008  0.3686478E+03  0.7957747E-01  0.3502128E+00
         13   -1    0    0    0    0  0.00000000000E+00  0.00000000000E+00  0.14999999963E+04  0.15000000000E+04  0.10566000000E+00 0.  1.
        994   -1    0    0    0    0 -0.00000000000E+00 -0.00000000000E+00  0.11368683772E-12  0.17120000000E+03  0.17120000000E+03 0.  0.
         13    1    1    2    0    0  0.40261054480E+01 -0.57239589619E+02  0.14476313425E+03  0.15572076402E+03  0.10566000000E+00 0.  1.
        994    1    1    2    0    0 -0.47652039162E+01  0.60263442053E+02  0.22781976999E+02  0.18298319074E+03  0.17120000000E+03 0.  0.
        998    1    1    2    0    0  0.73909846824E+00 -0.30238524338E+01  0.13324548850E+04  0.13324960452E+04  0.10000000000E+02 0.  1.
</event>
<event>
 5    1  0.1321379E-008  0.3779837E+03  0.7957747E-01  0.3459985E+00
         13   -1    0    0    0    0  0.00000000000E+00  0.00000000000E+00  0.14999999963E+04  0.15000000000E+04  0.10566000000E+00 0. -1.
        994   -1    0    0    0    0 -0.00000000000E+00 -0.00000000000E+00  0.11368683772E-12  0.17120000000E+03  0.17120000000E+03 0.  0.
         13    1    1    2    0    0 -0.11375738730E+02  0.10059604629E+02  0.19836716629E+02  0.24982185005E+02  0.10566000000E+00 0. -1.
        994    1    1    2    0    0  0.10790940089E+02 -0.14017621656E+02  0.62082786155E+01  0.17222346190E+03  0.17120000000E+03 0.  0.
        998    1    1    2    0    0  0.58479864110E+00  0.39580170268E+01  0.14739550010E+04  0.14739943531E+04  0.10000000000E+02 0. -1.
</event>
<event>
 5    1  0.1321379E-008  0.3845720E+03  0.7957747E-01  0.3431489E+00
         13   -1    0    0    0    0  0.00000000000E+00  0.00000000000E+00  0.14999999963E+04  0.15000000000E+04  0.10566000000E+00 0. -1.
        994   -1    0    0    0    0 -0.00000000000E+00 -0.00000000000E+00  0.11368683772E-12  0.17120000000E+03  0.17120000000E+03 0.  0.
         13    1    1    2    0    0  0.19764755169E+01  0.18969749183E+02  0.96873591651E+02  0.98733285993E+02  0.10566000000E+00 0. -1.
        994    1    1    2    0    0 -0.90849694522E+01 -0.13644776925E+02  0.27282091833E+01  0.17200465032E+03  0.17120000000E+03 0.  0.
        998    1    1    2    0    0  0.71084939353E+01 -0.53249722579E+01  0.14003981954E+04  0.14004620637E+04  0.10000000000E+02 0. -1.
</event>
<event>
 5    1  0.1321379E-008  0.3811991E+03  0.7957747E-01  0.3445954E+00
         13   -1    0    0    0    0  0.00000000000E+00  0.00000000000E+00  0.14999999963E+04  0.15000000000E+04  0.10566000000E+00 0. -1.
        994   -1    0    0    0    0 -0.00000000000E+00 -0.00000000000E+00  0.11368683772E-12  0.17120000000E+03  0.17120000000E+03 0.  0.
         13    1    1    2    0    0  0.29374226565E+00  0.11459763079E+02  0.16861839221E+02  0.20389831787E+02  0.10566000000E+00 0. -1.
        994    1    1    2    0    0  0.42894942266E+01 -0.14663172863E+02  0.43066474920E+01  0.17193427701E+03  0.17120000000E+03 0.  0.
        998    1    1    2    0    0 -0.45832364923E+01  0.32034097845E+01  0.14788315096E+04  0.14788758912E+04  0.10000000000E+02 0. -1.
</event>
<event>
 5    1  0.1321379E-008  0.3842384E+03  0.7957747E-01  0.3432909E+00
         13   -1    0    0    0    0  0.00000000000E+00  0.00000000000E+00  0.14999999963E+04  0.15000000000E+04  0.10566000000E+00 0.  1.
        994   -1    0    0    0    0 -0.00000000000E+00 -0.00000000000E+00  0.11368683772E-12  0.17120000000E+03  0.17120000000E+03 0.  0.
         13    1    1    2    0    0 -0.14014443887E+01 -0.10301692659E+02  0.26106642158E+02  0.28100833561E+02  0.10566000000E+00 0.  1.
        994    1    1    2    0    0 -0.45534193438E+00  0.97930504854E+01  0.23256626356E+01  0.17149623868E+03  0.17120000000E+03 0.  0.
        998    1    1    2    0    0  0.18567863231E+01  0.50864217322E+00  0.14715676915E+04  0.14716029278E+04  0.10000000000E+02 0.  1.
</event>
<event>
 5    1  0.1321379E-008  0.3771265E+03  0.7957747E-01  0.3463767E+00
         13   -1    0    0    0    0  0.00000000000E+00  0.00000000000E+00  0.14999999963E+04  0.15000000000E+04  0.10566000000E+00 0.  1.
        994   -1    0    0    0    0 -0.00000000000E+00 -0.00000000000E+00  0.11368683772E-12  0.17120000000E+03  0.17120000000E+03 0.  0.
         13    1    1    2    0    0 -0.50862322912E+01  0.13794724843E+02  0.16742562266E+02  0.22282027459E+02  0.10566000000E+00 0.  1.
        994    1    1    2    0    0  0.27774679338E+01 -0.14541457225E+02  0.63307887122E+01  0.17195548026E+03  0.17120000000E+03 0.  0.
        998    1    1    2    0    0  0.23087643574E+01  0.74673238255E+00  0.14769266453E+04  0.14769624923E+04  0.10000000000E+02 0.  1.
</event>
<event>
 5    1  0.1321379E-008  0.3697390E+03  0.7957747E-01  0.3497091E+00
         13   -1    0    0    0    0  0.00000000000E+00  0.00000000000E+00  0.14999999963E+04  0.15000000000E+04  0.10566000000E+00 0.  1.
        994   -1    0    0    0    0 -0.00000000000E+00 -0.00000000000E+00  0.11368683772E-12  0.17120000000E+03  0.17120000000E+03 0.  0.
         13    1    1    2    0    0  0.11950235111E+02  0.20121220787E+02  0.25972610477E+02  0.34960825279E+02  0.10566000000E+00 0.  1.
        994    1    1    2    0    0  0.12733345127E+01 -0.52360652166E+01  0.95060557602E+01  0.17154836885E+03  0.17120000000E+03 0.  0.
        998    1    1    2    0    0 -0.13223569623E+02 -0.14885155571E+02  0.14645213300E+04  0.14646908059E+04  0.10000000000E+02 0.  1.
</event>
<event>
 5    1  0.1321379E-008  0.3836672E+03  0.7957747E-01  0.3435344E+00
         13   -1    0    0    0    0  0.00000000000E+00  0.00000000000E+00  0.14999999963E+04  0.15000000000E+04  0.10566000000E+00 0.  1.
        994   -1    0    0    0    0 -0.00000000000E+00 -0.00000000000E+00  0.11368683772E-12  0.17120000000E+03  0.17120000000E+03 0.  0.
         13    1    1    2    0    0  0.18780439718E+02 -0.12535984640E+02  0.11914515049E+03  0.12126596339E+03  0.10566000000E+00 0.  1.
        994    1    1    2    0    0 -0.95982294413E+01 -0.69519843095E+01  0.27573284378E+01  0.17163187045E+03  0.17120000000E+03 0.  0.
        998    1    1    2    0    0 -0.91822102763E+01  0.19487968949E+02  0.13780975173E+04  0.13783021662E+04  0.10000000000E+02 0.  1.
</event>
<event>
 5    1  0.1321379E-008  0.3847152E+03  0.7957747E-01  0.3430881E+00
         13   -1    0    0    0    0  0.00000000000E+00  0.00000000000E+00  0.14999999963E+04  0.15000000000E+04  0.10566000000E+00 0. -1.
        994   -1    0    0    0    0 -0.00000000000E+00 -0.00000000000E+00  0.11368683772E-12  0.17120000000E+03  0.17120000000E+03 0.  0.
         13    1    1    2    0    0 -0.10431992664E+02  0.18804849816E+01  0.31807993292E+02  0.33527933071E+02  0.10566000000E+00 0. -1.
        994    1    1    2    0    0  0.15119070294E+01 -0.15696414532E+02  0.25905295226E+01  0.17194421809E+03  0.17120000000E+03 0.  0.
        998    1    1    2    0    0  0.89200856345E+01  0.13815929550E+02  0.14656014735E+04  0.14657278488E+04  0.10000000000E+02 0. -1.
</event>
<event>
 5    1  0.1321379E-008  0.3841939E+03  0.7957747E-01  0.3433098E+00
         13   -1    0    0    0    0  0.00000000000E+00  0.00000000000E+00  0.14999999963E+04  0.15000000000E+04  0.10566000000E+00 0. -1.
        994   -1    0    0    0    0 -0.00000000000E+00 -0.00000000000E+00  0.11368683772E-12  0.17120000000E+03  0.17120000000E+03 0.  0.
         13    1    1    2    0    0 -0.15805887259E+02  0.21582093394E+02  0.16070877641E+03  0.16292002580E+03  0.10566000000E+00 0. -1.
        994    1    1    2    0    0  0.10163605243E+02 -0.24985194094E+02  0.44335164543E+01  0.17336855212E+03  0.17120000000E+03 0.  0.
        998    1    1    2    0    0  0.56422820154E+01  0.34031007008E+01  0.13348577034E+04  0.13349114221E+04  0.10000000000E+02 0. -1.
</event>
<event>
 5    1  0.1321379E-008  0.3810228E+03  0.7957747E-01  0.3446717E+00
         13   -1    0    0    0    0  0.00000000000E+00  0.00000000000E+00  0.14999999963E+04  0.15000000000E+04  0.10566000000E+00 0. -1.
        994   -1    0    0    0    0 -0.00000000000E+00 -0.00000000000E+00  0.11368683772E-12  0.17120000000E+03  0.17120000000E+03 0.  0.
         13    1    1    2    0    0  0.93415673806E-01  0.27108720827E+02  0.93386409926E+02  0.97241576470E+02  0.10566000000E+00 0. -1.
        994    1    1    2    0    0  0.58922726559E+01 -0.30404362452E+02  0.68198635146E+01  0.17411230477E+03  0.17120000000E+03 0.  0.
        998    1    1    2    0    0 -0.59856883297E+01  0.32956416256E+01  0.13997937228E+04  0.13998461188E+04  0.10000000000E+02 0. -1.
</event>
<event>
 5    1  0.1321379E-008  0.3796583E+03  0.7957747E-01  0.3452648E+00
         13   -1    0    0    0    0  0.00000000000E+00  0.00000000000E+00  0.14999999963E+04  0.15000000000E+04  0.10566000000E+00 0. -1.
        994   -1    0    0    0    0 -0.00000000000E+00 -0.00000000000E+00  0.11368683772E-12  0.17120000000E+03  0.17120000000E+03 0.  0.
         13    1    1    2    0    0  0.34540752234E+02 -0.24994148728E+02  0.23925327314E+03  0.24302244939E+03  0.10566000000E+00 0. -1.
        994    1    1    2    0    0  0.79730107875E+01  0.27440369022E+02  0.70432681387E+01  0.17371122698E+03  0.17120000000E+03 0.  0.
        998    1    1    2    0    0 -0.42513763021E+02 -0.24462202940E+01  0.12537034550E+04  0.12544663236E+04  0.10000000000E+02 0. -1.
</event>
<event>
 5    1  0.4149067E-008  0.3864742E+03  0.7957747E-01  0.3423444E+00
         13   -1    0    0    0    0  0.00000000000E+00  0.00000000000E+00  0.14999999963E+04  0.15000000000E+04  0.10566000000E+00 0.  1.
        994   -1    0    0    0    0 -0.00000000000E+00 -0.00000000000E+00  0.11368683772E-12  0.17120000000E+03  0.17120000000E+03 0.  0.
         13    1    1    2    0    0 -0.72734008741E+01 -0.73087842484E+01  0.58106396908E+02  0.59014279739E+02  0.10566000000E+00 0.  1.
        994    1    1    2    0    0  0.88545498747E+01  0.76444958397E+01  0.13479770911E+01  0.17160448249E+03  0.17120000000E+03 0.  0.
        998    1    1    2    0    0 -0.15811490006E+01 -0.33571159133E+00  0.14405456223E+04  0.14405812378E+04  0.10000000000E+02 0.  1.
</event>
<event>
 5    1  0.1321379E-008  0.3759153E+03  0.7957747E-01  0.3469139E+00
         13   -1    0    0    0    0  0.00000000000E+00  0.00000000000E+00  0.14999999963E+04  0.15000000000E+04  0.10566000000E+00 0.  1.
        994   -1    0    0    0    0 -0.00000000000E+00 -0.00000000000E+00  0.11368683772E-12  0.17120000000E+03  0.17120000000E+03 0.  0.
         13    1    1    2    0    0  0.27346744254E+01  0.35553674730E+02  0.10401151512E+03  0.10995430266E+03  0.10566000000E+00 0.  1.
        994    1    1    2    0    0  0.99527229842E+01 -0.14181100422E+02  0.72272890866E+01  0.17222611304E+03  0.17120000000E+03 0.  0.
        998    1    1    2    0    0 -0.12687397410E+02 -0.21372574308E+02  0.13887611921E+04  0.13890195843E+04  0.10000000000E+02 0.  1.
</event>
<event>
 5    1  0.1321379E-008  0.3800742E+03  0.7957747E-01  0.3450835E+00
         13   -1    0    0    0    0  0.00000000000E+00  0.00000000000E+00  0.14999999963E+04  0.15000000000E+04  0.10566000000E+00 0.  1.
        994   -1    0    0    0    0 -0.00000000000E+00 -0.00000000000E+00  0.11368683772E-12  0.17120000000E+03  0.17120000000E+03 0.  0.
         13    1    1    2    0    0  0.66997331722E+01 -0.13791483367E+02  0.27975773769E+02  0.31902139741E+02  0.10566000000E+00 0.  1.
        994    1    1    2    0    0  0.84473892426E+01  0.34288162102E+01  0.43735172359E+01  0.17149834640E+03  0.17120000000E+03 0.  0.
        998    1    1    2    0    0 -0.15147122415E+02  0.10362667157E+02  0.14676507053E+04  0.14677995139E+04  0.10000000000E+02 0.  1.
</event>
<event>
 5    1  0.1321379E-008  0.3843177E+03  0.7957747E-01  0.3432571E+00
         13   -1    0    0    0    0  0.00000000000E+00  0.00000000000E+00  0.14999999963E+04  0.15000000000E+04  0.10566000000E+00 0.  1.
        994   -1    0    0    0    0 -0.00000000000E+00 -0.00000000000E+00  0.11368683772E-12  0.17120000000E+03  0.17120000000E+03 0.  0.
         13    1    1    2    0    0  0.20808550412E+02 -0.10360805560E+02  0.13685206717E+03  0.13881225275E+03  0.10566000000E+00 0.  1.
        994    1    1    2    0    0 -0.86955081815E+01  0.14891652506E+02  0.29500104330E+01  0.17209159113E+03  0.17120000000E+03 0.  0.
        998    1    1    2    0    0 -0.12113042231E+02 -0.45308469458E+01  0.13601979187E+04  0.13602961561E+04  0.10000000000E+02 0.  1.
</event>
<event>
 5    1  0.1321379E-008  0.3829487E+03  0.7957747E-01  0.3438419E+00
         13   -1    0    0    0    0  0.00000000000E+00  0.00000000000E+00  0.14999999963E+04  0.15000000000E+04  0.10566000000E+00 0. -1.
        994   -1    0    0    0    0 -0.00000000000E+00 -0.00000000000E+00  0.11368683772E-12  0.17120000000E+03  0.17120000000E+03 0.  0.
         13    1    1    2    0    0  0.24917419665E+02  0.32479854937E+01  0.12165894801E+03  0.12422696168E+03  0.10566000000E+00 0. -1.
        994    1    1    2    0    0 -0.11398528991E+02  0.37119612087E+00  0.30827012462E+01  0.17160713067E+03  0.17120000000E+03 0.  0.
        998    1    1    2    0    0 -0.13518890674E+02 -0.36191816146E+01  0.13752583470E+04  0.13753659076E+04  0.10000000000E+02 0. -1.
</event>
<event>
 5    1  0.1321379E-008  0.3819714E+03  0.7957747E-01  0.3442619E+00
         13   -1    0    0    0    0  0.00000000000E+00  0.00000000000E+00  0.14999999963E+04  0.15000000000E+04  0.10566000000E+00 0.  1.
        994   -1    0    0    0    0 -0.00000000000E+00 -0.00000000000E+00  0.11368683772E-12  0.17120000000E+03  0.17120000000E+03 0.  0.
         13    1    1    2    0    0 -0.33294672937E+01  0.19265520543E+02  0.64975324111E+02  0.67853146880E+02  0.10566000000E+00 0.  1.
        994    1    1    2    0    0 -0.50141832061E+01  0.40308396868E+01  0.32787731027E+01  0.17135221053E+03  0.17120000000E+03 0.  0.
        998    1    1    2    0    0  0.83436504999E+01 -0.23296360230E+02  0.14317458991E+04  0.14319946426E+04  0.10000000000E+02 0.  1.
</event>
<event>
 5    1  0.1321379E-008  0.3820577E+03  0.7957747E-01  0.3442248E+00
         13   -1    0    0    0    0  0.00000000000E+00  0.00000000000E+00  0.14999999963E+04  0.15000000000E+04  0.10566000000E+00 0.  1.
        994   -1    0    0    0    0 -0.00000000000E+00 -0.00000000000E+00  0.11368683772E-12  0.17120000000E+03  0.17120000000E+03 0.  0.
         13    1    1    2    0    0 -0.18940557111E+03  0.37714287490E+02  0.11086867016E+04  0.11253812916E+04  0.10566000000E+00 0.  1.
        994    1    1    2    0    0  0.18835019898E+03 -0.40968261910E+02  0.13825027084E+03  0.29253508051E+03  0.17120000000E+03 0.  0.
        998    1    1    2    0    0  0.10553721313E+01  0.32539744196E+01  0.25306302380E+03  0.25328362792E+03  0.10000000000E+02 0.  0.
</event>
<event>
 5    1  0.1321379E-008  0.3828455E+03  0.7957747E-01  0.3438861E+00
         13   -1    0    0    0    0  0.00000000000E+00  0.00000000000E+00  0.14999999963E+04  0.15000000000E+04  0.10566000000E+00 0. -1.
        994   -1    0    0    0    0 -0.00000000000E+00 -0.00000000000E+00  0.11368683772E-12  0.17120000000E+03  0.17120000000E+03 0.  0.
         13    1    1    2    0    0  0.10169298210E+03  0.14947095815E+02  0.27588226941E+03  0.29440773771E+03  0.10566000000E+00 0. -1.
        994    1    1    2    0    0 -0.79151214128E+02  0.34369580142E+02  0.45705000841E+02  0.19709025810E+03  0.17120000000E+03 0.  0.
        998    1    1    2    0    0 -0.22541767973E+02 -0.49316675957E+02  0.11784127260E+04  0.11797020042E+04  0.10000000000E+02 0. -1.
</event>
<event>
 5    1  0.1321379E-008  0.3783565E+03  0.7957747E-01  0.3458346E+00
         13   -1    0    0    0    0  0.00000000000E+00  0.00000000000E+00  0.14999999963E+04  0.15000000000E+04  0.10566000000E+00 0.  1.
        994   -1    0    0    0    0 -0.00000000000E+00 -0.00000000000E+00  0.11368683772E-12  0.17120000000E+03  0.17120000000E+03 0.  0.
         13    1    1    2    0    0  0.45995256855E+02 -0.38432086351E+01  0.19208687939E+03  0.19755433253E+03  0.10566000000E+00 0.  1.
        994    1    1    2    0    0 -0.42468568948E+02 -0.33621075438E-01  0.11051285096E+02  0.17673469207E+03  0.17120000000E+03 0.  0.
        998    1    1    2    0    0 -0.35266879070E+01  0.38768297106E+01  0.12968618318E+04  0.12969109754E+04  0.10000000000E+02 0.  1.
</event>
<event>
 5    1  0.1321379E-008  0.3836507E+03  0.7957747E-01  0.3435415E+00
         13   -1    0    0    0    0  0.00000000000E+00  0.00000000000E+00  0.14999999963E+04  0.15000000000E+04  0.10566000000E+00 0. -1.
        994   -1    0    0    0    0 -0.00000000000E+00 -0.00000000000E+00  0.11368683772E-12  0.17120000000E+03  0.17120000000E+03 0.  0.
         13    1    1    2    0    0 -0.13033493166E+02 -0.11771999479E+02  0.71476651108E+02  0.73602817429E+02  0.10566000000E+00 0. -1.
        994    1    1    2    0    0 -0.40693551349E+01  0.25156540215E+01  0.23771323140E+01  0.17128332938E+03  0.17120000000E+03 0.  0.
        998    1    1    2    0    0  0.17102848301E+02  0.92563454580E+01  0.14261462129E+04  0.14263138532E+04  0.10000000000E+02 0. -1.
</event>
<event>
 5    1  0.1321379E-008  0.3752715E+03  0.7957747E-01  0.3472009E+00
         13   -1    0    0    0    0  0.00000000000E+00  0.00000000000E+00  0.14999999963E+04  0.15000000000E+04  0.10566000000E+00 0.  1.
        994   -1    0    0    0    0 -0.00000000000E+00 -0.00000000000E+00  0.11368683772E-12  0.17120000000E+03  0.17120000000E+03 0.  0.
         13    1    1    2    0    0 -0.18386208791E+02  0.33559416951E+02  0.10488529523E+03  0.11164776513E+03  0.10566000000E+00 0.  1.
        994    1    1    2    0    0  0.10128981234E+02 -0.32708141538E+02  0.10531344590E+02  0.17490788434E+03  0.17120000000E+03 0.  0.
        998    1    1    2    0    0  0.82572275571E+01 -0.85127541339E+00  0.13845833565E+04  0.13846443505E+04  0.10000000000E+02 0.  1.
</event>
<event>
 5    1  0.1321379E-008  0.3847001E+03  0.7957747E-01  0.3430945E+00
         13   -1    0    0    0    0  0.00000000000E+00  0.00000000000E+00  0.14999999963E+04  0.15000000000E+04  0.10566000000E+00 0.  1.
        994   -1    0    0    0    0 -0.00000000000E+00 -0.00000000000E+00  0.11368683772E-12  0.17120000000E+03  0.17120000000E+03 0.  0.
         13    1    1    2    0    0 -0.64119867745E+01 -0.17121079601E+02  0.88376889697E+02  0.90248161963E+02  0.10566000000E+00 0.  1.
        994    1    1    2    0    0  0.65443407951E+01  0.19164295263E+02  0.31302286859E+01  0.17242197349E+03  0.17120000000E+03 0.  0.
        998    1    1    2    0    0 -0.13235402064E+00 -0.20432156622E+01  0.14084928779E+04  0.14085298646E+04  0.10000000000E+02 0.  1.
</event>
<event>
 5    1  0.1321379E-008  0.3812536E+03  0.7957747E-01  0.3445718E+00
         13   -1    0    0    0    0  0.00000000000E+00  0.00000000000E+00  0.14999999963E+04  0.15000000000E+04  0.10566000000E+00 0.  1.
        994   -1    0    0    0    0 -0.00000000000E+00 -0.00000000000E+00  0.11368683772E-12  0.17120000000E+03  0.17120000000E+03 0.  0.
         13    1    1    2    0    0 -0.19328621673E+02  0.12606707222E+02  0.79755478274E+02  0.83026936361E+02  0.10566000000E+00 0.  1.
        994    1    1    2    0    0 -0.16372174390E+01 -0.57962052224E+01  0.36224626355E+01  0.17134421120E+03  0.17120000000E+03 0.  0.
        998    1    1    2    0    0  0.20965839112E+02 -0.68105019998E+01  0.14166220554E+04  0.14168288524E+04  0.10000000000E+02 0.  1.
</event>
<event>
 5    1  0.1321379E-008  0.3703507E+03  0.7957747E-01  0.3494281E+00
         13   -1    0    0    0    0  0.00000000000E+00  0.00000000000E+00  0.14999999963E+04  0.15000000000E+04  0.10566000000E+00 0. -1.
        994   -1    0    0    0    0 -0.00000000000E+00 -0.00000000000E+00  0.11368683772E-12  0.17120000000E+03  0.17120000000E+03 0.  0.
         13    1    1    2    0    0  0.92296208653E+01 -0.20475865546E+02  0.17723488147E+02  0.28610840031E+02  0.10566000000E+00 0. -1.
        994    1    1    2    0    0  0.10927856220E+00  0.22997325955E+02  0.12977790150E+02  0.17322457095E+03  0.17120000000E+03 0.  0.
        998    1    1    2    0    0 -0.93388994275E+01 -0.25214604096E+01  0.14692987180E+04  0.14693645890E+04  0.10000000000E+02 0. -1.
</event>
<event>
 5    1  0.1321379E-008  0.3815614E+03  0.7957747E-01  0.3444388E+00
         13   -1    0    0    0    0  0.00000000000E+00  0.00000000000E+00  0.14999999963E+04  0.15000000000E+04  0.10566000000E+00 0.  1.
        994   -1    0    0    0    0 -0.00000000000E+00 -0.00000000000E+00  0.11368683772E-12  0.17120000000E+03  0.17120000000E+03 0.  0.
         13    1    1    2    0    0  0.10931508277E+02 -0.11145806007E+02  0.34898444125E+02  0.38231393267E+02  0.10566000000E+00 0.  1.
        994    1    1    2    0    0 -0.92650504513E+01  0.88062995181E+01  0.38905989897E+01  0.17172061272E+03  0.17120000000E+03 0.  0.
        998    1    1    2    0    0 -0.16664578255E+01  0.23395064891E+01  0.14612109532E+04  0.14612479940E+04  0.10000000000E+02 0.  1.
</event>
<event>
 5    1  0.1321379E-008  0.3814200E+03  0.7957747E-01  0.3444999E+00
         13   -1    0    0    0    0  0.00000000000E+00  0.00000000000E+00  0.14999999963E+04  0.15000000000E+04  0.10566000000E+00 0.  1.
        994   -1    0    0    0    0 -0.00000000000E+00 -0.00000000000E+00  0.11368683772E-12  0.17120000000E+03  0.17120000000E+03 0.  0.
         13    1    1    2    0    0  0.94443864315E+02  0.26981260590E+02  0.54518353879E+03  0.55396094995E+03  0.10566000000E+00 0.  1.
        994    1    1    2    0    0 -0.12592479446E+03 -0.34219895366E+02  0.62318349613E+02  0.22410058411E+03  0.17120000000E+03 0.  0.
        998    1    1    2    0    0  0.31480930147E+02  0.72386347763E+01  0.89249810787E+03  0.89313846595E+03  0.10000000000E+02 0.  1.
</event>
<event>
 5    1  0.1321379E-008  0.3712425E+03  0.7957747E-01  0.3490200E+00
         13   -1    0    0    0    0  0.00000000000E+00  0.00000000000E+00  0.14999999963E+04  0.15000000000E+04  0.10566000000E+00 0.  1.
        994   -1    0    0    0    0 -0.00000000000E+00 -0.00000000000E+00  0.11368683772E-12  0.17120000000E+03  0.17120000000E+03 0.  0.
         13    1    1    2    0    0 -0.27998494569E+01 -0.20449292865E+02  0.13171340529E+02  0.24484854727E+02  0.10566000000E+00 0.  1.
        994    1    1    2    0    0  0.79548205743E+01  0.18960347624E+02  0.13083150816E+02  0.17292594596E+03  0.17120000000E+03 0.  0.
        998    1    1    2    0    0 -0.51549711174E+01  0.14889452407E+01  0.14737455049E+04  0.14737891993E+04  0.10000000000E+02 0.  1.
</event>
<event>
 5    1  0.1321379E-008  0.3811400E+03  0.7957747E-01  0.3446210E+00
         13   -1    0    0    0    0  0.00000000000E+00  0.00000000000E+00  0.14999999963E+04  0.15000000000E+04  0.10566000000E+00 0.  1.
        994   -1    0    0    0    0 -0.00000000000E+00 -0.00000000000E+00  0.11368683772E-12  0.17120000000E+03  0.17120000000E+03 0.  0.
         13    1    1    2    0    0 -0.10056344730E+02  0.10313960519E+02  0.29272006752E+02  0.32624674623E+02  0.10566000000E+00 0.  1.
        994    1    1    2    0    0 -0.14681749987E+02 -0.51588897464E+01  0.43657104899E+01  0.17196123794E+03  0.17120000000E+03 0.  0.
        998    1    1    2    0    0  0.24738094717E+02 -0.51550707729E+01  0.14663622790E+04  0.14666140874E+04  0.10000000000E+02 0.  1.
</event>
<event>
 5    1  0.1321379E-008  0.3756210E+03  0.7957747E-01  0.3470450E+00
         13   -1    0    0    0    0  0.00000000000E+00  0.00000000000E+00  0.14999999963E+04  0.15000000000E+04  0.10566000000E+00 0.  1.
        994   -1    0    0    0    0 -0.00000000000E+00 -0.00000000000E+00  0.11368683772E-12  0.17120000000E+03  0.17120000000E+03 0.  0.
         13    1    1    2    0    0 -0.46430579333E+02 -0.77179895832E+02  0.49006573459E+03  0.49827399129E+03  0.10566000000E+00 0.  1.
        994    1    1    2    0    0  0.39715288224E+02  0.66234949357E+02  0.26868351701E+02  0.18972538301E+03  0.17120000000E+03 0.  0.
        998    1    1    2    0    0  0.67152911092E+01  0.10944946474E+02  0.98306590999E+03  0.98320062570E+03  0.10000000000E+02 0.  1.
</event>
<event>
 5    1  0.1818609E-008  0.3859320E+03  0.7957747E-01  0.3425729E+00
         13   -1    0    0    0    0  0.00000000000E+00  0.00000000000E+00  0.14999999963E+04  0.15000000000E+04  0.10566000000E+00 0.  1.
        994   -1    0    0    0    0 -0.00000000000E+00 -0.00000000000E+00  0.11368683772E-12  0.17120000000E+03  0.17120000000E+03 0.  0.
         13    1    1    2    0    0 -0.11118300187E+02 -0.51773279589E+01  0.62575056407E+02  0.63765744504E+02  0.10566000000E+00 0.  1.
        994    1    1    2    0    0  0.12147054246E+02  0.60920574945E+01  0.17738073782E+01  0.17174763604E+03  0.17120000000E+03 0.  0.
        998    1    1    2    0    0 -0.10287540589E+01 -0.91472953563E+00  0.14356511325E+04  0.14356866195E+04  0.10000000000E+02 0.  1.
</event>
<event>
 5    1  0.1414220E-008  0.3860109E+03  0.7957747E-01  0.3425396E+00
         13   -1    0    0    0    0  0.00000000000E+00  0.00000000000E+00  0.14999999963E+04  0.15000000000E+04  0.10566000000E+00 0.  1.
        994   -1    0    0    0    0 -0.00000000000E+00 -0.00000000000E+00  0.11368683772E-12  0.17120000000E+03  0.17120000000E+03 0.  0.
         13    1    1    2    0    0 -0.19503498809E+01 -0.13486740745E+02  0.79004309390E+02  0.80170992927E+02  0.10566000000E+00 0.  1.
        994    1    1    2    0    0  0.26468475674E+01  0.14954065518E+02  0.18854321692E+01  0.17188258996E+03  0.17120000000E+03 0.  0.
        998    1    1    2    0    0 -0.69649768655E+00 -0.14673247723E+01  0.14191102547E+04  0.14191464171E+04  0.10000000000E+02 0.  1.
</event>
<event>
 5    1  0.1321379E-008  0.3834970E+03  0.7957747E-01  0.3436072E+00
         13   -1    0    0    0    0  0.00000000000E+00  0.00000000000E+00  0.14999999963E+04  0.15000000000E+04  0.10566000000E+00 0.  1.
        994   -1    0    0    0    0 -0.00000000000E+00 -0.00000000000E+00  0.11368683772E-12  0.17120000000E+03  0.17120000000E+03 0.  0.
         13    1    1    2    0    0 -0.12353726128E+02  0.15826051443E+01  0.33617395379E+02  0.35850517770E+02  0.10566000000E+00 0.  1.
        994    1    1    2    0    0 -0.60529655522E+01 -0.92973370613E+01  0.27850349047E+01  0.17158168692E+03  0.17120000000E+03 0.  0.
        998    1    1    2    0    0  0.18406691680E+02  0.77147319170E+01  0.14635975660E+04  0.14637677953E+04  0.10000000000E+02 0.  1.
</event>
<event>
 5    1  0.1321379E-008  0.3713228E+03  0.7957747E-01  0.3489834E+00
         13   -1    0    0    0    0  0.00000000000E+00  0.00000000000E+00  0.14999999963E+04  0.15000000000E+04  0.10566000000E+00 0. -1.
        994   -1    0    0    0    0 -0.00000000000E+00 -0.00000000000E+00  0.11368683772E-12  0.17120000000E+03  0.17120000000E+03 0.  0.
         13    1    1    2    0    0 -0.15319037379E+02  0.80661036261E+01  0.75831842618E+01  0.18901078845E+02  0.10566000000E+00 0. -1.
        994    1    1    2    0    0  0.16510441516E+02 -0.56040147500E+01  0.12708381859E+02  0.17255417303E+03  0.17120000000E+03 0.  0.
        998    1    1    2    0    0 -0.11914041376E+01 -0.24620888762E+01  0.14797084302E+04  0.14797447481E+04  0.10000000000E+02 0. -1.
</event>
<event>
 5    1  0.1321379E-008  0.3841799E+03  0.7957747E-01  0.3433158E+00
         13   -1    0    0    0    0  0.00000000000E+00  0.00000000000E+00  0.14999999963E+04  0.15000000000E+04  0.10566000000E+00 0.  1.
        994   -1    0    0    0    0 -0.00000000000E+00 -0.00000000000E+00  0.11368683772E-12  0.17120000000E+03  0.17120000000E+03 0.  0.
         13    1    1    2    0    0 -0.10846540209E+02  0.71959955226E+01  0.40380473857E+02  0.42426685223E+02  0.10566000000E+00 0.  1.
        994    1    1    2    0    0  0.88325946546E+01 -0.97389846005E+01  0.26080544608E+01  0.17172391941E+03  0.17120000000E+03 0.  0.
        998    1    1    2    0    0  0.20139455547E+01  0.25429890779E+01  0.14570114680E+04  0.14570493954E+04  0.10000000000E+02 0.  1.
</event>
<event>
 5    1  0.1321379E-008  0.3827734E+03  0.7957747E-01  0.3439171E+00
         13   -1    0    0    0    0  0.00000000000E+00  0.00000000000E+00  0.14999999963E+04  0.15000000000E+04  0.10566000000E+00 0. -1.
        994   -1    0    0    0    0 -0.00000000000E+00 -0.00000000000E+00  0.11368683772E-12  0.17120000000E+03  0.17120000000E+03 0.  0.
         13    1    1    2    0    0  0.13681803992E+00  0.12115738313E+02  0.26613591477E+02  0.29242165607E+02  0.10566000000E+00 0. -1.
        994    1    1    2    0    0 -0.38875006811E+01  0.68035939294E+00  0.27912516459E+01  0.17126823008E+03  0.17120000000E+03 0.  0.
        998    1    1    2    0    0  0.37506826411E+01 -0.12796097706E+02  0.14705951532E+04  0.14706896043E+04  0.10000000000E+02 0. -1.
</event>
<event>
 5    1  0.1321379E-008  0.3766743E+03  0.7957747E-01  0.3465768E+00
         13   -1    0    0    0    0  0.00000000000E+00  0.00000000000E+00  0.14999999963E+04  0.15000000000E+04  0.10566000000E+00 0.  1.
        994   -1    0    0    0    0 -0.00000000000E+00 -0.00000000000E+00  0.11368683772E-12  0.17120000000E+03  0.17120000000E+03 0.  0.
         13    1    1    2    0    0  0.10151995390E+03  0.11552798483E+03  0.77708303257E+03  0.79215596128E+03  0.10566000000E+00 0.  1.
        994    1    1    2    0    0 -0.10765738429E+03 -0.11872543099E+03  0.98252729406E+02  0.25426143867E+03  0.17120000000E+03 0.  0.
        998    1    1    2    0    0  0.61374303927E+01  0.31974461539E+01  0.62466423431E+03  0.62478260006E+03  0.10000000000E+02 0.  0.
</event>
<event>
 5    1  0.1321379E-008  0.3699751E+03  0.7957747E-01  0.3496005E+00
         13   -1    0    0    0    0  0.00000000000E+00  0.00000000000E+00  0.14999999963E+04  0.15000000000E+04  0.10566000000E+00 0.  1.
        994   -1    0    0    0    0 -0.00000000000E+00 -0.00000000000E+00  0.11368683772E-12  0.17120000000E+03  0.17120000000E+03 0.  0.
         13    1    1    2    0    0  0.22601421079E+02 -0.21169282793E+02  0.44436702154E+02  0.54162666396E+02  0.10566000000E+00 0.  1.
        994    1    1    2    0    0  0.17845392683E+02 -0.14421352920E+02  0.12768043217E+02  0.17320189487E+03  0.17120000000E+03 0.  0.
        998    1    1    2    0    0 -0.40446813762E+02  0.35590635713E+02  0.14427952509E+04  0.14438354387E+04  0.10000000000E+02 0.  1.
</event>
<event>
 5    1  0.1321379E-008  0.3818834E+03  0.7957747E-01  0.3442998E+00
         13   -1    0    0    0    0  0.00000000000E+00  0.00000000000E+00  0.14999999963E+04  0.15000000000E+04  0.10566000000E+00 0.  1.
        994   -1    0    0    0    0 -0.00000000000E+00 -0.00000000000E+00  0.11368683772E-12  0.17120000000E+03  0.17120000000E+03 0.  0.
         13    1    1    2    0    0  0.16701538658E+02  0.21286322319E+02  0.13533211703E+03  0.13801029663E+03  0.10566000000E+00 0.  1.
        994    1    1    2    0    0  0.48893354094E+02 -0.33709583568E+02  0.14992458104E+02  0.18182714291E+03  0.17120000000E+03 0.  0.
        998    1    1    2    0    0 -0.65594892752E+02  0.12423261249E+02  0.13496754211E+04  0.13513625605E+04  0.10000000000E+02 0.  1.
</event>
<event>
 5    1  0.1321379E-008  0.3720405E+03  0.7957747E-01  0.3486565E+00
         13   -1    0    0    0    0  0.00000000000E+00  0.00000000000E+00  0.14999999963E+04  0.15000000000E+04  0.10566000000E+00 0. -1.
        994   -1    0    0    0    0 -0.00000000000E+00 -0.00000000000E+00  0.11368683772E-12  0.17120000000E+03  0.17120000000E+03 0.  0.
         13    1    1    2    0    0 -0.29409234696E+02 -0.20724540251E+01  0.49034669472E+02  0.57215453554E+02  0.10566000000E+00 0. -1.
        994    1    1    2    0    0  0.24688859996E+02  0.12718645796E+00  0.10302142452E+02  0.17327760999E+03  0.17120000000E+03 0.  0.
        998    1    1    2    0    0  0.47203747002E+01  0.19452675671E+01  0.14406631844E+04  0.14407069365E+04  0.10000000000E+02 0. -1.
</event>
<event>
 5    1  0.1321379E-008  0.3857988E+03  0.7957747E-01  0.3426291E+00
         13   -1    0    0    0    0  0.00000000000E+00  0.00000000000E+00  0.14999999963E+04  0.15000000000E+04  0.10566000000E+00 0.  1.
        994   -1    0    0    0    0 -0.00000000000E+00 -0.00000000000E+00  0.11368683772E-12  0.17120000000E+03  0.17120000000E+03 0.  0.
         13    1    1    2    0    0  0.10334961865E+02 -0.21803177551E+01  0.47351880386E+02  0.48515739326E+02  0.10566000000E+00 0.  1.
        994    1    1    2    0    0 -0.49694674236E-01  0.46411404122E+01  0.13047096098E+01  0.17126787475E+03  0.17120000000E+03 0.  0.
        998    1    1    2    0    0 -0.10285267191E+02 -0.24608226571E+01  0.14513434063E+04  0.14514163859E+04  0.10000000000E+02 0.  1.
</event>
<event>
 5    1  0.1321379E-008  0.3857358E+03  0.7957747E-01  0.3426557E+00
         13   -1    0    0    0    0  0.00000000000E+00  0.00000000000E+00  0.14999999963E+04  0.15000000000E+04  0.10566000000E+00 0.  1.
        994   -1    0    0    0    0 -0.00000000000E+00 -0.00000000000E+00  0.11368683772E-12  0.17120000000E+03  0.17120000000E+03 0.  0.
         13    1    1    2    0    0  0.12565219695E+02  0.71338623262E+01  0.87266059160E+02  0.88454242312E+02  0.10566000000E+00 0.  1.
        994    1    1    2    0    0 -0.27831698732E+00 -0.70064153085E+01  0.14265702002E+01  0.17134947452E+03  0.17120000000E+03 0.  0.
        998    1    1    2    0    0 -0.12286902708E+02 -0.12744701769E+00  0.14113073669E+04  0.14113962832E+04  0.10000000000E+02 0.  1.
</event>
<event>
 5    1  0.1321379E-008  0.3792705E+03  0.7957747E-01  0.3454341E+00
         13   -1    0    0    0    0  0.00000000000E+00  0.00000000000E+00  0.14999999963E+04  0.15000000000E+04  0.10566000000E+00 0. -1.
        994   -1    0    0    0    0 -0.00000000000E+00 -0.00000000000E+00  0.11368683772E-12  0.17120000000E+03  0.17120000000E+03 0.  0.
         13    1    1    2    0    0 -0.50237031191E+01  0.68281715987E+02  0.13220329365E+03  0.14888032895E+03  0.10566000000E+00 0. -1.
        994    1    1    2    0    0 -0.86420071112E+01 -0.64830556895E+02  0.31553085995E+02  0.18596430472E+03  0.17120000000E+03 0.  0.
        998    1    1    2    0    0  0.13665710230E+02 -0.34511590922E+01  0.13362436166E+04  0.13363553663E+04  0.10000000000E+02 0. -1.
</event>
<event>
 5    1  0.1321379E-008  0.3835588E+03  0.7957747E-01  0.3435808E+00
         13   -1    0    0    0    0  0.00000000000E+00  0.00000000000E+00  0.14999999963E+04  0.15000000000E+04  0.10566000000E+00 0.  1.
        994   -1    0    0    0    0 -0.00000000000E+00 -0.00000000000E+00  0.11368683772E-12  0.17120000000E+03  0.17120000000E+03 0.  0.
         13    1    1    2    0    0  0.23318937648E+01 -0.24847880636E+02  0.14155023367E+03  0.14373355460E+03  0.10566000000E+00 0.  1.
        994    1    1    2    0    0 -0.53328023458E+01  0.60791780866E+01  0.25634591783E+01  0.17141005370E+03  0.17120000000E+03 0.  0.
        998    1    1    2    0    0  0.30009085810E+01  0.18768702549E+02  0.13558863034E+04  0.13560563917E+04  0.10000000000E+02 0.  1.
</event>
<event>
 5    1  0.1321379E-008  0.3814876E+03  0.7957747E-01  0.3444707E+00
         13   -1    0    0    0    0  0.00000000000E+00  0.00000000000E+00  0.14999999963E+04  0.15000000000E+04  0.10566000000E+00 0. -1.
        994   -1    0    0    0    0 -0.00000000000E+00 -0.00000000000E+00  0.11368683772E-12  0.17120000000E+03  0.17120000000E+03 0.  0.
         13    1    1    2    0    0  0.10876723957E+02 -0.70648114451E+01  0.24098258463E+02  0.27366985763E+02  0.10566000000E+00 0. -1.
        994    1    1    2    0    0  0.19927552068E+01  0.49612707308E+01  0.34792199261E+01  0.17131879714E+03  0.17120000000E+03 0.  0.
        998    1    1    2    0    0 -0.12869479163E+02  0.21035407142E+01  0.14724225179E+04  0.14725142171E+04  0.10000000000E+02 0. -1.
</event>
<event>
 5    1  0.1321379E-008  0.3832672E+03  0.7957747E-01  0.3437055E+00
         13   -1    0    0    0    0  0.00000000000E+00  0.00000000000E+00  0.14999999963E+04  0.15000000000E+04  0.10566000000E+00 0.  1.
        994   -1    0    0    0    0 -0.00000000000E+00 -0.00000000000E+00  0.11368683772E-12  0.17120000000E+03  0.17120000000E+03 0.  0.
         13    1    1    2    0    0 -0.59921963530E-01  0.11329018908E+02  0.26666239428E+02  0.28973259211E+02  0.10566000000E+00 0.  1.
        994    1    1    2    0    0  0.67660500325E+01  0.11699089522E+02  0.30971762656E+01  0.17176053281E+03  0.17120000000E+03 0.  0.
        998    1    1    2    0    0 -0.67061280690E+01 -0.23028108430E+02  0.14702365806E+04  0.14704662080E+04  0.10000000000E+02 0.  1.
</event>
<event>
 5    1  0.1321379E-008  0.3848386E+03  0.7957747E-01  0.3430357E+00
         13   -1    0    0    0    0  0.00000000000E+00  0.00000000000E+00  0.14999999963E+04  0.15000000000E+04  0.10566000000E+00 0. -1.
        994   -1    0    0    0    0 -0.00000000000E+00 -0.00000000000E+00  0.11368683772E-12  0.17120000000E+03  0.17120000000E+03 0.  0.
         13    1    1    2    0    0 -0.15610627797E+02 -0.74641232686E+01  0.10027663680E+03  0.10175863545E+03  0.10566000000E+00 0. -1.
        994    1    1    2    0    0 -0.76613643237E+01  0.18646784389E+01  0.19148690958E+01  0.17139218259E+03  0.17120000000E+03 0.  0.
        998    1    1    2    0    0  0.23271992120E+02  0.55994448297E+01  0.13978084904E+04  0.13980491820E+04  0.10000000000E+02 0. -1.
</event>
<event>
 5    1  0.1321379E-008  0.3850852E+03  0.7957747E-01  0.3429311E+00
         13   -1    0    0    0    0  0.00000000000E+00  0.00000000000E+00  0.14999999963E+04  0.15000000000E+04  0.10566000000E+00 0. -1.
        994   -1    0    0    0    0 -0.00000000000E+00 -0.00000000000E+00  0.11368683772E-12  0.17120000000E+03  0.17120000000E+03 0.  0.
         13    1    1    2    0    0  0.11592423311E+02  0.11562105371E+02  0.88152856666E+02  0.89660492198E+02  0.10566000000E+00 0. -1.
        994    1    1    2    0    0  0.51324583285E+01 -0.12578881675E+02  0.21949068741E+01  0.17175222854E+03  0.17120000000E+03 0.  0.
        998    1    1    2    0    0 -0.16724881639E+02  0.10167763039E+01  0.14096522327E+04  0.14097872793E+04  0.10000000000E+02 0. -1.
</event>
<event>
 5    1  0.1321379E-008  0.3699019E+03  0.7957747E-01  0.3496342E+00
         13   -1    0    0    0    0  0.00000000000E+00  0.00000000000E+00  0.14999999963E+04  0.15000000000E+04  0.10566000000E+00 0. -1.
        994   -1    0    0    0    0 -0.00000000000E+00 -0.00000000000E+00  0.11368683772E-12  0.17120000000E+03  0.17120000000E+03 0.  0.
         13    1    1    2    0    0 -0.35044412559E+02  0.30273061322E+02  0.75960028817E+02  0.88963510696E+02  0.10566000000E+00 0. -1.
        994    1    1    2    0    0  0.89842809411E+02 -0.43331083684E+02  0.46516344731E+02  0.20352524056E+03  0.17120000000E+03 0.  0.
        998    1    1    2    0    0 -0.54798396851E+02  0.13058022361E+02  0.13775236227E+04  0.13787112487E+04  0.10000000000E+02 0. -1.
</event>
<event>
 5    1  0.1321379E-008  0.3813259E+03  0.7957747E-01  0.3445405E+00
         13   -1    0    0    0    0  0.00000000000E+00  0.00000000000E+00  0.14999999963E+04  0.15000000000E+04  0.10566000000E+00 0. -1.
        994   -1    0    0    0    0 -0.00000000000E+00 -0.00000000000E+00  0.11368683772E-12  0.17120000000E+03  0.17120000000E+03 0.  0.
         13    1    1    2    0    0  0.14482511055E+02  0.55198333120E+00  0.28233740192E+02  0.31736462647E+02  0.10566000000E+00 0. -1.
        994    1    1    2    0    0 -0.17989694237E+02 -0.11109654558E+01  0.45473121369E+01  0.17220621763E+03  0.17120000000E+03 0.  0.
        998    1    1    2    0    0  0.35071831815E+01  0.55898212455E+00  0.14672189439E+04  0.14672573197E+04  0.10000000000E+02 0. -1.
</event>
<event>
 5    1  0.1321379E-008  0.3744140E+03  0.7957747E-01  0.3475848E+00
         13   -1    0    0    0    0  0.00000000000E+00  0.00000000000E+00  0.14999999963E+04  0.15000000000E+04  0.10566000000E+00 0. -1.
        994   -1    0    0    0    0 -0.00000000000E+00 -0.00000000000E+00  0.11368683772E-12  0.17120000000E+03  0.17120000000E+03 0.  0.
         13    1    1    2    0    0  0.19981074682E+01  0.24570861686E+02  0.41733873108E+02  0.48471094541E+02  0.10566000000E+00 0. -1.
        994    1    1    2    0    0 -0.20141234171E+02 -0.67163422121E+01  0.85167634037E+01  0.17272160787E+03  0.17120000000E+03 0.  0.
        998    1    1    2    0    0  0.18143126703E+02 -0.17854519473E+02  0.14497493598E+04  0.14500072976E+04  0.10000000000E+02 0. -1.
</event>
<event>
 5    1  0.1321379E-008  0.3858855E+03  0.7957747E-01  0.3425925E+00
         13   -1    0    0    0    0  0.00000000000E+00  0.00000000000E+00  0.14999999963E+04  0.15000000000E+04  0.10566000000E+00 0. -1.
        994   -1    0    0    0    0 -0.00000000000E+00 -0.00000000000E+00  0.11368683772E-12  0.17120000000E+03  0.17120000000E+03 0.  0.
         13    1    1    2    0    0 -0.12123956280E+02  0.30676373789E+00  0.66027093993E+02  0.67131756458E+02  0.10566000000E+00 0. -1.
        994    1    1    2    0    0  0.35857021421E+00 -0.84502133050E+01  0.14257412639E+01  0.17141472345E+03  0.17120000000E+03 0.  0.
        998    1    1    2    0    0  0.11765386066E+02  0.81434495672E+01  0.14325471610E+04  0.14326535201E+04  0.10000000000E+02 0. -1.
</event>
<event>
 5    1  0.1321379E-008  0.3834544E+03  0.7957747E-01  0.3436254E+00
         13   -1    0    0    0    0  0.00000000000E+00  0.00000000000E+00  0.14999999963E+04  0.15000000000E+04  0.10566000000E+00 0. -1.
        994   -1    0    0    0    0 -0.00000000000E+00 -0.00000000000E+00  0.11368683772E-12  0.17120000000E+03  0.17120000000E+03 0.  0.
         13    1    1    2    0    0  0.10799186468E+02 -0.30828378502E+02  0.16478999297E+03  0.16799632227E+03  0.10566000000E+00 0. -1.
        994    1    1    2    0    0 -0.28163801559E+02  0.49575649591E+02  0.13219649119E+02  0.18092856014E+03  0.17120000000E+03 0.  0.
        998    1    1    2    0    0  0.17364615091E+02 -0.18747271088E+02  0.13219903542E+04  0.13222751176E+04  0.10000000000E+02 0. -1.
</event>
<event>
 5    1  0.1417423E-008  0.3859471E+03  0.7957747E-01  0.3425665E+00
         13   -1    0    0    0    0  0.00000000000E+00  0.00000000000E+00  0.14999999963E+04  0.15000000000E+04  0.10566000000E+00 0.  1.
        994   -1    0    0    0    0 -0.00000000000E+00 -0.00000000000E+00  0.11368683772E-12  0.17120000000E+03  0.17120000000E+03 0.  0.
         13    1    1    2    0    0 -0.10533743117E+02  0.81998044395E+01  0.79613334073E+02  0.80724783451E+02  0.10566000000E+00 0.  1.
        994    1    1    2    0    0  0.48799535174E+01 -0.29501503838E+01  0.12672801697E+01  0.17129963028E+03  0.17120000000E+03 0.  0.
        998    1    1    2    0    0  0.56537895998E+01 -0.52496540557E+01  0.14191193820E+04  0.14191755863E+04  0.10000000000E+02 0.  1.
</event>
<event>
 5    1  0.1321379E-008  0.3755380E+03  0.7957747E-01  0.3470820E+00
         13   -1    0    0    0    0  0.00000000000E+00  0.00000000000E+00  0.14999999963E+04  0.15000000000E+04  0.10566000000E+00 0.  1.
        994   -1    0    0    0    0 -0.00000000000E+00 -0.00000000000E+00  0.11368683772E-12  0.17120000000E+03  0.17120000000E+03 0.  0.
         13    1    1    2    0    0 -0.57160071471E+02  0.72450280241E+01  0.21844406639E+03  0.22591499620E+03  0.10566000000E+00 0.  1.
        994    1    1    2    0    0  0.59231662757E+02 -0.37334357173E+01  0.18449310001E+02  0.18213221971E+03  0.17120000000E+03 0.  0.
        998    1    1    2    0    0 -0.20715912859E+01 -0.35115923067E+01  0.12631066199E+04  0.12631527841E+04  0.10000000000E+02 0.  0.
</event>
<event>
 5    1  0.1321379E-008  0.3786984E+03  0.7957747E-01  0.3456845E+00
         13   -1    0    0    0    0  0.00000000000E+00  0.00000000000E+00  0.14999999963E+04  0.15000000000E+04  0.10566000000E+00 0. -1.
        994   -1    0    0    0    0 -0.00000000000E+00 -0.00000000000E+00  0.11368683772E-12  0.17120000000E+03  0.17120000000E+03 0.  0.
         13    1    1    2    0    0 -0.98490017607E+02  0.29439095669E+02  0.61020490369E+03  0.61880286003E+03  0.10566000000E+00 0. -1.
        994    1    1    2    0    0  0.14524500906E+02  0.42017943782E+02  0.22776056583E+02  0.17833860345E+03  0.17120000000E+03 0.  0.
        998    1    1    2    0    0  0.83965516702E+02 -0.71457039450E+02  0.86701903600E+03  0.87405853653E+03  0.10000000000E+02 0.  1.
</event>
<event>
 5    1  0.1321379E-008  0.3763954E+03  0.7957747E-01  0.3467005E+00
         13   -1    0    0    0    0  0.00000000000E+00  0.00000000000E+00  0.14999999963E+04  0.15000000000E+04  0.10566000000E+00 0.  1.
        994   -1    0    0    0    0 -0.00000000000E+00 -0.00000000000E+00  0.11368683772E-12  0.17120000000E+03  0.17120000000E+03 0.  0.
         13    1    1    2    0    0  0.52071343615E+02  0.50264092337E+01  0.98551743583E+02  0.11157574532E+03  0.10566000000E+00 0.  1.
        994    1    1    2    0    0 -0.91237944785E+01  0.15895583807E+02  0.15563418365E+02  0.17288022791E+03  0.17120000000E+03 0.  0.
        998    1    1    2    0    0 -0.42947549136E+02 -0.20921993041E+02  0.13858848343E+04  0.13867440268E+04  0.10000000000E+02 0.  1.
</event>
<event>
 5    1  0.1321379E-008  0.3859767E+03  0.7957747E-01  0.3425540E+00
         13   -1    0    0    0    0  0.00000000000E+00  0.00000000000E+00  0.14999999963E+04  0.15000000000E+04  0.10566000000E+00 0. -1.
        994   -1    0    0    0    0 -0.00000000000E+00 -0.00000000000E+00  0.11368683772E-12  0.17120000000E+03  0.17120000000E+03 0.  0.
         13    1    1    2    0    0  0.90935842457E+01 -0.66013633909E+01  0.51215917578E+02  0.52434269809E+02  0.10566000000E+00 0. -1.
        994    1    1    2    0    0 -0.10580450870E+02  0.20358730167E+02  0.28736510446E+01  0.17275451284E+03  0.17120000000E+03 0.  0.
        998    1    1    2    0    0  0.14868666244E+01 -0.13757366776E+02  0.14459104277E+04  0.14460112174E+04  0.10000000000E+02 0. -1.
</event>
<event>
 5    1  0.1321379E-008  0.3911853E+03  0.7957747E-01  0.3403856E+00
         13   -1    0    0    0    0  0.00000000000E+00  0.00000000000E+00  0.14999999963E+04  0.15000000000E+04  0.10566000000E+00 0.  1.
        994   -1    0    0    0    0 -0.00000000000E+00 -0.00000000000E+00  0.11368683772E-12  0.17120000000E+03  0.17120000000E+03 0.  0.
         13    1    1    2    0    0 -0.92269974461E+02  0.62186513596E+02  0.22573626643E+03  0.25166998988E+03  0.10566000000E+00 0.  1.
        994    1    1    2    0    0  0.74552863131E+02 -0.86184906925E+02  0.73565982647E+02  0.21842014876E+03  0.17120000000E+03 0.  0.
        998    1    1    2    0    0  0.17717111330E+02  0.23998393329E+02  0.12006977472E+04  0.12011098614E+04  0.10000000000E+02 0.  1.
</event>
<event>
 5    1  0.1321379E-008  0.3778779E+03  0.7957747E-01  0.3460451E+00
         13   -1    0    0    0    0  0.00000000000E+00  0.00000000000E+00  0.14999999963E+04  0.15000000000E+04  0.10566000000E+00 0.  1.
        994   -1    0    0    0    0 -0.00000000000E+00 -0.00000000000E+00  0.11368683772E-12  0.17120000000E+03  0.17120000000E+03 0.  0.
         13    1    1    2    0    0 -0.14105554851E+02  0.50379119059E+02  0.24626725139E+03  0.25176296905E+03  0.10566000000E+00 0.  1.
        994    1    1    2    0    0 -0.15017324894E+02 -0.44446845181E+02  0.12654197751E+02  0.17796238595E+03  0.17120000000E+03 0.  0.
        998    1    1    2    0    0  0.29122879745E+02 -0.59322738774E+01  0.12410785471E+04  0.12414746450E+04  0.10000000000E+02 0.  1.
</event>
<event>
 5    1  0.1321379E-008  0.3836335E+03  0.7957747E-01  0.3435489E+00
         13   -1    0    0    0    0  0.00000000000E+00  0.00000000000E+00  0.14999999963E+04  0.15000000000E+04  0.10566000000E+00 0. -1.
        994   -1    0    0    0    0 -0.00000000000E+00 -0.00000000000E+00  0.11368683772E-12  0.17120000000E+03  0.17120000000E+03 0.  0.
         13    1    1    2    0    0 -0.43075999883E+01  0.19387293872E+02  0.84668300821E+02  0.86966401037E+02  0.10566000000E+00 0. -1.
        994    1    1    2    0    0 -0.20557603015E+01 -0.13683786314E+02  0.29428516746E+01  0.17178350484E+03  0.17120000000E+03 0.  0.
        998    1    1    2    0    0  0.63633602898E+01 -0.57035075587E+01  0.14123888438E+04  0.14124500941E+04  0.10000000000E+02 0. -1.
</event>
<event>
 5    1  0.1321379E-008  0.3852089E+03  0.7957747E-01  0.3428787E+00
         13   -1    0    0    0    0  0.00000000000E+00  0.00000000000E+00  0.14999999963E+04  0.15000000000E+04  0.10566000000E+00 0. -1.
        994   -1    0    0    0    0 -0.00000000000E+00 -0.00000000000E+00  0.11368683772E-12  0.17120000000E+03  0.17120000000E+03 0.  0.
         13    1    1    2    0    0  0.89662896162E+01  0.76110445363E+01  0.45050063722E+02  0.46560087562E+02  0.10566000000E+00 0. -1.
        994    1    1    2    0    0 -0.50791874348E+01 -0.79581704753E+01  0.18194354006E+01  0.17146976692E+03  0.17120000000E+03 0.  0.
        998    1    1    2    0    0 -0.38871021814E+01  0.34712593903E+00  0.14531304972E+04  0.14531701455E+04  0.10000000000E+02 0. -1.
</event>
<event>
 5    1  0.1321379E-008  0.3845942E+03  0.7957747E-01  0.3431395E+00
         13   -1    0    0    0    0  0.00000000000E+00  0.00000000000E+00  0.14999999963E+04  0.15000000000E+04  0.10566000000E+00 0. -1.
        994   -1    0    0    0    0 -0.00000000000E+00 -0.00000000000E+00  0.11368683772E-12  0.17120000000E+03  0.17120000000E+03 0.  0.
         13    1    1    2    0    0  0.96050160909E+01  0.14547274971E+02  0.86103777895E+02  0.87850732923E+02  0.10566000000E+00 0. -1.
        994    1    1    2    0    0 -0.74093776660E+01 -0.18061870471E+01  0.20232813300E+01  0.17138172264E+03  0.17120000000E+03 0.  0.
        998    1    1    2    0    0 -0.21956384249E+01 -0.12741087923E+02  0.14118729371E+04  0.14119675444E+04  0.10000000000E+02 0. -1.
</event>
<event>
 5    1  0.1321379E-008  0.3801561E+03  0.7957747E-01  0.3450479E+00
         13   -1    0    0    0    0  0.00000000000E+00  0.00000000000E+00  0.14999999963E+04  0.15000000000E+04  0.10566000000E+00 0. -1.
        994   -1    0    0    0    0 -0.00000000000E+00 -0.00000000000E+00  0.11368683772E-12  0.17120000000E+03  0.17120000000E+03 0.  0.
         13    1    1    2    0    0 -0.15863846246E+02 -0.14829908009E+02  0.58126655306E+02  0.62050842141E+02  0.10566000000E+00 0. -1.
        994    1    1    2    0    0  0.97219784609E+01  0.95447082038E+00  0.43732823163E+01  0.17153423413E+03  0.17120000000E+03 0.  0.
        998    1    1    2    0    0  0.61418677854E+01  0.13875437188E+02  0.14375000587E+04  0.14376149237E+04  0.10000000000E+02 0. -1.
</event>
<event>
 5    1  0.1321379E-008  0.3854101E+03  0.7957747E-01  0.3427935E+00
         13   -1    0    0    0    0  0.00000000000E+00  0.00000000000E+00  0.14999999963E+04  0.15000000000E+04  0.10566000000E+00 0.  1.
        994   -1    0    0    0    0 -0.00000000000E+00 -0.00000000000E+00  0.11368683772E-12  0.17120000000E+03  0.17120000000E+03 0.  0.
         13    1    1    2    0    0 -0.76446001884E+01  0.10584396554E+02  0.61597551893E+02  0.62966172868E+02  0.10566000000E+00 0.  1.
        994    1    1    2    0    0  0.50075202772E+01 -0.21351915713E+01  0.15239815976E+01  0.17129330641E+03  0.17120000000E+03 0.  0.
        998    1    1    2    0    0  0.26370799112E+01 -0.84492049831E+01  0.14368784628E+04  0.14369405207E+04  0.10000000000E+02 0.  1.
</event>
<event>
 5    1  0.1321379E-008  0.3763821E+03  0.7957747E-01  0.3467064E+00
         13   -1    0    0    0    0  0.00000000000E+00  0.00000000000E+00  0.14999999963E+04  0.15000000000E+04  0.10566000000E+00 0.  1.
        994   -1    0    0    0    0 -0.00000000000E+00 -0.00000000000E+00  0.11368683772E-12  0.17120000000E+03  0.17120000000E+03 0.  0.
         13    1    1    2    0    0 -0.22910947357E+02  0.90419040417E+01  0.47571755706E+02  0.53570053598E+02  0.10566000000E+00 0.  1.
        994    1    1    2    0    0  0.21667002896E+02 -0.51447627195E+01  0.76504302725E+01  0.17281173768E+03  0.17120000000E+03 0.  0.
        998    1    1    2    0    0  0.12439444615E+01 -0.38971413223E+01  0.14447778103E+04  0.14448182087E+04  0.10000000000E+02 0.  1.
</event>
<event>
 5    1  0.1321379E-008  0.3766118E+03  0.7957747E-01  0.3466045E+00
         13   -1    0    0    0    0  0.00000000000E+00  0.00000000000E+00  0.14999999963E+04  0.15000000000E+04  0.10566000000E+00 0. -1.
        994   -1    0    0    0    0 -0.00000000000E+00 -0.00000000000E+00  0.11368683772E-12  0.17120000000E+03  0.17120000000E+03 0.  0.
         13    1    1    2    0    0 -0.28536509440E+01  0.16992228622E+02  0.19047963868E+02  0.25684922597E+02  0.10566000000E+00 0. -1.
        994    1    1    2    0    0  0.42882424165E+02 -0.75099438989E+02  0.31571681204E+02  0.19438374184E+03  0.17120000000E+03 0.  0.
        998    1    1    2    0    0 -0.40028773221E+02  0.58107210366E+02  0.14493803512E+04  0.14511313356E+04  0.10000000000E+02 0. -1.
</event>
<event>
 5    1  0.1321379E-008  0.3856470E+03  0.7957747E-01  0.3426933E+00
         13   -1    0    0    0    0  0.00000000000E+00  0.00000000000E+00  0.14999999963E+04  0.15000000000E+04  0.10566000000E+00 0. -1.
        994   -1    0    0    0    0 -0.00000000000E+00 -0.00000000000E+00  0.11368683772E-12  0.17120000000E+03  0.17120000000E+03 0.  0.
         13    1    1    2    0    0 -0.42269083122E+01 -0.12009870005E+02  0.60170608726E+02  0.61502984073E+02  0.10566000000E+00 0. -1.
        994    1    1    2    0    0  0.23009919265E+01  0.13731065390E+02  0.19456627982E+01  0.17177619836E+03  0.17120000000E+03 0.  0.
        998    1    1    2    0    0  0.19259163857E+01 -0.17211953853E+01  0.14378837248E+04  0.14379208176E+04  0.10000000000E+02 0. -1.
</event>
<event>
 5    1  0.1321379E-008  0.3835545E+03  0.7957747E-01  0.3435826E+00
         13   -1    0    0    0    0  0.00000000000E+00  0.00000000000E+00  0.14999999963E+04  0.15000000000E+04  0.10566000000E+00 0.  1.
        994   -1    0    0    0    0 -0.00000000000E+00 -0.00000000000E+00  0.11368683772E-12  0.17120000000E+03  0.17120000000E+03 0.  0.
         13    1    1    2    0    0 -0.19488902847E+01 -0.28290212714E+02  0.16125167844E+03  0.16372614108E+03  0.10566000000E+00 0.  1.
        994    1    1    2    0    0  0.39267770161E+01  0.23306250184E+02  0.41973873919E+01  0.17287469143E+03  0.17120000000E+03 0.  0.
        998    1    1    2    0    0 -0.19778867314E+01  0.49839625303E+01  0.13345509304E+04  0.13345991675E+04  0.10000000000E+02 0.  1.
</event>
<event>
 5    1  0.1321379E-008  0.3702888E+03  0.7957747E-01  0.3494565E+00
         13   -1    0    0    0    0  0.00000000000E+00  0.00000000000E+00  0.14999999963E+04  0.15000000000E+04  0.10566000000E+00 0. -1.
        994   -1    0    0    0    0 -0.00000000000E+00 -0.00000000000E+00  0.11368683772E-12  0.17120000000E+03  0.17120000000E+03 0.  0.
         13    1    1    2    0    0 -0.91573557329E+02 -0.18022237603E+02  0.37835832119E+03  0.38969930437E+03  0.10566000000E+00 0. -1.
        994    1    1    2    0    0  0.57321685861E+02  0.95368339588E+01  0.23003781997E+02  0.18225076367E+03  0.17120000000E+03 0.  0.
        998    1    1    2    0    0  0.34251871468E+02  0.84854036437E+01  0.10986378931E+04  0.10992499320E+04  0.10000000000E+02 0. -1.
</event>
<event>
 5    1  0.1321379E-008  0.3840394E+03  0.7957747E-01  0.3433757E+00
         13   -1    0    0    0    0  0.00000000000E+00  0.00000000000E+00  0.14999999963E+04  0.15000000000E+04  0.10566000000E+00 0.  1.
        994   -1    0    0    0    0 -0.00000000000E+00 -0.00000000000E+00  0.11368683772E-12  0.17120000000E+03  0.17120000000E+03 0.  0.
         13    1    1    2    0    0 -0.14210747920E+02  0.72444248956E+01  0.61124541261E+02  0.63171573962E+02  0.10566000000E+00 0.  1.
        994    1    1    2    0    0  0.73415485005E+01 -0.68696468824E+00  0.22872027023E+01  0.17137398155E+03  0.17120000000E+03 0.  0.
        998    1    1    2    0    0  0.68691994198E+01 -0.65574602073E+01  0.14365882523E+04  0.14366544445E+04  0.10000000000E+02 0.  1.
</event>
<event>
 5    1  0.1321379E-008  0.3844033E+03  0.7957747E-01  0.3432207E+00
         13   -1    0    0    0    0  0.00000000000E+00  0.00000000000E+00  0.14999999963E+04  0.15000000000E+04  0.10566000000E+00 0.  1.
        994   -1    0    0    0    0 -0.00000000000E+00 -0.00000000000E+00  0.11368683772E-12  0.17120000000E+03  0.17120000000E+03 0.  0.
         13    1    1    2    0    0  0.52591816465E+01 -0.14707658245E+02  0.64177162984E+02  0.66050689742E+02  0.10566000000E+00 0.  1.
        994    1    1    2    0    0 -0.78643129657E+01  0.48494915863E+01  0.22080093881E+01  0.17146334971E+03  0.17120000000E+03 0.  0.
        998    1    1    2    0    0  0.26051313191E+01  0.98581666587E+01  0.14336148239E+04  0.14336859606E+04  0.10000000000E+02 0.  1.
</event>
<event>
 5    1  0.1321379E-008  0.3820694E+03  0.7957747E-01  0.3442197E+00
         13   -1    0    0    0    0  0.00000000000E+00  0.00000000000E+00  0.14999999963E+04  0.15000000000E+04  0.10566000000E+00 0. -1.
        994   -1    0    0    0    0 -0.00000000000E+00 -0.00000000000E+00  0.11368683772E-12  0.17120000000E+03  0.17120000000E+03 0.  0.
         13    1    1    2    0    0 -0.51036758466E+01 -0.10015740293E+02  0.19565389721E+02  0.22564977282E+02  0.10566000000E+00 0. -1.
        994    1    1    2    0    0  0.66201444821E+01 -0.16189637726E+01  0.32463782704E+01  0.17136635121E+03  0.17120000000E+03 0.  0.
        998    1    1    2    0    0 -0.15164686355E+01  0.11634704066E+02  0.14771882283E+04  0.14772686715E+04  0.10000000000E+02 0. -1.
</event>
<event>
 5    1  0.1321379E-008  0.3859007E+03  0.7957747E-01  0.3425861E+00
         13   -1    0    0    0    0  0.00000000000E+00  0.00000000000E+00  0.14999999963E+04  0.15000000000E+04  0.10566000000E+00 0. -1.
        994   -1    0    0    0    0 -0.00000000000E+00 -0.00000000000E+00  0.11368683772E-12  0.17120000000E+03  0.17120000000E+03 0.  0.
         13    1    1    2    0    0 -0.11385006178E+02 -0.57774791524E+01  0.77120323906E+02  0.78170027212E+02  0.10566000000E+00 0. -1.
        994    1    1    2    0    0 -0.10798707174E+02  0.13242396180E+02  0.21416168193E+01  0.17206394060E+03  0.17120000000E+03 0.  0.
        998    1    1    2    0    0  0.22183713352E+02 -0.74649170274E+01  0.14207380556E+04  0.14209660322E+04  0.10000000000E+02 0. -1.
</event>
<event>
 5    1  0.1321379E-008  0.3835304E+03  0.7957747E-01  0.3435929E+00
         13   -1    0    0    0    0  0.00000000000E+00  0.00000000000E+00  0.14999999963E+04  0.15000000000E+04  0.10566000000E+00 0.  1.
        994   -1    0    0    0    0 -0.00000000000E+00 -0.00000000000E+00  0.11368683772E-12  0.17120000000E+03  0.17120000000E+03 0.  0.
         13    1    1    2    0    0  0.17932642897E+02 -0.86964112962E+01  0.88283250902E+02  0.90504976684E+02  0.10566000000E+00 0.  1.
        994    1    1    2    0    0 -0.64962428273E+01 -0.46568553732E+01  0.25726676049E+01  0.17140579363E+03  0.17120000000E+03 0.  0.
        998    1    1    2    0    0 -0.11436400070E+02  0.13353266669E+02  0.14091440778E+04  0.14092892297E+04  0.10000000000E+02 0.  1.
</event>
<event>
 5    1  0.1321379E-008  0.3767358E+03  0.7957747E-01  0.3465496E+00
         13   -1    0    0    0    0  0.00000000000E+00  0.00000000000E+00  0.14999999963E+04  0.15000000000E+04  0.10566000000E+00 0.  1.
        994   -1    0    0    0    0 -0.00000000000E+00 -0.00000000000E+00  0.11368683772E-12  0.17120000000E+03  0.17120000000E+03 0.  0.
         13    1    1    2    0    0  0.15265391010E+01 -0.29809516412E+02  0.24115584454E+02  0.38373300196E+02  0.10566000000E+00 0.  1.
        994    1    1    2    0    0  0.16146858793E+01  0.31573170249E+02  0.18132771876E+02  0.17503630968E+03  0.17120000000E+03 0.  0.
        998    1    1    2    0    0 -0.31412249803E+01 -0.17636538373E+01  0.14577516399E+04  0.14577903901E+04  0.10000000000E+02 0.  1.
</event>
<event>
 5    1  0.1321379E-008  0.3858178E+03  0.7957747E-01  0.3426211E+00
         13   -1    0    0    0    0  0.00000000000E+00  0.00000000000E+00  0.14999999963E+04  0.15000000000E+04  0.10566000000E+00 0.  1.
        994   -1    0    0    0    0 -0.00000000000E+00 -0.00000000000E+00  0.11368683772E-12  0.17120000000E+03  0.17120000000E+03 0.  0.
         13    1    1    2    0    0  0.11288893596E+02 -0.16141732770E+01  0.53429629134E+02  0.54633150261E+02  0.10566000000E+00 0.  1.
        994    1    1    2    0    0 -0.76048629533E+01  0.37177113047E+01  0.14597042957E+01  0.17141536120E+03  0.17120000000E+03 0.  0.
        998    1    1    2    0    0 -0.36840306431E+01 -0.21035380277E+01  0.14451106628E+04  0.14451514885E+04  0.10000000000E+02 0.  1.
</event>
<event>
 5    1  0.1321379E-008  0.3817628E+03  0.7957747E-01  0.3443518E+00
         13   -1    0    0    0    0  0.00000000000E+00  0.00000000000E+00  0.14999999963E+04  0.15000000000E+04  0.10566000000E+00 0. -1.
        994   -1    0    0    0    0 -0.00000000000E+00 -0.00000000000E+00  0.11368683772E-12  0.17120000000E+03  0.17120000000E+03 0.  0.
         13    1    1    2    0    0 -0.32960921478E+01  0.21894541900E+02  0.78449484985E+02  0.81514219906E+02  0.10566000000E+00 0. -1.
        994    1    1    2    0    0 -0.24775733454E+02 -0.80094280474E+01  0.55024979362E+01  0.17325618427E+03  0.17120000000E+03 0.  0.
        998    1    1    2    0    0  0.28071825602E+02 -0.13885113852E+02  0.14160480134E+04  0.14164295958E+04  0.10000000000E+02 0. -1.
</event>
<event>
 5    1  0.1321379E-008  0.3842870E+03  0.7957747E-01  0.3432702E+00
         13   -1    0    0    0    0  0.00000000000E+00  0.00000000000E+00  0.14999999963E+04  0.15000000000E+04  0.10566000000E+00 0. -1.
        994   -1    0    0    0    0 -0.00000000000E+00 -0.00000000000E+00  0.11368683772E-12  0.17120000000E+03  0.17120000000E+03 0.  0.
         13    1    1    2    0    0 -0.47183892892E+01 -0.18220033490E+02  0.94431100355E+02  0.96288507602E+02  0.10566000000E+00 0. -1.
        994    1    1    2    0    0  0.48279904655E+01  0.23461011370E+01  0.20795522738E+01  0.17129675484E+03  0.17120000000E+03 0.  0.
        998    1    1    2    0    0 -0.10960117632E+00  0.15873932353E+02  0.14034893436E+04  0.14036147376E+04  0.10000000000E+02 0. -1.
</event>
<event>
 5    1  0.1321379E-008  0.3783321E+03  0.7957747E-01  0.3458453E+00
         13   -1    0    0    0    0  0.00000000000E+00  0.00000000000E+00  0.14999999963E+04  0.15000000000E+04  0.10566000000E+00 0. -1.
        994   -1    0    0    0    0 -0.00000000000E+00 -0.00000000000E+00  0.11368683772E-12  0.17120000000E+03  0.17120000000E+03 0.  0.
         13    1    1    2    0    0 -0.46850100185E+02  0.14435814596E+02  0.27943248938E+03  0.28370028536E+03  0.10566000000E+00 0. -1.
        994    1    1    2    0    0  0.20005213013E+02  0.25748062290E+02  0.85595385723E+01  0.17448746935E+03  0.17120000000E+03 0.  0.
        998    1    1    2    0    0  0.26844887171E+02 -0.40183876886E+02  0.12120079683E+04  0.12130122453E+04  0.10000000000E+02 0. -1.
</event>
<event>
 5    1  0.1321379E-008  0.3748125E+03  0.7957747E-01  0.3474062E+00
         13   -1    0    0    0    0  0.00000000000E+00  0.00000000000E+00  0.14999999963E+04  0.15000000000E+04  0.10566000000E+00 0. -1.
        994   -1    0    0    0    0 -0.00000000000E+00 -0.00000000000E+00  0.11368683772E-12  0.17120000000E+03  0.17120000000E+03 0.  0.
         13    1    1    2    0    0  0.40977625785E+02 -0.47276399254E+02  0.23749110467E+03  0.24559368824E+03  0.10566000000E+00 0. -1.
        994    1    1    2    0    0 -0.32302859763E+02  0.58839961194E+02  0.22257999733E+02  0.18523086766E+03  0.17120000000E+03 0.  0.
        998    1    1    2    0    0 -0.86747660215E+01 -0.11563561939E+02  0.12402508919E+04  0.12403754441E+04  0.10000000000E+02 0. -1.
</event>
<event>
 5    1  0.1321379E-008  0.3153112E+03  0.7957747E-01  0.3792432E+00
         13   -1    0    0    0    0  0.00000000000E+00  0.00000000000E+00  0.14999999963E+04  0.15000000000E+04  0.10566000000E+00 0.  1.
        994   -1    0    0    0    0 -0.00000000000E+00 -0.00000000000E+00  0.11368683772E-12  0.17120000000E+03  0.17120000000E+03 0.  0.
         13    1    1    2    0    0  0.24744994685E+02  0.26260651634E+03  0.47828671158E+03  0.54619839511E+03  0.10566000000E+00 0.  1.
        994    1    1    2    0    0 -0.23566279784E+02 -0.25956035871E+03  0.41952457614E+03  0.52272101482E+03  0.17120000000E+03 0.  0.
        998    1    1    2    0    0 -0.11787149011E+01 -0.30461576311E+01  0.60218870856E+03  0.60228059006E+03  0.10000000000E+02 0.  0.
</event>
<event>
 5    1  0.1374482E-008  0.3861779E+03  0.7957747E-01  0.3424692E+00
         13   -1    0    0    0    0  0.00000000000E+00  0.00000000000E+00  0.14999999963E+04  0.15000000000E+04  0.10566000000E+00 0. -1.
        994   -1    0    0    0    0 -0.00000000000E+00 -0.00000000000E+00  0.11368683772E-12  0.17120000000E+03  0.17120000000E+03 0.  0.
         13    1    1    2    0    0 -0.27921162700E+01  0.10825579493E+02  0.58749056231E+02  0.59803443519E+02  0.10566000000E+00 0. -1.
        994    1    1    2    0    0  0.29827348847E+01 -0.11314824522E+02  0.14951434228E+01  0.17160593642E+03  0.17120000000E+03 0.  0.
        998    1    1    2    0    0 -0.19061861464E+00  0.48924502879E+00  0.14397557966E+04  0.14397906201E+04  0.10000000000E+02 0. -1.
</event>
<event>
 5    1  0.1321379E-008  0.3826189E+03  0.7957747E-01  0.3439834E+00
         13   -1    0    0    0    0  0.00000000000E+00  0.00000000000E+00  0.14999999963E+04  0.15000000000E+04  0.10566000000E+00 0. -1.
        994   -1    0    0    0    0 -0.00000000000E+00 -0.00000000000E+00  0.11368683772E-12  0.17120000000E+03  0.17120000000E+03 0.  0.
         13    1    1    2    0    0 -0.48340912400E+02  0.18446559292E+02  0.28917205050E+03  0.29376454060E+03  0.10566000000E+00 0. -1.
        994    1    1    2    0    0  0.65905885681E+02 -0.54121213993E+02  0.27306508205E+02  0.19320397760E+03  0.17120000000E+03 0.  0.
        998    1    1    2    0    0 -0.17564973281E+02  0.35674654701E+02  0.11835214376E+04  0.11842314818E+04  0.10000000000E+02 0. -1.
</event>
<event>
 5    1  0.1321379E-008  0.3831264E+03  0.7957747E-01  0.3437657E+00
         13   -1    0    0    0    0  0.00000000000E+00  0.00000000000E+00  0.14999999963E+04  0.15000000000E+04  0.10566000000E+00 0.  1.
        994   -1    0    0    0    0 -0.00000000000E+00 -0.00000000000E+00  0.11368683772E-12  0.17120000000E+03  0.17120000000E+03 0.  0.
         13    1    1    2    0    0 -0.14050193000E+02 -0.30823102245E+02  0.18365585370E+03  0.18675372906E+03  0.10566000000E+00 0.  1.
        994    1    1    2    0    0  0.13398968691E+02  0.40936888744E+02  0.87264856124E+01  0.17675110402E+03  0.17120000000E+03 0.  0.
        998    1    1    2    0    0  0.65122430935E+00 -0.10113786499E+02  0.13076176570E+04  0.13076951669E+04  0.10000000000E+02 0.  1.
</event>
<event>
 5    1  0.1321379E-008  0.2814000E+03  0.7957747E-01  0.4038459E+00
         13   -1    0    0    0    0  0.00000000000E+00  0.00000000000E+00  0.14999999963E+04  0.15000000000E+04  0.10566000000E+00 0. -1.
        994   -1    0    0    0    0 -0.00000000000E+00 -0.00000000000E+00  0.11368683772E-12  0.17120000000E+03  0.17120000000E+03 0.  0.
         13    1    1    2    0    0  0.11125955813E+03 -0.15258638574E+03  0.83883530155E+03  0.85982903456E+03  0.10566000000E+00 0. -1.
        994    1    1    2    0    0  0.37875409289E+02  0.23508094600E+03  0.47950447499E+03  0.56207791216E+03  0.17120000000E+03 0.  0.
        998    1    1    2    0    0 -0.14913496742E+03 -0.82494560256E+02  0.18166021974E+03  0.24929305328E+03  0.10000000000E+02 0. -1.
</event>
<event>
 5    1  0.1321379E-008  0.3827572E+03  0.7957747E-01  0.3439240E+00
         13   -1    0    0    0    0  0.00000000000E+00  0.00000000000E+00  0.14999999963E+04  0.15000000000E+04  0.10566000000E+00 0. -1.
        994   -1    0    0    0    0 -0.00000000000E+00 -0.00000000000E+00  0.11368683772E-12  0.17120000000E+03  0.17120000000E+03 0.  0.
         13    1    1    2    0    0 -0.40024662686E+01  0.28400882658E+02  0.14125826448E+03  0.14414068933E+03  0.10566000000E+00 0. -1.
        994    1    1    2    0    0 -0.57771388078E+01 -0.25487331386E+02  0.50135652479E+01  0.17325575093E+03  0.17120000000E+03 0.  0.
        998    1    1    2    0    0  0.97796050765E+01 -0.29135512719E+01  0.13537281665E+04  0.13538035597E+04  0.10000000000E+02 0. -1.
</event>
<event>
 5    1  0.1321379E-008  0.3758529E+03  0.7957747E-01  0.3469417E+00
         13   -1    0    0    0    0  0.00000000000E+00  0.00000000000E+00  0.14999999963E+04  0.15000000000E+04  0.10566000000E+00 0.  1.
        994   -1    0    0    0    0 -0.00000000000E+00 -0.00000000000E+00  0.11368683772E-12  0.17120000000E+03  0.17120000000E+03 0.  0.
         13    1    1    2    0    0  0.18800289895E+02  0.24609229843E+02  0.82509861171E+02  0.88130320821E+02  0.10566000000E+00 0.  1.
        994    1    1    2    0    0 -0.67619017019E+01  0.12645151505E+02  0.69386705601E+01  0.17193954845E+03  0.17120000000E+03 0.  0.
        998    1    1    2    0    0 -0.12038388193E+02 -0.37254381347E+02  0.14105514645E+04  0.14111301307E+04  0.10000000000E+02 0.  1.
</event>
<event>
 5    1  0.1321379E-008  0.3837004E+03  0.7957747E-01  0.3435203E+00
         13   -1    0    0    0    0  0.00000000000E+00  0.00000000000E+00  0.14999999963E+04  0.15000000000E+04  0.10566000000E+00 0. -1.
        994   -1    0    0    0    0 -0.00000000000E+00 -0.00000000000E+00  0.11368683772E-12  0.17120000000E+03  0.17120000000E+03 0.  0.
         13    1    1    2    0    0 -0.51245162212E+02 -0.95099906813E+02  0.36378897955E+03  0.37948977817E+03  0.10566000000E+00 0. -1.
        994    1    1    2    0    0 -0.20190570494E+01  0.44893930883E+02  0.25830472137E+02  0.17887480234E+03  0.17120000000E+03 0.  0.
        998    1    1    2    0    0  0.53264219261E+02  0.50205975930E+02  0.11103805446E+04  0.11128354195E+04  0.10000000000E+02 0. -1.
</event>
<event>
 5    1  0.1321379E-008  0.3846950E+03  0.7957747E-01  0.3430967E+00
         13   -1    0    0    0    0  0.00000000000E+00  0.00000000000E+00  0.14999999963E+04  0.15000000000E+04  0.10566000000E+00 0. -1.
        994   -1    0    0    0    0 -0.00000000000E+00 -0.00000000000E+00  0.11368683772E-12  0.17120000000E+03  0.17120000000E+03 0.  0.
         13    1    1    2    0    0 -0.14385755447E+02  0.14512053132E+02  0.11493893020E+03  0.11674124586E+03  0.10566000000E+00 0. -1.
        994    1    1    2    0    0  0.15999749287E+02 -0.54857427749E+01  0.27239576800E+01  0.17205506472E+03  0.17120000000E+03 0.  0.
        998    1    1    2    0    0 -0.16139938405E+01 -0.90263103566E+01  0.13823371084E+04  0.13824036894E+04  0.10000000000E+02 0. -1.
</event>
<event>
 5    1  0.1321379E-008  0.3826208E+03  0.7957747E-01  0.3439826E+00
         13   -1    0    0    0    0  0.00000000000E+00  0.00000000000E+00  0.14999999963E+04  0.15000000000E+04  0.10566000000E+00 0. -1.
        994   -1    0    0    0    0 -0.00000000000E+00 -0.00000000000E+00  0.11368683772E-12  0.17120000000E+03  0.17120000000E+03 0.  0.
         13    1    1    2    0    0  0.49181658317E+01 -0.90770203148E+01  0.17768351319E+02  0.20550088214E+02  0.10566000000E+00 0. -1.
        994    1    1    2    0    0 -0.35077442602E+01  0.76512974702E+01  0.30508301193E+01  0.17143393534E+03  0.17120000000E+03 0.  0.
        998    1    1    2    0    0 -0.14104215715E+01  0.14257228445E+01  0.14791808148E+04  0.14792159764E+04  0.10000000000E+02 0. -1.
</event>
<event>
 5    1  0.1321379E-008  0.3757352E+03  0.7957747E-01  0.3469941E+00
         13   -1    0    0    0    0  0.00000000000E+00  0.00000000000E+00  0.14999999963E+04  0.15000000000E+04  0.10566000000E+00 0. -1.
        994   -1    0    0    0    0 -0.00000000000E+00 -0.00000000000E+00  0.11368683772E-12  0.17120000000E+03  0.17120000000E+03 0.  0.
         13    1    1    2    0    0 -0.45656325833E+01 -0.22913087306E+02  0.40729912800E+02  0.46955207715E+02  0.10566000000E+00 0. -1.
        994    1    1    2    0    0  0.16484425526E+02  0.13223496265E+02  0.78174442996E+01  0.17267643028E+03  0.17120000000E+03 0.  0.
        998    1    1    2    0    0 -0.11918792942E+02  0.96895910410E+01  0.14514526392E+04  0.14515683620E+04  0.10000000000E+02 0. -1.
</event>
<event>
 5    1  0.1321379E-008  0.3847078E+03  0.7957747E-01  0.3430912E+00
         13   -1    0    0    0    0  0.00000000000E+00  0.00000000000E+00  0.14999999963E+04  0.15000000000E+04  0.10566000000E+00 0.  1.
        994   -1    0    0    0    0 -0.00000000000E+00 -0.00000000000E+00  0.11368683772E-12  0.17120000000E+03  0.17120000000E+03 0.  0.
         13    1    1    2    0    0  0.12100757724E+02  0.10819368272E+02  0.73503210717E+02  0.75274299844E+02  0.10566000000E+00 0.  1.
        994    1    1    2    0    0 -0.31881211520E+01 -0.14281916973E+02  0.24804624973E+01  0.17184216585E+03  0.17120000000E+03 0.  0.
        998    1    1    2    0    0 -0.89126365724E+01  0.34625487004E+01  0.14240163231E+04  0.14240835343E+04  0.10000000000E+02 0.  1.
</event>
<event>
 5    1  0.1321379E-008  0.3707469E+03  0.7957747E-01  0.3492465E+00
         13   -1    0    0    0    0  0.00000000000E+00  0.00000000000E+00  0.14999999963E+04  0.15000000000E+04  0.10566000000E+00 0.  1.
        994   -1    0    0    0    0 -0.00000000000E+00 -0.00000000000E+00  0.11368683772E-12  0.17120000000E+03  0.17120000000E+03 0.  0.
         13    1    1    2    0    0 -0.17275679838E+02  0.41965808734E+02  0.10437630247E+03  0.11381564874E+03  0.10566000000E+00 0.  1.
        994    1    1    2    0    0  0.18828600746E+02 -0.44512709186E+02  0.16978615219E+02  0.17869977857E+03  0.17120000000E+03 0.  0.
        998    1    1    2    0    0 -0.15529209083E+01  0.25469004524E+01  0.13786450786E+04  0.13786845727E+04  0.10000000000E+02 0.  1.
</event>
<event>
 5    1  0.1321379E-008  0.3843610E+03  0.7957747E-01  0.3432387E+00
         13   -1    0    0    0    0  0.00000000000E+00  0.00000000000E+00  0.14999999963E+04  0.15000000000E+04  0.10566000000E+00 0. -1.
        994   -1    0    0    0    0 -0.00000000000E+00 -0.00000000000E+00  0.11368683772E-12  0.17120000000E+03  0.17120000000E+03 0.  0.
         13    1    1    2    0    0 -0.16489226471E+01  0.14482036867E+02  0.50844259482E+02  0.52892326703E+02  0.10566000000E+00 0. -1.
        994    1    1    2    0    0 -0.39278361088E+00 -0.22347408823E+02  0.35957641071E+01  0.17269027326E+03  0.17120000000E+03 0.  0.
        998    1    1    2    0    0  0.20417062580E+01  0.78653719564E+01  0.14455599727E+04  0.14456174000E+04  0.10000000000E+02 0. -1.
</event>
<event>
 5    1  0.1321379E-008  0.3837827E+03  0.7957747E-01  0.3434851E+00
         13   -1    0    0    0    0  0.00000000000E+00  0.00000000000E+00  0.14999999963E+04  0.15000000000E+04  0.10566000000E+00 0. -1.
        994   -1    0    0    0    0 -0.00000000000E+00 -0.00000000000E+00  0.11368683772E-12  0.17120000000E+03  0.17120000000E+03 0.  0.
         13    1    1    2    0    0  0.12502169894E+02  0.19614901677E+01  0.36821156620E+02  0.38935336580E+02  0.10566000000E+00 0. -1.
        994    1    1    2    0    0  0.26371651781E+01 -0.35446784003E+01  0.23001453712E+01  0.17127244394E+03  0.17120000000E+03 0.  0.
        998    1    1    2    0    0 -0.15139335073E+02  0.15831882327E+01  0.14608786943E+04  0.14609922195E+04  0.10000000000E+02 0. -1.
</event>
<event>
 5    1  0.1321379E-008  0.3840645E+03  0.7957747E-01  0.3433650E+00
         13   -1    0    0    0    0  0.00000000000E+00  0.00000000000E+00  0.14999999963E+04  0.15000000000E+04  0.10566000000E+00 0. -1.
        994   -1    0    0    0    0 -0.00000000000E+00 -0.00000000000E+00  0.11368683772E-12  0.17120000000E+03  0.17120000000E+03 0.  0.
         13    1    1    2    0    0  0.16635457918E+02  0.89582718802E+01  0.85145081404E+02  0.87216312388E+02  0.10566000000E+00 0. -1.
        994    1    1    2    0    0 -0.73349107782E+01 -0.10521731059E+02  0.26381736774E+01  0.17170005155E+03  0.17120000000E+03 0.  0.
        998    1    1    2    0    0 -0.93005471397E+01  0.15634591792E+01  0.14122167412E+04  0.14122836361E+04  0.10000000000E+02 0. -1.
</event>
<event>
 5    1  0.1321379E-008  0.3834166E+03  0.7957747E-01  0.3436416E+00
         13   -1    0    0    0    0  0.00000000000E+00  0.00000000000E+00  0.14999999963E+04  0.15000000000E+04  0.10566000000E+00 0. -1.
        994   -1    0    0    0    0 -0.00000000000E+00 -0.00000000000E+00  0.11368683772E-12  0.17120000000E+03  0.17120000000E+03 0.  0.
         13    1    1    2    0    0  0.69899964964E+01 -0.22251511607E+02  0.10836830609E+03  0.11084985679E+03  0.10566000000E+00 0. -1.
        994    1    1    2    0    0 -0.13696639314E+02  0.15755719255E+02  0.38603824899E+01  0.17251140012E+03  0.17120000000E+03 0.  0.
        998    1    1    2    0    0  0.67066428181E+01  0.64957923518E+01  0.13877713077E+04  0.13878387431E+04  0.10000000000E+02 0. -1.
</event>
<event>
 5    1  0.1321379E-008  0.3825625E+03  0.7957747E-01  0.3440076E+00
         13   -1    0    0    0    0  0.00000000000E+00  0.00000000000E+00  0.14999999963E+04  0.15000000000E+04  0.10566000000E+00 0. -1.
        994   -1    0    0    0    0 -0.00000000000E+00 -0.00000000000E+00  0.11368683772E-12  0.17120000000E+03  0.17120000000E+03 0.  0.
         13    1    1    2    0    0 -0.12109537410E+02  0.12976421267E+02  0.54457666015E+02  0.57277194039E+02  0.10566000000E+00 0. -1.
        994    1    1    2    0    0  0.34596276946E+01 -0.12673117881E+02  0.34174547551E+01  0.17173728756E+03  0.17120000000E+03 0.  0.
        998    1    1    2    0    0  0.86499097152E+01 -0.30330338646E+00  0.14421248755E+04  0.14421855184E+04  0.10000000000E+02 0. -1.
</event>
<event>
 5    1  0.1321379E-008  0.3785708E+03  0.7957747E-01  0.3457405E+00
         13   -1    0    0    0    0  0.00000000000E+00  0.00000000000E+00  0.14999999963E+04  0.15000000000E+04  0.10566000000E+00 0.  1.
        994   -1    0    0    0    0 -0.00000000000E+00 -0.00000000000E+00  0.11368683772E-12  0.17120000000E+03  0.17120000000E+03 0.  0.
         13    1    1    2    0    0 -0.32966693254E+01  0.23049785408E+02  0.51939271248E+02  0.56919765441E+02  0.10566000000E+00 0.  1.
        994    1    1    2    0    0 -0.25408466783E+01 -0.26465281539E+02  0.72341808007E+01  0.17340311531E+03  0.17120000000E+03 0.  0.
        998    1    1    2    0    0  0.58375160037E+01  0.34154961307E+01  0.14408265442E+04  0.14408771192E+04  0.10000000000E+02 0.  1.
</event>
<event>
 5    1  0.1321379E-008  0.3834763E+03  0.7957747E-01  0.3436160E+00
         13   -1    0    0    0    0  0.00000000000E+00  0.00000000000E+00  0.14999999963E+04  0.15000000000E+04  0.10566000000E+00 0.  1.
        994   -1    0    0    0    0 -0.00000000000E+00 -0.00000000000E+00  0.11368683772E-12  0.17120000000E+03  0.17120000000E+03 0.  0.
         13    1    1    2    0    0  0.13611612684E+02  0.53999557153E+01  0.43135361529E+02  0.45553332478E+02  0.10566000000E+00 0.  1.
        994    1    1    2    0    0 -0.13322486217E+02 -0.82904071646E+01  0.32026893293E+01  0.17194742426E+03  0.17120000000E+03 0.  0.
        998    1    1    2    0    0 -0.28912646736E+00  0.28904514493E+01  0.14536619454E+04  0.14536992433E+04  0.10000000000E+02 0.  1.
</event>
<event>
 5    1  0.1321379E-008  0.3828533E+03  0.7957747E-01  0.3438828E+00
         13   -1    0    0    0    0  0.00000000000E+00  0.00000000000E+00  0.14999999963E+04  0.15000000000E+04  0.10566000000E+00 0. -1.
        994   -1    0    0    0    0 -0.00000000000E+00 -0.00000000000E+00  0.11368683772E-12  0.17120000000E+03  0.17120000000E+03 0.  0.
         13    1    1    2    0    0  0.42271878816E+01  0.18535013557E+02  0.75268483811E+02  0.77632284934E+02  0.10566000000E+00 0. -1.
        994    1    1    2    0    0  0.22529249521E+02  0.60115243073E+01  0.45023596870E+01  0.17283928012E+03  0.17120000000E+03 0.  0.
        998    1    1    2    0    0 -0.26756437403E+02 -0.24546537864E+02  0.14202291528E+04  0.14207284349E+04  0.10000000000E+02 0. -1.
</event>
<event>
 5    1  0.1321379E-008  0.3805397E+03  0.7957747E-01  0.3448812E+00
         13   -1    0    0    0    0  0.00000000000E+00  0.00000000000E+00  0.14999999963E+04  0.15000000000E+04  0.10566000000E+00 0.  1.
        994   -1    0    0    0    0 -0.00000000000E+00 -0.00000000000E+00  0.11368683772E-12  0.17120000000E+03  0.17120000000E+03 0.  0.
         13    1    1    2    0    0  0.48221149737E+02 -0.86956300388E+01  0.27634551354E+03  0.28065592330E+03  0.10566000000E+00 0.  1.
        994    1    1    2    0    0 -0.36938642120E+02  0.28743464449E+02  0.11205912735E+02  0.17783605515E+03  0.17120000000E+03 0.  0.
        998    1    1    2    0    0 -0.11282507617E+02 -0.20047834410E+02  0.12124485700E+04  0.12127080216E+04  0.10000000000E+02 0.  1.
</event>
<event>
 5    1  0.1321379E-008  0.3824028E+03  0.7957747E-01  0.3440763E+00
         13   -1    0    0    0    0  0.00000000000E+00  0.00000000000E+00  0.14999999963E+04  0.15000000000E+04  0.10566000000E+00 0.  1.
        994   -1    0    0    0    0 -0.00000000000E+00 -0.00000000000E+00  0.11368683772E-12  0.17120000000E+03  0.17120000000E+03 0.  0.
         13    1    1    2    0    0 -0.11431713816E+02  0.14628183461E+02  0.58197875632E+02  0.61087410522E+02  0.10566000000E+00 0.  1.
        994    1    1    2    0    0  0.70596299126E+01 -0.87346295522E+01  0.33435653939E+01  0.17160055815E+03  0.17120000000E+03 0.  0.
        998    1    1    2    0    0  0.43720839036E+01 -0.58935539090E+01  0.14384585553E+04  0.14385120313E+04  0.10000000000E+02 0.  1.
</event>
<event>
 5    1  0.1321379E-008  0.3860606E+03  0.7957747E-01  0.3425187E+00
         13   -1    0    0    0    0  0.00000000000E+00  0.00000000000E+00  0.14999999963E+04  0.15000000000E+04  0.10566000000E+00 0. -1.
        994   -1    0    0    0    0 -0.00000000000E+00 -0.00000000000E+00  0.11368683772E-12  0.17120000000E+03  0.17120000000E+03 0.  0.
         13    1    1    2    0    0  0.11070015259E+02  0.84815714429E-01  0.56858342131E+02  0.57926113847E+02  0.10566000000E+00 0. -1.
        994    1    1    2    0    0 -0.57745871200E+01 -0.77615031417E+00  0.12157661014E+01  0.17130343357E+03  0.17120000000E+03 0.  0.
        998    1    1    2    0    0 -0.52954281394E+01  0.69133459974E+00  0.14419258880E+04  0.14419704526E+04  0.10000000000E+02 0. -1.
</event>
<event>
 5    1  0.1321379E-008  0.3851470E+03  0.7957747E-01  0.3429049E+00
         13   -1    0    0    0    0  0.00000000000E+00  0.00000000000E+00  0.14999999963E+04  0.15000000000E+04  0.10566000000E+00 0.  1.
        994   -1    0    0    0    0 -0.00000000000E+00 -0.00000000000E+00  0.11368683772E-12  0.17120000000E+03  0.17120000000E+03 0.  0.
         13    1    1    2    0    0  0.15363913170E+02 -0.19823204007E+01  0.74598980211E+02  0.76190540322E+02  0.10566000000E+00 0.  1.
        994    1    1    2    0    0 -0.14323386792E+02  0.71544807580E+01  0.24002691821E+01  0.17196379647E+03  0.17120000000E+03 0.  0.
        998    1    1    2    0    0 -0.10405263781E+01 -0.51721603573E+01  0.14230007469E+04  0.14230456632E+04  0.10000000000E+02 0.  1.
</event>
<event>
 5    1  0.1321379E-008  0.3798654E+03  0.7957747E-01  0.3451745E+00
         13   -1    0    0    0    0  0.00000000000E+00  0.00000000000E+00  0.14999999963E+04  0.15000000000E+04  0.10566000000E+00 0. -1.
        994   -1    0    0    0    0 -0.00000000000E+00 -0.00000000000E+00  0.11368683772E-12  0.17120000000E+03  0.17120000000E+03 0.  0.
         13    1    1    2    0    0  0.48718687791E+01 -0.11093479882E+02  0.15793083440E+02  0.19905603479E+02  0.10566000000E+00 0. -1.
        994    1    1    2    0    0 -0.80558884677E+00  0.58062150898E+01  0.43160213737E+01  0.17135468814E+03  0.17120000000E+03 0.  0.
        998    1    1    2    0    0 -0.40662799323E+01  0.52872647920E+01  0.14798908915E+04  0.14799397084E+04  0.10000000000E+02 0. -1.
</event>
<event>
 5    1  0.1321379E-008  0.3820215E+03  0.7957747E-01  0.3442403E+00
         13   -1    0    0    0    0  0.00000000000E+00  0.00000000000E+00  0.14999999963E+04  0.15000000000E+04  0.10566000000E+00 0. -1.
        994   -1    0    0    0    0 -0.00000000000E+00 -0.00000000000E+00  0.11368683772E-12  0.17120000000E+03  0.17120000000E+03 0.  0.
         13    1    1    2    0    0  0.19481212469E+02  0.20112435604E+02  0.11499371255E+03  0.11835367673E+03  0.10566000000E+00 0. -1.
        994    1    1    2    0    0 -0.21518527903E+02 -0.21150805460E+02  0.61452587006E+01  0.17394714088E+03  0.17120000000E+03 0.  0.
        998    1    1    2    0    0  0.20373154338E+01  0.10383698558E+01  0.13788610250E+04  0.13788991824E+04  0.10000000000E+02 0. -1.
</event>
<event>
 5    1  0.1321379E-008  0.3721088E+03  0.7957747E-01  0.3486255E+00
         13   -1    0    0    0    0  0.00000000000E+00  0.00000000000E+00  0.14999999963E+04  0.15000000000E+04  0.10566000000E+00 0. -1.
        994   -1    0    0    0    0 -0.00000000000E+00 -0.00000000000E+00  0.11368683772E-12  0.17120000000E+03  0.17120000000E+03 0.  0.
         13    1    1    2    0    0 -0.87135216693E+00 -0.46688749354E+02  0.11845870416E+03  0.12733057106E+03  0.10566000000E+00 0. -1.
        994    1    1    2    0    0 -0.15970597532E+01  0.51617071907E+02  0.17381651272E+02  0.17966200075E+03  0.17120000000E+03 0.  0.
        998    1    1    2    0    0  0.24684119202E+01 -0.49283225528E+01  0.13641596408E+04  0.13642074282E+04  0.10000000000E+02 0. -1.
</event>
<event>
 5    1  0.1321379E-008  0.3794922E+03  0.7957747E-01  0.3453373E+00
         13   -1    0    0    0    0  0.00000000000E+00  0.00000000000E+00  0.14999999963E+04  0.15000000000E+04  0.10566000000E+00 0. -1.
        994   -1    0    0    0    0 -0.00000000000E+00 -0.00000000000E+00  0.11368683772E-12  0.17120000000E+03  0.17120000000E+03 0.  0.
         13    1    1    2    0    0  0.22425581031E+02  0.61257310802E+01  0.64947405229E+02  0.68982663589E+02  0.10566000000E+00 0. -1.
        994    1    1    2    0    0  0.50480211635E+01 -0.11480649257E+01  0.44794632517E+01  0.17133682080E+03  0.17120000000E+03 0.  0.
        998    1    1    2    0    0 -0.27473602194E+02 -0.49776661545E+01  0.14305731278E+04  0.14308805156E+04  0.10000000000E+02 0. -1.
</event>
<event>
 5    1  0.1321379E-008  0.3839216E+03  0.7957747E-01  0.3434259E+00
         13   -1    0    0    0    0  0.00000000000E+00  0.00000000000E+00  0.14999999963E+04  0.15000000000E+04  0.10566000000E+00 0.  1.
        994   -1    0    0    0    0 -0.00000000000E+00 -0.00000000000E+00  0.11368683772E-12  0.17120000000E+03  0.17120000000E+03 0.  0.
         13    1    1    2    0    0 -0.34209559818E+01 -0.14380367479E+02  0.52025247004E+02  0.54084520877E+02  0.10566000000E+00 0.  1.
        994    1    1    2    0    0 -0.69042915365E+01  0.33622754834E+01  0.23611313037E+01  0.17138841583E+03  0.17120000000E+03 0.  0.
        998    1    1    2    0    0  0.10325247518E+02  0.11018091996E+02  0.14456136180E+04  0.14457270633E+04  0.10000000000E+02 0.  1.
</event>
<event>
 5    1  0.1321379E-008  0.3860280E+03  0.7957747E-01  0.3425324E+00
         13   -1    0    0    0    0  0.00000000000E+00  0.00000000000E+00  0.14999999963E+04  0.15000000000E+04  0.10566000000E+00 0. -1.
        994   -1    0    0    0    0 -0.00000000000E+00 -0.00000000000E+00  0.11368683772E-12  0.17120000000E+03  0.17120000000E+03 0.  0.
         13    1    1    2    0    0  0.82793385153E+01 -0.11017956393E+02  0.81818033380E+02  0.82970745203E+02  0.10566000000E+00 0. -1.
        994    1    1    2    0    0 -0.98381372044E+01  0.10836104973E+02  0.18230243016E+01  0.17183414542E+03  0.17120000000E+03 0.  0.
        998    1    1    2    0    0  0.15587986890E+01  0.18185141916E+00  0.14163589386E+04  0.14163951094E+04  0.10000000000E+02 0. -1.
</event>
<event>
 5    1  0.1321379E-008  0.3741686E+03  0.7957747E-01  0.3476950E+00
         13   -1    0    0    0    0  0.00000000000E+00  0.00000000000E+00  0.14999999963E+04  0.15000000000E+04  0.10566000000E+00 0.  1.
        994   -1    0    0    0    0 -0.00000000000E+00 -0.00000000000E+00  0.11368683772E-12  0.17120000000E+03  0.17120000000E+03 0.  0.
         13    1    1    2    0    0  0.47011308341E+02 -0.72345750026E+01  0.75679350504E+02  0.89385555008E+02  0.10566000000E+00 0.  1.
        994    1    1    2    0    0 -0.51825488784E+02  0.24088203491E+02  0.24840018104E+02  0.18218833479E+03  0.17120000000E+03 0.  0.
        998    1    1    2    0    0  0.48141804429E+01 -0.16853628488E+02  0.13994806277E+04  0.13996261102E+04  0.10000000000E+02 0.  1.
</event>
<event>
 5    1  0.1321379E-008  0.3849556E+03  0.7957747E-01  0.3429861E+00
         13   -1    0    0    0    0  0.00000000000E+00  0.00000000000E+00  0.14999999963E+04  0.15000000000E+04  0.10566000000E+00 0. -1.
        994   -1    0    0    0    0 -0.00000000000E+00 -0.00000000000E+00  0.11368683772E-12  0.17120000000E+03  0.17120000000E+03 0.  0.
         13    1    1    2    0    0  0.15829925430E+02 -0.12226471306E+03  0.39103233684E+03  0.41000676362E+03  0.10566000000E+00 0. -1.
        994    1    1    2    0    0 -0.13082322863E+02  0.73312405727E+02  0.39845084953E+02  0.19090030592E+03  0.17120000000E+03 0.  0.
        998    1    1    2    0    0 -0.27476025673E+01  0.48952307331E+02  0.10691225745E+04  0.10702929305E+04  0.10000000000E+02 0. -1.
</event>
<event>
 5    1  0.1321379E-008  0.3839577E+03  0.7957747E-01  0.3434105E+00
         13   -1    0    0    0    0  0.00000000000E+00  0.00000000000E+00  0.14999999963E+04  0.15000000000E+04  0.10566000000E+00 0. -1.
        994   -1    0    0    0    0 -0.00000000000E+00 -0.00000000000E+00  0.11368683772E-12  0.17120000000E+03  0.17120000000E+03 0.  0.
         13    1    1    2    0    0 -0.20564656603E+02  0.28496195237E+02  0.26634282013E+02  0.44094607228E+02  0.10566000000E+00 0. -1.
        994    1    1    2    0    0 -0.99872430583E+01 -0.26256872098E+02  0.21425357092E+02  0.17480747777E+03  0.17120000000E+03 0.  0.
        998    1    1    2    0    0  0.30551899662E+02 -0.22393231389E+01  0.14519403572E+04  0.14522979150E+04  0.10000000000E+02 0. -1.
</event>
<event>
 5    1  0.1321379E-008  0.3812665E+03  0.7957747E-01  0.3445662E+00
         13   -1    0    0    0    0  0.00000000000E+00  0.00000000000E+00  0.14999999963E+04  0.15000000000E+04  0.10566000000E+00 0.  1.
        994   -1    0    0    0    0 -0.00000000000E+00 -0.00000000000E+00  0.11368683772E-12  0.17120000000E+03  0.17120000000E+03 0.  0.
         13    1    1    2    0    0  0.26337917242E+02 -0.11622028476E+02  0.12875497147E+03  0.13193411717E+03  0.10566000000E+00 0.  1.
        994    1    1    2    0    0 -0.37772010574E+00  0.62180884020E+01  0.36243717643E+01  0.17135163660E+03  0.17120000000E+03 0.  0.
        998    1    1    2    0    0 -0.25960197137E+02  0.54039400736E+01  0.13676206530E+04  0.13679142462E+04  0.10000000000E+02 0.  1.
</event>
<event>
 5    1  0.1321379E-008  0.3810913E+03  0.7957747E-01  0.3446420E+00
         13   -1    0    0    0    0  0.00000000000E+00  0.00000000000E+00  0.14999999963E+04  0.15000000000E+04  0.10566000000E+00 0. -1.
        994   -1    0    0    0    0 -0.00000000000E+00 -0.00000000000E+00  0.11368683772E-12  0.17120000000E+03  0.17120000000E+03 0.  0.
         13    1    1    2    0    0 -0.27310555653E+02 -0.27035702677E+02  0.19285999551E+03  0.19665142944E+03  0.10566000000E+00 0. -1.
        994    1    1    2    0    0  0.40548552290E+02  0.33912779496E+01  0.91179373192E+01  0.17620517200E+03  0.17120000000E+03 0.  0.
        998    1    1    2    0    0 -0.13237996637E+02  0.23644424727E+02  0.12980220634E+04  0.12983433986E+04  0.10000000000E+02 0. -1.
</event>
<event>
 5    1  0.1321379E-008  0.3840135E+03  0.7957747E-01  0.3433867E+00
         13   -1    0    0    0    0  0.00000000000E+00  0.00000000000E+00  0.14999999963E+04  0.15000000000E+04  0.10566000000E+00 0.  1.
        994   -1    0    0    0    0 -0.00000000000E+00 -0.00000000000E+00  0.11368683772E-12  0.17120000000E+03  0.17120000000E+03 0.  0.
         13    1    1    2    0    0  0.17235815867E+02  0.92046942448E+01  0.95580407390E+02  0.97557291812E+02  0.10566000000E+00 0.  1.
        994    1    1    2    0    0 -0.51300546232E+01  0.32404220414E+01  0.22421866013E+01  0.17132216785E+03  0.17120000000E+03 0.  0.
        998    1    1    2    0    0 -0.12105761244E+02 -0.12445116286E+02  0.14021774023E+04  0.14023205403E+04  0.10000000000E+02 0.  1.
</event>
<event>
 5    1  0.1321379E-008  0.3842750E+03  0.7957747E-01  0.3432753E+00
         13   -1    0    0    0    0  0.00000000000E+00  0.00000000000E+00  0.14999999963E+04  0.15000000000E+04  0.10566000000E+00 0.  1.
        994   -1    0    0    0    0 -0.00000000000E+00 -0.00000000000E+00  0.11368683772E-12  0.17120000000E+03  0.17120000000E+03 0.  0.
         13    1    1    2    0    0 -0.90509962132E+01 -0.19303685920E+02  0.11007968704E+03  0.11212538288E+03  0.10566000000E+00 0.  1.
        994    1    1    2    0    0 -0.14436390293E+02  0.27489327064E+02  0.51749526288E+01  0.17406979233E+03  0.17120000000E+03 0.  0.
        998    1    1    2    0    0  0.23487386507E+02 -0.81856411436E+01  0.13847453566E+04  0.13850048248E+04  0.10000000000E+02 0.  1.
</event>
<event>
 5    1  0.1321379E-008  0.3794927E+03  0.7957747E-01  0.3453370E+00
         13   -1    0    0    0    0  0.00000000000E+00  0.00000000000E+00  0.14999999963E+04  0.15000000000E+04  0.10566000000E+00 0. -1.
        994   -1    0    0    0    0 -0.00000000000E+00 -0.00000000000E+00  0.11368683772E-12  0.17120000000E+03  0.17120000000E+03 0.  0.
         13    1    1    2    0    0  0.60563008895E+01  0.22746041900E+02  0.59829163375E+02  0.64293087939E+02  0.10566000000E+00 0. -1.
        994    1    1    2    0    0 -0.47495372398E+01 -0.21517996468E+02  0.60170952512E+01  0.17271718997E+03  0.17120000000E+03 0.  0.
        998    1    1    2    0    0 -0.13067636497E+01 -0.12280454323E+01  0.14341537377E+04  0.14341897221E+04  0.10000000000E+02 0. -1.
</event>
<event>
 5    1  0.1321379E-008  0.3738970E+03  0.7957747E-01  0.3478170E+00
         13   -1    0    0    0    0  0.00000000000E+00  0.00000000000E+00  0.14999999963E+04  0.15000000000E+04  0.10566000000E+00 0.  1.
        994   -1    0    0    0    0 -0.00000000000E+00 -0.00000000000E+00  0.11368683772E-12  0.17120000000E+03  0.17120000000E+03 0.  0.
         13    1    1    2    0    0  0.47124433242E+02 -0.25230368946E+02  0.12039336924E+03  0.13172645234E+03  0.10566000000E+00 0.  1.
        994    1    1    2    0    0 -0.37679407889E+01 -0.12725407355E+02  0.13638970053E+02  0.17225444805E+03  0.17120000000E+03 0.  0.
        998    1    1    2    0    0 -0.43356492453E+02  0.37955776301E+02  0.13659676570E+04  0.13672190996E+04  0.10000000000E+02 0.  1.
</event>
<event>
 5    1  0.1321379E-008  0.3806525E+03  0.7957747E-01  0.3448322E+00
         13   -1    0    0    0    0  0.00000000000E+00  0.00000000000E+00  0.14999999963E+04  0.15000000000E+04  0.10566000000E+00 0.  1.
        994   -1    0    0    0    0 -0.00000000000E+00 -0.00000000000E+00  0.11368683772E-12  0.17120000000E+03  0.17120000000E+03 0.  0.
         13    1    1    2    0    0  0.22942601638E+02 -0.21205601700E+02  0.12568760972E+03  0.12951226550E+03  0.10566000000E+00 0.  1.
        994    1    1    2    0    0 -0.12311586307E+02  0.16752365435E+02  0.52471920872E+01  0.17253750297E+03  0.17120000000E+03 0.  0.
        998    1    1    2    0    0 -0.10631015330E+02  0.44532362652E+01  0.13690651945E+04  0.13691502315E+04  0.10000000000E+02 0.  1.
</event>
<event>
 5    1  0.1321379E-008  0.3829251E+03  0.7957747E-01  0.3438520E+00
         13   -1    0    0    0    0  0.00000000000E+00  0.00000000000E+00  0.14999999963E+04  0.15000000000E+04  0.10566000000E+00 0. -1.
        994   -1    0    0    0    0 -0.00000000000E+00 -0.00000000000E+00  0.11368683772E-12  0.17120000000E+03  0.17120000000E+03 0.  0.
         13    1    1    2    0    0  0.48174170106E+01  0.10903577238E+02  0.26876743021E+02  0.29401802372E+02  0.10566000000E+00 0. -1.
        994    1    1    2    0    0  0.61031815978E+01  0.21149229022E+01  0.28019645646E+01  0.17134471900E+03  0.17120000000E+03 0.  0.
        998    1    1    2    0    0 -0.10920598608E+02 -0.13018500141E+02  0.14703212887E+04  0.14704534786E+04  0.10000000000E+02 0. -1.
</event>
<event>
 5    1  0.1321379E-008  0.3851941E+03  0.7957747E-01  0.3428850E+00
         13   -1    0    0    0    0  0.00000000000E+00  0.00000000000E+00  0.14999999963E+04  0.15000000000E+04  0.10566000000E+00 0. -1.
        994   -1    0    0    0    0 -0.00000000000E+00 -0.00000000000E+00  0.11368683772E-12  0.17120000000E+03  0.17120000000E+03 0.  0.
         13    1    1    2    0    0  0.10294874844E+01  0.12118161804E+02  0.48390342096E+02  0.49895351109E+02  0.10566000000E+00 0. -1.
        994    1    1    2    0    0 -0.19594664451E+02 -0.63535558275E+01  0.29296178883E+01  0.17245967995E+03  0.17120000000E+03 0.  0.
        998    1    1    2    0    0  0.18565176967E+02 -0.57646059770E+01  0.14486800363E+04  0.14488449689E+04  0.10000000000E+02 0. -1.
</event>
<event>
 5    1  0.1321379E-008  0.3860532E+03  0.7957747E-01  0.3425218E+00
         13   -1    0    0    0    0  0.00000000000E+00  0.00000000000E+00  0.14999999963E+04  0.15000000000E+04  0.10566000000E+00 0.  1.
        994   -1    0    0    0    0 -0.00000000000E+00 -0.00000000000E+00  0.11368683772E-12  0.17120000000E+03  0.17120000000E+03 0.  0.
         13    1    1    2    0    0 -0.11791137024E+02  0.63148879473E+01  0.78706028916E+02  0.79834571922E+02  0.10566000000E+00 0.  1.
        994    1    1    2    0    0  0.13340753875E+02 -0.32555760777E+01  0.17264402412E+01  0.17175853715E+03  0.17120000000E+03 0.  0.
        998    1    1    2    0    0 -0.15496168508E+01 -0.30593118696E+01  0.14195675271E+04  0.14196068909E+04  0.10000000000E+02 0.  1.
</event>
<event>
 5    1  0.1321379E-008  0.3850696E+03  0.7957747E-01  0.3429377E+00
         13   -1    0    0    0    0  0.00000000000E+00  0.00000000000E+00  0.14999999963E+04  0.15000000000E+04  0.10566000000E+00 0. -1.
        994   -1    0    0    0    0 -0.00000000000E+00 -0.00000000000E+00  0.11368683772E-12  0.17120000000E+03  0.17120000000E+03 0.  0.
         13    1    1    2    0    0 -0.55142296166E+01  0.14506166772E+02  0.77270678577E+02  0.78813733159E+02  0.10566000000E+00 0. -1.
        994    1    1    2    0    0  0.65481603884E+01 -0.49373673274E+01  0.18167746546E+01  0.17140594118E+03  0.17120000000E+03 0.  0.
        998    1    1    2    0    0 -0.10339307718E+01 -0.95687994448E+01  0.14209125430E+04  0.14209803257E+04  0.10000000000E+02 0. -1.
</event>
<event>
 5    1  0.1321379E-008  0.3800058E+03  0.7957747E-01  0.3451133E+00
         13   -1    0    0    0    0  0.00000000000E+00  0.00000000000E+00  0.14999999963E+04  0.15000000000E+04  0.10566000000E+00 0. -1.
        994   -1    0    0    0    0 -0.00000000000E+00 -0.00000000000E+00  0.11368683772E-12  0.17120000000E+03  0.17120000000E+03 0.  0.
         13    1    1    2    0    0  0.10326322605E+02 -0.15737738775E+02  0.42307373313E+02  0.46305878255E+02  0.10566000000E+00 0. -1.
        994    1    1    2    0    0 -0.38841598894E+01  0.43247981086E+01  0.42431893665E+01  0.17135120435E+03  0.17120000000E+03 0.  0.
        998    1    1    2    0    0 -0.64421627158E+01  0.11412940666E+02  0.14534494336E+04  0.14535429174E+04  0.10000000000E+02 0. -1.
</event>
<event>
 5    1  0.1321379E-008  0.3836528E+03  0.7957747E-01  0.3435406E+00
         13   -1    0    0    0    0  0.00000000000E+00  0.00000000000E+00  0.14999999963E+04  0.15000000000E+04  0.10566000000E+00 0. -1.
        994   -1    0    0    0    0 -0.00000000000E+00 -0.00000000000E+00  0.11368683772E-12  0.17120000000E+03  0.17120000000E+03 0.  0.
         13    1    1    2    0    0 -0.61523695122E+01  0.15524558312E+02  0.59209135595E+02  0.61519073980E+02  0.10566000000E+00 0. -1.
        994    1    1    2    0    0  0.21389060442E+01 -0.13829876574E+02  0.29476087967E+01  0.17179630032E+03  0.17120000000E+03 0.  0.
        998    1    1    2    0    0  0.40134634680E+01 -0.16946817387E+01  0.14378432519E+04  0.14378846257E+04  0.10000000000E+02 0. -1.
</event>
<event>
 5    1  0.1321379E-008  0.3697964E+03  0.7957747E-01  0.3496827E+00
         13   -1    0    0    0    0  0.00000000000E+00  0.00000000000E+00  0.14999999963E+04  0.15000000000E+04  0.10566000000E+00 0.  1.
        994   -1    0    0    0    0 -0.00000000000E+00 -0.00000000000E+00  0.11368683772E-12  0.17120000000E+03  0.17120000000E+03 0.  0.
         13    1    1    2    0    0  0.50991519384E+02  0.28393536969E+02  0.20943565825E+03  0.21741580923E+03  0.10566000000E+00 0.  1.
        994    1    1    2    0    0 -0.57478483808E+01 -0.67880617204E-01  0.94898929169E+01  0.17155914559E+03  0.17120000000E+03 0.  0.
        998    1    1    2    0    0 -0.45243671003E+02 -0.28325656351E+02  0.12810744451E+04  0.12822250452E+04  0.10000000000E+02 0.  1.
</event>
<event>
 5    1  0.1321379E-008  0.4033402E+03  0.7957747E-01  0.3355428E+00
         13   -1    0    0    0    0  0.00000000000E+00  0.00000000000E+00  0.14999999963E+04  0.15000000000E+04  0.10566000000E+00 0.  1.
        994   -1    0    0    0    0 -0.00000000000E+00 -0.00000000000E+00  0.11368683772E-12  0.17120000000E+03  0.17120000000E+03 0.  0.
         13    1    1    2    0    0  0.10077069802E+03  0.60926832329E+02  0.19087317077E+03  0.22427525713E+03  0.10566000000E+00 0.  1.
        994    1    1    2    0    0 -0.12759291138E+03 -0.21076829584E+02  0.99846499332E+02  0.23664941836E+03  0.17120000000E+03 0.  0.
        998    1    1    2    0    0  0.26822213359E+02 -0.39850002745E+02  0.12092803262E+04  0.12102753245E+04  0.10000000000E+02 0.  1.
</event>
<event>
 5    1  0.1321379E-008  0.3777356E+03  0.7957747E-01  0.3461078E+00
         13   -1    0    0    0    0  0.00000000000E+00  0.00000000000E+00  0.14999999963E+04  0.15000000000E+04  0.10566000000E+00 0. -1.
        994   -1    0    0    0    0 -0.00000000000E+00 -0.00000000000E+00  0.11368683772E-12  0.17120000000E+03  0.17120000000E+03 0.  0.
         13    1    1    2    0    0  0.29655826782E+01  0.17995604811E+02  0.30634568499E+02  0.35652831925E+02  0.10566000000E+00 0. -1.
        994    1    1    2    0    0  0.39991680788E+01  0.20469879797E+01  0.53485976900E+01  0.17134243783E+03  0.17120000000E+03 0.  0.
        998    1    1    2    0    0 -0.69647507570E+01 -0.20042592790E+02  0.14640168301E+04  0.14642047302E+04  0.10000000000E+02 0. -1.
</event>
<event>
 5    1  0.1321379E-008  0.3793115E+03  0.7957747E-01  0.3454162E+00
         13   -1    0    0    0    0  0.00000000000E+00  0.00000000000E+00  0.14999999963E+04  0.15000000000E+04  0.10566000000E+00 0.  1.
        994   -1    0    0    0    0 -0.00000000000E+00 -0.00000000000E+00  0.11368683772E-12  0.17120000000E+03  0.17120000000E+03 0.  0.
         13    1    1    2    0    0  0.44562333810E+02  0.12946416497E+02  0.24995963401E+03  0.25423068479E+03  0.10566000000E+00 0.  1.
        994    1    1    2    0    0 -0.32459289524E+02  0.28658830660E+02  0.10788891310E+02  0.17692024821E+03  0.17120000000E+03 0.  0.
        998    1    1    2    0    0 -0.12103044286E+02 -0.41605247157E+02  0.12392514710E+04  0.12400490670E+04  0.10000000000E+02 0.  1.
</event>
<event>
 5    1  0.1321379E-008  0.3760224E+03  0.7957747E-01  0.3468663E+00
         13   -1    0    0    0    0  0.00000000000E+00  0.00000000000E+00  0.14999999963E+04  0.15000000000E+04  0.10566000000E+00 0.  1.
        994   -1    0    0    0    0 -0.00000000000E+00 -0.00000000000E+00  0.11368683772E-12  0.17120000000E+03  0.17120000000E+03 0.  0.
         13    1    1    2    0    0 -0.44202749137E+02 -0.11534225212E+02  0.15254153277E+03  0.15923520894E+03  0.10566000000E+00 0.  1.
        994    1    1    2    0    0  0.45484395334E+02  0.18998437839E+01  0.13207525943E+02  0.17764098166E+03  0.17120000000E+03 0.  0.
        998    1    1    2    0    0 -0.12816461971E+01  0.96343814276E+01  0.13342509376E+04  0.13343238094E+04  0.10000000000E+02 0.  1.
</event>
<event>
 5    1  0.1321379E-008  0.3727044E+03  0.7957747E-01  0.3483554E+00
         13   -1    0    0    0    0  0.00000000000E+00  0.00000000000E+00  0.14999999963E+04  0.15000000000E+04  0.10566000000E+00 0.  1.
        994   -1    0    0    0    0 -0.00000000000E+00 -0.00000000000E+00  0.11368683772E-12  0.17120000000E+03  0.17120000000E+03 0.  0.
         13    1    1    2    0    0  0.65542522462E+01 -0.85543999551E+01  0.37417167131E+01  0.11408224625E+02  0.10566000000E+00 0.  1.
        994    1    1    2    0    0  0.26644500500E+01  0.11624801623E+02  0.83497412622E+01  0.17181790793E+03  0.17120000000E+03 0.  0.
        998    1    1    2    0    0 -0.92187022962E+01 -0.30704016682E+01  0.14879085383E+04  0.14879738674E+04  0.10000000000E+02 0.  1.
</event>
<event>
 5    1  0.1706612E-008  0.3856605E+03  0.7957747E-01  0.3426876E+00
         13   -1    0    0    0    0  0.00000000000E+00  0.00000000000E+00  0.14999999963E+04  0.15000000000E+04  0.10566000000E+00 0. -1.
        994   -1    0    0    0    0 -0.00000000000E+00 -0.00000000000E+00  0.11368683772E-12  0.17120000000E+03  0.17120000000E+03 0.  0.
         13    1    1    2    0    0 -0.63136675632E+01  0.88955416715E+01  0.46838817270E+02  0.48092400928E+02  0.10566000000E+00 0. -1.
        994    1    1    2    0    0  0.41782224684E+01 -0.21839615198E+01  0.13755310950E+01  0.17127042744E+03  0.17120000000E+03 0.  0.
        998    1    1    2    0    0  0.21354450948E+01 -0.67115801517E+01  0.14517856479E+04  0.14518371716E+04  0.10000000000E+02 0. -1.
</event>
<event>
 5    1  0.1321379E-008  0.3823240E+03  0.7957747E-01  0.3441101E+00
         13   -1    0    0    0    0  0.00000000000E+00  0.00000000000E+00  0.14999999963E+04  0.15000000000E+04  0.10566000000E+00 0. -1.
        994   -1    0    0    0    0 -0.00000000000E+00 -0.00000000000E+00  0.11368683772E-12  0.17120000000E+03  0.17120000000E+03 0.  0.
         13    1    1    2    0    0 -0.10601936682E+03  0.19759101218E+03  0.93629926723E+03  0.96277652818E+03  0.10566000000E+00 0. -1.
        994    1    1    2    0    0  0.10950390293E+03 -0.22195699714E+03  0.24347862297E+03  0.38710114076E+03  0.17120000000E+03 0.  0.
        998    1    1    2    0    0 -0.34845361057E+01  0.24365984960E+02  0.32022210608E+03  0.32132233106E+03  0.10000000000E+02 0. -1.
</event>
<event>
 5    1  0.1736512E-008  0.3862172E+03  0.7957747E-01  0.3424526E+00
         13   -1    0    0    0    0  0.00000000000E+00  0.00000000000E+00  0.14999999963E+04  0.15000000000E+04  0.10566000000E+00 0. -1.
        994   -1    0    0    0    0 -0.00000000000E+00 -0.00000000000E+00  0.11368683772E-12  0.17120000000E+03  0.17120000000E+03 0.  0.
         13    1    1    2    0    0 -0.10542347586E+02  0.58334619155E+01  0.69176745236E+02  0.70218256999E+02  0.10566000000E+00 0. -1.
        994    1    1    2    0    0  0.98450213862E+01 -0.80840405609E+01  0.15587925796E+01  0.17168035995E+03  0.17120000000E+03 0.  0.
        998    1    1    2    0    0  0.69732619963E+00  0.22505786454E+01  0.14292644585E+04  0.14293013831E+04  0.10000000000E+02 0. -1.
</event>
<event>
 5    1  0.1321379E-008  0.3772306E+03  0.7957747E-01  0.3463307E+00
         13   -1    0    0    0    0  0.00000000000E+00  0.00000000000E+00  0.14999999963E+04  0.15000000000E+04  0.10566000000E+00 0. -1.
        994   -1    0    0    0    0 -0.00000000000E+00 -0.00000000000E+00  0.11368683772E-12  0.17120000000E+03  0.17120000000E+03 0.  0.
         13    1    1    2    0    0 -0.13388618416E+03  0.30253636931E+02  0.61522632290E+03  0.63035246681E+03  0.10566000000E+00 0. -1.
        994    1    1    2    0    0  0.16501251285E+03 -0.27914247238E+02  0.10674753350E+03  0.26213128487E+03  0.17120000000E+03 0.  0.
        998    1    1    2    0    0 -0.31126328687E+02 -0.23393896924E+01  0.77802613988E+03  0.77871624833E+03  0.10000000000E+02 0. -1.
</event>
<event>
 5    1  0.1321379E-008  0.3774391E+03  0.7957747E-01  0.3462385E+00
         13   -1    0    0    0    0  0.00000000000E+00  0.00000000000E+00  0.14999999963E+04  0.15000000000E+04  0.10566000000E+00 0.  1.
        994   -1    0    0    0    0 -0.00000000000E+00 -0.00000000000E+00  0.11368683772E-12  0.17120000000E+03  0.17120000000E+03 0.  0.
         13    1    1    2    0    0  0.39668808339E+02 -0.72146998250E+01  0.19811976699E+03  0.20218090781E+03  0.10566000000E+00 0.  1.
        994    1    1    2    0    0  0.18171704153E+02 -0.82690641191E+01  0.67764565075E+01  0.17249332919E+03  0.17120000000E+03 0.  0.
        998    1    1    2    0    0 -0.57840512492E+02  0.15483763944E+02  0.12951037728E+04  0.12965257630E+04  0.10000000000E+02 0.  1.
</event>
<event>
 5    1  0.1321379E-008  0.3823096E+03  0.7957747E-01  0.3441163E+00
         13   -1    0    0    0    0  0.00000000000E+00  0.00000000000E+00  0.14999999963E+04  0.15000000000E+04  0.10566000000E+00 0. -1.
        994   -1    0    0    0    0 -0.00000000000E+00 -0.00000000000E+00  0.11368683772E-12  0.17120000000E+03  0.17120000000E+03 0.  0.
         13    1    1    2    0    0 -0.20146189897E+02  0.15351119738E+02  0.99282654231E+02  0.10246259044E+03  0.10566000000E+00 0. -1.
        994    1    1    2    0    0  0.24240814514E+02 -0.14920226432E+02  0.56644593848E+01  0.17364261097E+03  0.17120000000E+03 0.  0.
        998    1    1    2    0    0 -0.40946246173E+01 -0.43089330632E+00  0.13950528827E+04  0.13950947986E+04  0.10000000000E+02 0. -1.
</event>
<event>
 5    1  0.1321379E-008  0.3852576E+03  0.7957747E-01  0.3428581E+00
         13   -1    0    0    0    0  0.00000000000E+00  0.00000000000E+00  0.14999999963E+04  0.15000000000E+04  0.10566000000E+00 0.  1.
        994   -1    0    0    0    0 -0.00000000000E+00 -0.00000000000E+00  0.11368683772E-12  0.17120000000E+03  0.17120000000E+03 0.  0.
         13    1    1    2    0    0 -0.60157608102E+01 -0.16792308438E+02  0.99898990622E+02  0.10147901503E+03  0.10566000000E+00 0.  1.
        994    1    1    2    0    0  0.10353038744E+02  0.16412653517E+02  0.27406385416E+01  0.17231805392E+03  0.17120000000E+03 0.  0.
        998    1    1    2    0    0 -0.43372779341E+01  0.37965492029E+00  0.13973603671E+04  0.13974029310E+04  0.10000000000E+02 0.  1.
</event>
<event>
 5    1  0.1321379E-008  0.3830711E+03  0.7957747E-01  0.3437894E+00
         13   -1    0    0    0    0  0.00000000000E+00  0.00000000000E+00  0.14999999963E+04  0.15000000000E+04  0.10566000000E+00 0.  1.
        994   -1    0    0    0    0 -0.00000000000E+00 -0.00000000000E+00  0.11368683772E-12  0.17120000000E+03  0.17120000000E+03 0.  0.
         13    1    1    2    0    0 -0.17749552409E+02 -0.74796212881E+01  0.70369606352E+02  0.72958097614E+02  0.10566000000E+00 0.  1.
        994    1    1    2    0    0  0.12552608228E+02  0.53918563847E+01  0.32087353706E+01  0.17177420083E+03  0.17120000000E+03 0.  0.
        998    1    1    2    0    0  0.51969441803E+01  0.20877649034E+01  0.14264216546E+04  0.14264677016E+04  0.10000000000E+02 0.  1.
</event>
<event>
 5    1  0.1321379E-008  0.3836466E+03  0.7957747E-01  0.3435433E+00
         13   -1    0    0    0    0  0.00000000000E+00  0.00000000000E+00  0.14999999963E+04  0.15000000000E+04  0.10566000000E+00 0. -1.
        994   -1    0    0    0    0 -0.00000000000E+00 -0.00000000000E+00  0.11368683772E-12  0.17120000000E+03  0.17120000000E+03 0.  0.
         13    1    1    2    0    0  0.11053638617E+02  0.47988123033E+01  0.30044485090E+02  0.32371187414E+02  0.10566000000E+00 0. -1.
        994    1    1    2    0    0 -0.13743021260E+02 -0.58530740290E+01  0.30409573252E+01  0.17187732989E+03  0.17120000000E+03 0.  0.
        998    1    1    2    0    0  0.26893826423E+01  0.10542617257E+01  0.14669145539E+04  0.14669514827E+04  0.10000000000E+02 0. -1.
</event>
<event>
 5    1  0.1321379E-008  0.3761649E+03  0.7957747E-01  0.3468029E+00
         13   -1    0    0    0    0  0.00000000000E+00  0.00000000000E+00  0.14999999963E+04  0.15000000000E+04  0.10566000000E+00 0.  1.
        994   -1    0    0    0    0 -0.00000000000E+00 -0.00000000000E+00  0.11368683772E-12  0.17120000000E+03  0.17120000000E+03 0.  0.
         13    1    1    2    0    0 -0.34391617348E+02  0.14503268315E+03  0.78067353850E+03  0.79477572145E+03  0.10566000000E+00 0.  1.
        994    1    1    2    0    0  0.33233183742E+02 -0.14599852494E+03  0.86217063073E+02  0.24323411716E+03  0.17120000000E+03 0.  0.
        998    1    1    2    0    0  0.11584336054E+01  0.96584179014E+00  0.63310939471E+03  0.63319016139E+03  0.10000000000E+02 0.  0.
</event>
<event>
 5    1  0.1321379E-008  0.3826794E+03  0.7957747E-01  0.3439574E+00
         13   -1    0    0    0    0  0.00000000000E+00  0.00000000000E+00  0.14999999963E+04  0.15000000000E+04  0.10566000000E+00 0.  1.
        994   -1    0    0    0    0 -0.00000000000E+00 -0.00000000000E+00  0.11368683772E-12  0.17120000000E+03  0.17120000000E+03 0.  0.
         13    1    1    2    0    0  0.10770988628E+01  0.14174482747E+02  0.36409555082E+02  0.39086352713E+02  0.10566000000E+00 0.  1.
        994    1    1    2    0    0  0.43922652805E+01 -0.20092845682E+01  0.28639819973E+01  0.17129206523E+03  0.17120000000E+03 0.  0.
        998    1    1    2    0    0 -0.54693641432E+01 -0.12165198178E+02  0.14607264592E+04  0.14608215821E+04  0.10000000000E+02 0.  1.
</event>
<event>
 5    1  0.1321379E-008  0.3710785E+03  0.7957747E-01  0.3490949E+00
         13   -1    0    0    0    0  0.00000000000E+00  0.00000000000E+00  0.14999999963E+04  0.15000000000E+04  0.10566000000E+00 0.  1.
        994   -1    0    0    0    0 -0.00000000000E+00 -0.00000000000E+00  0.11368683772E-12  0.17120000000E+03  0.17120000000E+03 0.  0.
         13    1    1    2    0    0  0.11902856543E+02 -0.16272554301E+02  0.19366345591E+02  0.27956046268E+02  0.10566000000E+00 0.  1.
        994    1    1    2    0    0 -0.14589444280E+02  0.13851457156E+02  0.10101830643E+02  0.17267368570E+03  0.17120000000E+03 0.  0.
        998    1    1    2    0    0  0.26865877370E+01  0.24210971447E+01  0.14705318200E+04  0.14705702680E+04  0.10000000000E+02 0.  1.
</event>
<event>
 5    1  0.1321379E-008  0.3846234E+03  0.7957747E-01  0.3431271E+00
         13   -1    0    0    0    0  0.00000000000E+00  0.00000000000E+00  0.14999999963E+04  0.15000000000E+04  0.10566000000E+00 0.  1.
        994   -1    0    0    0    0 -0.00000000000E+00 -0.00000000000E+00  0.11368683772E-12  0.17120000000E+03  0.17120000000E+03 0.  0.
         13    1    1    2    0    0 -0.10742511878E+02  0.18242687513E+01  0.31687234166E+02  0.33508528632E+02  0.10566000000E+00 0.  1.
        994    1    1    2    0    0  0.10870160324E+02 -0.74413715491E+01  0.23888519141E+01  0.17172268636E+03  0.17120000000E+03 0.  0.
        998    1    1    2    0    0 -0.12764844574E+00  0.56171027977E+01  0.14659239102E+04  0.14659687850E+04  0.10000000000E+02 0.  1.
</event>
<event>
 5    1  0.1321379E-008  0.3733343E+03  0.7957747E-01  0.3480706E+00
         13   -1    0    0    0    0  0.00000000000E+00  0.00000000000E+00  0.14999999963E+04  0.15000000000E+04  0.10566000000E+00 0.  1.
        994   -1    0    0    0    0 -0.00000000000E+00 -0.00000000000E+00  0.11368683772E-12  0.17120000000E+03  0.17120000000E+03 0.  0.
         13    1    1    2    0    0 -0.12496272838E+03 -0.44811183697E+02  0.46061149099E+03  0.47936070184E+03  0.10566000000E+00 0.  1.
        994    1    1    2    0    0  0.12328094849E+03  0.45991281210E+02  0.76767063094E+02  0.22916372354E+03  0.17120000000E+03 0.  0.
        998    1    1    2    0    0  0.16817798841E+01 -0.11800975127E+01  0.96262144219E+03  0.96267557463E+03  0.10000000000E+02 0. -1.
</event>
<event>
 5    1  0.1321379E-008  0.3716669E+03  0.7957747E-01  0.3488265E+00
         13   -1    0    0    0    0  0.00000000000E+00  0.00000000000E+00  0.14999999963E+04  0.15000000000E+04  0.10566000000E+00 0. -1.
        994   -1    0    0    0    0 -0.00000000000E+00 -0.00000000000E+00  0.11368683772E-12  0.17120000000E+03  0.17120000000E+03 0.  0.
         13    1    1    2    0    0  0.74239854620E+01 -0.43283811673E+02  0.97479932667E+02  0.10691563192E+03  0.10566000000E+00 0. -1.
        994    1    1    2    0    0 -0.16859637738E+02  0.60990157325E+02  0.22294088287E+02  0.18387635261E+03  0.17120000000E+03 0.  0.
        998    1    1    2    0    0  0.94356522764E+01 -0.17706345652E+02  0.13802259753E+04  0.13804080155E+04  0.10000000000E+02 0. -1.
</event>
<event>
 5    1  0.1321379E-008  0.3836306E+03  0.7957747E-01  0.3435501E+00
         13   -1    0    0    0    0  0.00000000000E+00  0.00000000000E+00  0.14999999963E+04  0.15000000000E+04  0.10566000000E+00 0. -1.
        994   -1    0    0    0    0 -0.00000000000E+00 -0.00000000000E+00  0.11368683772E-12  0.17120000000E+03  0.17120000000E+03 0.  0.
         13    1    1    2    0    0 -0.16085229709E+01 -0.12478205494E+02  0.35004904671E+02  0.37197412189E+02  0.10566000000E+00 0. -1.
        994    1    1    2    0    0 -0.72458495937E+01 -0.81981665506E+00  0.24872256716E+01  0.17137327892E+03  0.17120000000E+03 0.  0.
        998    1    1    2    0    0  0.88543725646E+01  0.13298022149E+02  0.14625078659E+04  0.14626293089E+04  0.10000000000E+02 0. -1.
</event>
<event>
 5    1  0.1321379E-008  0.3820669E+03  0.7957747E-01  0.3442208E+00
         13   -1    0    0    0    0  0.00000000000E+00  0.00000000000E+00  0.14999999963E+04  0.15000000000E+04  0.10566000000E+00 0.  1.
        994   -1    0    0    0    0 -0.00000000000E+00 -0.00000000000E+00  0.11368683772E-12  0.17120000000E+03  0.17120000000E+03 0.  0.
         13    1    1    2    0    0  0.28978988585E+02  0.35486743699E+01  0.12872224255E+03  0.13199167307E+03  0.10566000000E+00 0.  1.
        994    1    1    2    0    0 -0.28782447035E+02  0.12712025838E+02  0.63875005158E+01  0.17418457171E+03  0.17120000000E+03 0.  0.
        998    1    1    2    0    0 -0.19654155041E+00 -0.16260700208E+02  0.13648902532E+04  0.13650237552E+04  0.10000000000E+02 0.  1.
</event>
<event>
 5    1  0.1321379E-008  0.3745737E+03  0.7957747E-01  0.3475132E+00
         13   -1    0    0    0    0  0.00000000000E+00  0.00000000000E+00  0.14999999963E+04  0.15000000000E+04  0.10566000000E+00 0. -1.
        994   -1    0    0    0    0 -0.00000000000E+00 -0.00000000000E+00  0.11368683772E-12  0.17120000000E+03  0.17120000000E+03 0.  0.
         13    1    1    2    0    0 -0.17618616317E+01 -0.13199826656E+02  0.97508102181E+01  0.16505424687E+02  0.10566000000E+00 0. -1.
        994    1    1    2    0    0  0.42895094024E+01  0.93111166437E+01  0.72556531736E+01  0.17166007482E+03  0.17120000000E+03 0.  0.
        998    1    1    2    0    0 -0.25276477708E+01  0.38887100124E+01  0.14829935329E+04  0.14830345005E+04  0.10000000000E+02 0. -1.
</event>
<event>
 5    1  0.1321379E-008  0.3797903E+03  0.7957747E-01  0.3452072E+00
         13   -1    0    0    0    0  0.00000000000E+00  0.00000000000E+00  0.14999999963E+04  0.15000000000E+04  0.10566000000E+00 0. -1.
        994   -1    0    0    0    0 -0.00000000000E+00 -0.00000000000E+00  0.11368683772E-12  0.17120000000E+03  0.17120000000E+03 0.  0.
         13    1    1    2    0    0 -0.16174068212E+02 -0.12861028522E+02  0.54689436253E+02  0.58463254604E+02  0.10566000000E+00 0. -1.
        994    1    1    2    0    0 -0.18680779879E+02 -0.20701028454E+01  0.54216467372E+01  0.17231393187E+03  0.17120000000E+03 0.  0.
        998    1    1    2    0    0  0.34854848091E+02  0.14931131367E+02  0.14398889133E+04  0.14404228135E+04  0.10000000000E+02 0. -1.
</event>
<event>
 5    1  0.1321379E-008  0.3700889E+03  0.7957747E-01  0.3495483E+00
         13   -1    0    0    0    0  0.00000000000E+00  0.00000000000E+00  0.14999999963E+04  0.15000000000E+04  0.10566000000E+00 0.  1.
        994   -1    0    0    0    0 -0.00000000000E+00 -0.00000000000E+00  0.11368683772E-12  0.17120000000E+03  0.17120000000E+03 0.  0.
         13    1    1    2    0    0 -0.28339871277E+02 -0.30205205653E+02  0.71415165926E+02  0.82556888512E+02  0.10566000000E+00 0.  1.
        994    1    1    2    0    0  0.24293857410E+02  0.30619599185E+02  0.16347462833E+02  0.17636448311E+03  0.17120000000E+03 0.  0.
        998    1    1    2    0    0  0.40460138670E+01 -0.41439353217E+00  0.14122373675E+04  0.14122786284E+04  0.10000000000E+02 0.  1.
</event>
<event>
 5    1  0.1321379E-008  0.3823823E+03  0.7957747E-01  0.3440851E+00
         13   -1    0    0    0    0  0.00000000000E+00  0.00000000000E+00  0.14999999963E+04  0.15000000000E+04  0.10566000000E+00 0. -1.
        994   -1    0    0    0    0 -0.00000000000E+00 -0.00000000000E+00  0.11368683772E-12  0.17120000000E+03  0.17120000000E+03 0.  0.
         13    1    1    2    0    0  0.93782666088E+01  0.12604389529E+02  0.43463796997E+02  0.46216180429E+02  0.10566000000E+00 0. -1.
        994    1    1    2    0    0  0.63595375745E+01 -0.30528988172E+00  0.30698616384E+01  0.17134585192E+03  0.17120000000E+03 0.  0.
        998    1    1    2    0    0 -0.15737804183E+02 -0.12299099647E+02  0.14534663376E+04  0.14536379677E+04  0.10000000000E+02 0. -1.
</event>
<event>
 5    1  0.1321379E-008  0.3831557E+03  0.7957747E-01  0.3437532E+00
         13   -1    0    0    0    0  0.00000000000E+00  0.00000000000E+00  0.14999999963E+04  0.15000000000E+04  0.10566000000E+00 0. -1.
        994   -1    0    0    0    0 -0.00000000000E+00 -0.00000000000E+00  0.11368683772E-12  0.17120000000E+03  0.17120000000E+03 0.  0.
         13    1    1    2    0    0 -0.52155753662E+02  0.13249690306E+02  0.32038526510E+03  0.32487306166E+03  0.10566000000E+00 0. -1.
        994    1    1    2    0    0  0.79642807965E+02 -0.23782108307E+02  0.25751105244E+02  0.19204459107E+03  0.17120000000E+03 0.  0.
        998    1    1    2    0    0 -0.27487054302E+02  0.10532418001E+02  0.11538636259E+04  0.11542823473E+04  0.10000000000E+02 0. -1.
</event>
<event>
 5    1  0.1321379E-008  0.3767843E+03  0.7957747E-01  0.3465281E+00
         13   -1    0    0    0    0  0.00000000000E+00  0.00000000000E+00  0.14999999963E+04  0.15000000000E+04  0.10566000000E+00 0.  1.
        994   -1    0    0    0    0 -0.00000000000E+00 -0.00000000000E+00  0.11368683772E-12  0.17120000000E+03  0.17120000000E+03 0.  0.
         13    1    1    2    0    0 -0.17927295676E+02  0.91803179223E+02  0.51354269090E+03  0.52199168402E+03  0.10566000000E+00 0.  1.
        994    1    1    2    0    0  0.51258467406E+02 -0.84362782684E+02  0.39434074452E+02  0.20151673829E+03  0.17120000000E+03 0.  0.
        998    1    1    2    0    0 -0.33331171730E+02 -0.74403965391E+01  0.94702323092E+03  0.94769157769E+03  0.10000000000E+02 0. -1.
</event>
<event>
 5    1  0.1321379E-008  0.4025085E+03  0.7957747E-01  0.3358649E+00
         13   -1    0    0    0    0  0.00000000000E+00  0.00000000000E+00  0.14999999963E+04  0.15000000000E+04  0.10566000000E+00 0. -1.
        994   -1    0    0    0    0 -0.00000000000E+00 -0.00000000000E+00  0.11368683772E-12  0.17120000000E+03  0.17120000000E+03 0.  0.
         13    1    1    2    0    0 -0.23396493391E+02  0.47078293049E+02  0.32633577208E+02  0.61876676582E+02  0.10566000000E+00 0. -1.
        994    1    1    2    0    0  0.19105360325E+02 -0.81610147942E+02  0.57652264235E+02  0.19914430600E+03  0.17120000000E+03 0.  0.
        998    1    1    2    0    0  0.42911330654E+01  0.34531854893E+02  0.14097141548E+04  0.14101790174E+04  0.10000000000E+02 0. -1.
</event>
<event>
 5    1  0.1321379E-008  0.3689424E+03  0.7957747E-01  0.3500766E+00
         13   -1    0    0    0    0  0.00000000000E+00  0.00000000000E+00  0.14999999963E+04  0.15000000000E+04  0.10566000000E+00 0.  1.
        994   -1    0    0    0    0 -0.00000000000E+00 -0.00000000000E+00  0.11368683772E-12  0.17120000000E+03  0.17120000000E+03 0.  0.
         13    1    1    2    0    0  0.17154074429E+02  0.15151609420E+02  0.22323437271E+02  0.31971558504E+02  0.10566000000E+00 0.  1.
        994    1    1    2    0    0 -0.14149280894E+02 -0.14313126406E+02  0.11229904485E+02  0.17274437326E+03  0.17120000000E+03 0.  0.
        998    1    1    2    0    0 -0.30047935350E+01 -0.83848301397E+00  0.14664466545E+04  0.14664840682E+04  0.10000000000E+02 0.  1.
</event>
<event>
 5    1  0.1321379E-008  0.3825051E+03  0.7957747E-01  0.3440323E+00
         13   -1    0    0    0    0  0.00000000000E+00  0.00000000000E+00  0.14999999963E+04  0.15000000000E+04  0.10566000000E+00 0. -1.
        994   -1    0    0    0    0 -0.00000000000E+00 -0.00000000000E+00  0.11368683772E-12  0.17120000000E+03  0.17120000000E+03 0.  0.
         13    1    1    2    0    0 -0.13127308798E+02  0.29107923889E+01  0.30736566904E+02  0.33549167764E+02  0.10566000000E+00 0. -1.
        994    1    1    2    0    0  0.67880150322E+01  0.10835304789E+01  0.30305863456E+01  0.17136474445E+03  0.17120000000E+03 0.  0.
        998    1    1    2    0    0  0.63392937654E+01 -0.39943228678E+01  0.14662328430E+04  0.14662860878E+04  0.10000000000E+02 0. -1.
</event>
<event>
 5    1  0.1321379E-008  0.3847536E+03  0.7957747E-01  0.3430718E+00
         13   -1    0    0    0    0  0.00000000000E+00  0.00000000000E+00  0.14999999963E+04  0.15000000000E+04  0.10566000000E+00 0. -1.
        994   -1    0    0    0    0 -0.00000000000E+00 -0.00000000000E+00  0.11368683772E-12  0.17120000000E+03  0.17120000000E+03 0.  0.
         13    1    1    2    0    0  0.20342949031E+02 -0.35508889620E+01  0.98841005899E+02  0.10097524449E+03  0.10566000000E+00 0. -1.
        994    1    1    2    0    0 -0.42706709857E+02 -0.26102959560E+01  0.78011717745E+01  0.17663797721E+03  0.17120000000E+03 0.  0.
        998    1    1    2    0    0  0.22363760826E+02  0.61611849180E+01  0.13933578186E+04  0.13935867783E+04  0.10000000000E+02 0. -1.
</event>
<event>
 5    1  0.1693891E-008  0.3862041E+03  0.7957747E-01  0.3424581E+00
         13   -1    0    0    0    0  0.00000000000E+00  0.00000000000E+00  0.14999999963E+04  0.15000000000E+04  0.10566000000E+00 0. -1.
        994   -1    0    0    0    0 -0.00000000000E+00 -0.00000000000E+00  0.11368683772E-12  0.17120000000E+03  0.17120000000E+03 0.  0.
         13    1    1    2    0    0 -0.49975206404E+01  0.87741686530E+01  0.50740637975E+02  0.51735720293E+02  0.10566000000E+00 0. -1.
        994    1    1    2    0    0  0.50227096749E+01 -0.28753180726E+01  0.11432313976E+01  0.17130161133E+03  0.17120000000E+03 0.  0.
        998    1    1    2    0    0 -0.25189034550E-01 -0.58988505804E+01  0.14481161269E+04  0.14481626684E+04  0.10000000000E+02 0. -1.
</event>
<event>
 5    1  0.1321379E-008  0.3705487E+03  0.7957747E-01  0.3493373E+00
         13   -1    0    0    0    0  0.00000000000E+00  0.00000000000E+00  0.14999999963E+04  0.15000000000E+04  0.10566000000E+00 0.  1.
        994   -1    0    0    0    0 -0.00000000000E+00 -0.00000000000E+00  0.11368683772E-12  0.17120000000E+03  0.17120000000E+03 0.  0.
         13    1    1    2    0    0 -0.48311906188E+02  0.12231876322E+02  0.14651571403E+03  0.15475957063E+03  0.10566000000E+00 0.  1.
        994    1    1    2    0    0  0.89629430925E+01 -0.15582569990E+02  0.10098544185E+02  0.17243715212E+03  0.17120000000E+03 0.  0.
        998    1    1    2    0    0  0.39348963096E+02  0.33506936682E+01  0.13433857381E+04  0.13440032773E+04  0.10000000000E+02 0.  1.
</event>
<event>
 5    1  0.1655736E-008  0.3851003E+03  0.7957747E-01  0.3429247E+00
         13   -1    0    0    0    0  0.00000000000E+00  0.00000000000E+00  0.14999999963E+04  0.15000000000E+04  0.10566000000E+00 0.  1.
        994   -1    0    0    0    0 -0.00000000000E+00 -0.00000000000E+00  0.11368683772E-12  0.17120000000E+03  0.17120000000E+03 0.  0.
         13    1    1    2    0    0  0.10394828407E+02  0.45111052421E+00  0.33934334980E+02  0.35493748927E+02  0.10566000000E+00 0.  1.
        994    1    1    2    0    0 -0.81871161266E+01  0.11139034254E+01  0.18048291857E+01  0.17140877183E+03  0.17120000000E+03 0.  0.
        998    1    1    2    0    0 -0.22077122806E+01 -0.15650139496E+01  0.14642608321E+04  0.14642974792E+04  0.10000000000E+02 0.  1.
</event>
<event>
 5    1  0.1321379E-008  0.3148463E+03  0.7957747E-01  0.3795418E+00
         13   -1    0    0    0    0  0.00000000000E+00  0.00000000000E+00  0.14999999963E+04  0.15000000000E+04  0.10566000000E+00 0.  1.
        994   -1    0    0    0    0 -0.00000000000E+00 -0.00000000000E+00  0.11368683772E-12  0.17120000000E+03  0.17120000000E+03 0.  0.
         13    1    1    2    0    0  0.21566109031E+03 -0.14924817200E+03  0.48101267231E+03  0.54786670350E+03  0.10566000000E+00 0.  1.
        994    1    1    2    0    0 -0.21297808711E+03  0.14961079991E+03  0.41331798954E+03  0.51757536409E+03  0.17120000000E+03 0.  0.
        998    1    1    2    0    0 -0.26830031926E+01 -0.36262790535E+00  0.60566933443E+03  0.60575793241E+03  0.10000000000E+02 0.  0.
</event>
<event>
 5    1  0.1321379E-008  0.3780256E+03  0.7957747E-01  0.3459801E+00
         13   -1    0    0    0    0  0.00000000000E+00  0.00000000000E+00  0.14999999963E+04  0.15000000000E+04  0.10566000000E+00 0. -1.
        994   -1    0    0    0    0 -0.00000000000E+00 -0.00000000000E+00  0.11368683772E-12  0.17120000000E+03  0.17120000000E+03 0.  0.
         13    1    1    2    0    0 -0.55092431156E+02  0.29620897514E+02  0.35015266601E+03  0.35569576076E+03  0.10566000000E+00 0. -1.
        994    1    1    2    0    0  0.25302702018E+02 -0.50905357341E+02  0.16085196425E+02  0.18110702824E+03  0.17120000000E+03 0.  0.
        998    1    1    2    0    0  0.29789729138E+02  0.21284459827E+02  0.11337621338E+04  0.11343972110E+04  0.10000000000E+02 0. -1.
</event>
<event>
 5    1  0.1321379E-008  0.3811614E+03  0.7957747E-01  0.3446117E+00
         13   -1    0    0    0    0  0.00000000000E+00  0.00000000000E+00  0.14999999963E+04  0.15000000000E+04  0.10566000000E+00 0.  1.
        994   -1    0    0    0    0 -0.00000000000E+00 -0.00000000000E+00  0.11368683772E-12  0.17120000000E+03  0.17120000000E+03 0.  0.
         13    1    1    2    0    0  0.47175194326E+01 -0.17035795164E+02  0.43184528950E+02  0.46662490408E+02  0.10566000000E+00 0.  1.
        994    1    1    2    0    0 -0.68139397775E+01  0.74033480887E+01  0.38852370106E+01  0.17153942522E+03  0.17120000000E+03 0.  0.
        998    1    1    2    0    0  0.20964203449E+01  0.96324470748E+01  0.14529302303E+04  0.14529980844E+04  0.10000000000E+02 0.  1.
</event>
<event>
 5    1  0.1321379E-008  0.3841766E+03  0.7957747E-01  0.3433172E+00
         13   -1    0    0    0    0  0.00000000000E+00  0.00000000000E+00  0.14999999963E+04  0.15000000000E+04  0.10566000000E+00 0. -1.
        994   -1    0    0    0    0 -0.00000000000E+00 -0.00000000000E+00  0.11368683772E-12  0.17120000000E+03  0.17120000000E+03 0.  0.
         13    1    1    2    0    0  0.10022446310E+02 -0.73357076710E+01  0.36765172114E+02  0.38806585546E+02  0.10566000000E+00 0. -1.
        994    1    1    2    0    0 -0.87066146100E+01  0.83634899054E+01  0.25202496843E+01  0.17164365633E+03  0.17120000000E+03 0.  0.
        998    1    1    2    0    0 -0.13158317003E+01 -0.10277822344E+01  0.14607145745E+04  0.14607497581E+04  0.10000000000E+02 0. -1.
</event>
<event>
 5    1  0.1321379E-008  0.3838120E+03  0.7957747E-01  0.3434726E+00
         13   -1    0    0    0    0  0.00000000000E+00  0.00000000000E+00  0.14999999963E+04  0.15000000000E+04  0.10566000000E+00 0. -1.
        994   -1    0    0    0    0 -0.00000000000E+00 -0.00000000000E+00  0.11368683772E-12  0.17120000000E+03  0.17120000000E+03 0.  0.
         13    1    1    2    0    0 -0.10493630124E+02  0.11790127884E+02  0.56044732224E+02  0.58224965116E+02  0.10566000000E+00 0. -1.
        994    1    1    2    0    0  0.13785310408E+00 -0.11588772305E+02  0.26646620483E+01  0.17161252597E+03  0.17120000000E+03 0.  0.
        998    1    1    2    0    0  0.10355777020E+02 -0.20135557897E+00  0.14412906020E+04  0.14413625089E+04  0.10000000000E+02 0. -1.
</event>
<event>
 5    1  0.1321379E-008  0.3704301E+03  0.7957747E-01  0.3493916E+00
         13   -1    0    0    0    0  0.00000000000E+00  0.00000000000E+00  0.14999999963E+04  0.15000000000E+04  0.10566000000E+00 0. -1.
        994   -1    0    0    0    0 -0.00000000000E+00 -0.00000000000E+00  0.11368683772E-12  0.17120000000E+03  0.17120000000E+03 0.  0.
         13    1    1    2    0    0 -0.97159311634E+01 -0.13067842845E+03  0.45558597761E+03  0.47405679527E+03  0.10566000000E+00 0. -1.
        994    1    1    2    0    0  0.10062228322E+02  0.14328135672E+03  0.87340751523E+02  0.23993466298E+03  0.17120000000E+03 0.  0.
        998    1    1    2    0    0 -0.34629715844E+00 -0.12602928273E+02  0.95707326714E+03  0.95720854175E+03  0.10000000000E+02 0. -1.
</event>
<event>
 5    1  0.1321379E-008  0.3845824E+03  0.7957747E-01  0.3431445E+00
         13   -1    0    0    0    0  0.00000000000E+00  0.00000000000E+00  0.14999999963E+04  0.15000000000E+04  0.10566000000E+00 0.  1.
        994   -1    0    0    0    0 -0.00000000000E+00 -0.00000000000E+00  0.11368683772E-12  0.17120000000E+03  0.17120000000E+03 0.  0.
         13    1    1    2    0    0  0.95011454046E+01  0.15631681217E+02  0.86087393641E+02  0.88009497951E+02  0.10566000000E+00 0.  1.
        994    1    1    2    0    0 -0.11749756066E+02 -0.15865052003E+02  0.31221810408E+01  0.17236282852E+03  0.17120000000E+03 0.  0.
        998    1    1    2    0    0  0.22486106619E+01  0.23337078611E+00  0.14107904216E+04  0.14108276735E+04  0.10000000000E+02 0.  1.
</event>
<event>
 5    1  0.1321379E-008  0.3720234E+03  0.7957747E-01  0.3486643E+00
         13   -1    0    0    0    0  0.00000000000E+00  0.00000000000E+00  0.14999999963E+04  0.15000000000E+04  0.10566000000E+00 0. -1.
        994   -1    0    0    0    0 -0.00000000000E+00 -0.00000000000E+00  0.11368683772E-12  0.17120000000E+03  0.17120000000E+03 0.  0.
         13    1    1    2    0    0 -0.54067646729E+02  0.15841148650E+02  0.26602845564E+03  0.27192903999E+03  0.10566000000E+00 0. -1.
        994    1    1    2    0    0 -0.13363421628E+02  0.13348894458E+02  0.94412759414E+01  0.17249739625E+03  0.17120000000E+03 0.  0.
        998    1    1    2    0    0  0.67431068358E+02 -0.29190043108E+02  0.12245302647E+04  0.12267735638E+04  0.10000000000E+02 0.  1.
</event>
<event>
 5    1  0.1321379E-008  0.3811319E+03  0.7957747E-01  0.3446245E+00
         13   -1    0    0    0    0  0.00000000000E+00  0.00000000000E+00  0.14999999963E+04  0.15000000000E+04  0.10566000000E+00 0.  1.
        994   -1    0    0    0    0 -0.00000000000E+00 -0.00000000000E+00  0.11368683772E-12  0.17120000000E+03  0.17120000000E+03 0.  0.
         13    1    1    2    0    0  0.11223407495E+02 -0.14084331238E+02  0.43434364734E+02  0.47020085773E+02  0.10566000000E+00 0.  1.
        994    1    1    2    0    0 -0.74479780320E+01  0.15393670076E+02  0.45374326767E+01  0.17211178272E+03  0.17120000000E+03 0.  0.
        998    1    1    2    0    0 -0.37754294634E+01 -0.13093388379E+01  0.14520281989E+04  0.14520681315E+04  0.10000000000E+02 0.  1.
</event>
<event>
 5    1  0.1321379E-008  0.3821731E+03  0.7957747E-01  0.3441751E+00
         13   -1    0    0    0    0  0.00000000000E+00  0.00000000000E+00  0.14999999963E+04  0.15000000000E+04  0.10566000000E+00 0.  1.
        994   -1    0    0    0    0 -0.00000000000E+00 -0.00000000000E+00  0.11368683772E-12  0.17120000000E+03  0.17120000000E+03 0.  0.
         13    1    1    2    0    0 -0.13245350546E+02 -0.17791439711E+02  0.83808156571E+02  0.86693672837E+02  0.10566000000E+00 0.  1.
        994    1    1    2    0    0  0.39907072774E+01  0.35548284751E+01  0.31349993598E+01  0.17131208589E+03  0.17120000000E+03 0.  0.
        998    1    1    2    0    0  0.92546432683E+01  0.14236611236E+02  0.14130568403E+04  0.14131942413E+04  0.10000000000E+02 0.  1.
</event>
<event>
 5    1  0.1321379E-008  0.3853844E+03  0.7957747E-01  0.3428043E+00
         13   -1    0    0    0    0  0.00000000000E+00  0.00000000000E+00  0.14999999963E+04  0.15000000000E+04  0.10566000000E+00 0.  1.
        994   -1    0    0    0    0 -0.00000000000E+00 -0.00000000000E+00  0.11368683772E-12  0.17120000000E+03  0.17120000000E+03 0.  0.
         13    1    1    2    0    0 -0.55964744771E+01  0.10527484213E+02  0.53586543207E+02  0.54896969200E+02  0.10566000000E+00 0.  1.
        994    1    1    2    0    0 -0.17422499087E+00  0.52421729413E+01  0.15297601068E+01  0.17128715917E+03  0.17120000000E+03 0.  0.
        998    1    1    2    0    0  0.57706994679E+01 -0.15769657154E+02  0.14448836930E+04  0.14450158716E+04  0.10000000000E+02 0.  1.
</event>
<event>
 5    1  0.1321379E-008  0.3856250E+03  0.7957747E-01  0.3427026E+00
         13   -1    0    0    0    0  0.00000000000E+00  0.00000000000E+00  0.14999999963E+04  0.15000000000E+04  0.10566000000E+00 0.  1.
        994   -1    0    0    0    0 -0.00000000000E+00 -0.00000000000E+00  0.11368683772E-12  0.17120000000E+03  0.17120000000E+03 0.  0.
         13    1    1    2    0    0 -0.50016595878E+01 -0.12139341035E+02  0.70214565994E+02  0.71431622137E+02  0.10566000000E+00 0.  1.
        994    1    1    2    0    0  0.43009817350E+01 -0.20496144499E+01  0.13946584150E+01  0.17127196045E+03  0.17120000000E+03 0.  0.
        998    1    1    2    0    0  0.70067785274E+00  0.14188955485E+02  0.14283907719E+04  0.14284964174E+04  0.10000000000E+02 0.  1.
</event>
<event>
 5    1  0.1321379E-008  0.3841338E+03  0.7957747E-01  0.3433354E+00
         13   -1    0    0    0    0  0.00000000000E+00  0.00000000000E+00  0.14999999963E+04  0.15000000000E+04  0.10566000000E+00 0. -1.
        994   -1    0    0    0    0 -0.00000000000E+00 -0.00000000000E+00  0.11368683772E-12  0.17120000000E+03  0.17120000000E+03 0.  0.
         13    1    1    2    0    0  0.41478522775E+01 -0.12327288055E+02  0.41853997044E+02  0.43828471818E+02  0.10566000000E+00 0. -1.
        994    1    1    2    0    0  0.29364938187E+01  0.31877171018E+01  0.21227363970E+01  0.17126800795E+03  0.17120000000E+03 0.  0.
        998    1    1    2    0    0 -0.70843460962E+01  0.91395709532E+01  0.14560232628E+04  0.14561035202E+04  0.10000000000E+02 0. -1.
</event>
<event>
 5    1  0.1321379E-008  0.3857570E+03  0.7957747E-01  0.3426468E+00
         13   -1    0    0    0    0  0.00000000000E+00  0.00000000000E+00  0.14999999963E+04  0.15000000000E+04  0.10566000000E+00 0. -1.
        994   -1    0    0    0    0 -0.00000000000E+00 -0.00000000000E+00  0.11368683772E-12  0.17120000000E+03  0.17120000000E+03 0.  0.
         13    1    1    2    0    0  0.93772852072E+01 -0.11446996452E+02  0.85867015578E+02  0.87132787938E+02  0.10566000000E+00 0. -1.
        994    1    1    2    0    0 -0.58985793778E+01  0.11388089301E+02  0.17945415976E+01  0.17168908584E+03  0.17120000000E+03 0.  0.
        998    1    1    2    0    0 -0.34787058294E+01  0.58907151034E-01  0.14123384391E+04  0.14123781262E+04  0.10000000000E+02 0. -1.
</event>
<event>
 5    1  0.1321379E-008  0.3755641E+03  0.7957747E-01  0.3470704E+00
         13   -1    0    0    0    0  0.00000000000E+00  0.00000000000E+00  0.14999999963E+04  0.15000000000E+04  0.10566000000E+00 0.  1.
        994   -1    0    0    0    0 -0.00000000000E+00 -0.00000000000E+00  0.11368683772E-12  0.17120000000E+03  0.17120000000E+03 0.  0.
         13    1    1    2    0    0  0.46459776487E+01 -0.16243570671E+02  0.19628934070E+02  0.25898743468E+02  0.10566000000E+00 0.  1.
        994    1    1    2    0    0 -0.66186408392E+01  0.98315053180E+01  0.68660547172E+01  0.17174704542E+03  0.17120000000E+03 0.  0.
        998    1    1    2    0    0  0.19726631906E+01  0.64120653528E+01  0.14735050075E+04  0.14735542111E+04  0.10000000000E+02 0.  1.
</event>
<event>
 5    1  0.1321379E-008  0.3834877E+03  0.7957747E-01  0.3436112E+00
         13   -1    0    0    0    0  0.00000000000E+00  0.00000000000E+00  0.14999999963E+04  0.15000000000E+04  0.10566000000E+00 0.  1.
        994   -1    0    0    0    0 -0.00000000000E+00 -0.00000000000E+00  0.11368683772E-12  0.17120000000E+03  0.17120000000E+03 0.  0.
         13    1    1    2    0    0 -0.61393389966E+02  0.11486329046E+02  0.94441972131E+02  0.11322712286E+03  0.10566000000E+00 0.  1.
        994    1    1    2    0    0  0.64144263996E+02 -0.27200410694E+01  0.33546691780E+02  0.18589434030E+03  0.17120000000E+03 0.  0.
        998    1    1    2    0    0 -0.27508740293E+01 -0.87662879769E+01  0.13720113324E+04  0.13720785368E+04  0.10000000000E+02 0.  1.
</event>
<event>
 5    1  0.1321379E-008  0.3778593E+03  0.7957747E-01  0.3460533E+00
         13   -1    0    0    0    0  0.00000000000E+00  0.00000000000E+00  0.14999999963E+04  0.15000000000E+04  0.10566000000E+00 0. -1.
        994   -1    0    0    0    0 -0.00000000000E+00 -0.00000000000E+00  0.11368683772E-12  0.17120000000E+03  0.17120000000E+03 0.  0.
         13    1    1    2    0    0  0.40572258449E+02 -0.14310054083E+01  0.13254962280E+03  0.13862744894E+03  0.10566000000E+00 0. -1.
        994    1    1    2    0    0 -0.54904089272E+02  0.73476332894E+01  0.15618883369E+02  0.18061516064E+03  0.17120000000E+03 0.  0.
        998    1    1    2    0    0  0.14331830823E+02 -0.59166278811E+01  0.13518314901E+04  0.13519573904E+04  0.10000000000E+02 0. -1.
</event>
<event>
 5    1  0.1321379E-008  0.3814277E+03  0.7957747E-01  0.3444966E+00
         13   -1    0    0    0    0  0.00000000000E+00  0.00000000000E+00  0.14999999963E+04  0.15000000000E+04  0.10566000000E+00 0.  1.
        994   -1    0    0    0    0 -0.00000000000E+00 -0.00000000000E+00  0.11368683772E-12  0.17120000000E+03  0.17120000000E+03 0.  0.
         13    1    1    2    0    0 -0.14488106951E+01 -0.21988530390E+02  0.72437987637E+02  0.75715703379E+02  0.10566000000E+00 0.  1.
        994    1    1    2    0    0 -0.17526852440E+02  0.80872831007E+01  0.46548875580E+01  0.17234762163E+03  0.17120000000E+03 0.  0.
        998    1    1    2    0    0  0.18975663135E+02  0.13901247289E+02  0.14229071211E+04  0.14231366750E+04  0.10000000000E+02 0.  1.
</event>
<event>
 5    1  0.1321379E-008  0.3867540E+03  0.7957747E-01  0.3422267E+00
         13   -1    0    0    0    0  0.00000000000E+00  0.00000000000E+00  0.14999999963E+04  0.15000000000E+04  0.10566000000E+00 0.  1.
        994   -1    0    0    0    0 -0.00000000000E+00 -0.00000000000E+00  0.11368683772E-12  0.17120000000E+03  0.17120000000E+03 0.  0.
         13    1    1    2    0    0  0.12453744581E+03  0.55827710426E+01  0.31174573270E+03  0.33574716046E+03  0.10566000000E+00 0.  1.
        994    1    1    2    0    0 -0.11454534888E+03 -0.20184747152E+01  0.70680565085E+02  0.21778405238E+03  0.17120000000E+03 0.  0.
        998    1    1    2    0    0 -0.99920969355E+01 -0.35642963274E+01  0.11175736985E+04  0.11176687872E+04  0.10000000000E+02 0.  1.
</event>
<event>
 5    1  0.1321379E-008  0.3815751E+03  0.7957747E-01  0.3444329E+00
         13   -1    0    0    0    0  0.00000000000E+00  0.00000000000E+00  0.14999999963E+04  0.15000000000E+04  0.10566000000E+00 0.  1.
        994   -1    0    0    0    0 -0.00000000000E+00 -0.00000000000E+00  0.11368683772E-12  0.17120000000E+03  0.17120000000E+03 0.  0.
         13    1    1    2    0    0  0.23448246663E+01  0.98183498835E+01  0.13731855476E+02  0.17043274803E+02  0.10566000000E+00 0.  1.
        994    1    1    2    0    0 -0.14618301502E+01 -0.10454149618E+02  0.37107934193E+01  0.17156525342E+03  0.17120000000E+03 0.  0.
        998    1    1    2    0    0 -0.88299451609E+00  0.63579973405E+00  0.14825573474E+04  0.14825914718E+04  0.10000000000E+02 0.  1.
</event>
<event>
 5    1  0.1321379E-008  0.3799740E+03  0.7957747E-01  0.3451272E+00
         13   -1    0    0    0    0  0.00000000000E+00  0.00000000000E+00  0.14999999963E+04  0.15000000000E+04  0.10566000000E+00 0. -1.
        994   -1    0    0    0    0 -0.00000000000E+00 -0.00000000000E+00  0.11368683772E-12  0.17120000000E+03  0.17120000000E+03 0.  0.
         13    1    1    2    0    0 -0.31576269958E+01 -0.19160426158E+02  0.42468244685E+02  0.46697489327E+02  0.10566000000E+00 0. -1.
        994    1    1    2    0    0  0.43425537471E+01  0.21881776568E+02  0.58118691936E+01  0.17274515259E+03  0.17120000000E+03 0.  0.
        998    1    1    2    0    0 -0.11849267512E+01 -0.27213504100E+01  0.14517198824E+04  0.14517573581E+04  0.10000000000E+02 0. -1.
</event>
<event>
 5    1  0.1321379E-008  0.3705307E+03  0.7957747E-01  0.3493455E+00
         13   -1    0    0    0    0  0.00000000000E+00  0.00000000000E+00  0.14999999963E+04  0.15000000000E+04  0.10566000000E+00 0.  1.
        994   -1    0    0    0    0 -0.00000000000E+00 -0.00000000000E+00  0.11368683772E-12  0.17120000000E+03  0.17120000000E+03 0.  0.
         13    1    1    2    0    0  0.21889464591E+02  0.18347757419E+02  0.31668484778E+02  0.42646136455E+02  0.10566000000E+00 0.  1.
        994    1    1    2    0    0 -0.18084638779E+02 -0.12701357219E+02  0.12932111207E+02  0.17310418289E+03  0.17120000000E+03 0.  0.
        998    1    1    2    0    0 -0.38048258115E+01 -0.56464001995E+01  0.14553994003E+04  0.14554496807E+04  0.10000000000E+02 0.  1.
</event>
<event>
 5    1  0.1321379E-008  0.3829478E+03  0.7957747E-01  0.3438423E+00
         13   -1    0    0    0    0  0.00000000000E+00  0.00000000000E+00  0.14999999963E+04  0.15000000000E+04  0.10566000000E+00 0.  1.
        994   -1    0    0    0    0 -0.00000000000E+00 -0.00000000000E+00  0.11368683772E-12  0.17120000000E+03  0.17120000000E+03 0.  0.
         13    1    1    2    0    0 -0.86231825499E+01  0.82631310343E+01  0.26819630846E+02  0.29358855130E+02  0.10566000000E+00 0.  1.
        994    1    1    2    0    0  0.18869741407E+01  0.37785929162E+01  0.27115095601E+01  0.17127355523E+03  0.17120000000E+03 0.  0.
        998    1    1    2    0    0  0.67362084092E+01 -0.12041723951E+02  0.14704688559E+04  0.14705675896E+04  0.10000000000E+02 0.  1.
</event>
<event>
 5    1  0.1321379E-008  0.3793379E+03  0.7957747E-01  0.3454047E+00
         13   -1    0    0    0    0  0.00000000000E+00  0.00000000000E+00  0.14999999963E+04  0.15000000000E+04  0.10566000000E+00 0.  1.
        994   -1    0    0    0    0 -0.00000000000E+00 -0.00000000000E+00  0.11368683772E-12  0.17120000000E+03  0.17120000000E+03 0.  0.
         13    1    1    2    0    0 -0.10355920990E+02  0.58446313533E+01  0.13766868234E+02  0.18191828941E+02  0.10566000000E+00 0.  1.
        994    1    1    2    0    0  0.11263051224E+02 -0.44049007480E+01  0.49579134573E+01  0.17169822474E+03  0.17120000000E+03 0.  0.
        998    1    1    2    0    0 -0.90713023427E+00 -0.14397306053E+01  0.14812752146E+04  0.14813099463E+04  0.10000000000E+02 0.  1.
</event>
<event>
 5    1  0.1321379E-008  0.3695155E+03  0.7957747E-01  0.3498121E+00
         13   -1    0    0    0    0  0.00000000000E+00  0.00000000000E+00  0.14999999963E+04  0.15000000000E+04  0.10566000000E+00 0. -1.
        994   -1    0    0    0    0 -0.00000000000E+00 -0.00000000000E+00  0.11368683772E-12  0.17120000000E+03  0.17120000000E+03 0.  0.
         13    1    1    2    0    0  0.60766506700E+01  0.18443289739E+02  0.15446177662E+02  0.24812823059E+02  0.10566000000E+00 0. -1.
        994    1    1    2    0    0 -0.87512016383E+01 -0.18219483704E+02  0.10938735753E+02  0.17273572027E+03  0.17120000000E+03 0.  0.
        998    1    1    2    0    0  0.26745509683E+01 -0.22380603508E+00  0.14736150829E+04  0.14736514567E+04  0.10000000000E+02 0. -1.
</event>
<event>
 5    1  0.1321379E-008  0.3761038E+03  0.7957747E-01  0.3468301E+00
         13   -1    0    0    0    0  0.00000000000E+00  0.00000000000E+00  0.14999999963E+04  0.15000000000E+04  0.10566000000E+00 0. -1.
        994   -1    0    0    0    0 -0.00000000000E+00 -0.00000000000E+00  0.11368683772E-12  0.17120000000E+03  0.17120000000E+03 0.  0.
         13    1    1    2    0    0 -0.88172842799E+01 -0.49775701096E+01  0.56088255807E+01  0.11575439287E+02  0.10566000000E+00 0. -1.
        994    1    1    2    0    0  0.57777460817E+01 -0.11540956036E+01  0.62305707880E+01  0.17141462685E+03  0.17120000000E+03 0.  0.
        998    1    1    2    0    0  0.30395381982E+01  0.61316657131E+01  0.14881605999E+04  0.14882099339E+04  0.10000000000E+02 0. -1.
</event>
<event>
 5    1  0.1321379E-008  0.3825525E+03  0.7957747E-01  0.3440119E+00
         13   -1    0    0    0    0  0.00000000000E+00  0.00000000000E+00  0.14999999963E+04  0.15000000000E+04  0.10566000000E+00 0.  1.
        994   -1    0    0    0    0 -0.00000000000E+00 -0.00000000000E+00  0.11368683772E-12  0.17120000000E+03  0.17120000000E+03 0.  0.
         13    1    1    2    0    0 -0.47516264202E+01  0.26456289031E+02  0.12408943907E+03  0.12696737075E+03  0.10566000000E+00 0.  1.
        994    1    1    2    0    0  0.14392834697E+02 -0.16229614732E+02  0.44115852594E+01  0.17262518985E+03  0.17120000000E+03 0.  0.
        998    1    1    2    0    0 -0.96412082770E+01 -0.10226674299E+02  0.13714989719E+04  0.13716074394E+04  0.10000000000E+02 0.  1.
</event>
<event>
 5    1  0.1746154E-008  0.3862347E+03  0.7957747E-01  0.3424453E+00
         13   -1    0    0    0    0  0.00000000000E+00  0.00000000000E+00  0.14999999963E+04  0.15000000000E+04  0.10566000000E+00 0.  1.
        994   -1    0    0    0    0 -0.00000000000E+00 -0.00000000000E+00  0.11368683772E-12  0.17120000000E+03  0.17120000000E+03 0.  0.
         13    1    1    2    0    0 -0.96718283547E+01  0.31338795982E+01  0.51923408478E+02  0.52909516886E+02  0.10566000000E+00 0.  1.
        994    1    1    2    0    0  0.39688778926E+01 -0.69950300544E+01  0.12302737000E+01  0.17139322043E+03  0.17120000000E+03 0.  0.
        998    1    1    2    0    0  0.57029504621E+01  0.38611504562E+01  0.14468463141E+04  0.14468972627E+04  0.10000000000E+02 0.  1.
</event>
<event>
 5    1  0.1321379E-008  0.3848672E+03  0.7957747E-01  0.3430236E+00
         13   -1    0    0    0    0  0.00000000000E+00  0.00000000000E+00  0.14999999963E+04  0.15000000000E+04  0.10566000000E+00 0. -1.
        994   -1    0    0    0    0 -0.00000000000E+00 -0.00000000000E+00  0.11368683772E-12  0.17120000000E+03  0.17120000000E+03 0.  0.
         13    1    1    2    0    0  0.16125570104E+02 -0.93974737999E+01  0.97858025296E+02  0.99622039749E+02  0.10566000000E+00 0. -1.
        994    1    1    2    0    0 -0.17147865466E+02  0.68096288545E+01  0.28168954807E+01  0.17221438742E+03  0.17120000000E+03 0.  0.
        998    1    1    2    0    0  0.10222953620E+01  0.25878449454E+01  0.13993250755E+04  0.13993635728E+04  0.10000000000E+02 0. -1.
</event>
<event>
 5    1  0.1321379E-008  0.3847552E+03  0.7957747E-01  0.3430711E+00
         13   -1    0    0    0    0  0.00000000000E+00  0.00000000000E+00  0.14999999963E+04  0.15000000000E+04  0.10566000000E+00 0.  1.
        994   -1    0    0    0    0 -0.00000000000E+00 -0.00000000000E+00  0.11368683772E-12  0.17120000000E+03  0.17120000000E+03 0.  0.
         13    1    1    2    0    0  0.69111151831E+01 -0.17653319019E+02  0.99148989183E+02  0.10094521487E+03  0.10566000000E+00 0.  1.
        994    1    1    2    0    0 -0.92201573537E+01  0.14088834429E+02  0.26853970613E+01  0.17204696427E+03  0.17120000000E+03 0.  0.
        998    1    1    2    0    0  0.23090421705E+01  0.35644845893E+01  0.13981656100E+04  0.13982078209E+04  0.10000000000E+02 0.  1.
</event>
<event>
 5    1  0.1321379E-008  0.3706473E+03  0.7957747E-01  0.3492921E+00
         13   -1    0    0    0    0  0.00000000000E+00  0.00000000000E+00  0.14999999963E+04  0.15000000000E+04  0.10566000000E+00 0. -1.
        994   -1    0    0    0    0 -0.00000000000E+00 -0.00000000000E+00  0.11368683772E-12  0.17120000000E+03  0.17120000000E+03 0.  0.
         13    1    1    2    0    0 -0.15835055230E+02  0.31920043425E+02  0.70660898830E+02  0.79136666179E+02  0.10566000000E+00 0. -1.
        994    1    1    2    0    0  0.11500809704E+02 -0.58374238548E+01  0.95051905174E+01  0.17194805259E+03  0.17120000000E+03 0.  0.
        998    1    1    2    0    0  0.43342455257E+01 -0.26082619571E+02  0.14198339069E+04  0.14201152812E+04  0.10000000000E+02 0. -1.
</event>
<event>
 5    1  0.1321379E-008  0.3781440E+03  0.7957747E-01  0.3459280E+00
         13   -1    0    0    0    0  0.00000000000E+00  0.00000000000E+00  0.14999999963E+04  0.15000000000E+04  0.10566000000E+00 0. -1.
        994   -1    0    0    0    0 -0.00000000000E+00 -0.00000000000E+00  0.11368683772E-12  0.17120000000E+03  0.17120000000E+03 0.  0.
         13    1    1    2    0    0  0.16923692977E+01 -0.17359648434E+02  0.28247933491E+02  0.33199072549E+02  0.10566000000E+00 0. -1.
        994    1    1    2    0    0 -0.65529402545E+01  0.70307933526E+01  0.53837303273E+01  0.17155406621E+03  0.17120000000E+03 0.  0.
        998    1    1    2    0    0  0.48605709568E+01  0.10328855082E+02  0.14663683325E+04  0.14664468612E+04  0.10000000000E+02 0. -1.
</event>
<event>
 5    1  0.1321379E-008  0.3734593E+03  0.7957747E-01  0.3480142E+00
         13   -1    0    0    0    0  0.00000000000E+00  0.00000000000E+00  0.14999999963E+04  0.15000000000E+04  0.10566000000E+00 0. -1.
        994   -1    0    0    0    0 -0.00000000000E+00 -0.00000000000E+00  0.11368683772E-12  0.17120000000E+03  0.17120000000E+03 0.  0.
         13    1    1    2    0    0  0.66541144737E+02 -0.45849204304E+02  0.42071960910E+03  0.42840970358E+03  0.10566000000E+00 0. -1.
        994    1    1    2    0    0 -0.44303247443E+02  0.23766821042E+02  0.16158567026E+02  0.17915964614E+03  0.17120000000E+03 0.  0.
        998    1    1    2    0    0 -0.22237897294E+02  0.22082383262E+02  0.10631218202E+04  0.10636306503E+04  0.10000000000E+02 0. -1.
</event>
<event>
 5    1  0.1321379E-008  0.3773348E+03  0.7957747E-01  0.3462846E+00
         13   -1    0    0    0    0  0.00000000000E+00  0.00000000000E+00  0.14999999963E+04  0.15000000000E+04  0.10566000000E+00 0.  1.
        994   -1    0    0    0    0 -0.00000000000E+00 -0.00000000000E+00  0.11368683772E-12  0.17120000000E+03  0.17120000000E+03 0.  0.
         13    1    1    2    0    0  0.11687397432E+02 -0.30613976370E+02  0.89480248497E+02  0.95291850874E+02  0.10566000000E+00 0.  1.
        994    1    1    2    0    0 -0.56543783348E+01  0.36646899214E+02  0.10135951408E+02  0.17546265907E+03  0.17120000000E+03 0.  0.
        998    1    1    2    0    0 -0.60330190975E+01 -0.60329228443E+01  0.14003837964E+04  0.14004454901E+04  0.10000000000E+02 0.  1.
</event>
<event>
 5    1  0.1321379E-008  0.3847724E+03  0.7957747E-01  0.3430638E+00
         13   -1    0    0    0    0  0.00000000000E+00  0.00000000000E+00  0.14999999963E+04  0.15000000000E+04  0.10566000000E+00 0.  1.
        994   -1    0    0    0    0 -0.00000000000E+00 -0.00000000000E+00  0.11368683772E-12  0.17120000000E+03  0.17120000000E+03 0.  0.
         13    1    1    2    0    0 -0.11647226013E+02 -0.85208118905E+01  0.61061977528E+02  0.62744229796E+02  0.10566000000E+00 0.  1.
        994    1    1    2    0    0  0.46302946598E+01  0.30326555122E+01  0.18440284091E+01  0.17129937848E+03  0.17120000000E+03 0.  0.
        998    1    1    2    0    0  0.70169313534E+01  0.54881563783E+01  0.14370939903E+04  0.14371563917E+04  0.10000000000E+02 0.  1.
</event>
<event>
 5    1  0.1386487E-008  0.3862878E+03  0.7957747E-01  0.3424229E+00
         13   -1    0    0    0    0  0.00000000000E+00  0.00000000000E+00  0.14999999963E+04  0.15000000000E+04  0.10566000000E+00 0. -1.
        994   -1    0    0    0    0 -0.00000000000E+00 -0.00000000000E+00  0.11368683772E-12  0.17120000000E+03  0.17120000000E+03 0.  0.
         13    1    1    2    0    0 -0.53183229012E+00 -0.10199160708E+02  0.51982279669E+02  0.52976167173E+02  0.10566000000E+00 0. -1.
        994    1    1    2    0    0 -0.50808968213E+00  0.10867398141E+02  0.13798486909E+01  0.17155087432E+03  0.17120000000E+03 0.  0.
        998    1    1    2    0    0  0.10399219722E+01 -0.66823743337E+00  0.14466378679E+04  0.14466729585E+04  0.10000000000E+02 0. -1.
</event>
<event>
 5    1  0.1321379E-008  0.3815339E+03  0.7957747E-01  0.3444507E+00
         13   -1    0    0    0    0  0.00000000000E+00  0.00000000000E+00  0.14999999963E+04  0.15000000000E+04  0.10566000000E+00 0.  1.
        994   -1    0    0    0    0 -0.00000000000E+00 -0.00000000000E+00  0.11368683772E-12  0.17120000000E+03  0.17120000000E+03 0.  0.
         13    1    1    2    0    0 -0.12610493967E+02 -0.14558272094E+02  0.54053482611E+02  0.57382558246E+02  0.10566000000E+00 0.  1.
        994    1    1    2    0    0  0.85328938553E+01  0.89931066137E+01  0.38721800346E+01  0.17169193348E+03  0.17120000000E+03 0.  0.
        998    1    1    2    0    0  0.40776001114E+01  0.55651654800E+01  0.14420743336E+04  0.14421255083E+04  0.10000000000E+02 0.  1.
</event>
<event>
 5    1  0.1321379E-008  0.3820222E+03  0.7957747E-01  0.3442400E+00
         13   -1    0    0    0    0  0.00000000000E+00  0.00000000000E+00  0.14999999963E+04  0.15000000000E+04  0.10566000000E+00 0. -1.
        994   -1    0    0    0    0 -0.00000000000E+00 -0.00000000000E+00  0.11368683772E-12  0.17120000000E+03  0.17120000000E+03 0.  0.
         13    1    1    2    0    0 -0.19321551387E+02  0.89198994147E+01  0.74433873117E+02  0.77416403848E+02  0.10566000000E+00 0. -1.
        994    1    1    2    0    0  0.12092699527E+02  0.11424834137E+02  0.40353776760E+01  0.17205372559E+03  0.17120000000E+03 0.  0.
        998    1    1    2    0    0  0.72288518599E+01 -0.20344733552E+02  0.14215307455E+04  0.14217298706E+04  0.10000000000E+02 0. -1.
</event>
<event>
 5    1  0.1437698E-008  0.3851864E+03  0.7957747E-01  0.3428882E+00
         13   -1    0    0    0    0  0.00000000000E+00  0.00000000000E+00  0.14999999963E+04  0.15000000000E+04  0.10566000000E+00 0. -1.
        994   -1    0    0    0    0 -0.00000000000E+00 -0.00000000000E+00  0.11368683772E-12  0.17120000000E+03  0.17120000000E+03 0.  0.
         13    1    1    2    0    0  0.68115853283E+01  0.89443378395E+01  0.40698550933E+02  0.42223004229E+02  0.10566000000E+00 0. -1.
        994    1    1    2    0    0 -0.41019633143E+01 -0.86030706923E+01  0.18362413260E+01  0.17147492735E+03  0.17120000000E+03 0.  0.
        998    1    1    2    0    0 -0.27096220141E+01 -0.34126714723E+00  0.14574652040E+04  0.14575020684E+04  0.10000000000E+02 0. -1.
</event>
<event>
 5    1  0.1321379E-008  0.3801201E+03  0.7957747E-01  0.3450636E+00
         13   -1    0    0    0    0  0.00000000000E+00  0.00000000000E+00  0.14999999963E+04  0.15000000000E+04  0.10566000000E+00 0. -1.
        994   -1    0    0    0    0 -0.00000000000E+00 -0.00000000000E+00  0.11368683772E-12  0.17120000000E+03  0.17120000000E+03 0.  0.
         13    1    1    2    0    0  0.45672116125E+02  0.19914140458E+02  0.27577385820E+03  0.28023873253E+03  0.10566000000E+00 0. -1.
        994    1    1    2    0    0 -0.34100993783E+02 -0.20013658715E+02  0.93146066731E+01  0.17595347740E+03  0.17120000000E+03 0.  0.
        998    1    1    2    0    0 -0.11571122342E+02  0.99518257405E-01  0.12149115314E+04  0.12150077901E+04  0.10000000000E+02 0. -1.
</event>
<event>
 5    1  0.1321379E-008  0.3815868E+03  0.7957747E-01  0.3444278E+00
         13   -1    0    0    0    0  0.00000000000E+00  0.00000000000E+00  0.14999999963E+04  0.15000000000E+04  0.10566000000E+00 0.  1.
        994   -1    0    0    0    0 -0.00000000000E+00 -0.00000000000E+00  0.11368683772E-12  0.17120000000E+03  0.17120000000E+03 0.  0.
         13    1    1    2    0    0 -0.20223317521E+02 -0.26569529748E+02  0.15419150770E+03  0.15776550539E+03  0.10566000000E+00 0.  1.
        994    1    1    2    0    0  0.18742556802E+02  0.23797429950E+02  0.63917188747E+01  0.17397670872E+03  0.17120000000E+03 0.  0.
        998    1    1    2    0    0  0.14807607196E+01  0.27720997979E+01  0.13394167697E+04  0.13394577859E+04  0.10000000000E+02 0.  1.
</event>
<event>
 5    1  0.1321379E-008  0.3755704E+03  0.7957747E-01  0.3470676E+00
         13   -1    0    0    0    0  0.00000000000E+00  0.00000000000E+00  0.14999999963E+04  0.15000000000E+04  0.10566000000E+00 0. -1.
        994   -1    0    0    0    0 -0.00000000000E+00 -0.00000000000E+00  0.11368683772E-12  0.17120000000E+03  0.17120000000E+03 0.  0.
         13    1    1    2    0    0 -0.36855000247E+02  0.18476373715E+02  0.12137746824E+03  0.12818801968E+03  0.10566000000E+00 0. -1.
        994    1    1    2    0    0  0.43117751410E+02 -0.52516342577E+01  0.12814104965E+02  0.17708856946E+03  0.17120000000E+03 0.  0.
        998    1    1    2    0    0 -0.62627511623E+01 -0.13224739457E+02  0.13658084231E+04  0.13659234109E+04  0.10000000000E+02 0. -1.
</event>
<event>
 5    1  0.1321379E-008  0.3811980E+03  0.7957747E-01  0.3445959E+00
         13   -1    0    0    0    0  0.00000000000E+00  0.00000000000E+00  0.14999999963E+04  0.15000000000E+04  0.10566000000E+00 0.  1.
        994   -1    0    0    0    0 -0.00000000000E+00 -0.00000000000E+00  0.11368683772E-12  0.17120000000E+03  0.17120000000E+03 0.  0.
         13    1    1    2    0    0  0.45425401695E+01 -0.39369924726E+02  0.21886308809E+03  0.22242231933E+03  0.10566000000E+00 0.  1.
        994    1    1    2    0    0 -0.58350250960E+01  0.23650131321E+02  0.55079342940E+01  0.17301200412E+03  0.17120000000E+03 0.  0.
        998    1    1    2    0    0  0.12924849265E+01  0.15719793405E+02  0.12756289739E+04  0.12757656765E+04  0.10000000000E+02 0.  1.
</event>
<event>
 5    1  0.1321379E-008  0.3860319E+03  0.7957747E-01  0.3425307E+00
         13   -1    0    0    0    0  0.00000000000E+00  0.00000000000E+00  0.14999999963E+04  0.15000000000E+04  0.10566000000E+00 0. -1.
        994   -1    0    0    0    0 -0.00000000000E+00 -0.00000000000E+00  0.11368683772E-12  0.17120000000E+03  0.17120000000E+03 0.  0.
         13    1    1    2    0    0 -0.77174848488E+01 -0.82549421230E+01  0.64950725174E+02  0.65926561464E+02  0.10566000000E+00 0. -1.
        994    1    1    2    0    0 -0.11907304478E+02  0.10743094308E+01  0.15873143387E+01  0.17162429201E+03  0.17120000000E+03 0.  0.
        998    1    1    2    0    0  0.19624789327E+02  0.71806326922E+01  0.14334619568E+04  0.14336491465E+04  0.10000000000E+02 0. -1.
</event>
<event>
 5    1  0.1321379E-008  0.3845010E+03  0.7957747E-01  0.3431791E+00
         13   -1    0    0    0    0  0.00000000000E+00  0.00000000000E+00  0.14999999963E+04  0.15000000000E+04  0.10566000000E+00 0.  1.
        994   -1    0    0    0    0 -0.00000000000E+00 -0.00000000000E+00  0.11368683772E-12  0.17120000000E+03  0.17120000000E+03 0.  0.
         13    1    1    2    0    0 -0.93716414418E+01 -0.54831271176E+01  0.30726838661E+02  0.32588987779E+02  0.10566000000E+00 0.  1.
        994    1    1    2    0    0  0.67858892610E+01  0.68434709547E+01  0.21840958632E+01  0.17148496046E+03  0.17120000000E+03 0.  0.
        998    1    1    2    0    0  0.25857521809E+01 -0.13603438370E+01  0.14670890618E+04  0.14671260518E+04  0.10000000000E+02 0.  0.
</event>
<event>
 5    1  0.1321379E-008  0.3721864E+03  0.7957747E-01  0.3485902E+00
         13   -1    0    0    0    0  0.00000000000E+00  0.00000000000E+00  0.14999999963E+04  0.15000000000E+04  0.10566000000E+00 0. -1.
        994   -1    0    0    0    0 -0.00000000000E+00 -0.00000000000E+00  0.11368683772E-12  0.17120000000E+03  0.17120000000E+03 0.  0.
         13    1    1    2    0    0  0.77496310635E+01 -0.11805259545E+02  0.86582884339E+01  0.16564964751E+02  0.10566000000E+00 0. -1.
        994    1    1    2    0    0 -0.71139342660E+01  0.39873042629E+01  0.83589720381E+01  0.17159784110E+03  0.17120000000E+03 0.  0.
        998    1    1    2    0    0 -0.63569679748E+00  0.78179552822E+01  0.14829827358E+04  0.14830371942E+04  0.10000000000E+02 0. -1.
</event>
<event>
 5    1  0.1321379E-008  0.3793167E+03  0.7957747E-01  0.3454139E+00
         13   -1    0    0    0    0  0.00000000000E+00  0.00000000000E+00  0.14999999963E+04  0.15000000000E+04  0.10566000000E+00 0. -1.
        994   -1    0    0    0    0 -0.00000000000E+00 -0.00000000000E+00  0.11368683772E-12  0.17120000000E+03  0.17120000000E+03 0.  0.
         13    1    1    2    0    0  0.62083164920E+02  0.12692409077E+01  0.32483951529E+03  0.33072141176E+03  0.10566000000E+00 0. -1.
        994    1    1    2    0    0 -0.65995803458E+02 -0.43768250471E+01  0.19277742754E+02  0.18454179483E+03  0.17120000000E+03 0.  0.
        998    1    1    2    0    0  0.39126385377E+01  0.31075841394E+01  0.11558827382E+04  0.11559367934E+04  0.10000000000E+02 0. -1.
</event>
<event>
 5    1  0.1321379E-008  0.3849580E+03  0.7957747E-01  0.3429851E+00
         13   -1    0    0    0    0  0.00000000000E+00  0.00000000000E+00  0.14999999963E+04  0.15000000000E+04  0.10566000000E+00 0.  1.
        994   -1    0    0    0    0 -0.00000000000E+00 -0.00000000000E+00  0.11368683772E-12  0.17120000000E+03  0.17120000000E+03 0.  0.
         13    1    1    2    0    0 -0.12553330777E+02  0.25800671663E+01  0.54366607586E+02  0.55856799448E+02  0.10566000000E+00 0.  1.
        994    1    1    2    0    0 -0.67711122613E+01  0.11492800350E+01  0.18061694006E+01  0.17134722365E+03  0.17120000000E+03 0.  0.
        998    1    1    2    0    0  0.19324443038E+02 -0.37293472013E+01  0.14438272193E+04  0.14439959769E+04  0.10000000000E+02 0.  1.
</event>
<event>
 5    1  0.1321379E-008  0.3731069E+03  0.7957747E-01  0.3481733E+00
         13   -1    0    0    0    0  0.00000000000E+00  0.00000000000E+00  0.14999999963E+04  0.15000000000E+04  0.10566000000E+00 0.  1.
        994   -1    0    0    0    0 -0.00000000000E+00 -0.00000000000E+00  0.11368683772E-12  0.17120000000E+03  0.17120000000E+03 0.  0.
         13    1    1    2    0    0  0.95770893171E+00 -0.50502170857E+02  0.11649118009E+03  0.12697083393E+03  0.10566000000E+00 0.  1.
        994    1    1    2    0    0  0.74784341121E+00 -0.18470091555E+02  0.13799780999E+02  0.17274714906E+03  0.17120000000E+03 0.  0.
        998    1    1    2    0    0 -0.17055523429E+01  0.68972262412E+02  0.13697090352E+04  0.13714820170E+04  0.10000000000E+02 0.  1.
</event>
<event>
 5    1  0.1321379E-008  0.3689623E+03  0.7957747E-01  0.3500673E+00
         13   -1    0    0    0    0  0.00000000000E+00  0.00000000000E+00  0.14999999963E+04  0.15000000000E+04  0.10566000000E+00 0. -1.
        994   -1    0    0    0    0 -0.00000000000E+00 -0.00000000000E+00  0.11368683772E-12  0.17120000000E+03  0.17120000000E+03 0.  0.
         13    1    1    2    0    0 -0.34049762629E+02 -0.70093340923E+02  0.25087329864E+03  0.26269732756E+03  0.10566000000E+00 0. -1.
        994    1    1    2    0    0  0.67295852928E+02  0.47368855461E+02  0.34369348646E+02  0.19303686802E+03  0.17120000000E+03 0.  0.
        998    1    1    2    0    0 -0.33246090299E+02  0.22724485462E+02  0.12147573490E+04  0.12154658044E+04  0.10000000000E+02 0. -1.
</event>
<event>
 5    1  0.1321379E-008  0.3689207E+03  0.7957747E-01  0.3500866E+00
         13   -1    0    0    0    0  0.00000000000E+00  0.00000000000E+00  0.14999999963E+04  0.15000000000E+04  0.10566000000E+00 0.  1.
        994   -1    0    0    0    0 -0.00000000000E+00 -0.00000000000E+00  0.11368683772E-12  0.17120000000E+03  0.17120000000E+03 0.  0.
         13    1    1    2    0    0 -0.12833724981E+02 -0.23357191389E+01  0.33354082374E+01  0.13464627471E+02  0.10566000000E+00 0.  1.
        994    1    1    2    0    0  0.17805811315E+02  0.26449178802E+01  0.11498628131E+02  0.17252739190E+03  0.17120000000E+03 0.  0.
        998    1    1    2    0    0 -0.49720863344E+01 -0.30919874126E+00  0.14851659599E+04  0.14852079806E+04  0.10000000000E+02 0.  1.
</event>
<event>
 5    1  0.1321379E-008  0.3841124E+03  0.7957747E-01  0.3433445E+00
         13   -1    0    0    0    0  0.00000000000E+00  0.00000000000E+00  0.14999999963E+04  0.15000000000E+04  0.10566000000E+00 0.  1.
        994   -1    0    0    0    0 -0.00000000000E+00 -0.00000000000E+00  0.11368683772E-12  0.17120000000E+03  0.17120000000E+03 0.  0.
         13    1    1    2    0    0  0.79077614710E+01 -0.91061137148E+01  0.36596906201E+02  0.38533085862E+02  0.10566000000E+00 0.  1.
        994    1    1    2    0    0  0.10409327350E+02  0.29051395376E+01  0.24567354424E+01  0.17155835590E+03  0.17120000000E+03 0.  0.
        998    1    1    2    0    0 -0.18317088821E+02  0.62009741771E+01  0.14609463546E+04  0.14611085582E+04  0.10000000000E+02 0.  1.
</event>
<event>
 5    1  0.1321379E-008  0.3796624E+03  0.7957747E-01  0.3452630E+00
         13   -1    0    0    0    0  0.00000000000E+00  0.00000000000E+00  0.14999999963E+04  0.15000000000E+04  0.10566000000E+00 0. -1.
        994   -1    0    0    0    0 -0.00000000000E+00 -0.00000000000E+00  0.11368683772E-12  0.17120000000E+03  0.17120000000E+03 0.  0.
         13    1    1    2    0    0 -0.73190894030E+02  0.95965476467E+01  0.43334638619E+03  0.43958856023E+03  0.10566000000E+00 0. -1.
        994    1    1    2    0    0  0.75443097162E+02 -0.15333565649E+02  0.24400775482E+02  0.18929241134E+03  0.17120000000E+03 0.  0.
        998    1    1    2    0    0 -0.22522031325E+01  0.57370180018E+01  0.10422528346E+04  0.10423190284E+04  0.10000000000E+02 0. -1.
</event>
<event>
 5    1  0.1321379E-008  0.3690106E+03  0.7957747E-01  0.3500450E+00
         13   -1    0    0    0    0  0.00000000000E+00  0.00000000000E+00  0.14999999963E+04  0.15000000000E+04  0.10566000000E+00 0.  1.
        994   -1    0    0    0    0 -0.00000000000E+00 -0.00000000000E+00  0.11368683772E-12  0.17120000000E+03  0.17120000000E+03 0.  0.
         13    1    1    2    0    0  0.38131716919E+02  0.84508055064E+01  0.79074806524E+02  0.88194558448E+02  0.10566000000E+00 0.  1.
        994    1    1    2    0    0 -0.35238255727E+01 -0.15484395197E+02  0.10662543092E+02  0.17226524219E+03  0.17120000000E+03 0.  0.
        998    1    1    2    0    0 -0.34607891347E+02  0.70335896905E+01  0.14102626467E+04  0.14107401994E+04  0.10000000000E+02 0.  1.
</event>
<event>
 5    1  0.1321379E-008  0.3692765E+03  0.7957747E-01  0.3499223E+00
         13   -1    0    0    0    0  0.00000000000E+00  0.00000000000E+00  0.14999999963E+04  0.15000000000E+04  0.10566000000E+00 0.  1.
        994   -1    0    0    0    0 -0.00000000000E+00 -0.00000000000E+00  0.11368683772E-12  0.17120000000E+03  0.17120000000E+03 0.  0.
         13    1    1    2    0    0 -0.15981212179E+03 -0.85509610598E+02  0.73546735233E+03  0.75747214159E+03  0.10566000000E+00 0.  1.
        994    1    1    2    0    0  0.15523900170E+03  0.94238492109E+02  0.13445124939E+03  0.28349006950E+03  0.17120000000E+03 0.  0.
        998    1    1    2    0    0  0.45731200926E+01 -0.87288815117E+01  0.63008139456E+03  0.63023778891E+03  0.10000000000E+02 0.  0.
</event>
<event>
 5    1  0.1321379E-008  0.3855700E+03  0.7957747E-01  0.3427258E+00
         13   -1    0    0    0    0  0.00000000000E+00  0.00000000000E+00  0.14999999963E+04  0.15000000000E+04  0.10566000000E+00 0. -1.
        994   -1    0    0    0    0 -0.00000000000E+00 -0.00000000000E+00  0.11368683772E-12  0.17120000000E+03  0.17120000000E+03 0.  0.
         13    1    1    2    0    0 -0.10402180289E+02  0.12364252928E+02  0.96563837272E+02  0.97906414182E+02  0.10566000000E+00 0. -1.
        994    1    1    2    0    0  0.30684920632E+01 -0.12451785941E+02  0.18874629598E+01  0.17169002631E+03  0.17120000000E+03 0.  0.
        998    1    1    2    0    0  0.73336882261E+01  0.87533012441E-01  0.14015486960E+04  0.14016035595E+04  0.10000000000E+02 0. -1.
</event>
<event>
 5    1  0.1321379E-008  0.3757252E+03  0.7957747E-01  0.3469986E+00
         13   -1    0    0    0    0  0.00000000000E+00  0.00000000000E+00  0.14999999963E+04  0.15000000000E+04  0.10566000000E+00 0. -1.
        994   -1    0    0    0    0 -0.00000000000E+00 -0.00000000000E+00  0.11368683772E-12  0.17120000000E+03  0.17120000000E+03 0.  0.
         13    1    1    2    0    0 -0.10836074155E+02 -0.11455823806E+02  0.17197098404E+02  0.23332547219E+02  0.10566000000E+00 0. -1.
        994    1    1    2    0    0  0.34543510869E+01  0.47944349659E+01  0.64252013095E+01  0.17142240915E+03  0.17120000000E+03 0.  0.
        998    1    1    2    0    0  0.73817230683E+01  0.66613888405E+01  0.14763776966E+04  0.14764450436E+04  0.10000000000E+02 0. -1.
</event>
<event>
 5    1  0.3200114E-008  0.3865156E+03  0.7957747E-01  0.3423270E+00
         13   -1    0    0    0    0  0.00000000000E+00  0.00000000000E+00  0.14999999963E+04  0.15000000000E+04  0.10566000000E+00 0.  1.
        994   -1    0    0    0    0 -0.00000000000E+00 -0.00000000000E+00  0.11368683772E-12  0.17120000000E+03  0.17120000000E+03 0.  0.
         13    1    1    2    0    0 -0.91875211766E+01  0.54204958562E+01  0.60410218299E+02  0.61344909811E+02  0.10566000000E+00 0.  1.
        994    1    1    2    0    0  0.18319177622E+02 -0.50766016037E+01  0.20630196637E+01  0.17226450651E+03  0.17120000000E+03 0.  0.
        998    1    1    2    0    0 -0.91316564457E+01 -0.34389425249E+00  0.14375267583E+04  0.14375905837E+04  0.10000000000E+02 0.  1.
</event>
<event>
 5    1  0.1321379E-008  0.3833249E+03  0.7957747E-01  0.3436808E+00
         13   -1    0    0    0    0  0.00000000000E+00  0.00000000000E+00  0.14999999963E+04  0.15000000000E+04  0.10566000000E+00 0. -1.
        994   -1    0    0    0    0 -0.00000000000E+00 -0.00000000000E+00  0.11368683772E-12  0.17120000000E+03  0.17120000000E+03 0.  0.
         13    1    1    2    0    0  0.11664363741E+02  0.43681833509E+01  0.30511510120E+02  0.32956058944E+02  0.10566000000E+00 0. -1.
        994    1    1    2    0    0 -0.15151421840E+02  0.11609547891E+02  0.36697751879E+01  0.17229989680E+03  0.17120000000E+03 0.  0.
        998    1    1    2    0    0  0.34870580985E+01 -0.15977731242E+02  0.14658187110E+04  0.14659440443E+04  0.10000000000E+02 0. -1.
</event>
<event>
 5    1  0.1321379E-008  0.3769965E+03  0.7957747E-01  0.3464342E+00
         13   -1    0    0    0    0  0.00000000000E+00  0.00000000000E+00  0.14999999963E+04  0.15000000000E+04  0.10566000000E+00 0.  1.
        994   -1    0    0    0    0 -0.00000000000E+00 -0.00000000000E+00  0.11368683772E-12  0.17120000000E+03  0.17120000000E+03 0.  0.
         13    1    1    2    0    0  0.53944615802E+02 -0.57797344285E+02  0.42387637639E+03  0.43118644251E+03  0.10566000000E+00 0.  1.
        994    1    1    2    0    0 -0.39939093538E+02  0.61776840890E+02  0.24152736493E+02  0.18789439572E+03  0.17120000000E+03 0.  0.
        998    1    1    2    0    0 -0.14005522264E+02 -0.39794966053E+01  0.10519708834E+04  0.10521191618E+04  0.10000000000E+02 0. -1.
</event>
<event>
 5    1  0.1321379E-008  0.3852829E+03  0.7957747E-01  0.3428473E+00
         13   -1    0    0    0    0  0.00000000000E+00  0.00000000000E+00  0.14999999963E+04  0.15000000000E+04  0.10566000000E+00 0.  1.
        994   -1    0    0    0    0 -0.00000000000E+00 -0.00000000000E+00  0.11368683772E-12  0.17120000000E+03  0.17120000000E+03 0.  0.
         13    1    1    2    0    0 -0.80686569506E+01  0.10117829219E+02  0.54289714172E+02  0.55810912212E+02  0.10566000000E+00 0.  1.
        994    1    1    2    0    0  0.10461954894E+02 -0.10589582925E+02  0.22181620475E+01  0.17186026885E+03  0.17120000000E+03 0.  0.
        998    1    1    2    0    0 -0.23932979438E+01  0.47175370659E+00  0.14434921201E+04  0.14435288189E+04  0.10000000000E+02 0.  1.
</event>
<event>
 5    1  0.1321379E-008  0.3793114E+03  0.7957747E-01  0.3454162E+00
         13   -1    0    0    0    0  0.00000000000E+00  0.00000000000E+00  0.14999999963E+04  0.15000000000E+04  0.10566000000E+00 0. -1.
        994   -1    0    0    0    0 -0.00000000000E+00 -0.00000000000E+00  0.11368683772E-12  0.17120000000E+03  0.17120000000E+03 0.  0.
         13    1    1    2    0    0  0.18394603902E+02  0.59425651686E+02  0.12197411458E+03  0.13692138373E+03  0.10566000000E+00 0. -1.
        994    1    1    2    0    0 -0.70390905730E+02 -0.53431347867E+01  0.34190112934E+02  0.18831312360E+03  0.17120000000E+03 0.  0.
        998    1    1    2    0    0  0.51996301829E+02 -0.54082516899E+02  0.13438357688E+04  0.13459654927E+04  0.10000000000E+02 0. -1.
</event>
<event>
 5    1  0.1321379E-008  0.3860910E+03  0.7957747E-01  0.3425058E+00
         13   -1    0    0    0    0  0.00000000000E+00  0.00000000000E+00  0.14999999963E+04  0.15000000000E+04  0.10566000000E+00 0. -1.
        994   -1    0    0    0    0 -0.00000000000E+00 -0.00000000000E+00  0.11368683772E-12  0.17120000000E+03  0.17120000000E+03 0.  0.
         13    1    1    2    0    0 -0.12481702218E+02 -0.53918970375E+01  0.76125710782E+02  0.77330462627E+02  0.10566000000E+00 0. -1.
        994    1    1    2    0    0  0.26357145398E+02 -0.41846256221E+00  0.33699045316E+01  0.17325031163E+03  0.17120000000E+03 0.  0.
        998    1    1    2    0    0 -0.13875443180E+02  0.58103595997E+01  0.14205043810E+04  0.14206192257E+04  0.10000000000E+02 0. -1.
</event>
<event>
 5    1  0.1321379E-008  0.3794588E+03  0.7957747E-01  0.3453518E+00
         13   -1    0    0    0    0  0.00000000000E+00  0.00000000000E+00  0.14999999963E+04  0.15000000000E+04  0.10566000000E+00 0.  1.
        994   -1    0    0    0    0 -0.00000000000E+00 -0.00000000000E+00  0.11368683772E-12  0.17120000000E+03  0.17120000000E+03 0.  0.
         13    1    1    2    0    0  0.41206819889E+02  0.15861299710E+02  0.20363254904E+03  0.20836460598E+03  0.10566000000E+00 0.  1.
        994    1    1    2    0    0 -0.34041711113E+02 -0.11866104806E+02  0.87712671854E+01  0.17517424944E+03  0.17120000000E+03 0.  0.
        998    1    1    2    0    0 -0.71651087754E+01 -0.39951949046E+01  0.12875961801E+04  0.12876611446E+04  0.10000000000E+02 0.  1.
</event>
<event>
 5    1  0.1321379E-008  0.3833109E+03  0.7957747E-01  0.3436868E+00
         13   -1    0    0    0    0  0.00000000000E+00  0.00000000000E+00  0.14999999963E+04  0.15000000000E+04  0.10566000000E+00 0.  1.
        994   -1    0    0    0    0 -0.00000000000E+00 -0.00000000000E+00  0.11368683772E-12  0.17120000000E+03  0.17120000000E+03 0.  0.
         13    1    1    2    0    0  0.10435216420E+02  0.27224468377E+02  0.15354407635E+03  0.15628774733E+03  0.10566000000E+00 0.  1.
        994    1    1    2    0    0 -0.14459585879E+02 -0.27829225177E+02  0.57302411526E+01  0.17414310512E+03  0.17120000000E+03 0.  0.
        998    1    1    2    0    0  0.40243694586E+01  0.60475679968E+00  0.13407256788E+04  0.13407691475E+04  0.10000000000E+02 0.  1.
</event>
<event>
 5    1  0.1321379E-008  0.3710236E+03  0.7957747E-01  0.3491200E+00
         13   -1    0    0    0    0  0.00000000000E+00  0.00000000000E+00  0.14999999963E+04  0.15000000000E+04  0.10566000000E+00 0.  1.
        994   -1    0    0    0    0 -0.00000000000E+00 -0.00000000000E+00  0.11368683772E-12  0.17120000000E+03  0.17120000000E+03 0.  0.
         13    1    1    2    0    0 -0.99972031894E+01  0.83060024767E+02  0.39752982484E+03  0.40623747314E+03  0.10566000000E+00 0.  1.
        994    1    1    2    0    0  0.23107695703E+01 -0.48225906660E+02  0.16809903680E+02  0.17867034055E+03  0.17120000000E+03 0.  0.
        998    1    1    2    0    0  0.76864336190E+01 -0.34834118107E+02  0.10856602678E+04  0.10862921863E+04  0.10000000000E+02 0.  1.
</event>
<event>
 5    1  0.1321379E-008  0.3821148E+03  0.7957747E-01  0.3442002E+00
         13   -1    0    0    0    0  0.00000000000E+00  0.00000000000E+00  0.14999999963E+04  0.15000000000E+04  0.10566000000E+00 0.  1.
        994   -1    0    0    0    0 -0.00000000000E+00 -0.00000000000E+00  0.11368683772E-12  0.17120000000E+03  0.17120000000E+03 0.  0.
         13    1    1    2    0    0 -0.67096184354E+02 -0.97784166434E+02  0.34735347793E+03  0.36703963131E+03  0.10566000000E+00 0.  1.
        994    1    1    2    0    0  0.28838720927E+02  0.95174960881E+02  0.54572806075E+02  0.20537179983E+03  0.17120000000E+03 0.  0.
        998    1    1    2    0    0  0.38257463427E+02  0.26092055532E+01  0.10980737123E+04  0.10987885689E+04  0.10000000000E+02 0.  1.
</event>
<event>
 5    1  0.1321379E-008  0.3746762E+03  0.7957747E-01  0.3474672E+00
         13   -1    0    0    0    0  0.00000000000E+00  0.00000000000E+00  0.14999999963E+04  0.15000000000E+04  0.10566000000E+00 0. -1.
        994   -1    0    0    0    0 -0.00000000000E+00 -0.00000000000E+00  0.11368683772E-12  0.17120000000E+03  0.17120000000E+03 0.  0.
         13    1    1    2    0    0  0.31987053426E+02 -0.12386340445E+02  0.45536934293E+02  0.57010670627E+02  0.10566000000E+00 0. -1.
        994    1    1    2    0    0  0.56731576594E+02  0.24944616184E+02  0.27212798546E+02  0.18409422062E+03  0.17120000000E+03 0.  0.
        998    1    1    2    0    0 -0.88718630020E+02 -0.12558275739E+02  0.14272502634E+04  0.14300951088E+04  0.10000000000E+02 0. -1.
</event>
<event>
 5    1  0.1321379E-008  0.3847446E+03  0.7957747E-01  0.3430756E+00
         13   -1    0    0    0    0  0.00000000000E+00  0.00000000000E+00  0.14999999963E+04  0.15000000000E+04  0.10566000000E+00 0.  1.
        994   -1    0    0    0    0 -0.00000000000E+00 -0.00000000000E+00  0.11368683772E-12  0.17120000000E+03  0.17120000000E+03 0.  0.
         13    1    1    2    0    0 -0.38122622452E+01 -0.11449177975E+02  0.40287744508E+02  0.42056278262E+02  0.10566000000E+00 0.  1.
        994    1    1    2    0    0  0.41632522066E+01  0.12074981061E+02  0.22941340768E+01  0.17169112058E+03  0.17120000000E+03 0.  0.
        998    1    1    2    0    0 -0.35098996143E+00 -0.62580308577E+00  0.14574181177E+04  0.14574526012E+04  0.10000000000E+02 0.  1.
</event>
<event>
 5    1  0.1321379E-008  0.3850780E+03  0.7957747E-01  0.3429341E+00
         13   -1    0    0    0    0  0.00000000000E+00  0.00000000000E+00  0.14999999963E+04  0.15000000000E+04  0.10566000000E+00 0.  1.
        994   -1    0    0    0    0 -0.00000000000E+00 -0.00000000000E+00  0.11368683772E-12  0.17120000000E+03  0.17120000000E+03 0.  0.
         13    1    1    2    0    0 -0.84256894625E+01  0.69356189278E+01  0.37682969414E+02  0.39231523049E+02  0.10566000000E+00 0.  1.
        994    1    1    2    0    0  0.75365767154E+01  0.76149857041E+00  0.17800801295E+01  0.17137674450E+03  0.17120000000E+03 0.  0.
        998    1    1    2    0    0  0.88911274710E+00 -0.76971174982E+01  0.14605369467E+04  0.14605917325E+04  0.10000000000E+02 0.  1.
</event>
<event>
 5    1  0.1321379E-008  0.3839213E+03  0.7957747E-01  0.3434260E+00
         13   -1    0    0    0    0  0.00000000000E+00  0.00000000000E+00  0.14999999963E+04  0.15000000000E+04  0.10566000000E+00 0.  1.
        994   -1    0    0    0    0 -0.00000000000E+00 -0.00000000000E+00  0.11368683772E-12  0.17120000000E+03  0.17120000000E+03 0.  0.
         13    1    1    2    0    0  0.10917309645E+02 -0.17608207262E+02  0.10966432670E+03  0.11160426662E+03  0.10566000000E+00 0.  1.
        994    1    1    2    0    0  0.13797524426E+02  0.72209368175E+01  0.29673922545E+01  0.17193242575E+03  0.17120000000E+03 0.  0.
        998    1    1    2    0    0 -0.24714834071E+02  0.10387270445E+02  0.13873682773E+04  0.13876633076E+04  0.10000000000E+02 0.  1.
</event>
<event>
 5    1  0.1321379E-008  0.3822851E+03  0.7957747E-01  0.3441269E+00
         13   -1    0    0    0    0  0.00000000000E+00  0.00000000000E+00  0.14999999963E+04  0.15000000000E+04  0.10566000000E+00 0.  1.
        994   -1    0    0    0    0 -0.00000000000E+00 -0.00000000000E+00  0.11368683772E-12  0.17120000000E+03  0.17120000000E+03 0.  0.
         13    1    1    2    0    0  0.27677343712E+02 -0.11699218062E+02  0.14674828075E+03  0.14979311108E+03  0.10566000000E+00 0.  1.
        994    1    1    2    0    0 -0.18364031781E+02  0.11030935179E+02  0.45082002291E+01  0.17259398328E+03  0.17120000000E+03 0.  0.
        998    1    1    2    0    0 -0.93133119310E+01  0.66828288224E+00  0.13487435153E+04  0.13488129056E+04  0.10000000000E+02 0.  1.
</event>
<event>
 5    1  0.1321379E-008  0.3806237E+03  0.7957747E-01  0.3448447E+00
         13   -1    0    0    0    0  0.00000000000E+00  0.00000000000E+00  0.14999999963E+04  0.15000000000E+04  0.10566000000E+00 0. -1.
        994   -1    0    0    0    0 -0.00000000000E+00 -0.00000000000E+00  0.11368683772E-12  0.17120000000E+03  0.17120000000E+03 0.  0.
         13    1    1    2    0    0  0.13876890966E+02  0.46602104959E+01  0.28055719495E+02  0.31645224365E+02  0.10566000000E+00 0. -1.
        994    1    1    2    0    0  0.53568453926E+01  0.91334751060E+01  0.41927515274E+01  0.17157836497E+03  0.17120000000E+03 0.  0.
        998    1    1    2    0    0 -0.19233736359E+02 -0.13793685602E+02  0.14677515253E+04  0.14679764107E+04  0.10000000000E+02 0. -1.
</event>
<event>
 5    1  0.1321379E-008  0.3852096E+03  0.7957747E-01  0.3428784E+00
         13   -1    0    0    0    0  0.00000000000E+00  0.00000000000E+00  0.14999999963E+04  0.15000000000E+04  0.10566000000E+00 0.  1.
        994   -1    0    0    0    0 -0.00000000000E+00 -0.00000000000E+00  0.11368683772E-12  0.17120000000E+03  0.17120000000E+03 0.  0.
         13    1    1    2    0    0 -0.39728500486E+01 -0.13791067503E+02  0.78205894535E+02  0.79511949947E+02  0.10566000000E+00 0.  1.
        994    1    1    2    0    0  0.40975715475E+01 -0.11796837380E+02  0.20388125065E+01  0.17166698058E+03  0.17120000000E+03 0.  0.
        998    1    1    2    0    0 -0.12472149892E+00  0.25587904882E+02  0.14197552892E+04  0.14200210695E+04  0.10000000000E+02 0.  1.
</event>
<event>
 5    1  0.1321379E-008  0.3829823E+03  0.7957747E-01  0.3438275E+00
         13   -1    0    0    0    0  0.00000000000E+00  0.00000000000E+00  0.14999999963E+04  0.15000000000E+04  0.10566000000E+00 0.  1.
        994   -1    0    0    0    0 -0.00000000000E+00 -0.00000000000E+00  0.11368683772E-12  0.17120000000E+03  0.17120000000E+03 0.  0.
         13    1    1    2    0    0  0.90383786128E+01 -0.10851053227E+02  0.47357498437E+02  0.49418432456E+02  0.10566000000E+00 0.  1.
        994    1    1    2    0    0  0.16538018930E+02 -0.44407670450E+02  0.10104500627E+02  0.17792438899E+03  0.17120000000E+03 0.  0.
        998    1    1    2    0    0 -0.25576397543E+02  0.55258723677E+02  0.14425379972E+04  0.14438571786E+04  0.10000000000E+02 0.  1.
</event>
<event>
 5    1  0.1321379E-008  0.3818256E+03  0.7957747E-01  0.3443248E+00
         13   -1    0    0    0    0  0.00000000000E+00  0.00000000000E+00  0.14999999963E+04  0.15000000000E+04  0.10566000000E+00 0.  1.
        994   -1    0    0    0    0 -0.00000000000E+00 -0.00000000000E+00  0.11368683772E-12  0.17120000000E+03  0.17120000000E+03 0.  0.
         13    1    1    2    0    0  0.33375503674E+02  0.57421881524E+01  0.17505594349E+03  0.17830168672E+03  0.10566000000E+00 0.  1.
        994    1    1    2    0    0 -0.19223746832E+02 -0.16601590683E+02  0.53611915531E+01  0.17315700283E+03  0.17120000000E+03 0.  0.
        998    1    1    2    0    0 -0.14151756842E+02  0.10859402531E+02  0.13195828612E+04  0.13197413104E+04  0.10000000000E+02 0.  1.
</event>
<event>
 5    1  0.1321379E-008  0.3788839E+03  0.7957747E-01  0.3456033E+00
         13   -1    0    0    0    0  0.00000000000E+00  0.00000000000E+00  0.14999999963E+04  0.15000000000E+04  0.10566000000E+00 0. -1.
        994   -1    0    0    0    0 -0.00000000000E+00 -0.00000000000E+00  0.11368683772E-12  0.17120000000E+03  0.17120000000E+03 0.  0.
         13    1    1    2    0    0  0.81843482280E+01  0.44888892849E+02  0.20337125639E+03  0.20842714637E+03  0.10566000000E+00 0. -1.
        994    1    1    2    0    0 -0.12430398189E+02 -0.35971792712E+02  0.95730787969E+01  0.17564045237E+03  0.17120000000E+03 0.  0.
        998    1    1    2    0    0  0.42460499605E+01 -0.89171001372E+01  0.12870556611E+04  0.12871324013E+04  0.10000000000E+02 0. -1.
</event>
<event>
 5    1  0.1321379E-008  0.3707203E+03  0.7957747E-01  0.3492587E+00
         13   -1    0    0    0    0  0.00000000000E+00  0.00000000000E+00  0.14999999963E+04  0.15000000000E+04  0.10566000000E+00 0.  1.
        994   -1    0    0    0    0 -0.00000000000E+00 -0.00000000000E+00  0.11368683772E-12  0.17120000000E+03  0.17120000000E+03 0.  0.
         13    1    1    2    0    0 -0.16367577729E+02  0.87436069637E+02  0.40321581304E+03  0.41291157276E+03  0.10566000000E+00 0.  1.
        994    1    1    2    0    0 -0.46060358582E+01 -0.32566736559E+02  0.15121173942E+02  0.17498542167E+03  0.17120000000E+03 0.  0.
        998    1    1    2    0    0  0.20973613587E+02 -0.54869333079E+02  0.10816630093E+04  0.10833030056E+04  0.10000000000E+02 0.  1.
</event>
<event>
 5    1  0.1321379E-008  0.3854102E+03  0.7957747E-01  0.3427934E+00
         13   -1    0    0    0    0  0.00000000000E+00  0.00000000000E+00  0.14999999963E+04  0.15000000000E+04  0.10566000000E+00 0. -1.
        994   -1    0    0    0    0 -0.00000000000E+00 -0.00000000000E+00  0.11368683772E-12  0.17120000000E+03  0.17120000000E+03 0.  0.
         13    1    1    2    0    0  0.84622171080E+01 -0.12593610578E+02  0.80575087169E+02  0.81991243325E+02  0.10566000000E+00 0. -1.
        994    1    1    2    0    0 -0.45942932288E+01  0.97229289346E+01  0.18065274274E+01  0.17154692192E+03  0.17120000000E+03 0.  0.
        998    1    1    2    0    0 -0.38679238792E+01  0.28706816429E+01  0.14176183817E+04  0.14176618348E+04  0.10000000000E+02 0. -1.
</event>
<event>
 5    1  0.1321379E-008  0.3840897E+03  0.7957747E-01  0.3433542E+00
         13   -1    0    0    0    0  0.00000000000E+00  0.00000000000E+00  0.14999999963E+04  0.15000000000E+04  0.10566000000E+00 0.  1.
        994   -1    0    0    0    0 -0.00000000000E+00 -0.00000000000E+00  0.11368683772E-12  0.17120000000E+03  0.17120000000E+03 0.  0.
         13    1    1    2    0    0  0.21300770979E+02  0.13805872354E+02  0.15253999940E+03  0.15463760065E+03  0.10566000000E+00 0.  1.
        994    1    1    2    0    0 -0.16340608455E+02 -0.54006460555E+01  0.30602689852E+01  0.17209005697E+03  0.17120000000E+03 0.  0.
        998    1    1    2    0    0 -0.49601625246E+01 -0.84052262983E+01  0.13443997279E+04  0.13444723424E+04  0.10000000000E+02 0.  1.
</event>
<event>
 5    1  0.1321379E-008  0.3860870E+03  0.7957747E-01  0.3425075E+00
         13   -1    0    0    0    0  0.00000000000E+00  0.00000000000E+00  0.14999999963E+04  0.15000000000E+04  0.10566000000E+00 0. -1.
        994   -1    0    0    0    0 -0.00000000000E+00 -0.00000000000E+00  0.11368683772E-12  0.17120000000E+03  0.17120000000E+03 0.  0.
         13    1    1    2    0    0  0.60660548357E+00 -0.11190266954E+02  0.56232425452E+02  0.57338354362E+02  0.10566000000E+00 0. -1.
        994    1    1    2    0    0  0.15898048841E+01  0.12713767919E+02  0.16295980606E+01  0.17168652528E+03  0.17120000000E+03 0.  0.
        998    1    1    2    0    0 -0.21964103676E+01 -0.15235009658E+01  0.14421379728E+04  0.14421751204E+04  0.10000000000E+02 0. -1.
</event>
<event>
 5    1  0.1321379E-008  0.3829075E+03  0.7957747E-01  0.3438595E+00
         13   -1    0    0    0    0  0.00000000000E+00  0.00000000000E+00  0.14999999963E+04  0.15000000000E+04  0.10566000000E+00 0.  1.
        994   -1    0    0    0    0 -0.00000000000E+00 -0.00000000000E+00  0.11368683772E-12  0.17120000000E+03  0.17120000000E+03 0.  0.
         13    1    1    2    0    0 -0.11174037228E+02  0.89641580283E+00  0.22309487327E+02  0.24967720322E+02  0.10566000000E+00 0.  1.
        994    1    1    2    0    0  0.11041539125E+02  0.11057684593E+01  0.30804100245E+01  0.17158690870E+03  0.17120000000E+03 0.  0.
        998    1    1    2    0    0  0.13249810367E+00 -0.20021842621E+01  0.14746100989E+04  0.14746453710E+04  0.10000000000E+02 0.  1.
</event>
<event>
 5    1  0.1321379E-008  0.3827452E+03  0.7957747E-01  0.3439292E+00
         13   -1    0    0    0    0  0.00000000000E+00  0.00000000000E+00  0.14999999963E+04  0.15000000000E+04  0.10566000000E+00 0. -1.
        994   -1    0    0    0    0 -0.00000000000E+00 -0.00000000000E+00  0.11368683772E-12  0.17120000000E+03  0.17120000000E+03 0.  0.
         13    1    1    2    0    0  0.16249369875E+03  0.92349275557E+02  0.99245263881E+03  0.10098984317E+04  0.10566000000E+00 0. -1.
        994    1    1    2    0    0 -0.17712541433E+03 -0.95143319701E+02  0.15078986173E+03  0.30409321940E+03  0.17120000000E+03 0.  0.
        998    1    1    2    0    0  0.14631715580E+02  0.27940441438E+01  0.35675749574E+03  0.35720834894E+03  0.10000000000E+02 0. -1.
</event>
<event>
 5    1  0.1321379E-008  0.3849749E+03  0.7957747E-01  0.3429779E+00
         13   -1    0    0    0    0  0.00000000000E+00  0.00000000000E+00  0.14999999963E+04  0.15000000000E+04  0.10566000000E+00 0. -1.
        994   -1    0    0    0    0 -0.00000000000E+00 -0.00000000000E+00  0.11368683772E-12  0.17120000000E+03  0.17120000000E+03 0.  0.
         13    1    1    2    0    0 -0.17241141667E+02  0.25342474924E+01  0.82880072083E+02  0.84692366179E+02  0.10566000000E+00 0. -1.
        994    1    1    2    0    0  0.25542647318E+02 -0.12190219018E+02  0.42815587012E+01  0.17357649615E+03  0.17120000000E+03 0.  0.
        998    1    1    2    0    0 -0.83015056510E+01  0.96559715257E+01  0.14128383655E+04  0.14129311377E+04  0.10000000000E+02 0. -1.
</event>
<event>
 5    1  0.1321379E-008  0.3817377E+03  0.7957747E-01  0.3443627E+00
         13   -1    0    0    0    0  0.00000000000E+00  0.00000000000E+00  0.14999999963E+04  0.15000000000E+04  0.10566000000E+00 0. -1.
        994   -1    0    0    0    0 -0.00000000000E+00 -0.00000000000E+00  0.11368683772E-12  0.17120000000E+03  0.17120000000E+03 0.  0.
         13    1    1    2    0    0  0.16059767737E+02  0.23462247002E+02  0.14289408954E+03  0.14569531620E+03  0.10566000000E+00 0. -1.
        994    1    1    2    0    0  0.46682644841E+01  0.20037559430E+01  0.33443028864E+01  0.17130800359E+03  0.17120000000E+03 0.  0.
        998    1    1    2    0    0 -0.20728032221E+02 -0.25466002945E+02  0.13537616039E+04  0.13541966802E+04  0.10000000000E+02 0. -1.
</event>
<event>
 5    1  0.1321379E-008  0.3804327E+03  0.7957747E-01  0.3449276E+00
         13   -1    0    0    0    0  0.00000000000E+00  0.00000000000E+00  0.14999999963E+04  0.15000000000E+04  0.10566000000E+00 0.  1.
        994   -1    0    0    0    0 -0.00000000000E+00 -0.00000000000E+00  0.11368683772E-12  0.17120000000E+03  0.17120000000E+03 0.  0.
         13    1    1    2    0    0 -0.40167162215E+01 -0.26801083027E+02  0.91443129373E+02  0.95374467936E+02  0.10566000000E+00 0.  1.
        994    1    1    2    0    0 -0.62950869076E+01  0.20040570083E+02  0.53892044740E+01  0.17256806221E+03  0.17120000000E+03 0.  0.
        998    1    1    2    0    0  0.10311803129E+02  0.67605129435E+01  0.14031676624E+04  0.14032574699E+04  0.10000000000E+02 0.  1.
</event>
<event>
 5    1  0.1321379E-008  0.3842340E+03  0.7957747E-01  0.3432927E+00
         13   -1    0    0    0    0  0.00000000000E+00  0.00000000000E+00  0.14999999963E+04  0.15000000000E+04  0.10566000000E+00 0. -1.
        994   -1    0    0    0    0 -0.00000000000E+00 -0.00000000000E+00  0.11368683772E-12  0.17120000000E+03  0.17120000000E+03 0.  0.
         13    1    1    2    0    0  0.21654593817E+02 -0.81837941109E+01  0.10310215739E+03  0.10566911536E+03  0.10566000000E+00 0. -1.
        994    1    1    2    0    0 -0.40158893577E+02  0.40159753054E+02  0.12718400612E+02  0.18082239964E+03  0.17120000000E+03 0.  0.
        998    1    1    2    0    0  0.18504299760E+02 -0.31975958943E+02  0.13841794383E+04  0.13847084850E+04  0.10000000000E+02 0. -1.
</event>
<event>
 5    1  0.1321379E-008  0.3821755E+03  0.7957747E-01  0.3441740E+00
         13   -1    0    0    0    0  0.00000000000E+00  0.00000000000E+00  0.14999999963E+04  0.15000000000E+04  0.10566000000E+00 0. -1.
        994   -1    0    0    0    0 -0.00000000000E+00 -0.00000000000E+00  0.11368683772E-12  0.17120000000E+03  0.17120000000E+03 0.  0.
         13    1    1    2    0    0 -0.20743931585E+02 -0.23899979844E+02  0.13046739498E+03  0.13425078045E+03  0.10566000000E+00 0. -1.
        994    1    1    2    0    0  0.37240296163E+02  0.38847970298E+02  0.12711200398E+02  0.17990836298E+03  0.17120000000E+03 0.  0.
        998    1    1    2    0    0 -0.16496364577E+02 -0.14947990454E+02  0.13568214009E+04  0.13570408566E+04  0.10000000000E+02 0. -1.
</event>
<event>
 5    1  0.1321379E-008  0.3804091E+03  0.7957747E-01  0.3449379E+00
         13   -1    0    0    0    0  0.00000000000E+00  0.00000000000E+00  0.14999999963E+04  0.15000000000E+04  0.10566000000E+00 0. -1.
        994   -1    0    0    0    0 -0.00000000000E+00 -0.00000000000E+00  0.11368683772E-12  0.17120000000E+03  0.17120000000E+03 0.  0.
         13    1    1    2    0    0  0.26283872225E+02  0.71642733174E+02  0.14994531338E+03  0.16824723274E+03  0.10566000000E+00 0. -1.
        994    1    1    2    0    0 -0.11415772667E+02 -0.84133628022E+02  0.43205102440E+02  0.19592066789E+03  0.17120000000E+03 0.  0.
        998    1    1    2    0    0 -0.14868099557E+02  0.12490894848E+02  0.13068495805E+04  0.13070320994E+04  0.10000000000E+02 0. -1.
</event>
<event>
 5    1  0.1321379E-008  0.3699522E+03  0.7957747E-01  0.3496111E+00
         13   -1    0    0    0    0  0.00000000000E+00  0.00000000000E+00  0.14999999963E+04  0.15000000000E+04  0.10566000000E+00 0.  1.
        994   -1    0    0    0    0 -0.00000000000E+00 -0.00000000000E+00  0.11368683772E-12  0.17120000000E+03  0.17120000000E+03 0.  0.
         13    1    1    2    0    0  0.71150228863E+02 -0.52046504225E+02  0.44981750087E+03  0.45837428911E+03  0.10566000000E+00 0.  1.
        994    1    1    2    0    0 -0.29989612958E+01  0.77295107640E+02  0.30280905457E+02  0.19028899251E+03  0.17120000000E+03 0.  0.
        998    1    1    2    0    0 -0.68151267567E+02 -0.25248603415E+02  0.10199015900E+04  0.10225367184E+04  0.10000000000E+02 0.  1.
</event>
<event>
 5    1  0.1321379E-008  0.3738664E+03  0.7957747E-01  0.3478308E+00
         13   -1    0    0    0    0  0.00000000000E+00  0.00000000000E+00  0.14999999963E+04  0.15000000000E+04  0.10566000000E+00 0. -1.
        994   -1    0    0    0    0 -0.00000000000E+00 -0.00000000000E+00  0.11368683772E-12  0.17120000000E+03  0.17120000000E+03 0.  0.
         13    1    1    2    0    0 -0.73962750853E+01 -0.83678777575E+01  0.52470943874E+01  0.12339749870E+02  0.10566000000E+00 0. -1.
        994    1    1    2    0    0  0.20125825366E+01  0.87193843661E+01  0.75352959495E+01  0.17159923903E+03  0.17120000000E+03 0.  0.
        998    1    1    2    0    0  0.53836925486E+01 -0.35150660858E+00  0.14872176059E+04  0.14872610111E+04  0.10000000000E+02 0. -1.
</event>
<event>
 5    1  0.1321379E-008  0.3711096E+03  0.7957747E-01  0.3490807E+00
         13   -1    0    0    0    0  0.00000000000E+00  0.00000000000E+00  0.14999999963E+04  0.15000000000E+04  0.10566000000E+00 0. -1.
        994   -1    0    0    0    0 -0.00000000000E+00 -0.00000000000E+00  0.11368683772E-12  0.17120000000E+03  0.17120000000E+03 0.  0.
         13    1    1    2    0    0 -0.52552865869E+02  0.40467153119E+02  0.24118764809E+03  0.25014173372E+03  0.10566000000E+00 0. -1.
        994    1    1    2    0    0 -0.10093296899E+02 -0.14428067029E+01  0.11891677185E+02  0.17191511952E+03  0.17120000000E+03 0.  0.
        998    1    1    2    0    0  0.62646162768E+02 -0.39024346416E+02  0.12469206710E+04  0.12491431468E+04  0.10000000000E+02 0. -1.
</event>
<event>
 5    1  0.1321379E-008  0.3722525E+03  0.7957747E-01  0.3485602E+00
         13   -1    0    0    0    0  0.00000000000E+00  0.00000000000E+00  0.14999999963E+04  0.15000000000E+04  0.10566000000E+00 0. -1.
        994   -1    0    0    0    0 -0.00000000000E+00 -0.00000000000E+00  0.11368683772E-12  0.17120000000E+03  0.17120000000E+03 0.  0.
         13    1    1    2    0    0  0.66279974493E+02  0.27176832638E+02  0.28638380571E+03  0.29520723329E+03  0.10566000000E+00 0. -1.
        994    1    1    2    0    0  0.13362876249E+02 -0.17828198540E+01  0.12775532369E+02  0.17220452705E+03  0.17120000000E+03 0.  0.
        998    1    1    2    0    0 -0.79642850742E+02 -0.25394012784E+02  0.12008406582E+04  0.12037882397E+04  0.10000000000E+02 0. -1.
</event>
<event>
 5    1  0.1321379E-008  0.3829225E+03  0.7957747E-01  0.3438531E+00
         13   -1    0    0    0    0  0.00000000000E+00  0.00000000000E+00  0.14999999963E+04  0.15000000000E+04  0.10566000000E+00 0. -1.
        994   -1    0    0    0    0 -0.00000000000E+00 -0.00000000000E+00  0.11368683772E-12  0.17120000000E+03  0.17120000000E+03 0.  0.
         13    1    1    2    0    0  0.32878971897E+01  0.27762087453E+02  0.16280880898E+03  0.16519159547E+03  0.10566000000E+00 0. -1.
        994    1    1    2    0    0 -0.29577663144E+01 -0.29811684719E+01  0.27235082716E+01  0.17127315389E+03  0.17120000000E+03 0.  0.
        998    1    1    2    0    0 -0.33013087532E+00 -0.24780918981E+02  0.13344676790E+04  0.13347352506E+04  0.10000000000E+02 0. -1.
</event>
<event>
 5    1  0.1321379E-008  0.4090888E+03  0.7957747E-01  0.3333521E+00
         13   -1    0    0    0    0  0.00000000000E+00  0.00000000000E+00  0.14999999963E+04  0.15000000000E+04  0.10566000000E+00 0. -1.
        994   -1    0    0    0    0 -0.00000000000E+00 -0.00000000000E+00  0.11368683772E-12  0.17120000000E+03  0.17120000000E+03 0.  0.
         13    1    1    2    0    0 -0.63780150068E+02  0.38564111329E+02  0.70001492221E+02  0.10225125086E+03  0.10566000000E+00 0. -1.
        994    1    1    2    0    0  0.60554225083E+02 -0.38351442354E+02  0.54535535579E+02  0.19344563047E+03  0.17120000000E+03 0.  0.
        998    1    1    2    0    0  0.32259249850E+01 -0.21266897438E+00  0.13754629685E+04  0.13755031187E+04  0.10000000000E+02 0. -1.
</event>
<event>
 5    1  0.1321379E-008  0.3849406E+03  0.7957747E-01  0.3429924E+00
         13   -1    0    0    0    0  0.00000000000E+00  0.00000000000E+00  0.14999999963E+04  0.15000000000E+04  0.10566000000E+00 0.  1.
        994   -1    0    0    0    0 -0.00000000000E+00 -0.00000000000E+00  0.11368683772E-12  0.17120000000E+03  0.17120000000E+03 0.  0.
         13    1    1    2    0    0 -0.12962496541E+02 -0.16805948955E+02  0.12090900860E+03  0.12275775235E+03  0.10566000000E+00 0.  1.
        994    1    1    2    0    0 -0.64862735633E+01  0.41203990487E+02  0.74035218486E+01  0.17636352433E+03  0.17120000000E+03 0.  0.
        998    1    1    2    0    0  0.19448770105E+02 -0.24398041532E+02  0.13716874658E+04  0.13720787233E+04  0.10000000000E+02 0.  1.
</event>
<event>
 5    1  0.1321379E-008  0.3819867E+03  0.7957747E-01  0.3442553E+00
         13   -1    0    0    0    0  0.00000000000E+00  0.00000000000E+00  0.14999999963E+04  0.15000000000E+04  0.10566000000E+00 0. -1.
        994   -1    0    0    0    0 -0.00000000000E+00 -0.00000000000E+00  0.11368683772E-12  0.17120000000E+03  0.17120000000E+03 0.  0.
         13    1    1    2    0    0  0.15082421388E+02  0.21391882268E+02  0.10947348552E+03  0.11255908341E+03  0.10566000000E+00 0. -1.
        994    1    1    2    0    0 -0.80984662180E+01 -0.11648298269E+02  0.38023505007E+01  0.17182888546E+03  0.17120000000E+03 0.  0.
        998    1    1    2    0    0 -0.69839551698E+01 -0.97435839983E+01  0.13867241603E+04  0.13868120311E+04  0.10000000000E+02 0. -1.
</event>
<event>
 5    1  0.1321379E-008  0.3842185E+03  0.7957747E-01  0.3432993E+00
         13   -1    0    0    0    0  0.00000000000E+00  0.00000000000E+00  0.14999999963E+04  0.15000000000E+04  0.10566000000E+00 0. -1.
        994   -1    0    0    0    0 -0.00000000000E+00 -0.00000000000E+00  0.11368683772E-12  0.17120000000E+03  0.17120000000E+03 0.  0.
         13    1    1    2    0    0 -0.21260408225E+02  0.87453489531E+00  0.10101266950E+03  0.10322955164E+03  0.10566000000E+00 0. -1.
        994    1    1    2    0    0  0.27577443233E+02 -0.66709499495E+01  0.46772924243E+01  0.17359819703E+03  0.17120000000E+03 0.  0.
        998    1    1    2    0    0 -0.63170350080E+01  0.57964150542E+01  0.13943100344E+04  0.13943722513E+04  0.10000000000E+02 0. -1.
</event>
<event>
 5    1  0.1321379E-008  0.3828210E+03  0.7957747E-01  0.3438966E+00
         13   -1    0    0    0    0  0.00000000000E+00  0.00000000000E+00  0.14999999963E+04  0.15000000000E+04  0.10566000000E+00 0.  1.
        994   -1    0    0    0    0 -0.00000000000E+00 -0.00000000000E+00  0.11368683772E-12  0.17120000000E+03  0.17120000000E+03 0.  0.
         13    1    1    2    0    0 -0.77469208780E+01  0.19950717426E+02  0.85973939738E+02  0.88597829472E+02  0.10566000000E+00 0.  1.
        994    1    1    2    0    0  0.91716298228E+01 -0.55669557704E+01  0.30971705388E+01  0.17156381395E+03  0.17120000000E+03 0.  0.
        998    1    1    2    0    0 -0.14247089448E+01 -0.14383761656E+02  0.14109288860E+04  0.14110383566E+04  0.10000000000E+02 0.  1.
</event>
<event>
 5    1  0.1321379E-008  0.3828908E+03  0.7957747E-01  0.3438667E+00
         13   -1    0    0    0    0  0.00000000000E+00  0.00000000000E+00  0.14999999963E+04  0.15000000000E+04  0.10566000000E+00 0.  1.
        994   -1    0    0    0    0 -0.00000000000E+00 -0.00000000000E+00  0.11368683772E-12  0.17120000000E+03  0.17120000000E+03 0.  0.
         13    1    1    2    0    0  0.50557834610E+01 -0.16723884272E+02  0.59035196298E+02  0.61566344845E+02  0.10566000000E+00 0.  1.
        994    1    1    2    0    0 -0.67981555234E+01 -0.98243740796E+00  0.28371870229E+01  0.17136122587E+03  0.17120000000E+03 0.  0.
        998    1    1    2    0    0  0.17423720623E+01  0.17706321680E+02  0.14381276130E+04  0.14382724293E+04  0.10000000000E+02 0.  1.
</event>
<event>
 5    1  0.1321379E-008  0.3824088E+03  0.7957747E-01  0.3440737E+00
         13   -1    0    0    0    0  0.00000000000E+00  0.00000000000E+00  0.14999999963E+04  0.15000000000E+04  0.10566000000E+00 0. -1.
        994   -1    0    0    0    0 -0.00000000000E+00 -0.00000000000E+00  0.11368683772E-12  0.17120000000E+03  0.17120000000E+03 0.  0.
         13    1    1    2    0    0 -0.23355158696E+02  0.22792486102E+01  0.82514746071E+02  0.85786670848E+02  0.10566000000E+00 0. -1.
        994    1    1    2    0    0  0.37514232764E+02 -0.22327969892E+01  0.76202408560E+01  0.17544175989E+03  0.17120000000E+03 0.  0.
        998    1    1    2    0    0 -0.14159074068E+02 -0.46451621007E-01  0.14098650094E+04  0.14099715693E+04  0.10000000000E+02 0. -1.
</event>
<event>
 5    1  0.1321379E-008  0.3840826E+03  0.7957747E-01  0.3433572E+00
         13   -1    0    0    0    0  0.00000000000E+00  0.00000000000E+00  0.14999999963E+04  0.15000000000E+04  0.10566000000E+00 0. -1.
        994   -1    0    0    0    0 -0.00000000000E+00 -0.00000000000E+00  0.11368683772E-12  0.17120000000E+03  0.17120000000E+03 0.  0.
         13    1    1    2    0    0  0.59048635823E+01  0.82394392633E+01  0.22426265343E+02  0.24611060818E+02  0.10566000000E+00 0. -1.
        994    1    1    2    0    0 -0.99367794558E+01 -0.25195506414E+02  0.45096367997E+01  0.17338780221E+03  0.17120000000E+03 0.  0.
        998    1    1    2    0    0  0.40319158735E+01  0.16956067151E+02  0.14730640941E+04  0.14732011370E+04  0.10000000000E+02 0. -1.
</event>
<event>
 5    1  0.1321379E-008  0.3804419E+03  0.7957747E-01  0.3449237E+00
         13   -1    0    0    0    0  0.00000000000E+00  0.00000000000E+00  0.14999999963E+04  0.15000000000E+04  0.10566000000E+00 0.  1.
        994   -1    0    0    0    0 -0.00000000000E+00 -0.00000000000E+00  0.11368683772E-12  0.17120000000E+03  0.17120000000E+03 0.  0.
         13    1    1    2    0    0 -0.94223232087E+01 -0.43947505877E+01  0.12045253875E+02  0.15912049281E+02  0.10566000000E+00 0.  1.
        994    1    1    2    0    0  0.10240675538E+02  0.19319519006E+01  0.42728668906E+01  0.17157010598E+03  0.17120000000E+03 0.  0.
        998    1    1    2    0    0 -0.81835232975E+00  0.24627986871E+01  0.14836818755E+04  0.14837178447E+04  0.10000000000E+02 0.  1.
</event>
<event>
 5    1  0.1321379E-008  0.3686116E+03  0.7957747E-01  0.3502296E+00
         13   -1    0    0    0    0  0.00000000000E+00  0.00000000000E+00  0.14999999963E+04  0.15000000000E+04  0.10566000000E+00 0.  1.
        994   -1    0    0    0    0 -0.00000000000E+00 -0.00000000000E+00  0.11368683772E-12  0.17120000000E+03  0.17120000000E+03 0.  0.
         13    1    1    2    0    0  0.38425082182E+01  0.10318166555E+02  0.11544626510E+01  0.11071286218E+02  0.10566000000E+00 0.  1.
        994    1    1    2    0    0 -0.45501815861E+01 -0.10683736720E+02  0.10675785527E+02  0.17192515459E+03  0.17120000000E+03 0.  0.
        998    1    1    2    0    0  0.70767336791E+00  0.36557016428E+00  0.14881697481E+04  0.14882035592E+04  0.10000000000E+02 0.  1.
</event>
<event>
 5    1  0.1321379E-008  0.3830782E+03  0.7957747E-01  0.3437864E+00
         13   -1    0    0    0    0  0.00000000000E+00  0.00000000000E+00  0.14999999963E+04  0.15000000000E+04  0.10566000000E+00 0. -1.
        994   -1    0    0    0    0 -0.00000000000E+00 -0.00000000000E+00  0.11368683772E-12  0.17120000000E+03  0.17120000000E+03 0.  0.
         13    1    1    2    0    0 -0.82900764370E+01  0.16747016358E+02  0.65687472102E+02  0.68293799714E+02  0.10566000000E+00 0. -1.
        994    1    1    2    0    0  0.42265381886E+01 -0.14824741665E+02  0.33740687879E+01  0.17192574249E+03  0.17120000000E+03 0.  0.
        998    1    1    2    0    0  0.40635382484E+01 -0.19222746934E+01  0.14309384554E+04  0.14309804578E+04  0.10000000000E+02 0. -1.
</event>
<event>
 5    1  0.1321379E-008  0.3808169E+03  0.7957747E-01  0.3447609E+00
         13   -1    0    0    0    0  0.00000000000E+00  0.00000000000E+00  0.14999999963E+04  0.15000000000E+04  0.10566000000E+00 0. -1.
        994   -1    0    0    0    0 -0.00000000000E+00 -0.00000000000E+00  0.11368683772E-12  0.17120000000E+03  0.17120000000E+03 0.  0.
         13    1    1    2    0    0 -0.18278300560E+02  0.38888296164E+01  0.44607998537E+02  0.48364283977E+02  0.10566000000E+00 0. -1.
        994    1    1    2    0    0  0.16632604389E+02 -0.80723091132E+01  0.48617065996E+01  0.17226398897E+03  0.17120000000E+03 0.  0.
        998    1    1    2    0    0  0.16456961710E+01  0.41834794968E+01  0.14505302911E+04  0.14505717271E+04  0.10000000000E+02 0. -1.
</event>
<event>
 5    1  0.1321379E-008  0.3799730E+03  0.7957747E-01  0.3451276E+00
         13   -1    0    0    0    0  0.00000000000E+00  0.00000000000E+00  0.14999999963E+04  0.15000000000E+04  0.10566000000E+00 0. -1.
        994   -1    0    0    0    0 -0.00000000000E+00 -0.00000000000E+00  0.11368683772E-12  0.17120000000E+03  0.17120000000E+03 0.  0.
         13    1    1    2    0    0  0.94603833058E+01  0.26405218575E+02  0.10140379535E+03  0.10521157396E+03  0.10566000000E+00 0. -1.
        994    1    1    2    0    0  0.52122122111E+01 -0.34395150236E+01  0.42771778769E+01  0.17136724212E+03  0.17120000000E+03 0.  0.
        998    1    1    2    0    0 -0.14672595517E+02 -0.22965703551E+02  0.13943190231E+04  0.13946211839E+04  0.10000000000E+02 0. -1.
</event>
<event>
 5    1  0.1321379E-008  0.3831715E+03  0.7957747E-01  0.3437464E+00
         13   -1    0    0    0    0  0.00000000000E+00  0.00000000000E+00  0.14999999963E+04  0.15000000000E+04  0.10566000000E+00 0.  1.
        994   -1    0    0    0    0 -0.00000000000E+00 -0.00000000000E+00  0.11368683772E-12  0.17120000000E+03  0.17120000000E+03 0.  0.
         13    1    1    2    0    0 -0.15685720649E+02  0.12766312352E+02  0.87787066832E+02  0.90086629587E+02  0.10566000000E+00 0.  1.
        994    1    1    2    0    0 -0.64447201274E+01 -0.34053237087E+01  0.27164631271E+01  0.17137663148E+03  0.17120000000E+03 0.  0.
        998    1    1    2    0    0  0.22130440776E+02 -0.93609886431E+01  0.14094964663E+04  0.14097367389E+04  0.10000000000E+02 0.  1.
</event>
<event>
 5    1  0.1321379E-008  0.3803926E+03  0.7957747E-01  0.3449451E+00
         13   -1    0    0    0    0  0.00000000000E+00  0.00000000000E+00  0.14999999963E+04  0.15000000000E+04  0.10566000000E+00 0.  1.
        994   -1    0    0    0    0 -0.00000000000E+00 -0.00000000000E+00  0.11368683772E-12  0.17120000000E+03  0.17120000000E+03 0.  0.
         13    1    1    2    0    0 -0.18917174930E+02 -0.42723218077E+01  0.47523086990E+02  0.51328035245E+02  0.10566000000E+00 0.  1.
        994    1    1    2    0    0  0.55124898621E+01  0.25489537919E+01  0.40582685902E+01  0.17135575349E+03  0.17120000000E+03 0.  0.
        998    1    1    2    0    0  0.13404685067E+02  0.17233680158E+01  0.14484186407E+04  0.14485162113E+04  0.10000000000E+02 0.  1.
</event>
<event>
 5    1  0.1321379E-008  0.3817619E+03  0.7957747E-01  0.3443523E+00
         13   -1    0    0    0    0  0.00000000000E+00  0.00000000000E+00  0.14999999963E+04  0.15000000000E+04  0.10566000000E+00 0. -1.
        994   -1    0    0    0    0 -0.00000000000E+00 -0.00000000000E+00  0.11368683772E-12  0.17120000000E+03  0.17120000000E+03 0.  0.
         13    1    1    2    0    0 -0.62254083499E+01 -0.10198698204E+02  0.21656789475E+02  0.24734527458E+02  0.10566000000E+00 0. -1.
        994    1    1    2    0    0  0.49710437713E+01 -0.11103472428E+02  0.37384328219E+01  0.17167240389E+03  0.17120000000E+03 0.  0.
        998    1    1    2    0    0  0.12543645786E+01  0.21302170633E+02  0.14746047740E+04  0.14747930687E+04  0.10000000000E+02 0. -1.
</event>
<event>
 5    1  0.1321379E-008  0.3832644E+03  0.7957747E-01  0.3437067E+00
         13   -1    0    0    0    0  0.00000000000E+00  0.00000000000E+00  0.14999999963E+04  0.15000000000E+04  0.10566000000E+00 0.  1.
        994   -1    0    0    0    0 -0.00000000000E+00 -0.00000000000E+00  0.11368683772E-12  0.17120000000E+03  0.17120000000E+03 0.  0.
         13    1    1    2    0    0 -0.65698964535E+01 -0.77578255741E+01  0.19784476178E+02  0.22243742012E+02  0.10566000000E+00 0.  1.
        994    1    1    2    0    0  0.11389864759E+02  0.23480841783E+00  0.29236560891E+01  0.17160353120E+03  0.17120000000E+03 0.  0.
        998    1    1    2    0    0 -0.48199683053E+01  0.75230171562E+01  0.14772918640E+04  0.14773527268E+04  0.10000000000E+02 0.  1.
</event>
<event>
 5    1  0.1321379E-008  0.3828564E+03  0.7957747E-01  0.3438815E+00
         13   -1    0    0    0    0  0.00000000000E+00  0.00000000000E+00  0.14999999963E+04  0.15000000000E+04  0.10566000000E+00 0. -1.
        994   -1    0    0    0    0 -0.00000000000E+00 -0.00000000000E+00  0.11368683772E-12  0.17120000000E+03  0.17120000000E+03 0.  0.
         13    1    1    2    0    0 -0.11459001934E+02  0.13681880756E+02  0.54756365770E+02  0.57591434629E+02  0.10566000000E+00 0. -1.
        994    1    1    2    0    0  0.23246383081E+02 -0.13025723812E+02  0.50532151246E+01  0.17333504778E+03  0.17120000000E+03 0.  0.
        998    1    1    2    0    0 -0.11787381147E+02 -0.65615694311E+00  0.14401904154E+04  0.14402735176E+04  0.10000000000E+02 0. -1.
</event>
<event>
 5    1  0.1321379E-008  0.3825636E+03  0.7957747E-01  0.3440071E+00
         13   -1    0    0    0    0  0.00000000000E+00  0.00000000000E+00  0.14999999963E+04  0.15000000000E+04  0.10566000000E+00 0.  1.
        994   -1    0    0    0    0 -0.00000000000E+00 -0.00000000000E+00  0.11368683772E-12  0.17120000000E+03  0.17120000000E+03 0.  0.
         13    1    1    2    0    0  0.60325284570E+01 -0.17960953009E+02  0.57788407818E+02  0.60815281589E+02  0.10566000000E+00 0.  1.
        994    1    1    2    0    0 -0.75137454276E+01  0.27224627185E+02  0.54931376711E+01  0.17360083887E+03  0.17120000000E+03 0.  0.
        998    1    1    2    0    0  0.14812169706E+01 -0.92636741762E+01  0.14367184508E+04  0.14367838795E+04  0.10000000000E+02 0.  1.
</event>
<event>
 5    1  0.1321379E-008  0.3863647E+03  0.7957747E-01  0.3423905E+00
         13   -1    0    0    0    0  0.00000000000E+00  0.00000000000E+00  0.14999999963E+04  0.15000000000E+04  0.10566000000E+00 0. -1.
        994   -1    0    0    0    0 -0.00000000000E+00 -0.00000000000E+00  0.11368683772E-12  0.17120000000E+03  0.17120000000E+03 0.  0.
         13    1    1    2    0    0  0.10487325031E+02 -0.24745178183E+00  0.61333592953E+02  0.62224320062E+02  0.10566000000E+00 0. -1.
        994    1    1    2    0    0 -0.16230967830E+01  0.87727952304E+01  0.12147291043E+01  0.17143661204E+03  0.17120000000E+03 0.  0.
        998    1    1    2    0    0 -0.88642282482E+01 -0.85253434486E+01  0.14374516742E+04  0.14375390679E+04  0.10000000000E+02 0. -1.
</event>
<event>
 5    1  0.1321379E-008  0.3778151E+03  0.7957747E-01  0.3460728E+00
         13   -1    0    0    0    0  0.00000000000E+00  0.00000000000E+00  0.14999999963E+04  0.15000000000E+04  0.10566000000E+00 0.  1.
        994   -1    0    0    0    0 -0.00000000000E+00 -0.00000000000E+00  0.11368683772E-12  0.17120000000E+03  0.17120000000E+03 0.  0.
         13    1    1    2    0    0  0.21726653630E+02  0.93880877225E+01  0.53729136098E+02  0.58711284256E+02  0.10566000000E+00 0.  1.
        994    1    1    2    0    0 -0.10386175652E+02  0.16039174129E+02  0.64705859229E+01  0.17238455915E+03  0.17120000000E+03 0.  0.
        998    1    1    2    0    0 -0.11340477978E+02 -0.25427261852E+02  0.14398002743E+04  0.14401041566E+04  0.10000000000E+02 0.  1.
</event>
<event>
 5    1  0.1321379E-008  0.3817437E+03  0.7957747E-01  0.3443601E+00
         13   -1    0    0    0    0  0.00000000000E+00  0.00000000000E+00  0.14999999963E+04  0.15000000000E+04  0.10566000000E+00 0.  1.
        994   -1    0    0    0    0 -0.00000000000E+00 -0.00000000000E+00  0.11368683772E-12  0.17120000000E+03  0.17120000000E+03 0.  0.
         13    1    1    2    0    0  0.17777208643E+01 -0.10037358601E+02  0.14416504382E+02  0.17656602782E+02  0.10566000000E+00 0.  1.
        994    1    1    2    0    0 -0.34400436271E+01  0.11772370344E+02  0.37556240604E+01  0.17167983957E+03  0.17120000000E+03 0.  0.
        998    1    1    2    0    0  0.16623227628E+01 -0.17350117428E+01  0.14818278678E+04  0.14818635576E+04  0.10000000000E+02 0.  1.
</event>
<event>
 5    1  0.1321379E-008  0.3780801E+03  0.7957747E-01  0.3459561E+00
         13   -1    0    0    0    0  0.00000000000E+00  0.00000000000E+00  0.14999999963E+04  0.15000000000E+04  0.10566000000E+00 0. -1.
        994   -1    0    0    0    0 -0.00000000000E+00 -0.00000000000E+00  0.11368683772E-12  0.17120000000E+03  0.17120000000E+03 0.  0.
         13    1    1    2    0    0 -0.31982075242E+02 -0.16006037137E+02  0.13041491365E+03  0.13522983113E+03  0.10566000000E+00 0. -1.
        994    1    1    2    0    0  0.12790617605E+02 -0.44805716489E+00  0.56567044679E+01  0.17177089090E+03  0.17120000000E+03 0.  0.
        998    1    1    2    0    0  0.19191457637E+02  0.16454094301E+02  0.13639283782E+04  0.13641992780E+04  0.10000000000E+02 0. -1.
</event>
<event>
 5    1  0.1321379E-008  0.3761625E+03  0.7957747E-01  0.3468040E+00
         13   -1    0    0    0    0  0.00000000000E+00  0.00000000000E+00  0.14999999963E+04  0.15000000000E+04  0.10566000000E+00 0. -1.
        994   -1    0    0    0    0 -0.00000000000E+00 -0.00000000000E+00  0.11368683772E-12  0.17120000000E+03  0.17120000000E+03 0.  0.
         13    1    1    2    0    0  0.64998026169E+02 -0.26132414934E+02  0.33092087644E+03  0.33825476219E+03  0.10566000000E+00 0. -1.
        994    1    1    2    0    0 -0.62914364845E+02  0.14684501725E+02  0.20348697586E+02  0.18411236077E+03  0.17120000000E+03 0.  0.
        998    1    1    2    0    0 -0.20836613245E+01  0.11447913208E+02  0.11487304223E+04  0.11488328770E+04  0.10000000000E+02 0. -1.
</event>
<event>
 5    1  0.1321379E-008  0.3853801E+03  0.7957747E-01  0.3428062E+00
         13   -1    0    0    0    0  0.00000000000E+00  0.00000000000E+00  0.14999999963E+04  0.15000000000E+04  0.10566000000E+00 0. -1.
        994   -1    0    0    0    0 -0.00000000000E+00 -0.00000000000E+00  0.11368683772E-12  0.17120000000E+03  0.17120000000E+03 0.  0.
         13    1    1    2    0    0  0.79582206776E+01  0.12817265694E+02  0.75959623675E+02  0.77443470797E+02  0.10566000000E+00 0. -1.
        994    1    1    2    0    0 -0.89735554951E+01 -0.12990157621E+02  0.22607095341E+01  0.17194132633E+03  0.17120000000E+03 0.  0.
        998    1    1    2    0    0  0.10153348175E+01  0.17289192670E+00  0.14217796631E+04  0.14218152029E+04  0.10000000000E+02 0.  0.
</event>
<event>
 5    1  0.1321379E-008  0.3836284E+03  0.7957747E-01  0.3435510E+00
         13   -1    0    0    0    0  0.00000000000E+00  0.00000000000E+00  0.14999999963E+04  0.15000000000E+04  0.10566000000E+00 0.  1.
        994   -1    0    0    0    0 -0.00000000000E+00 -0.00000000000E+00  0.11368683772E-12  0.17120000000E+03  0.17120000000E+03 0.  0.
         13    1    1    2    0    0 -0.66864654881E+01  0.98867772647E+01  0.30035209116E+02  0.32319995917E+02  0.10566000000E+00 0.  1.
        994    1    1    2    0    0  0.88213646585E+01 -0.45105619426E+01  0.26369810039E+01  0.17150672090E+03  0.17120000000E+03 0.  0.
        998    1    1    2    0    0 -0.21348991704E+01 -0.53762153221E+01  0.14673278062E+04  0.14673732832E+04  0.10000000000E+02 0.  1.
</event>
<event>
 5    1  0.1321379E-008  0.3809605E+03  0.7957747E-01  0.3446987E+00
         13   -1    0    0    0    0  0.00000000000E+00  0.00000000000E+00  0.14999999963E+04  0.15000000000E+04  0.10566000000E+00 0.  1.
        994   -1    0    0    0    0 -0.00000000000E+00 -0.00000000000E+00  0.11368683772E-12  0.17120000000E+03  0.17120000000E+03 0.  0.
         13    1    1    2    0    0  0.22341293380E+02  0.49071408539E+01  0.67883642575E+02  0.71633885240E+02  0.10566000000E+00 0.  1.
        994    1    1    2    0    0 -0.21589861709E+02 -0.72318185237E+01  0.53785501149E+01  0.17279117492E+03  0.17120000000E+03 0.  0.
        998    1    1    2    0    0 -0.75143167077E+00  0.23246776698E+01  0.14267378036E+04  0.14267749398E+04  0.10000000000E+02 0.  1.
</event>
<event>
 5    1  0.1321379E-008  0.3712971E+03  0.7957747E-01  0.3489951E+00
         13   -1    0    0    0    0  0.00000000000E+00  0.00000000000E+00  0.14999999963E+04  0.15000000000E+04  0.10566000000E+00 0. -1.
        994   -1    0    0    0    0 -0.00000000000E+00 -0.00000000000E+00  0.11368683772E-12  0.17120000000E+03  0.17120000000E+03 0.  0.
         13    1    1    2    0    0 -0.84271141291E+01 -0.16313394213E+02  0.15773206249E+02  0.24206368639E+02  0.10566000000E+00 0. -1.
        994    1    1    2    0    0  0.63960859019E+01  0.14830660508E+02  0.94910963473E+01  0.17222188977E+03  0.17120000000E+03 0.  0.
        998    1    1    2    0    0  0.20310282272E+01  0.14827337051E+01  0.14747356937E+04  0.14747717416E+04  0.10000000000E+02 0. -1.
</event>
<event>
 5    1  0.1321379E-008  0.3809038E+03  0.7957747E-01  0.3447233E+00
         13   -1    0    0    0    0  0.00000000000E+00  0.00000000000E+00  0.14999999963E+04  0.15000000000E+04  0.10566000000E+00 0. -1.
        994   -1    0    0    0    0 -0.00000000000E+00 -0.00000000000E+00  0.11368683772E-12  0.17120000000E+03  0.17120000000E+03 0.  0.
         13    1    1    2    0    0  0.60050543090E+01  0.32250266054E+02  0.15925052393E+03  0.16259422152E+03  0.10566000000E+00 0. -1.
        994    1    1    2    0    0  0.50238415594E+01 -0.70651935531E+01  0.39281484109E+01  0.17146435867E+03  0.17120000000E+03 0.  0.
        998    1    1    2    0    0 -0.11028895868E+02 -0.25185072501E+02  0.13368213239E+04  0.13371414198E+04  0.10000000000E+02 0. -1.
</event>
<event>
 5    1  0.1321379E-008  0.3832064E+03  0.7957747E-01  0.3437315E+00
         13   -1    0    0    0    0  0.00000000000E+00  0.00000000000E+00  0.14999999963E+04  0.15000000000E+04  0.10566000000E+00 0.  1.
        994   -1    0    0    0    0 -0.00000000000E+00 -0.00000000000E+00  0.11368683772E-12  0.17120000000E+03  0.17120000000E+03 0.  0.
         13    1    1    2    0    0  0.20974349238E+02  0.18502559152E+02  0.13747471426E+03  0.14029104122E+03  0.10566000000E+00 0.  1.
        994    1    1    2    0    0 -0.22827724399E+02 -0.23049517511E+02  0.60122101208E+01  0.17435014175E+03  0.17120000000E+03 0.  0.
        998    1    1    2    0    0  0.18533751612E+01  0.45469583591E+01  0.13565130719E+04  0.13565588170E+04  0.10000000000E+02 0.  1.
</event>
<event>
 5    1  0.1321379E-008  0.3720782E+03  0.7957747E-01  0.3486394E+00
         13   -1    0    0    0    0  0.00000000000E+00  0.00000000000E+00  0.14999999963E+04  0.15000000000E+04  0.10566000000E+00 0. -1.
        994   -1    0    0    0    0 -0.00000000000E+00 -0.00000000000E+00  0.11368683772E-12  0.17120000000E+03  0.17120000000E+03 0.  0.
         13    1    1    2    0    0 -0.36269346837E+02 -0.79936440132E+02  0.30361486098E+03  0.31604951345E+03  0.10566000000E+00 0. -1.
        994    1    1    2    0    0  0.95402937432E+01  0.12422063344E+03  0.63513783968E+02  0.22105479803E+03  0.17120000000E+03 0.  0.
        998    1    1    2    0    0  0.26729053094E+02 -0.44284193308E+02  0.11328713513E+04  0.11340956885E+04  0.10000000000E+02 0. -1.
</event>
<event>
 5    1  0.1321379E-008  0.3856769E+03  0.7957747E-01  0.3426806E+00
         13   -1    0    0    0    0  0.00000000000E+00  0.00000000000E+00  0.14999999963E+04  0.15000000000E+04  0.10566000000E+00 0.  1.
        994   -1    0    0    0    0 -0.00000000000E+00 -0.00000000000E+00  0.11368683772E-12  0.17120000000E+03  0.17120000000E+03 0.  0.
         13    1    1    2    0    0 -0.54777535858E-01 -0.10949630431E+02  0.45688689907E+02  0.46982602702E+02  0.10566000000E+00 0.  1.
        994    1    1    2    0    0 -0.61964100051E+01  0.10815436800E+02  0.18044387318E+01  0.17166264931E+03  0.17120000000E+03 0.  0.
        998    1    1    2    0    0  0.62511875410E+01  0.13419363005E+00  0.14525068676E+04  0.14525547480E+04  0.10000000000E+02 0.  1.
</event>
<event>
 5    1  0.1321379E-008  0.2841400E+03  0.7957747E-01  0.4016183E+00
         13   -1    0    0    0    0  0.00000000000E+00  0.00000000000E+00  0.14999999963E+04  0.15000000000E+04  0.10566000000E+00 0.  1.
        994   -1    0    0    0    0 -0.00000000000E+00 -0.00000000000E+00  0.11368683772E-12  0.17120000000E+03  0.17120000000E+03 0.  0.
         13    1    1    2    0    0 -0.62256460526E+02  0.15158940145E+03  0.59049573638E+03  0.61281354371E+03  0.10566000000E+00 0.  1.
        994    1    1    2    0    0  0.29518053280E+02 -0.13975578782E+03  0.93819200450E+02  0.24189766033E+03  0.17120000000E+03 0.  0.
        998    1    1    2    0    0  0.32738407246E+02 -0.11833613621E+02  0.81568505945E+03  0.81648879596E+03  0.10000000000E+02 0.  1.
</event>
<event>
 5    1  0.1321379E-008  0.3846032E+03  0.7957747E-01  0.3431357E+00
         13   -1    0    0    0    0  0.00000000000E+00  0.00000000000E+00  0.14999999963E+04  0.15000000000E+04  0.10566000000E+00 0.  1.
        994   -1    0    0    0    0 -0.00000000000E+00 -0.00000000000E+00  0.11368683772E-12  0.17120000000E+03  0.17120000000E+03 0.  0.
         13    1    1    2    0    0  0.96940030892E+01 -0.70713388405E+01  0.41644669758E+02  0.43338980286E+02  0.10566000000E+00 0.  1.
        994    1    1    2    0    0  0.44600989774E+01 -0.19805249216E+01  0.19056766711E+01  0.17128014060E+03  0.17120000000E+03 0.  0.
        998    1    1    2    0    0 -0.14154102067E+02  0.90518637621E+01  0.14564496498E+04  0.14565808791E+04  0.10000000000E+02 0.  1.
</event>
<event>
 5    1  0.1321379E-008  0.3702207E+03  0.7957747E-01  0.3494877E+00
         13   -1    0    0    0    0  0.00000000000E+00  0.00000000000E+00  0.14999999963E+04  0.15000000000E+04  0.10566000000E+00 0.  1.
        994   -1    0    0    0    0 -0.00000000000E+00 -0.00000000000E+00  0.11368683772E-12  0.17120000000E+03  0.17120000000E+03 0.  0.
         13    1    1    2    0    0  0.25138697441E+02  0.58744308049E+01  0.34045267277E+02  0.42726507397E+02  0.10566000000E+00 0.  1.
        994    1    1    2    0    0 -0.43685828366E+01  0.10321229150E+02  0.95878657136E+01  0.17183416266E+03  0.17120000000E+03 0.  0.
        998    1    1    2    0    0 -0.20770114605E+02 -0.16195659955E+02  0.14563668633E+04  0.14566393299E+04  0.10000000000E+02 0.  1.
</event>
<event>
 5    1  0.1321379E-008  0.3684860E+03  0.7957747E-01  0.3502878E+00
         13   -1    0    0    0    0  0.00000000000E+00  0.00000000000E+00  0.14999999963E+04  0.15000000000E+04  0.10566000000E+00 0. -1.
        994   -1    0    0    0    0 -0.00000000000E+00 -0.00000000000E+00  0.11368683772E-12  0.17120000000E+03  0.17120000000E+03 0.  0.
         13    1    1    2    0    0 -0.19859096006E+00  0.27460940775E+02  0.32774704642E+02  0.42759035712E+02  0.10566000000E+00 0. -1.
        994    1    1    2    0    0  0.79085180887E+01 -0.22717138126E+02  0.12155252445E+02  0.17330840483E+03  0.17120000000E+03 0.  0.
        998    1    1    2    0    0 -0.77099271287E+01 -0.47438026495E+01  0.14550700392E+04  0.14551325595E+04  0.10000000000E+02 0. -1.
</event>
<event>
 5    1  0.1321379E-008  0.3959878E+03  0.7957747E-01  0.3384368E+00
         13   -1    0    0    0    0  0.00000000000E+00  0.00000000000E+00  0.14999999963E+04  0.15000000000E+04  0.10566000000E+00 0.  1.
        994   -1    0    0    0    0 -0.00000000000E+00 -0.00000000000E+00  0.11368683772E-12  0.17120000000E+03  0.17120000000E+03 0.  0.
         13    1    1    2    0    0 -0.56137305022E+02 -0.67018723525E+02  0.15859255799E+03  0.18109256454E+03  0.10566000000E+00 0.  1.
        994    1    1    2    0    0  0.83953088227E+02 -0.34695540937E+02  0.57948871253E+02  0.20228547467E+03  0.17120000000E+03 0.  0.
        998    1    1    2    0    0 -0.27815783205E+02  0.10171426446E+03  0.12834585670E+04  0.12878219608E+04  0.10000000000E+02 0.  1.
</event>
<event>
 5    1  0.1321379E-008  0.3810013E+03  0.7957747E-01  0.3446810E+00
         13   -1    0    0    0    0  0.00000000000E+00  0.00000000000E+00  0.14999999963E+04  0.15000000000E+04  0.10566000000E+00 0.  1.
        994   -1    0    0    0    0 -0.00000000000E+00 -0.00000000000E+00  0.11368683772E-12  0.17120000000E+03  0.17120000000E+03 0.  0.
         13    1    1    2    0    0  0.31796318653E+02  0.11613067648E+03  0.72427388833E+03  0.73421387645E+03  0.10566000000E+00 0.  1.
        994    1    1    2    0    0 -0.34230012397E+02 -0.13171196954E+03  0.68018327223E+02  0.22903202725E+03  0.17120000000E+03 0.  0.
        998    1    1    2    0    0  0.24336937436E+01  0.15581293059E+02  0.70770778073E+03  0.70795409629E+03  0.10000000000E+02 0. -1.
</event>
<event>
 5    1  0.1321379E-008  0.3822312E+03  0.7957747E-01  0.3441501E+00
         13   -1    0    0    0    0  0.00000000000E+00  0.00000000000E+00  0.14999999963E+04  0.15000000000E+04  0.10566000000E+00 0.  1.
        994   -1    0    0    0    0 -0.00000000000E+00 -0.00000000000E+00  0.11368683772E-12  0.17120000000E+03  0.17120000000E+03 0.  0.
         13    1    1    2    0    0  0.26415331663E+02 -0.20829103700E+01  0.11589906055E+03  0.11888949349E+03  0.10566000000E+00 0.  1.
        994    1    1    2    0    0 -0.16190489040E+02 -0.47497429935E+01  0.39563829286E+01  0.17207493995E+03  0.17120000000E+03 0.  0.
        998    1    1    2    0    0 -0.10224842623E+02  0.68326533635E+01  0.13801445528E+04  0.13802355666E+04  0.10000000000E+02 0.  1.
</event>
<event>
 5    1  0.1321379E-008  0.3822669E+03  0.7957747E-01  0.3441347E+00
         13   -1    0    0    0    0  0.00000000000E+00  0.00000000000E+00  0.14999999963E+04  0.15000000000E+04  0.10566000000E+00 0.  1.
        994   -1    0    0    0    0 -0.00000000000E+00 -0.00000000000E+00  0.11368683772E-12  0.17120000000E+03  0.17120000000E+03 0.  0.
         13    1    1    2    0    0 -0.17342118915E+02 -0.39984094298E+01  0.54954436860E+02  0.57764501738E+02  0.10566000000E+00 0.  1.
        994    1    1    2    0    0 -0.15867255584E+00 -0.37680056156E+01  0.30403615370E+01  0.17126852262E+03  0.17120000000E+03 0.  0.
        998    1    1    2    0    0  0.17500791471E+02  0.77664150454E+01  0.14420051979E+04  0.14421669756E+04  0.10000000000E+02 0.  1.
</event>
<event>
 5    1  0.1321379E-008  0.3782949E+03  0.7957747E-01  0.3458617E+00
         13   -1    0    0    0    0  0.00000000000E+00  0.00000000000E+00  0.14999999963E+04  0.15000000000E+04  0.10566000000E+00 0.  1.
        994   -1    0    0    0    0 -0.00000000000E+00 -0.00000000000E+00  0.11368683772E-12  0.17120000000E+03  0.17120000000E+03 0.  0.
         13    1    1    2    0    0 -0.19838442891E+02 -0.46059918847E+02  0.21852971688E+03  0.22421045530E+03  0.10566000000E+00 0.  1.
        994    1    1    2    0    0  0.12919523618E+02  0.46791773479E+02  0.12959439616E+02  0.17842020970E+03  0.17120000000E+03 0.  0.
        998    1    1    2    0    0  0.69189192724E+01 -0.73185463207E+00  0.12685108398E+04  0.12685693350E+04  0.10000000000E+02 0.  0.
</event>
<event>
 5    1  0.1321379E-008  0.3803250E+03  0.7957747E-01  0.3449744E+00
         13   -1    0    0    0    0  0.00000000000E+00  0.00000000000E+00  0.14999999963E+04  0.15000000000E+04  0.10566000000E+00 0.  1.
        994   -1    0    0    0    0 -0.00000000000E+00 -0.00000000000E+00  0.11368683772E-12  0.17120000000E+03  0.17120000000E+03 0.  0.
         13    1    1    2    0    0  0.36754780279E+02  0.34323426705E+02  0.26364070192E+03  0.26839419213E+03  0.10566000000E+00 0.  1.
        994    1    1    2    0    0 -0.31357420221E+02 -0.40328523277E+02  0.12733400578E+02  0.17911241465E+03  0.17120000000E+03 0.  0.
        998    1    1    2    0    0 -0.53973600576E+01  0.60050965722E+01  0.12236258938E+04  0.12236933932E+04  0.10000000000E+02 0.  1.
</event>
<event>
 5    1  0.1321379E-008  0.3954001E+03  0.7957747E-01  0.3386727E+00
         13   -1    0    0    0    0  0.00000000000E+00  0.00000000000E+00  0.14999999963E+04  0.15000000000E+04  0.10566000000E+00 0.  1.
        994   -1    0    0    0    0 -0.00000000000E+00 -0.00000000000E+00  0.11368683772E-12  0.17120000000E+03  0.17120000000E+03 0.  0.
         13    1    1    2    0    0 -0.39404164894E+01 -0.96271041512E+02  0.17732334565E+03  0.20180986198E+03  0.10566000000E+00 0.  1.
        994    1    1    2    0    0 -0.68216006955E+02  0.66959971875E+02  0.61106841451E+02  0.20537903377E+03  0.17120000000E+03 0.  0.
        998    1    1    2    0    0  0.72156423444E+02  0.29311069637E+02  0.12615698092E+04  0.12640111043E+04  0.10000000000E+02 0. -1.
</event>
<event>
 5    1  0.1321379E-008  0.4482936E+03  0.7957747E-01  0.3198841E+00
         13   -1    0    0    0    0  0.00000000000E+00  0.00000000000E+00  0.14999999963E+04  0.15000000000E+04  0.10566000000E+00 0. -1.
        994   -1    0    0    0    0 -0.00000000000E+00 -0.00000000000E+00  0.11368683772E-12  0.17120000000E+03  0.17120000000E+03 0.  0.
         13    1    1    2    0    0 -0.47428542532E+02 -0.10647609522E+03  0.91759624110E+02  0.14834576260E+03  0.10566000000E+00 0. -1.
        994    1    1    2    0    0  0.47713860440E+02  0.99218167449E+02  0.12355518682E+03  0.23810959960E+03  0.17120000000E+03 0.  0.
        998    1    1    2    0    0 -0.28531790842E+00  0.72579277659E+01  0.12846851853E+04  0.12847446378E+04  0.10000000000E+02 0. -1.
</event>
<event>
 5    1  0.1321379E-008  0.3784908E+03  0.7957747E-01  0.3457756E+00
         13   -1    0    0    0    0  0.00000000000E+00  0.00000000000E+00  0.14999999963E+04  0.15000000000E+04  0.10566000000E+00 0.  1.
        994   -1    0    0    0    0 -0.00000000000E+00 -0.00000000000E+00  0.11368683772E-12  0.17120000000E+03  0.17120000000E+03 0.  0.
         13    1    1    2    0    0  0.93989993112E+01 -0.61055916523E+01  0.10692518110E+02  0.15490659930E+02  0.10566000000E+00 0.  1.
        994    1    1    2    0    0 -0.11766377473E+02 -0.69656423276E+01  0.55253358519E+01  0.17183403955E+03  0.17120000000E+03 0.  0.
        998    1    1    2    0    0  0.23673781616E+01  0.13071233980E+02  0.14837821423E+04  0.14838753005E+04  0.10000000000E+02 0.  1.
</event>
<event>
 5    1  0.1321379E-008  0.3849471E+03  0.7957747E-01  0.3429897E+00
         13   -1    0    0    0    0  0.00000000000E+00  0.00000000000E+00  0.14999999963E+04  0.15000000000E+04  0.10566000000E+00 0. -1.
        994   -1    0    0    0    0 -0.00000000000E+00 -0.00000000000E+00  0.11368683772E-12  0.17120000000E+03  0.17120000000E+03 0.  0.
         13    1    1    2    0    0 -0.10131027867E+02 -0.60385164002E+00  0.31662359138E+02  0.33249338530E+02  0.10566000000E+00 0. -1.
        994    1    1    2    0    0  0.14763085201E+01 -0.55588645976E+01  0.17652338673E+01  0.17130568150E+03  0.17120000000E+03 0.  0.
        998    1    1    2    0    0  0.86547193471E+01  0.61627162377E+01  0.14665724033E+04  0.14666449800E+04  0.10000000000E+02 0. -1.
</event>
<event>
 5    1  0.1321379E-008  0.3736763E+03  0.7957747E-01  0.3479164E+00
         13   -1    0    0    0    0  0.00000000000E+00  0.00000000000E+00  0.14999999963E+04  0.15000000000E+04  0.10566000000E+00 0.  1.
        994   -1    0    0    0    0 -0.00000000000E+00 -0.00000000000E+00  0.11368683772E-12  0.17120000000E+03  0.17120000000E+03 0.  0.
         13    1    1    2    0    0 -0.42042788036E+00  0.11502054939E+02  0.57753675033E+01  0.12877890404E+02  0.10566000000E+00 0.  1.
        994    1    1    2    0    0 -0.14134950586E+02  0.25829909048E+01  0.80653333149E+01  0.17199115754E+03  0.17120000000E+03 0.  0.
        998    1    1    2    0    0  0.14555378467E+02 -0.14085045844E+02  0.14861592955E+04  0.14863309521E+04  0.10000000000E+02 0.  1.
</event>
<event>
 5    1  0.1321379E-008  0.3885228E+03  0.7957747E-01  0.3414868E+00
         13   -1    0    0    0    0  0.00000000000E+00  0.00000000000E+00  0.14999999963E+04  0.15000000000E+04  0.10566000000E+00 0. -1.
        994   -1    0    0    0    0 -0.00000000000E+00 -0.00000000000E+00  0.11368683772E-12  0.17120000000E+03  0.17120000000E+03 0.  0.
         13    1    1    2    0    0  0.79228141459E+02 -0.14604265643E+03  0.42583252576E+03  0.45709835599E+03  0.10566000000E+00 0. -1.
        994    1    1    2    0    0 -0.70429213124E+02  0.15094033124E+03  0.13409812620E+03  0.27392518159E+03  0.17120000000E+03 0.  0.
        998    1    1    2    0    0 -0.87989283351E+01 -0.48976748058E+01  0.94006934432E+03  0.94017646242E+03  0.10000000000E+02 0.  0.
</event>
<event>
 5    1  0.1321379E-008  0.3766406E+03  0.7957747E-01  0.3465918E+00
         13   -1    0    0    0    0  0.00000000000E+00  0.00000000000E+00  0.14999999963E+04  0.15000000000E+04  0.10566000000E+00 0.  1.
        994   -1    0    0    0    0 -0.00000000000E+00 -0.00000000000E+00  0.11368683772E-12  0.17120000000E+03  0.17120000000E+03 0.  0.
         13    1    1    2    0    0 -0.16545887048E+01  0.40170046274E+02  0.13817782803E+03  0.14390793448E+03  0.10566000000E+00 0.  1.
        994    1    1    2    0    0  0.44003740991E+01 -0.21234712195E+02  0.74300401703E+01  0.17272788365E+03  0.17120000000E+03 0.  0.
        998    1    1    2    0    0 -0.27457853943E+01 -0.18935334079E+02  0.13543921281E+04  0.13545641819E+04  0.10000000000E+02 0.  1.
</event>
<event>
 5    1  0.1321379E-008  0.3757418E+03  0.7957747E-01  0.3469912E+00
         13   -1    0    0    0    0  0.00000000000E+00  0.00000000000E+00  0.14999999963E+04  0.15000000000E+04  0.10566000000E+00 0. -1.
        994   -1    0    0    0    0 -0.00000000000E+00 -0.00000000000E+00  0.11368683772E-12  0.17120000000E+03  0.17120000000E+03 0.  0.
         13    1    1    2    0    0  0.11409592606E+03 -0.26414982530E+02  0.53135506064E+03  0.54410830106E+03  0.10566000000E+00 0. -1.
        994    1    1    2    0    0 -0.14124731445E+03  0.56567690823E+01  0.77381721175E+02  0.23511736144E+03  0.17120000000E+03 0.  0.
        998    1    1    2    0    0  0.27151388400E+02  0.20758213448E+02  0.89126321446E+03  0.89197433751E+03  0.10000000000E+02 0. -1.
</event>
<event>
 5    1  0.1321379E-008  0.3851052E+03  0.7957747E-01  0.3429226E+00
         13   -1    0    0    0    0  0.00000000000E+00  0.00000000000E+00  0.14999999963E+04  0.15000000000E+04  0.10566000000E+00 0.  1.
        994   -1    0    0    0    0 -0.00000000000E+00 -0.00000000000E+00  0.11368683772E-12  0.17120000000E+03  0.17120000000E+03 0.  0.
         13    1    1    2    0    0  0.57190201871E+01  0.17578835455E+02  0.10578938790E+03  0.10739240385E+03  0.10566000000E+00 0.  1.
        994    1    1    2    0    0  0.71456658830E+00 -0.15800968742E+02  0.24008192671E+01  0.17194587855E+03  0.17120000000E+03 0.  0.
        998    1    1    2    0    0 -0.64335867754E+01 -0.17778667127E+01  0.13918097891E+04  0.13918617176E+04  0.10000000000E+02 0.  1.
</event>
<event>
 5    1  0.1321379E-008  0.3810469E+03  0.7957747E-01  0.3446613E+00
         13   -1    0    0    0    0  0.00000000000E+00  0.00000000000E+00  0.14999999963E+04  0.15000000000E+04  0.10566000000E+00 0.  1.
        994   -1    0    0    0    0 -0.00000000000E+00 -0.00000000000E+00  0.11368683772E-12  0.17120000000E+03  0.17120000000E+03 0.  0.
         13    1    1    2    0    0 -0.11992060447E+02 -0.71312251157E+01  0.25222582414E+02  0.28824533181E+02  0.10566000000E+00 0.  1.
        994    1    1    2    0    0  0.13570115405E+02  0.48492459314E+01  0.42977348475E+01  0.17185916834E+03  0.17120000000E+03 0.  0.
        998    1    1    2    0    0 -0.15780549574E+01  0.22819791843E+01  0.14704796790E+04  0.14705162985E+04  0.10000000000E+02 0.  1.
</event>
<event>
 5    1  0.1321379E-008  0.3828626E+03  0.7957747E-01  0.3438788E+00
         13   -1    0    0    0    0  0.00000000000E+00  0.00000000000E+00  0.14999999963E+04  0.15000000000E+04  0.10566000000E+00 0. -1.
        994   -1    0    0    0    0 -0.00000000000E+00 -0.00000000000E+00  0.11368683772E-12  0.17120000000E+03  0.17120000000E+03 0.  0.
         13    1    1    2    0    0 -0.11732494852E+02  0.11571311210E+02  0.51650929897E+02  0.54216016101E+02  0.10566000000E+00 0. -1.
        994    1    1    2    0    0 -0.43205104906E+01 -0.69029637800E+01  0.29147066727E+01  0.17141835734E+03  0.17120000000E+03 0.  0.
        998    1    1    2    0    0  0.16053005343E+02 -0.46683474298E+01  0.14454343597E+04  0.14455656266E+04  0.10000000000E+02 0. -1.
</event>
<event>
 5    1  0.1321379E-008  0.3775730E+03  0.7957747E-01  0.3461795E+00
         13   -1    0    0    0    0  0.00000000000E+00  0.00000000000E+00  0.14999999963E+04  0.15000000000E+04  0.10566000000E+00 0.  1.
        994   -1    0    0    0    0 -0.00000000000E+00 -0.00000000000E+00  0.11368683772E-12  0.17120000000E+03  0.17120000000E+03 0.  0.
         13    1    1    2    0    0 -0.31979396481E+02 -0.24948550650E+02  0.14620720465E+03  0.15172893539E+03  0.10566000000E+00 0.  1.
        994    1    1    2    0    0  0.20806174861E+02  0.22690653588E+02  0.85638488063E+01  0.17415665988E+03  0.17120000000E+03 0.  0.
        998    1    1    2    0    0  0.11173221620E+02  0.22578970621E+01  0.13452289428E+04  0.13453144047E+04  0.10000000000E+02 0.  1.
</event>
<event>
 5    1  0.1321379E-008  0.3885441E+03  0.7957747E-01  0.3414779E+00
         13   -1    0    0    0    0  0.00000000000E+00  0.00000000000E+00  0.14999999963E+04  0.15000000000E+04  0.10566000000E+00 0.  1.
        994   -1    0    0    0    0 -0.00000000000E+00 -0.00000000000E+00  0.11368683772E-12  0.17120000000E+03  0.17120000000E+03 0.  0.
         13    1    1    2    0    0 -0.11005921674E+02  0.53500758906E+02  0.61732709391E+02  0.82428151067E+02  0.10566000000E+00 0.  1.
        994    1    1    2    0    0 -0.19104497969E+01 -0.50533004188E+02  0.30731733367E+02  0.18113838292E+03  0.17120000000E+03 0.  0.
        998    1    1    2    0    0  0.12916371471E+02 -0.29677547180E+01  0.14075355535E+04  0.14076334660E+04  0.10000000000E+02 0.  1.
</event>
<event>
 5    1  0.1321379E-008  0.3824108E+03  0.7957747E-01  0.3440728E+00
         13   -1    0    0    0    0  0.00000000000E+00  0.00000000000E+00  0.14999999963E+04  0.15000000000E+04  0.10566000000E+00 0. -1.
        994   -1    0    0    0    0 -0.00000000000E+00 -0.00000000000E+00  0.11368683772E-12  0.17120000000E+03  0.17120000000E+03 0.  0.
         13    1    1    2    0    0  0.17481872896E+02  0.15262294605E+02  0.94057575288E+02  0.96878233622E+02  0.10566000000E+00 0. -1.
        994    1    1    2    0    0 -0.11155860133E+02 -0.13939982552E+01  0.33403916498E+01  0.17160126650E+03  0.17120000000E+03 0.  0.
        998    1    1    2    0    0 -0.63260127625E+01 -0.13868296349E+02  0.14026020293E+04  0.14027204999E+04  0.10000000000E+02 0. -1.
</event>
<event>
 5    1  0.1321379E-008  0.3792325E+03  0.7957747E-01  0.3454507E+00
         13   -1    0    0    0    0  0.00000000000E+00  0.00000000000E+00  0.14999999963E+04  0.15000000000E+04  0.10566000000E+00 0.  1.
        994   -1    0    0    0    0 -0.00000000000E+00 -0.00000000000E+00  0.11368683772E-12  0.17120000000E+03  0.17120000000E+03 0.  0.
         13    1    1    2    0    0 -0.17294436089E+02 -0.11637861596E+02  0.49831115943E+02  0.54015633129E+02  0.10566000000E+00 0.  1.
        994    1    1    2    0    0 -0.17893106646E+01 -0.87426364797E+01  0.47880176405E+01  0.17149927241E+03  0.17120000000E+03 0.  0.
        998    1    1    2    0    0  0.19083746754E+02  0.20380498076E+02  0.14453808627E+04  0.14456850945E+04  0.10000000000E+02 0.  1.
</event>
<event>
 5    1  0.1321379E-008  0.3759090E+03  0.7957747E-01  0.3469168E+00
         13   -1    0    0    0    0  0.00000000000E+00  0.00000000000E+00  0.14999999963E+04  0.15000000000E+04  0.10566000000E+00 0.  1.
        994   -1    0    0    0    0 -0.00000000000E+00 -0.00000000000E+00  0.11368683772E-12  0.17120000000E+03  0.17120000000E+03 0.  0.
         13    1    1    2    0    0  0.16755157695E+02  0.10670242339E+02  0.28800580892E+02  0.34986768995E+02  0.10566000000E+00 0.  1.
        994    1    1    2    0    0 -0.12854060953E+02 -0.14510725368E+02  0.74872016445E+01  0.17245662128E+03  0.17120000000E+03 0.  0.
        998    1    1    2    0    0 -0.39010967424E+01  0.38404830298E+01  0.14637122137E+04  0.14637566097E+04  0.10000000000E+02 0.  1.
</event>
<event>
 5    1  0.1321379E-008  0.3821608E+03  0.7957747E-01  0.3441804E+00
         13   -1    0    0    0    0  0.00000000000E+00  0.00000000000E+00  0.14999999963E+04  0.15000000000E+04  0.10566000000E+00 0. -1.
        994   -1    0    0    0    0 -0.00000000000E+00 -0.00000000000E+00  0.11368683772E-12  0.17120000000E+03  0.17120000000E+03 0.  0.
         13    1    1    2    0    0 -0.11099381342E+03 -0.67157876266E+02  0.64354914693E+03  0.65649472400E+03  0.10566000000E+00 0. -1.
        994    1    1    2    0    0  0.14208222433E+03  0.11094144914E+03  0.11968129202E+03  0.27591378231E+03  0.17120000000E+03 0.  0.
        998    1    1    2    0    0 -0.31088410909E+02 -0.43783572871E+02  0.73676955733E+03  0.73879149370E+03  0.10000000000E+02 0.  1.
</event>
<event>
 5    1  0.1321379E-008  0.3851106E+03  0.7957747E-01  0.3429203E+00
         13   -1    0    0    0    0  0.00000000000E+00  0.00000000000E+00  0.14999999963E+04  0.15000000000E+04  0.10566000000E+00 0. -1.
        994   -1    0    0    0    0 -0.00000000000E+00 -0.00000000000E+00  0.11368683772E-12  0.17120000000E+03  0.17120000000E+03 0.  0.
         13    1    1    2    0    0  0.82976268193E+00 -0.10009611363E+02  0.31277669740E+02  0.32850945407E+02  0.10566000000E+00 0. -1.
        994    1    1    2    0    0  0.20263265167E+01  0.11049064253E+02  0.19901960919E+01  0.17157968615E+03  0.17120000000E+03 0.  0.
        998    1    1    2    0    0 -0.28560891986E+01 -0.10394528899E+01  0.14667321304E+04  0.14667693684E+04  0.10000000000E+02 0. -1.
</event>
<event>
 5    1  0.1321379E-008  0.3829580E+03  0.7957747E-01  0.3438379E+00
         13   -1    0    0    0    0  0.00000000000E+00  0.00000000000E+00  0.14999999963E+04  0.15000000000E+04  0.10566000000E+00 0. -1.
        994   -1    0    0    0    0 -0.00000000000E+00 -0.00000000000E+00  0.11368683772E-12  0.17120000000E+03  0.17120000000E+03 0.  0.
         13    1    1    2    0    0 -0.86065018808E+01  0.63363904328E+01  0.20742083482E+02  0.23333814724E+02  0.10566000000E+00 0. -1.
        994    1    1    2    0    0  0.43702734642E+01 -0.27673058478E+01  0.27359596840E+01  0.17129997883E+03  0.17120000000E+03 0.  0.
        998    1    1    2    0    0  0.42362284166E+01 -0.35690845850E+01  0.14765219531E+04  0.14765662064E+04  0.10000000000E+02 0. -1.
</event>
<event>
 5    1  0.1321379E-008  0.3969511E+03  0.7957747E-01  0.3380515E+00
         13   -1    0    0    0    0  0.00000000000E+00  0.00000000000E+00  0.14999999963E+04  0.15000000000E+04  0.10566000000E+00 0. -1.
        994   -1    0    0    0    0 -0.00000000000E+00 -0.00000000000E+00  0.11368683772E-12  0.17120000000E+03  0.17120000000E+03 0.  0.
         13    1    1    2    0    0  0.87704476555E+02 -0.10129132128E+02  0.18610714344E+03  0.20598678241E+03  0.10566000000E+00 0. -1.
        994    1    1    2    0    0  0.10397651262E+02 -0.45551645224E+02  0.34457133980E+02  0.18077554485E+03  0.17120000000E+03 0.  0.
        998    1    1    2    0    0 -0.98102127817E+02  0.55680777351E+02  0.12794357189E+04  0.12844376727E+04  0.10000000000E+02 0. -1.
</event>
<event>
 5    1  0.1321379E-008  0.3824612E+03  0.7957747E-01  0.3440511E+00
         13   -1    0    0    0    0  0.00000000000E+00  0.00000000000E+00  0.14999999963E+04  0.15000000000E+04  0.10566000000E+00 0. -1.
        994   -1    0    0    0    0 -0.00000000000E+00 -0.00000000000E+00  0.11368683772E-12  0.17120000000E+03  0.17120000000E+03 0.  0.
         13    1    1    2    0    0  0.12100657130E+02 -0.10541418643E+02  0.45080458598E+02  0.47851920770E+02  0.10566000000E+00 0. -1.
        994    1    1    2    0    0 -0.37533481099E+01 -0.11037134299E+01  0.29466281879E+01  0.17127004532E+03  0.17120000000E+03 0.  0.
        998    1    1    2    0    0 -0.83473090205E+01  0.11645132073E+02  0.14519729095E+04  0.14520780339E+04  0.10000000000E+02 0. -1.
</event>
<event>
 5    1  0.1321379E-008  0.3842373E+03  0.7957747E-01  0.3432913E+00
         13   -1    0    0    0    0  0.00000000000E+00  0.00000000000E+00  0.14999999963E+04  0.15000000000E+04  0.10566000000E+00 0. -1.
        994   -1    0    0    0    0 -0.00000000000E+00 -0.00000000000E+00  0.11368683772E-12  0.17120000000E+03  0.17120000000E+03 0.  0.
         13    1    1    2    0    0  0.56669807071E+01  0.11798988235E+02  0.41133134736E+02  0.43165689279E+02  0.10566000000E+00 0. -1.
        994    1    1    2    0    0  0.31412459593E+01 -0.17549334825E+02  0.30578440765E+01  0.17215294650E+03  0.17120000000E+03 0.  0.
        998    1    1    2    0    0 -0.88082266664E+01  0.57503465897E+01  0.14558090175E+04  0.14558813642E+04  0.10000000000E+02 0. -1.
</event>
<event>
 5    1  0.1321379E-008  0.3834239E+03  0.7957747E-01  0.3436384E+00
         13   -1    0    0    0    0  0.00000000000E+00  0.00000000000E+00  0.14999999963E+04  0.15000000000E+04  0.10566000000E+00 0.  1.
        994   -1    0    0    0    0 -0.00000000000E+00 -0.00000000000E+00  0.11368683772E-12  0.17120000000E+03  0.17120000000E+03 0.  0.
         13    1    1    2    0    0  0.71768471249E+01  0.11985268277E+02  0.40452275196E+02  0.42796629808E+02  0.10566000000E+00 0.  1.
        994    1    1    2    0    0 -0.44336267848E+00 -0.55865534626E+01  0.25184878051E+01  0.17131021257E+03  0.17120000000E+03 0.  0.
        998    1    1    2    0    0 -0.67334844464E+01 -0.63987148140E+01  0.14570292333E+04  0.14570931576E+04  0.10000000000E+02 0.  1.
</event>
<event>
 5    1  0.1321379E-008  0.3747027E+03  0.7957747E-01  0.3474553E+00
         13   -1    0    0    0    0  0.00000000000E+00  0.00000000000E+00  0.14999999963E+04  0.15000000000E+04  0.10566000000E+00 0.  1.
        994   -1    0    0    0    0 -0.00000000000E+00 -0.00000000000E+00  0.11368683772E-12  0.17120000000E+03  0.17120000000E+03 0.  0.
         13    1    1    2    0    0  0.36519354224E+02  0.23691711064E+02  0.21848114056E+03  0.22277562782E+03  0.10566000000E+00 0.  1.
        994    1    1    2    0    0  0.52593711738E+02 -0.12933549763E+01  0.16308095854E+02  0.17984205646E+03  0.17120000000E+03 0.  0.
        998    1    1    2    0    0 -0.89113065962E+02 -0.22398356088E+02  0.12652107599E+04  0.12685823157E+04  0.10000000000E+02 0.  1.
</event>
<event>
 5    1  0.1321379E-008  0.3851354E+03  0.7957747E-01  0.3429098E+00
         13   -1    0    0    0    0  0.00000000000E+00  0.00000000000E+00  0.14999999963E+04  0.15000000000E+04  0.10566000000E+00 0.  1.
        994   -1    0    0    0    0 -0.00000000000E+00 -0.00000000000E+00  0.11368683772E-12  0.17120000000E+03  0.17120000000E+03 0.  0.
         13    1    1    2    0    0  0.36874343911E+01  0.19052894837E+02  0.10925110215E+03  0.11096136471E+03  0.10566000000E+00 0.  1.
        994    1    1    2    0    0 -0.49238996197E+01 -0.23803122519E+02  0.35075102836E+01  0.17295252544E+03  0.17120000000E+03 0.  0.
        998    1    1    2    0    0  0.12364652286E+01  0.47502276812E+01  0.13872413838E+04  0.13872861098E+04  0.10000000000E+02 0.  0.
</event>
<event>
 5    1  0.1321379E-008  0.3732420E+03  0.7957747E-01  0.3481123E+00
         13   -1    0    0    0    0  0.00000000000E+00  0.00000000000E+00  0.14999999963E+04  0.15000000000E+04  0.10566000000E+00 0. -1.
        994   -1    0    0    0    0 -0.00000000000E+00 -0.00000000000E+00  0.11368683772E-12  0.17120000000E+03  0.17120000000E+03 0.  0.
         13    1    1    2    0    0  0.28889307805E+02  0.89521560253E+01  0.55512911853E+02  0.63217305774E+02  0.10566000000E+00 0. -1.
        994    1    1    2    0    0 -0.24595494544E+02 -0.22993380164E+02  0.11470578972E+02  0.17485607815E+03  0.17120000000E+03 0.  0.
        998    1    1    2    0    0 -0.42938132603E+01  0.14041224139E+02  0.14330165055E+04  0.14331266161E+04  0.10000000000E+02 0. -1.
</event>
<event>
 5    1  0.1321379E-008  0.3841259E+03  0.7957747E-01  0.3433388E+00
         13   -1    0    0    0    0  0.00000000000E+00  0.00000000000E+00  0.14999999963E+04  0.15000000000E+04  0.10566000000E+00 0.  1.
        994   -1    0    0    0    0 -0.00000000000E+00 -0.00000000000E+00  0.11368683772E-12  0.17120000000E+03  0.17120000000E+03 0.  0.
         13    1    1    2    0    0  0.16474646901E+02  0.47981699875E+01  0.71381274389E+02  0.73414807248E+02  0.10566000000E+00 0.  1.
        994    1    1    2    0    0 -0.74518088400E+01 -0.10576092484E+02  0.26169411085E+01  0.17170809989E+03  0.17120000000E+03 0.  0.
        998    1    1    2    0    0 -0.90228380611E+01  0.57779224969E+01  0.14260017808E+04  0.14260770929E+04  0.10000000000E+02 0.  1.
</event>
<event>
 5    1  0.1321379E-008  0.3785837E+03  0.7957747E-01  0.3457349E+00
         13   -1    0    0    0    0  0.00000000000E+00  0.00000000000E+00  0.14999999963E+04  0.15000000000E+04  0.10566000000E+00 0.  1.
        994   -1    0    0    0    0 -0.00000000000E+00 -0.00000000000E+00  0.11368683772E-12  0.17120000000E+03  0.17120000000E+03 0.  0.
         13    1    1    2    0    0  0.43804456378E+01 -0.48737228523E+02  0.22550814451E+03  0.23075623535E+03  0.10566000000E+00 0.  1.
        994    1    1    2    0    0 -0.71776938616E+01  0.39120717172E+02  0.10181412239E+02  0.17605411372E+03  0.17120000000E+03 0.  0.
        998    1    1    2    0    0  0.27972482238E+01  0.96165113511E+01  0.12643104395E+04  0.12643896509E+04  0.10000000000E+02 0.  1.
</event>
<event>
 5    1  0.1321379E-008  0.3839424E+03  0.7957747E-01  0.3434170E+00
         13   -1    0    0    0    0  0.00000000000E+00  0.00000000000E+00  0.14999999963E+04  0.15000000000E+04  0.10566000000E+00 0. -1.
        994   -1    0    0    0    0 -0.00000000000E+00 -0.00000000000E+00  0.11368683772E-12  0.17120000000E+03  0.17120000000E+03 0.  0.
         13    1    1    2    0    0 -0.98822264773E+01  0.25360932003E+02  0.14686094793E+03  0.14936192441E+03  0.10566000000E+00 0. -1.
        994    1    1    2    0    0  0.12338216851E+02 -0.32923822077E+02  0.62462874726E+01  0.17488472135E+03  0.17120000000E+03 0.  0.
        998    1    1    2    0    0 -0.24559903735E+01  0.75628900737E+01  0.13468927609E+04  0.13469533542E+04  0.10000000000E+02 0. -1.
</event>
<event>
 5    1  0.1321379E-008  0.3747125E+03  0.7957747E-01  0.3474509E+00
         13   -1    0    0    0    0  0.00000000000E+00  0.00000000000E+00  0.14999999963E+04  0.15000000000E+04  0.10566000000E+00 0.  1.
        994   -1    0    0    0    0 -0.00000000000E+00 -0.00000000000E+00  0.11368683772E-12  0.17120000000E+03  0.17120000000E+03 0.  0.
         13    1    1    2    0    0 -0.77985810935E+01  0.59118340727E+02  0.13651659537E+03  0.14897176931E+03  0.10566000000E+00 0.  1.
        994    1    1    2    0    0  0.34383264984E+02 -0.15895824574E+02  0.18570537687E+02  0.17632127217E+03  0.17120000000E+03 0.  0.
        998    1    1    2    0    0 -0.26584683890E+02 -0.43222516153E+02  0.13449128632E+04  0.13459069585E+04  0.10000000000E+02 0. -1.
</event>
<event>
 5    1  0.1321379E-008  0.3833430E+03  0.7957747E-01  0.3436730E+00
         13   -1    0    0    0    0  0.00000000000E+00  0.00000000000E+00  0.14999999963E+04  0.15000000000E+04  0.10566000000E+00 0.  1.
        994   -1    0    0    0    0 -0.00000000000E+00 -0.00000000000E+00  0.11368683772E-12  0.17120000000E+03  0.17120000000E+03 0.  0.
         13    1    1    2    0    0 -0.96809789877E+01 -0.54900515195E+01  0.24274476931E+02  0.26704370694E+02  0.10566000000E+00 0.  1.
        994    1    1    2    0    0  0.12211159290E+02 -0.31434030545E+01  0.29809192547E+01  0.17168960153E+03  0.17120000000E+03 0.  0.
        998    1    1    2    0    0 -0.25301803026E+01  0.86334545740E+01  0.14727446001E+04  0.14728060278E+04  0.10000000000E+02 0.  1.
</event>
<event>
 5    1  0.1321379E-008  0.3735413E+03  0.7957747E-01  0.3479773E+00
         13   -1    0    0    0    0  0.00000000000E+00  0.00000000000E+00  0.14999999963E+04  0.15000000000E+04  0.10566000000E+00 0.  1.
        994   -1    0    0    0    0 -0.00000000000E+00 -0.00000000000E+00  0.11368683772E-12  0.17120000000E+03  0.17120000000E+03 0.  0.
         13    1    1    2    0    0 -0.56122335662E+02  0.10103398507E+02  0.15138209907E+03  0.16176633242E+03  0.10566000000E+00 0.  1.
        994    1    1    2    0    0  0.10215775314E+03 -0.36893710559E+02  0.48867752838E+02  0.20855418882E+03  0.17120000000E+03 0.  0.
        998    1    1    2    0    0 -0.46035417476E+02  0.26790312051E+02  0.12997501444E+04  0.13008794788E+04  0.10000000000E+02 0.  1.
</event>
<event>
 5    1  0.1321379E-008  0.3855119E+03  0.7957747E-01  0.3427504E+00
         13   -1    0    0    0    0  0.00000000000E+00  0.00000000000E+00  0.14999999963E+04  0.15000000000E+04  0.10566000000E+00 0. -1.
        994   -1    0    0    0    0 -0.00000000000E+00 -0.00000000000E+00  0.11368683772E-12  0.17120000000E+03  0.17120000000E+03 0.  0.
         13    1    1    2    0    0  0.93913636305E+00  0.10919293411E+02  0.43171207264E+02  0.44540736931E+02  0.10566000000E+00 0. -1.
        994    1    1    2    0    0  0.57103338859E+01 -0.10558229478E+02  0.18493839223E+01  0.17163025474E+03  0.17120000000E+03 0.  0.
        998    1    1    2    0    0 -0.66494702489E+01 -0.36106393320E+00  0.14549794051E+04  0.14550290083E+04  0.10000000000E+02 0. -1.
</event>
<event>
 5    1  0.1321379E-008  0.3817168E+03  0.7957747E-01  0.3443717E+00
         13   -1    0    0    0    0  0.00000000000E+00  0.00000000000E+00  0.14999999963E+04  0.15000000000E+04  0.10566000000E+00 0.  1.
        994   -1    0    0    0    0 -0.00000000000E+00 -0.00000000000E+00  0.11368683772E-12  0.17120000000E+03  0.17120000000E+03 0.  0.
         13    1    1    2    0    0  0.12411872917E+02 -0.11831195532E+02  0.46080480002E+02  0.49167607001E+02  0.10566000000E+00 0.  1.
        994    1    1    2    0    0 -0.45534220674E+01 -0.65644343483E+01  0.34811838043E+01  0.17142165584E+03  0.17120000000E+03 0.  0.
        998    1    1    2    0    0 -0.78584508495E+01  0.18395629881E+02  0.14504383325E+04  0.14506107372E+04  0.10000000000E+02 0.  1.
</event>
<event>
 5    1  0.1962711E-008  0.3863261E+03  0.7957747E-01  0.3424067E+00
         13   -1    0    0    0    0  0.00000000000E+00  0.00000000000E+00  0.14999999963E+04  0.15000000000E+04  0.10566000000E+00 0. -1.
        994   -1    0    0    0    0 -0.00000000000E+00 -0.00000000000E+00  0.11368683772E-12  0.17120000000E+03  0.17120000000E+03 0.  0.
         13    1    1    2    0    0  0.93449559201E+00 -0.10288243418E+02  0.52693553312E+02  0.53696768611E+02  0.10566000000E+00 0. -1.
        994    1    1    2    0    0 -0.39316382372E+01  0.14631739472E+02  0.17251840617E+01  0.17187775260E+03  0.17120000000E+03 0.  0.
        998    1    1    2    0    0  0.29971426452E+01 -0.43434960541E+01  0.14455812589E+04  0.14456254788E+04  0.10000000000E+02 0. -1.
</event>
<event>
 5    1  0.1321379E-008  0.3846198E+03  0.7957747E-01  0.3431286E+00
         13   -1    0    0    0    0  0.00000000000E+00  0.00000000000E+00  0.14999999963E+04  0.15000000000E+04  0.10566000000E+00 0.  1.
        994   -1    0    0    0    0 -0.00000000000E+00 -0.00000000000E+00  0.11368683772E-12  0.17120000000E+03  0.17120000000E+03 0.  0.
         13    1    1    2    0    0 -0.15713904822E+02 -0.75617115660E+00  0.66606784269E+02  0.68439560740E+02  0.10566000000E+00 0.  1.
        994    1    1    2    0    0  0.13402953643E+02 -0.35636507743E+00  0.24111537171E+01  0.17174114191E+03  0.17120000000E+03 0.  0.
        998    1    1    2    0    0  0.23109511797E+01  0.11125362340E+01  0.14309820583E+04  0.14310192973E+04  0.10000000000E+02 0.  1.
</event>
<event>
 5    1  0.1321379E-008  0.3794205E+03  0.7957747E-01  0.3453685E+00
         13   -1    0    0    0    0  0.00000000000E+00  0.00000000000E+00  0.14999999963E+04  0.15000000000E+04  0.10566000000E+00 0.  1.
        994   -1    0    0    0    0 -0.00000000000E+00 -0.00000000000E+00  0.11368683772E-12  0.17120000000E+03  0.17120000000E+03 0.  0.
         13    1    1    2    0    0 -0.45338021729E+01 -0.15325497206E+02  0.28208782391E+02  0.32421795058E+02  0.10566000000E+00 0.  1.
        994    1    1    2    0    0 -0.28097766678E+01 -0.24870741931E+01  0.44731007088E+01  0.17129953010E+03  0.17120000000E+03 0.  0.
        998    1    1    2    0    0  0.73435788407E+01  0.17812571399E+02  0.14673181132E+04  0.14674786748E+04  0.10000000000E+02 0.  1.
</event>
<event>
 5    1  0.1321379E-008  0.3852567E+03  0.7957747E-01  0.3428584E+00
         13   -1    0    0    0    0  0.00000000000E+00  0.00000000000E+00  0.14999999963E+04  0.15000000000E+04  0.10566000000E+00 0.  1.
        994   -1    0    0    0    0 -0.00000000000E+00 -0.00000000000E+00  0.11368683772E-12  0.17120000000E+03  0.17120000000E+03 0.  0.
         13    1    1    2    0    0  0.66960511013E+01  0.12830803069E+02  0.71331779673E+02  0.72785304582E+02  0.10566000000E+00 0.  1.
        994    1    1    2    0    0 -0.15291077419E+01 -0.65908288936E+01  0.16531736902E+01  0.17134161835E+03  0.17120000000E+03 0.  0.
        998    1    1    2    0    0 -0.51669433594E+01 -0.62399741758E+01  0.14270150429E+04  0.14270730771E+04  0.10000000000E+02 0.  1.
</event>
<event>
 5    1  0.1321379E-008  0.3779931E+03  0.7957747E-01  0.3459944E+00
         13   -1    0    0    0    0  0.00000000000E+00  0.00000000000E+00  0.14999999963E+04  0.15000000000E+04  0.10566000000E+00 0. -1.
        994   -1    0    0    0    0 -0.00000000000E+00 -0.00000000000E+00  0.11368683772E-12  0.17120000000E+03  0.17120000000E+03 0.  0.
         13    1    1    2    0    0  0.51652007328E+02  0.11774044567E+02  0.25612872193E+03  0.26155016985E+03  0.10566000000E+00 0. -1.
        994    1    1    2    0    0 -0.31590137213E+02 -0.35398425705E+02  0.12762492063E+02  0.17811037734E+03  0.17120000000E+03 0.  0.
        998    1    1    2    0    0 -0.20061870115E+02  0.23624381138E+02  0.12311087823E+04  0.12315394528E+04  0.10000000000E+02 0. -1.
</event>
<event>
 5    1  0.1321379E-008  0.3822938E+03  0.7957747E-01  0.3441231E+00
         13   -1    0    0    0    0  0.00000000000E+00  0.00000000000E+00  0.14999999963E+04  0.15000000000E+04  0.10566000000E+00 0.  1.
        994   -1    0    0    0    0 -0.00000000000E+00 -0.00000000000E+00  0.11368683772E-12  0.17120000000E+03  0.17120000000E+03 0.  0.
         13    1    1    2    0    0 -0.76757371990E+00 -0.14047192955E+02  0.32504783709E+02  0.35418708720E+02  0.10566000000E+00 0.  1.
        994    1    1    2    0    0 -0.36125815407E+01  0.66528680137E+01  0.31699010333E+01  0.17139661511E+03  0.17120000000E+03 0.  0.
        998    1    1    2    0    0  0.43801552606E+01  0.73943249414E+01  0.14643253115E+04  0.14643846762E+04  0.10000000000E+02 0.  1.
</event>
<event>
 5    1  0.1321379E-008  0.3836598E+03  0.7957747E-01  0.3435376E+00
         13   -1    0    0    0    0  0.00000000000E+00  0.00000000000E+00  0.14999999963E+04  0.15000000000E+04  0.10566000000E+00 0. -1.
        994   -1    0    0    0    0 -0.00000000000E+00 -0.00000000000E+00  0.11368683772E-12  0.17120000000E+03  0.17120000000E+03 0.  0.
         13    1    1    2    0    0  0.48900215445E+01  0.10437714839E+02  0.28653235674E+02  0.30884903762E+02  0.10566000000E+00 0. -1.
        994    1    1    2    0    0 -0.38624549072E+01 -0.23227662078E+01  0.23641081279E+01  0.17127563402E+03  0.17120000000E+03 0.  0.
        998    1    1    2    0    0 -0.10275666374E+01 -0.81149486308E+01  0.14689826525E+04  0.14690394622E+04  0.10000000000E+02 0. -1.
</event>
<event>
 5    1  0.1321379E-008  0.2903611E+03  0.7957747E-01  0.3967329E+00
         13   -1    0    0    0    0  0.00000000000E+00  0.00000000000E+00  0.14999999963E+04  0.15000000000E+04  0.10566000000E+00 0. -1.
        994   -1    0    0    0    0 -0.00000000000E+00 -0.00000000000E+00  0.11368683772E-12  0.17120000000E+03  0.17120000000E+03 0.  0.
         13    1    1    2    0    0 -0.18678643834E+03 -0.27397579513E+02  0.57863704936E+03  0.60865478472E+03  0.10566000000E+00 0. -1.
        994    1    1    2    0    0  0.16917877830E+03  0.11806387703E+03  0.19809163096E+03  0.33333207518E+03  0.17120000000E+03 0.  0.
        998    1    1    2    0    0  0.17607660035E+02 -0.90666297521E+02  0.72327131596E+03  0.72921314010E+03  0.10000000000E+02 0. -1.
</event>
<event>
 5    1  0.1321379E-008  0.3721646E+03  0.7957747E-01  0.3486002E+00
         13   -1    0    0    0    0  0.00000000000E+00  0.00000000000E+00  0.14999999963E+04  0.15000000000E+04  0.10566000000E+00 0.  1.
        994   -1    0    0    0    0 -0.00000000000E+00 -0.00000000000E+00  0.11368683772E-12  0.17120000000E+03  0.17120000000E+03 0.  0.
         13    1    1    2    0    0 -0.51376554582E+02 -0.16665117552E+01  0.10762912320E+03  0.11927433482E+03  0.10566000000E+00 0.  1.
        994    1    1    2    0    0  0.26145706697E+02  0.38286087769E+01  0.14551592835E+02  0.17383740989E+03  0.17120000000E+03 0.  0.
        998    1    1    2    0    0  0.25230847885E+02 -0.21620970217E+01  0.13778192802E+04  0.13780882553E+04  0.10000000000E+02 0.  1.
</event>
<event>
 5    1  0.1321379E-008  0.3800592E+03  0.7957747E-01  0.3450901E+00
         13   -1    0    0    0    0  0.00000000000E+00  0.00000000000E+00  0.14999999963E+04  0.15000000000E+04  0.10566000000E+00 0.  1.
        994   -1    0    0    0    0 -0.00000000000E+00 -0.00000000000E+00  0.11368683772E-12  0.17120000000E+03  0.17120000000E+03 0.  0.
         13    1    1    2    0    0  0.17742716913E+02  0.34636517747E+01  0.37660415457E+02  0.41774620806E+02  0.10566000000E+00 0.  1.
        994    1    1    2    0    0 -0.18001234483E+02  0.52444593639E+01  0.52791105348E+01  0.17230454958E+03  0.17120000000E+03 0.  0.
        998    1    1    2    0    0  0.25851757031E+00 -0.87081111385E+01  0.14570604703E+04  0.14571208296E+04  0.10000000000E+02 0.  1.
</event>
<event>
 5    1  0.1321379E-008  0.3784776E+03  0.7957747E-01  0.3457814E+00
         13   -1    0    0    0    0  0.00000000000E+00  0.00000000000E+00  0.14999999963E+04  0.15000000000E+04  0.10566000000E+00 0.  1.
        994   -1    0    0    0    0 -0.00000000000E+00 -0.00000000000E+00  0.11368683772E-12  0.17120000000E+03  0.17120000000E+03 0.  0.
         13    1    1    2    0    0  0.54551812422E+01  0.13342490343E+02  0.19572961338E+02  0.24308291394E+02  0.10566000000E+00 0.  1.
        994    1    1    2    0    0  0.17671492733E+01 -0.14064141334E+01  0.49207578249E+01  0.17128559389E+03  0.17120000000E+03 0.  0.
        998    1    1    2    0    0 -0.72223305154E+01 -0.11936076210E+02  0.14755062771E+04  0.14756061147E+04  0.10000000000E+02 0.  1.
</event>
<event>
 5    1  0.1321379E-008  0.3824244E+03  0.7957747E-01  0.3440670E+00
         13   -1    0    0    0    0  0.00000000000E+00  0.00000000000E+00  0.14999999963E+04  0.15000000000E+04  0.10566000000E+00 0. -1.
        994   -1    0    0    0    0 -0.00000000000E+00 -0.00000000000E+00  0.11368683772E-12  0.17120000000E+03  0.17120000000E+03 0.  0.
         13    1    1    2    0    0 -0.10087549831E+02 -0.24751902638E+02  0.12286590290E+03  0.12573963816E+03  0.10566000000E+00 0. -1.
        994    1    1    2    0    0  0.93812799389E+01  0.12065482830E+02  0.36893401572E+01  0.17192043369E+03  0.17120000000E+03 0.  0.
        998    1    1    2    0    0  0.70626989210E+00  0.12686419808E+02  0.13734447532E+04  0.13735399281E+04  0.10000000000E+02 0. -1.
</event>
<event>
 5    1  0.1321379E-008  0.3825828E+03  0.7957747E-01  0.3439989E+00
         13   -1    0    0    0    0  0.00000000000E+00  0.00000000000E+00  0.14999999963E+04  0.15000000000E+04  0.10566000000E+00 0.  1.
        994   -1    0    0    0    0 -0.00000000000E+00 -0.00000000000E+00  0.11368683772E-12  0.17120000000E+03  0.17120000000E+03 0.  0.
         13    1    1    2    0    0  0.10221878619E+02 -0.11436560680E+02  0.41348246073E+02  0.44101817877E+02  0.10566000000E+00 0.  1.
        994    1    1    2    0    0  0.15598188047E+01  0.87130223824E+01  0.30947516707E+01  0.17145660466E+03  0.17120000000E+03 0.  0.
        998    1    1    2    0    0 -0.11781697423E+02  0.27235382972E+01  0.14555569985E+04  0.14556415775E+04  0.10000000000E+02 0.  1.
</event>
<event>
 5    1  0.1321379E-008  0.3844522E+03  0.7957747E-01  0.3431999E+00
         13   -1    0    0    0    0  0.00000000000E+00  0.00000000000E+00  0.14999999963E+04  0.15000000000E+04  0.10566000000E+00 0.  1.
        994   -1    0    0    0    0 -0.00000000000E+00 -0.00000000000E+00  0.11368683772E-12  0.17120000000E+03  0.17120000000E+03 0.  0.
         13    1    1    2    0    0  0.13390449021E+02  0.51894835869E+01  0.55573935520E+02  0.57399549982E+02  0.10566000000E+00 0.  1.
        994    1    1    2    0    0 -0.58618375458E+01  0.38912748552E+01  0.20654718901E+01  0.17135696465E+03  0.17120000000E+03 0.  0.
        998    1    1    2    0    0 -0.75286114752E+01 -0.90807584421E+01  0.14423605889E+04  0.14424434854E+04  0.10000000000E+02 0.  1.
</event>
<event>
 5    1  0.1321379E-008  0.3780465E+03  0.7957747E-01  0.3459709E+00
         13   -1    0    0    0    0  0.00000000000E+00  0.00000000000E+00  0.14999999963E+04  0.15000000000E+04  0.10566000000E+00 0.  1.
        994   -1    0    0    0    0 -0.00000000000E+00 -0.00000000000E+00  0.11368683772E-12  0.17120000000E+03  0.17120000000E+03 0.  0.
         13    1    1    2    0    0 -0.11387046185E+00 -0.18173151460E+02  0.30245106287E+02  0.35285322994E+02  0.10566000000E+00 0.  1.
        994    1    1    2    0    0 -0.52871614535E+01  0.11369396694E+02  0.56516947563E+01  0.17175156160E+03  0.17120000000E+03 0.  0.
        998    1    1    2    0    0  0.54010319153E+01  0.68037547658E+01  0.14641031952E+04  0.14641631154E+04  0.10000000000E+02 0.  1.
</event>
<event>
 5    1  0.1321379E-008  0.3811366E+03  0.7957747E-01  0.3446225E+00
         13   -1    0    0    0    0  0.00000000000E+00  0.00000000000E+00  0.14999999963E+04  0.15000000000E+04  0.10566000000E+00 0. -1.
        994   -1    0    0    0    0 -0.00000000000E+00 -0.00000000000E+00  0.11368683772E-12  0.17120000000E+03  0.17120000000E+03 0.  0.
         13    1    1    2    0    0 -0.18503194199E+02 -0.51668605386E+01  0.46968219651E+02  0.50745339338E+02  0.10566000000E+00 0. -1.
        994    1    1    2    0    0  0.29977680850E+02  0.10097934507E+02  0.69001786809E+01  0.17423456057E+03  0.17120000000E+03 0.  0.
        998    1    1    2    0    0 -0.11474486651E+02 -0.49310739679E+01  0.14461315979E+04  0.14462201001E+04  0.10000000000E+02 0. -1.
</event>
<event>
 5    1  0.1321379E-008  0.3794241E+03  0.7957747E-01  0.3453670E+00
         13   -1    0    0    0    0  0.00000000000E+00  0.00000000000E+00  0.14999999963E+04  0.15000000000E+04  0.10566000000E+00 0.  1.
        994   -1    0    0    0    0 -0.00000000000E+00 -0.00000000000E+00  0.11368683772E-12  0.17120000000E+03  0.17120000000E+03 0.  0.
         13    1    1    2    0    0 -0.12336475165E+02  0.23763903146E+02  0.83923311186E+02  0.88091117808E+02  0.10566000000E+00 0.  1.
        994    1    1    2    0    0 -0.43129830153E+01 -0.76456200554E+01  0.46822862226E+01  0.17148883676E+03  0.17120000000E+03 0.  0.
        998    1    1    2    0    0  0.16649458180E+02 -0.16118283090E+02  0.14113943989E+04  0.14116200454E+04  0.10000000000E+02 0.  1.
</event>
<event>
 5    1  0.1321379E-008  0.3841908E+03  0.7957747E-01  0.3433111E+00
         13   -1    0    0    0    0  0.00000000000E+00  0.00000000000E+00  0.14999999963E+04  0.15000000000E+04  0.10566000000E+00 0. -1.
        994   -1    0    0    0    0 -0.00000000000E+00 -0.00000000000E+00  0.11368683772E-12  0.17120000000E+03  0.17120000000E+03 0.  0.
         13    1    1    2    0    0  0.19041218002E+02  0.19432532909E+02  0.16020522216E+03  0.16249897135E+03  0.10566000000E+00 0. -1.
        994    1    1    2    0    0 -0.12483375971E+02 -0.30917186603E+02  0.57066953443E+01  0.17450992371E+03  0.17120000000E+03 0.  0.
        998    1    1    2    0    0 -0.65578420312E+01  0.11484653694E+02  0.13340880788E+04  0.13341911049E+04  0.10000000000E+02 0. -1.
</event>
<event>
 5    1  0.1321379E-008  0.3855829E+03  0.7957747E-01  0.3427204E+00
         13   -1    0    0    0    0  0.00000000000E+00  0.00000000000E+00  0.14999999963E+04  0.15000000000E+04  0.10566000000E+00 0.  1.
        994   -1    0    0    0    0 -0.00000000000E+00 -0.00000000000E+00  0.11368683772E-12  0.17120000000E+03  0.17120000000E+03 0.  0.
         13    1    1    2    0    0 -0.69786140777E+01  0.13496955871E+02  0.73427683318E+02  0.74983362913E+02  0.10566000000E+00 0.  1.
        994    1    1    2    0    0  0.25541224865E+02 -0.24112268046E+02  0.54012797202E+01  0.17484956237E+03  0.17120000000E+03 0.  0.
        998    1    1    2    0    0 -0.18562610788E+02  0.10615312176E+02  0.14211710332E+04  0.14213670747E+04  0.10000000000E+02 0.  1.
</event>
<event>
 5    1  0.1321379E-008  0.3832319E+03  0.7957747E-01  0.3437206E+00
         13   -1    0    0    0    0  0.00000000000E+00  0.00000000000E+00  0.14999999963E+04  0.15000000000E+04  0.10566000000E+00 0.  1.
        994   -1    0    0    0    0 -0.00000000000E+00 -0.00000000000E+00  0.11368683772E-12  0.17120000000E+03  0.17120000000E+03 0.  0.
         13    1    1    2    0    0 -0.63717609881E+01 -0.13830190880E+02  0.46184881420E+02  0.48630524917E+02  0.10566000000E+00 0.  1.
        994    1    1    2    0    0  0.60962851569E+01  0.43482393047E+01  0.26959884124E+01  0.17138488916E+03  0.17120000000E+03 0.  0.
        998    1    1    2    0    0  0.27547583124E+00  0.94819515748E+01  0.14511191264E+04  0.14511845859E+04  0.10000000000E+02 0.  1.
</event>
<event>
 5    1  0.1321379E-008  0.3745006E+03  0.7957747E-01  0.3475459E+00
         13   -1    0    0    0    0  0.00000000000E+00  0.00000000000E+00  0.14999999963E+04  0.15000000000E+04  0.10566000000E+00 0. -1.
        994   -1    0    0    0    0 -0.00000000000E+00 -0.00000000000E+00  0.11368683772E-12  0.17120000000E+03  0.17120000000E+03 0.  0.
         13    1    1    2    0    0  0.86201982843E+01  0.12593642634E+02  0.13420477016E+02  0.20323090824E+02  0.10566000000E+00 0. -1.
        994    1    1    2    0    0 -0.34075203084E+01 -0.22835616242E+02  0.87525802687E+01  0.17297145494E+03  0.17120000000E+03 0.  0.
        998    1    1    2    0    0 -0.52126779759E+01  0.10241973608E+02  0.14778269390E+04  0.14779054542E+04  0.10000000000E+02 0. -1.
</event>
<event>
 5    1  0.1321379E-008  0.3797201E+03  0.7957747E-01  0.3452378E+00
         13   -1    0    0    0    0  0.00000000000E+00  0.00000000000E+00  0.14999999963E+04  0.15000000000E+04  0.10566000000E+00 0. -1.
        994   -1    0    0    0    0 -0.00000000000E+00 -0.00000000000E+00  0.11368683772E-12  0.17120000000E+03  0.17120000000E+03 0.  0.
         13    1    1    2    0    0  0.10657923789E+02 -0.58823039312E+02  0.26016806870E+03  0.26694789085E+03  0.10566000000E+00 0. -1.
        994    1    1    2    0    0 -0.53223896246E+02  0.87928209078E+02  0.40473687582E+02  0.20374423297E+03  0.17120000000E+03 0.  0.
        998    1    1    2    0    0  0.42565972457E+02 -0.29105169766E+02  0.11993582400E+04  0.12005078762E+04  0.10000000000E+02 0. -1.
</event>
<event>
 5    1  0.1321379E-008  0.3819869E+03  0.7957747E-01  0.3442553E+00
         13   -1    0    0    0    0  0.00000000000E+00  0.00000000000E+00  0.14999999963E+04  0.15000000000E+04  0.10566000000E+00 0.  1.
        994   -1    0    0    0    0 -0.00000000000E+00 -0.00000000000E+00  0.11368683772E-12  0.17120000000E+03  0.17120000000E+03 0.  0.
         13    1    1    2    0    0  0.16362399145E+02 -0.14784049138E+02  0.76630944620E+02  0.79740886954E+02  0.10566000000E+00 0.  1.
        994    1    1    2    0    0 -0.12272543440E+02  0.69596309548E+01  0.37948852987E+01  0.17182227137E+03  0.17120000000E+03 0.  0.
        998    1    1    2    0    0 -0.40898557051E+01  0.78244181832E+01  0.14195741664E+04  0.14196368417E+04  0.10000000000E+02 0.  1.
</event>
<event>
 5    1  0.1321379E-008  0.3809970E+03  0.7957747E-01  0.3446829E+00
         13   -1    0    0    0    0  0.00000000000E+00  0.00000000000E+00  0.14999999963E+04  0.15000000000E+04  0.10566000000E+00 0. -1.
        994   -1    0    0    0    0 -0.00000000000E+00 -0.00000000000E+00  0.11368683772E-12  0.17120000000E+03  0.17120000000E+03 0.  0.
         13    1    1    2    0    0  0.96633587826E+01  0.31182704878E+01  0.12281229912E+02  0.15935616900E+02  0.10566000000E+00 0. -1.
        994    1    1    2    0    0 -0.20719976011E+02  0.30090932648E+01  0.50927037091E+01  0.17255071046E+03  0.17120000000E+03 0.  0.
        998    1    1    2    0    0  0.11056617228E+02 -0.61273637527E+01  0.14826260627E+04  0.14827136726E+04  0.10000000000E+02 0. -1.
</event>
<event>
 5    1  0.1321379E-008  0.3836309E+03  0.7957747E-01  0.3435499E+00
         13   -1    0    0    0    0  0.00000000000E+00  0.00000000000E+00  0.14999999963E+04  0.15000000000E+04  0.10566000000E+00 0.  1.
        994   -1    0    0    0    0 -0.00000000000E+00 -0.00000000000E+00  0.11368683772E-12  0.17120000000E+03  0.17120000000E+03 0.  0.
         13    1    1    2    0    0  0.94422009546E+01  0.68245788860E+01  0.27989071716E+02  0.30317145898E+02  0.10566000000E+00 0.  1.
        994    1    1    2    0    0 -0.92393810662E+01 -0.11520751887E+02  0.30321537140E+01  0.17186252600E+03  0.17120000000E+03 0.  0.
        998    1    1    2    0    0 -0.20281988838E+00  0.46961730012E+01  0.14689787708E+04  0.14690203281E+04  0.10000000000E+02 0.  1.
</event>
<event>
 5    1  0.1321379E-008  0.3798379E+03  0.7957747E-01  0.3451865E+00
         13   -1    0    0    0    0  0.00000000000E+00  0.00000000000E+00  0.14999999963E+04  0.15000000000E+04  0.10566000000E+00 0.  1.
        994   -1    0    0    0    0 -0.00000000000E+00 -0.00000000000E+00  0.11368683772E-12  0.17120000000E+03  0.17120000000E+03 0.  0.
         13    1    1    2    0    0  0.22301365557E+02 -0.15922781079E+02  0.85287069618E+02  0.89581143502E+02  0.10566000000E+00 0.  1.
        994    1    1    2    0    0 -0.18589099120E+02  0.12804171839E+02  0.59210039060E+01  0.17278310019E+03  0.17120000000E+03 0.  0.
        998    1    1    2    0    0 -0.37122664372E+01  0.31186092400E+01  0.14087919228E+04  0.14088357563E+04  0.10000000000E+02 0.  1.
</event>
<event>
 5    1  0.1321379E-008  0.3847702E+03  0.7957747E-01  0.3430648E+00
         13   -1    0    0    0    0  0.00000000000E+00  0.00000000000E+00  0.14999999963E+04  0.15000000000E+04  0.10566000000E+00 0. -1.
        994   -1    0    0    0    0 -0.00000000000E+00 -0.00000000000E+00  0.11368683772E-12  0.17120000000E+03  0.17120000000E+03 0.  0.
         13    1    1    2    0    0 -0.70679152064E+01  0.22529437494E+02  0.14159254295E+03  0.14354786784E+03  0.10566000000E+00 0. -1.
        994    1    1    2    0    0  0.47526460208E+01 -0.27830488592E+02  0.43721090087E+01  0.17356750582E+03  0.17120000000E+03 0.  0.
        998    1    1    2    0    0  0.23152691856E+01  0.53010510978E+01  0.13540353443E+04  0.13540846263E+04  0.10000000000E+02 0. -1.
</event>
<event>
 5    1  0.1321379E-008  0.3819817E+03  0.7957747E-01  0.3442575E+00
         13   -1    0    0    0    0  0.00000000000E+00  0.00000000000E+00  0.14999999963E+04  0.15000000000E+04  0.10566000000E+00 0. -1.
        994   -1    0    0    0    0 -0.00000000000E+00 -0.00000000000E+00  0.11368683772E-12  0.17120000000E+03  0.17120000000E+03 0.  0.
         13    1    1    2    0    0 -0.12851235363E+02  0.23588901073E+02  0.11926169306E+03  0.12224955256E+03  0.10566000000E+00 0. -1.
        994    1    1    2    0    0 -0.14595945926E+01 -0.11406678176E+02  0.35754251640E+01  0.17162303572E+03  0.17120000000E+03 0.  0.
        998    1    1    2    0    0  0.14310829956E+02 -0.12182222898E+02  0.13771628781E+04  0.13773274117E+04  0.10000000000E+02 0. -1.
</event>
<event>
 5    1  0.1321379E-008  0.3782973E+03  0.7957747E-01  0.3458606E+00
         13   -1    0    0    0    0  0.00000000000E+00  0.00000000000E+00  0.14999999963E+04  0.15000000000E+04  0.10566000000E+00 0.  1.
        994   -1    0    0    0    0 -0.00000000000E+00 -0.00000000000E+00  0.11368683772E-12  0.17120000000E+03  0.17120000000E+03 0.  0.
         13    1    1    2    0    0  0.24383677870E+02 -0.46213151372E+02  0.24366776649E+03  0.24920716421E+03  0.10566000000E+00 0.  1.
        994    1    1    2    0    0 -0.20836457529E+02  0.39212760601E+02  0.11652790746E+02  0.17724848684E+03  0.17120000000E+03 0.  0.
        998    1    1    2    0    0 -0.35472203418E+01  0.70003907708E+01  0.12446794390E+04  0.12447443489E+04  0.10000000000E+02 0.  1.
</event>
<event>
 5    1  0.1321379E-008  0.3688113E+03  0.7957747E-01  0.3501372E+00
         13   -1    0    0    0    0  0.00000000000E+00  0.00000000000E+00  0.14999999963E+04  0.15000000000E+04  0.10566000000E+00 0.  1.
        994   -1    0    0    0    0 -0.00000000000E+00 -0.00000000000E+00  0.11368683772E-12  0.17120000000E+03  0.17120000000E+03 0.  0.
         13    1    1    2    0    0  0.35044294135E+02  0.27291085448E+01  0.59727191759E+02  0.69302952205E+02  0.10566000000E+00 0.  1.
        994    1    1    2    0    0 -0.17255661314E+02 -0.60883098300E+01  0.11055029960E+02  0.17252964688E+03  0.17120000000E+03 0.  0.
        998    1    1    2    0    0 -0.17788632821E+02  0.33592012852E+01  0.14292177746E+04  0.14293674009E+04  0.10000000000E+02 0.  1.
</event>
<event>
 5    1  0.1321379E-008  0.3834016E+03  0.7957747E-01  0.3436480E+00
         13   -1    0    0    0    0  0.00000000000E+00  0.00000000000E+00  0.14999999963E+04  0.15000000000E+04  0.10566000000E+00 0. -1.
        994   -1    0    0    0    0 -0.00000000000E+00 -0.00000000000E+00  0.11368683772E-12  0.17120000000E+03  0.17120000000E+03 0.  0.
         13    1    1    2    0    0 -0.16763326540E+01 -0.12739823522E+02  0.32866463862E+02  0.35289216559E+02  0.10566000000E+00 0. -1.
        994    1    1    2    0    0  0.22995679336E+01  0.11769502804E+02  0.29013630619E+01  0.17164401276E+03  0.17120000000E+03 0.  0.
        998    1    1    2    0    0 -0.62323527963E+00  0.97032071829E+00  0.14642321694E+04  0.14642667707E+04  0.10000000000E+02 0. -1.
</event>
<event>
 5    1  0.1321379E-008  0.3821883E+03  0.7957747E-01  0.3441685E+00
         13   -1    0    0    0    0  0.00000000000E+00  0.00000000000E+00  0.14999999963E+04  0.15000000000E+04  0.10566000000E+00 0.  1.
        994   -1    0    0    0    0 -0.00000000000E+00 -0.00000000000E+00  0.11368683772E-12  0.17120000000E+03  0.17120000000E+03 0.  0.
         13    1    1    2    0    0 -0.55315920935E+02  0.36847353096E+02  0.15931034749E+03  0.17261916614E+03  0.10566000000E+00 0.  1.
        994    1    1    2    0    0 -0.77283235947E+02 -0.61945615787E+02  0.54315871952E+02  0.20510878045E+03  0.17120000000E+03 0.  0.
        998    1    1    2    0    0  0.13259915688E+03  0.25098262690E+02  0.12863737768E+04  0.12934720534E+04  0.10000000000E+02 0.  1.
</event>
<event>
 5    1  0.1321379E-008  0.3805475E+03  0.7957747E-01  0.3448778E+00
         13   -1    0    0    0    0  0.00000000000E+00  0.00000000000E+00  0.14999999963E+04  0.15000000000E+04  0.10566000000E+00 0. -1.
        994   -1    0    0    0    0 -0.00000000000E+00 -0.00000000000E+00  0.11368683772E-12  0.17120000000E+03  0.17120000000E+03 0.  0.
         13    1    1    2    0    0 -0.13554261028E+02 -0.13846276113E+02  0.46191246324E+02  0.50090715259E+02  0.10566000000E+00 0. -1.
        994    1    1    2    0    0  0.13146501337E+02  0.13396105205E+02  0.50334414186E+01  0.17229933739E+03  0.17120000000E+03 0.  0.
        998    1    1    2    0    0  0.40775969072E+00  0.45017090825E+00  0.14487753085E+04  0.14488099474E+04  0.10000000000E+02 0.  0.
</event>
<event>
 5    1  0.1321379E-008  0.3788948E+03  0.7957747E-01  0.3455985E+00
         13   -1    0    0    0    0  0.00000000000E+00  0.00000000000E+00  0.14999999963E+04  0.15000000000E+04  0.10566000000E+00 0. -1.
        994   -1    0    0    0    0 -0.00000000000E+00 -0.00000000000E+00  0.11368683772E-12  0.17120000000E+03  0.17120000000E+03 0.  0.
         13    1    1    2    0    0 -0.30781659388E+01  0.15138743390E+02  0.23212458954E+02  0.27883437229E+02  0.10566000000E+00 0. -1.
        994    1    1    2    0    0  0.47246400557E+01 -0.14332155195E+02  0.54565179710E+01  0.17195041868E+03  0.17120000000E+03 0.  0.
        998    1    1    2    0    0 -0.16464741170E+01 -0.80658819565E+00  0.14713310194E+04  0.14713661441E+04  0.10000000000E+02 0. -1.
</event>
<event>
 5    1  0.1321379E-008  0.3768025E+03  0.7957747E-01  0.3465200E+00
         13   -1    0    0    0    0  0.00000000000E+00  0.00000000000E+00  0.14999999963E+04  0.15000000000E+04  0.10566000000E+00 0.  1.
        994   -1    0    0    0    0 -0.00000000000E+00 -0.00000000000E+00  0.11368683772E-12  0.17120000000E+03  0.17120000000E+03 0.  0.
         13    1    1    2    0    0  0.83043010320E+01  0.10800093279E+02 -0.33698723545E+00  0.13628211728E+02  0.10566000000E+00 0.  1.
        994    1    1    2    0    0 -0.45208514768E+01 -0.96895277040E+01  0.14991519690E+02  0.17218742901E+03  0.17120000000E+03 0.  0.
        998    1    1    2    0    0 -0.37834495552E+01 -0.11105655755E+01  0.14853454638E+04  0.14853843593E+04  0.10000000000E+02 0.  1.
</event>
<event>
 5    1  0.1321379E-008  0.3777594E+03  0.7957747E-01  0.3460973E+00
         13   -1    0    0    0    0  0.00000000000E+00  0.00000000000E+00  0.14999999963E+04  0.15000000000E+04  0.10566000000E+00 0.  1.
        994   -1    0    0    0    0 -0.00000000000E+00 -0.00000000000E+00  0.11368683772E-12  0.17120000000E+03  0.17120000000E+03 0.  0.
         13    1    1    2    0    0  0.10226546146E+02  0.19841088983E+02  0.49746583202E+02  0.54525083791E+02  0.10566000000E+00 0.  1.
        994    1    1    2    0    0  0.38620156652E+01  0.12695363366E+02  0.58617307102E+01  0.17181352480E+03  0.17120000000E+03 0.  0.
        998    1    1    2    0    0 -0.14088561811E+02 -0.32536452350E+02  0.14443916824E+04  0.14448613914E+04  0.10000000000E+02 0.  1.
</event>
<event>
 5    1  0.1321379E-008  0.4242710E+03  0.7957747E-01  0.3278479E+00
         13   -1    0    0    0    0  0.00000000000E+00  0.00000000000E+00  0.14999999963E+04  0.15000000000E+04  0.10566000000E+00 0.  1.
        994   -1    0    0    0    0 -0.00000000000E+00 -0.00000000000E+00  0.11368683772E-12  0.17120000000E+03  0.17120000000E+03 0.  0.
         13    1    1    2    0    0 -0.85146729998E+02 -0.51769461598E+02  0.99577924916E+02  0.14087518262E+03  0.10566000000E+00 0.  1.
        994    1    1    2    0    0  0.84561914152E+02  0.30116142894E+02  0.79222570956E+02  0.20890992111E+03  0.17120000000E+03 0.  0.
        998    1    1    2    0    0  0.58481584600E+00  0.21653318703E+02  0.13211995004E+04  0.13214148963E+04  0.10000000000E+02 0.  1.
</event>
<event>
 5    1  0.1321379E-008  0.3810808E+03  0.7957747E-01  0.3446466E+00
         13   -1    0    0    0    0  0.00000000000E+00  0.00000000000E+00  0.14999999963E+04  0.15000000000E+04  0.10566000000E+00 0. -1.
        994   -1    0    0    0    0 -0.00000000000E+00 -0.00000000000E+00  0.11368683772E-12  0.17120000000E+03  0.17120000000E+03 0.  0.
         13    1    1    2    0    0 -0.34913735569E+02  0.17929866258E+02  0.22042411025E+03  0.22389115342E+03  0.10566000000E+00 0. -1.
        994    1    1    2    0    0  0.53466171656E+01 -0.33549088857E+02  0.74425030384E+01  0.17469676165E+03  0.17120000000E+03 0.  0.
        998    1    1    2    0    0  0.29567118403E+02  0.15619222599E+02  0.12721333830E+04  0.12726120849E+04  0.10000000000E+02 0. -1.
</event>
<event>
 5    1  0.1321379E-008  0.3824034E+03  0.7957747E-01  0.3440760E+00
         13   -1    0    0    0    0  0.00000000000E+00  0.00000000000E+00  0.14999999963E+04  0.15000000000E+04  0.10566000000E+00 0.  1.
        994   -1    0    0    0    0 -0.00000000000E+00 -0.00000000000E+00  0.11368683772E-12  0.17120000000E+03  0.17120000000E+03 0.  0.
         13    1    1    2    0    0 -0.26523169458E+02 -0.25045625384E+02  0.20523745827E+03  0.20845428110E+03  0.10566000000E+00 0.  1.
        994    1    1    2    0    0  0.28289281614E+02  0.17628170377E+02  0.66183926565E+01  0.17454019298E+03  0.17120000000E+03 0.  0.
        998    1    1    2    0    0 -0.17661121559E+01  0.74174550067E+01  0.12881441454E+04  0.12882055259E+04  0.10000000000E+02 0.  1.
</event>
<event>
 5    1  0.1321379E-008  0.3815310E+03  0.7957747E-01  0.3444519E+00
         13   -1    0    0    0    0  0.00000000000E+00  0.00000000000E+00  0.14999999963E+04  0.15000000000E+04  0.10566000000E+00 0.  1.
        994   -1    0    0    0    0 -0.00000000000E+00 -0.00000000000E+00  0.11368683772E-12  0.17120000000E+03  0.17120000000E+03 0.  0.
         13    1    1    2    0    0  0.11089352220E+02 -0.13422796491E+02  0.37044187571E+02  0.40931994761E+02  0.10566000000E+00 0.  1.
        994    1    1    2    0    0 -0.25537741017E+02  0.54920229440E+02  0.15661334579E+02  0.18227211860E+03  0.17120000000E+03 0.  0.
        998    1    1    2    0    0  0.14448388797E+02 -0.41497432948E+02  0.14472944741E+04  0.14479958866E+04  0.10000000000E+02 0.  1.
</event>
<event>
 5    1  0.1321379E-008  0.3812961E+03  0.7957747E-01  0.3445534E+00
         13   -1    0    0    0    0  0.00000000000E+00  0.00000000000E+00  0.14999999963E+04  0.15000000000E+04  0.10566000000E+00 0.  1.
        994   -1    0    0    0    0 -0.00000000000E+00 -0.00000000000E+00  0.11368683772E-12  0.17120000000E+03  0.17120000000E+03 0.  0.
         13    1    1    2    0    0  0.50564137413E+01  0.14156710793E+02  0.30440943117E+02  0.33950581178E+02  0.10566000000E+00 0.  1.
        994    1    1    2    0    0  0.11197032138E+02 -0.22207805380E+02  0.55419968130E+01  0.17308585695E+03  0.17120000000E+03 0.  0.
        998    1    1    2    0    0 -0.16253445879E+02  0.80510945868E+01  0.14640170563E+04  0.14641635619E+04  0.10000000000E+02 0.  1.
</event>
<event>
 5    1  0.1321379E-008  0.3827776E+03  0.7957747E-01  0.3439153E+00
         13   -1    0    0    0    0  0.00000000000E+00  0.00000000000E+00  0.14999999963E+04  0.15000000000E+04  0.10566000000E+00 0.  1.
        994   -1    0    0    0    0 -0.00000000000E+00 -0.00000000000E+00  0.11368683772E-12  0.17120000000E+03  0.17120000000E+03 0.  0.
         13    1    1    2    0    0 -0.10417972588E+02 -0.25070323700E+01  0.19584448252E+02  0.22324451651E+02  0.10566000000E+00 0.  1.
        994    1    1    2    0    0  0.13812666369E+02 -0.33971728564E+00  0.33702017762E+01  0.17178970697E+03  0.17120000000E+03 0.  0.
        998    1    1    2    0    0 -0.33946937811E+01  0.28467496556E+01  0.14770453463E+04  0.14770858414E+04  0.10000000000E+02 0.  1.
</event>
<event>
 5    1  0.1321379E-008  0.3783851E+03  0.7957747E-01  0.3458220E+00
         13   -1    0    0    0    0  0.00000000000E+00  0.00000000000E+00  0.14999999963E+04  0.15000000000E+04  0.10566000000E+00 0.  1.
        994   -1    0    0    0    0 -0.00000000000E+00 -0.00000000000E+00  0.11368683772E-12  0.17120000000E+03  0.17120000000E+03 0.  0.
         13    1    1    2    0    0  0.47721289540E+02  0.68742866162E+01  0.18484547508E+03  0.19102994036E+03  0.10566000000E+00 0.  1.
        994    1    1    2    0    0 -0.63570321617E+02 -0.11265322702E+02  0.19089133603E+02  0.18396175773E+03  0.17120000000E+03 0.  0.
        998    1    1    2    0    0  0.15849032078E+02  0.43910360857E+01  0.12960653876E+04  0.12962083019E+04  0.10000000000E+02 0.  1.
</event>
<event>
 5    1  0.1321379E-008  0.3737201E+03  0.7957747E-01  0.3478967E+00
         13   -1    0    0    0    0  0.00000000000E+00  0.00000000000E+00  0.14999999963E+04  0.15000000000E+04  0.10566000000E+00 0. -1.
        994   -1    0    0    0    0 -0.00000000000E+00 -0.00000000000E+00  0.11368683772E-12  0.17120000000E+03  0.17120000000E+03 0.  0.
         13    1    1    2    0    0 -0.20219324246E+02 -0.24163324046E+02  0.75754433633E+02  0.82045308708E+02  0.10566000000E+00 0. -1.
        994    1    1    2    0    0 -0.88760718714E+02  0.47822686929E+02  0.42878251663E+02  0.20325712543E+03  0.17120000000E+03 0.  0.
        998    1    1    2    0    0  0.10898004296E+03 -0.23659362883E+02  0.13813673110E+04  0.13858975659E+04  0.10000000000E+02 0. -1.
</event>
<event>
 5    1  0.1321379E-008  0.3854545E+03  0.7957747E-01  0.3427747E+00
         13   -1    0    0    0    0  0.00000000000E+00  0.00000000000E+00  0.14999999963E+04  0.15000000000E+04  0.10566000000E+00 0. -1.
        994   -1    0    0    0    0 -0.00000000000E+00 -0.00000000000E+00  0.11368683772E-12  0.17120000000E+03  0.17120000000E+03 0.  0.
         13    1    1    2    0    0 -0.26603613196E+01  0.14341121099E+02  0.74150003498E+02  0.75571022618E+02  0.10566000000E+00 0. -1.
        994    1    1    2    0    0  0.85478672590E+00 -0.13196506715E+02  0.19791241658E+01  0.17172138883E+03  0.17120000000E+03 0.  0.
        998    1    1    2    0    0  0.18055745937E+01 -0.11446143837E+01  0.14238708686E+04  0.14239075886E+04  0.10000000000E+02 0. -1.
</event>
<event>
 5    1  0.1321379E-008  0.3819442E+03  0.7957747E-01  0.3442736E+00
         13   -1    0    0    0    0  0.00000000000E+00  0.00000000000E+00  0.14999999963E+04  0.15000000000E+04  0.10566000000E+00 0. -1.
        994   -1    0    0    0    0 -0.00000000000E+00 -0.00000000000E+00  0.11368683772E-12  0.17120000000E+03  0.17120000000E+03 0.  0.
         13    1    1    2    0    0  0.28958426022E+02 -0.20078246334E+01  0.11000099660E+03  0.11376665686E+03  0.10566000000E+00 0. -1.
        994    1    1    2    0    0 -0.53855913040E+02 -0.40428281847E+02  0.18367150200E+02  0.18488292931E+03  0.17120000000E+03 0.  0.
        998    1    1    2    0    0  0.24897487018E+02  0.42436106480E+02  0.13716318495E+04  0.13725504138E+04  0.10000000000E+02 0. -1.
</event>
<event>
 5    1  0.1321379E-008  0.3688627E+03  0.7957747E-01  0.3501134E+00
         13   -1    0    0    0    0  0.00000000000E+00  0.00000000000E+00  0.14999999963E+04  0.15000000000E+04  0.10566000000E+00 0. -1.
        994   -1    0    0    0    0 -0.00000000000E+00 -0.00000000000E+00  0.11368683772E-12  0.17120000000E+03  0.17120000000E+03 0.  0.
         13    1    1    2    0    0  0.25411528147E+02 -0.86169151590E+02  0.41227647565E+03  0.42195114882E+03  0.10566000000E+00 0. -1.
        994    1    1    2    0    0 -0.18670998292E+02  0.46492182064E+02  0.18629182862E+02  0.17935053840E+03  0.17120000000E+03 0.  0.
        998    1    1    2    0    0 -0.67405298551E+01  0.39676969526E+02  0.10690943378E+04  0.10698983128E+04  0.10000000000E+02 0. -1.
</event>
<event>
 5    1  0.1321379E-008  0.3852509E+03  0.7957747E-01  0.3428609E+00
         13   -1    0    0    0    0  0.00000000000E+00  0.00000000000E+00  0.14999999963E+04  0.15000000000E+04  0.10566000000E+00 0.  1.
        994   -1    0    0    0    0 -0.00000000000E+00 -0.00000000000E+00  0.11368683772E-12  0.17120000000E+03  0.17120000000E+03 0.  0.
         13    1    1    2    0    0  0.97337805594E+01 -0.68952755267E+01  0.49253621053E+02  0.50677624840E+02  0.10566000000E+00 0.  1.
        994    1    1    2    0    0  0.20647454655E+01  0.47728444835E+01  0.15944693191E+01  0.17128638460E+03  0.17120000000E+03 0.  0.
        998    1    1    2    0    0 -0.11798526025E+02  0.21224310432E+01  0.14491519059E+04  0.14492359906E+04  0.10000000000E+02 0.  1.
</event>
<event>
 5    1  0.1321379E-008  0.3737552E+03  0.7957747E-01  0.3478809E+00
         13   -1    0    0    0    0  0.00000000000E+00  0.00000000000E+00  0.14999999963E+04  0.15000000000E+04  0.10566000000E+00 0. -1.
        994   -1    0    0    0    0 -0.00000000000E+00 -0.00000000000E+00  0.11368683772E-12  0.17120000000E+03  0.17120000000E+03 0.  0.
         13    1    1    2    0    0 -0.42843708743E+02 -0.39825527677E+02  0.22705581627E+03  0.23446963748E+03  0.10566000000E+00 0. -1.
        994    1    1    2    0    0  0.24813770892E+02  0.27444717538E+02  0.12006612238E+02  0.17556347708E+03  0.17120000000E+03 0.  0.
        998    1    1    2    0    0  0.18029937851E+02  0.12380810140E+02  0.12609375678E+04  0.12611668854E+04  0.10000000000E+02 0. -1.
</event>
<event>
 5    1  0.1321379E-008  0.3848302E+03  0.7957747E-01  0.3430393E+00
         13   -1    0    0    0    0  0.00000000000E+00  0.00000000000E+00  0.14999999963E+04  0.15000000000E+04  0.10566000000E+00 0. -1.
        994   -1    0    0    0    0 -0.00000000000E+00 -0.00000000000E+00  0.11368683772E-12  0.17120000000E+03  0.17120000000E+03 0.  0.
         13    1    1    2    0    0  0.70283588616E+01  0.77843603264E+01  0.32039207030E+02  0.33712253634E+02  0.10566000000E+00 0. -1.
        994    1    1    2    0    0 -0.48974402315E+01 -0.29067518694E+01  0.18211881811E+01  0.17130438072E+03  0.17120000000E+03 0.  0.
        998    1    1    2    0    0 -0.21309186302E+01 -0.48776084571E+01  0.14661396011E+04  0.14661833656E+04  0.10000000000E+02 0. -1.
</event>
<event>
 5    1  0.1321379E-008  0.3714478E+03  0.7957747E-01  0.3489263E+00
         13   -1    0    0    0    0  0.00000000000E+00  0.00000000000E+00  0.14999999963E+04  0.15000000000E+04  0.10566000000E+00 0.  1.
        994   -1    0    0    0    0 -0.00000000000E+00 -0.00000000000E+00  0.11368683772E-12  0.17120000000E+03  0.17120000000E+03 0.  0.
         13    1    1    2    0    0 -0.14909825302E+02 -0.32216344334E+02  0.65705881657E+02  0.74682459662E+02  0.10566000000E+00 0.  1.
        994    1    1    2    0    0  0.13759580231E+02  0.44253632377E+02  0.15939837124E+02  0.17807646794E+03  0.17120000000E+03 0.  0.
        998    1    1    2    0    0  0.11502450712E+01 -0.12037288043E+02  0.14183542775E+04  0.14184410724E+04  0.10000000000E+02 0.  1.
</event>
<event>
 5    1  0.1321379E-008  0.3824202E+03  0.7957747E-01  0.3440688E+00
         13   -1    0    0    0    0  0.00000000000E+00  0.00000000000E+00  0.14999999963E+04  0.15000000000E+04  0.10566000000E+00 0. -1.
        994   -1    0    0    0    0 -0.00000000000E+00 -0.00000000000E+00  0.11368683772E-12  0.17120000000E+03  0.17120000000E+03 0.  0.
         13    1    1    2    0    0  0.10697201989E+02  0.15862565186E+02  0.64786714575E+02  0.67552799010E+02  0.10566000000E+00 0. -1.
        994    1    1    2    0    0 -0.52463706285E+01  0.15368787936E+00  0.30077560041E+01  0.17130684347E+03  0.17120000000E+03 0.  0.
        998    1    1    2    0    0 -0.54508313601E+01 -0.16016253065E+02  0.14322055257E+04  0.14323403575E+04  0.10000000000E+02 0. -1.
</event>
<event>
 5    1  0.1321379E-008  0.3850866E+03  0.7957747E-01  0.3429305E+00
         13   -1    0    0    0    0  0.00000000000E+00  0.00000000000E+00  0.14999999963E+04  0.15000000000E+04  0.10566000000E+00 0.  1.
        994   -1    0    0    0    0 -0.00000000000E+00 -0.00000000000E+00  0.11368683772E-12  0.17120000000E+03  0.17120000000E+03 0.  0.
         13    1    1    2    0    0 -0.67689022121E+01 -0.92638014981E+01  0.41572714805E+02  0.43126996599E+02  0.10566000000E+00 0.  1.
        994    1    1    2    0    0  0.60525945898E+01  0.41220963956E+01  0.17634722131E+01  0.17136561911E+03  0.17120000000E+03 0.  0.
        998    1    1    2    0    0  0.71630762227E+00  0.51417051024E+01  0.14566638093E+04  0.14567073843E+04  0.10000000000E+02 0.  1.
</event>
<event>
 5    1  0.1321379E-008  0.3364074E+03  0.7957747E-01  0.3666121E+00
         13   -1    0    0    0    0  0.00000000000E+00  0.00000000000E+00  0.14999999963E+04  0.15000000000E+04  0.10566000000E+00 0.  1.
        994   -1    0    0    0    0 -0.00000000000E+00 -0.00000000000E+00  0.11368683772E-12  0.17120000000E+03  0.17120000000E+03 0.  0.
         13    1    1    2    0    0 -0.15321440132E+03  0.14807379662E+03  0.97245720577E+03  0.99552676018E+03  0.10566000000E+00 0.  1.
        994    1    1    2    0    0  0.11750488149E+03 -0.11084761132E+03  0.11897513893E+03  0.26374061840E+03  0.17120000000E+03 0.  0.
        998    1    1    2    0    0  0.35709519831E+02 -0.37226185299E+02  0.40856765158E+03  0.41193262143E+03  0.10000000000E+02 0.  1.
</event>
<event>
 5    1  0.1321379E-008  0.3799686E+03  0.7957747E-01  0.3451295E+00
         13   -1    0    0    0    0  0.00000000000E+00  0.00000000000E+00  0.14999999963E+04  0.15000000000E+04  0.10566000000E+00 0. -1.
        994   -1    0    0    0    0 -0.00000000000E+00 -0.00000000000E+00  0.11368683772E-12  0.17120000000E+03  0.17120000000E+03 0.  0.
         13    1    1    2    0    0 -0.42405018751E+02  0.91580861483E+01  0.19181727085E+03  0.19666197578E+03  0.10566000000E+00 0. -1.
        994    1    1    2    0    0  0.46495425766E+02 -0.12066697039E+02  0.11902227912E+02  0.17820923888E+03  0.17120000000E+03 0.  0.
        998    1    1    2    0    0 -0.40904070147E+01  0.29086108910E+01  0.12962804975E+04  0.12963287853E+04  0.10000000000E+02 0. -1.
</event>
<event>
 5    1  0.1321379E-008  0.3712873E+03  0.7957747E-01  0.3489996E+00
         13   -1    0    0    0    0  0.00000000000E+00  0.00000000000E+00  0.14999999963E+04  0.15000000000E+04  0.10566000000E+00 0.  1.
        994   -1    0    0    0    0 -0.00000000000E+00 -0.00000000000E+00  0.11368683772E-12  0.17120000000E+03  0.17120000000E+03 0.  0.
         13    1    1    2    0    0  0.13890724154E+02 -0.13747194091E+02  0.19755387175E+02  0.27788919543E+02  0.10566000000E+00 0.  1.
        994    1    1    2    0    0  0.12009789925E+02 -0.79173765078E+01  0.93103827930E+01  0.17205534904E+03  0.17120000000E+03 0.  0.
        998    1    1    2    0    0 -0.25900514079E+02  0.21664570598E+02  0.14709342263E+04  0.14713557314E+04  0.10000000000E+02 0.  1.
</event>
<event>
 5    1  0.1321379E-008  0.3732192E+03  0.7957747E-01  0.3481226E+00
         13   -1    0    0    0    0  0.00000000000E+00  0.00000000000E+00  0.14999999963E+04  0.15000000000E+04  0.10566000000E+00 0. -1.
        994   -1    0    0    0    0 -0.00000000000E+00 -0.00000000000E+00  0.11368683772E-12  0.17120000000E+03  0.17120000000E+03 0.  0.
         13    1    1    2    0    0  0.39820571184E+02 -0.13653104198E+01  0.11523569019E+03  0.12192955925E+03  0.10566000000E+00 0. -1.
        994    1    1    2    0    0  0.46143662813E+01  0.16485494726E+02  0.85989133416E+01  0.17226852650E+03  0.17120000000E+03 0.  0.
        998    1    1    2    0    0 -0.44434937465E+02 -0.15120184306E+02  0.13761653927E+04  0.13770019142E+04  0.10000000000E+02 0. -1.
</event>
<event>
 5    1  0.1321379E-008  0.3707240E+03  0.7957747E-01  0.3492570E+00
         13   -1    0    0    0    0  0.00000000000E+00  0.00000000000E+00  0.14999999963E+04  0.15000000000E+04  0.10566000000E+00 0.  1.
        994   -1    0    0    0    0 -0.00000000000E+00 -0.00000000000E+00  0.11368683772E-12  0.17120000000E+03  0.17120000000E+03 0.  0.
         13    1    1    2    0    0  0.68209955733E+02  0.33032775379E+02  0.22757369906E+03  0.23986154751E+03  0.10566000000E+00 0.  1.
        994    1    1    2    0    0 -0.44523210221E+02 -0.54110202001E+02  0.28736446190E+02  0.18720430964E+03  0.17120000000E+03 0.  0.
        998    1    1    2    0    0 -0.23686745512E+02  0.21077426623E+02  0.12436898510E+04  0.12441341428E+04  0.10000000000E+02 0.  1.
</event>
<event>
 5    1  0.1321379E-008  0.3810427E+03  0.7957747E-01  0.3446631E+00
         13   -1    0    0    0    0  0.00000000000E+00  0.00000000000E+00  0.14999999963E+04  0.15000000000E+04  0.10566000000E+00 0. -1.
        994   -1    0    0    0    0 -0.00000000000E+00 -0.00000000000E+00  0.11368683772E-12  0.17120000000E+03  0.17120000000E+03 0.  0.
         13    1    1    2    0    0 -0.19909962526E+02  0.72137926098E+01  0.64811059982E+02  0.68183062938E+02  0.10566000000E+00 0. -1.
        994    1    1    2    0    0 -0.14389564736E+02 -0.41757303256E+02  0.10133914975E+02  0.17709564699E+03  0.17120000000E+03 0.  0.
        998    1    1    2    0    0  0.34299527262E+02  0.34543510646E+02  0.14250550213E+04  0.14259212901E+04  0.10000000000E+02 0. -1.
</event>
<event>
 5    1  0.1321379E-008  0.3821835E+03  0.7957747E-01  0.3441706E+00
         13   -1    0    0    0    0  0.00000000000E+00  0.00000000000E+00  0.14999999963E+04  0.15000000000E+04  0.10566000000E+00 0. -1.
        994   -1    0    0    0    0 -0.00000000000E+00 -0.00000000000E+00  0.11368683772E-12  0.17120000000E+03  0.17120000000E+03 0.  0.
         13    1    1    2    0    0  0.45623367070E+01 -0.15396616947E+02  0.42157797415E+02  0.45112767334E+02  0.10566000000E+00 0. -1.
        994    1    1    2    0    0 -0.17400576589E+02  0.15548286356E+01  0.40485885297E+01  0.17213665684E+03  0.17120000000E+03 0.  0.
        998    1    1    2    0    0  0.12838239882E+02  0.13841788311E+02  0.14537936103E+04  0.14539505758E+04  0.10000000000E+02 0. -1.
</event>
<event>
 5    1  0.1321379E-008  0.3738799E+03  0.7957747E-01  0.3478247E+00
         13   -1    0    0    0    0  0.00000000000E+00  0.00000000000E+00  0.14999999963E+04  0.15000000000E+04  0.10566000000E+00 0.  1.
        994   -1    0    0    0    0 -0.00000000000E+00 -0.00000000000E+00  0.11368683772E-12  0.17120000000E+03  0.17120000000E+03 0.  0.
         13    1    1    2    0    0  0.23958737498E+02  0.31325405247E+02  0.99758339225E+02  0.10727086988E+03  0.10566000000E+00 0.  1.
        994    1    1    2    0    0 -0.31218197566E+02 -0.21367393255E+02  0.12153919703E+02  0.17575067316E+03  0.17120000000E+03 0.  0.
        998    1    1    2    0    0  0.72594600677E+01 -0.99580119921E+01  0.13880877374E+04  0.13881784570E+04  0.10000000000E+02 0.  1.
</event>
<event>
 5    1  0.1321379E-008  0.3838757E+03  0.7957747E-01  0.3434454E+00
         13   -1    0    0    0    0  0.00000000000E+00  0.00000000000E+00  0.14999999963E+04  0.15000000000E+04  0.10566000000E+00 0. -1.
        994   -1    0    0    0    0 -0.00000000000E+00 -0.00000000000E+00  0.11368683772E-12  0.17120000000E+03  0.17120000000E+03 0.  0.
         13    1    1    2    0    0 -0.14628383550E+02 -0.91779784542E+01  0.64400150890E+02  0.66675448949E+02  0.10566000000E+00 0. -1.
        994    1    1    2    0    0  0.14846115853E+02  0.14340660612E+02  0.35968915268E+01  0.17247735889E+03  0.17120000000E+03 0.  0.
        998    1    1    2    0    0 -0.21773230277E+00 -0.51626821583E+01  0.14320029539E+04  0.14320471922E+04  0.10000000000E+02 0. -1.
</event>
<event>
 5    1  0.1321379E-008  0.3831716E+03  0.7957747E-01  0.3437464E+00
         13   -1    0    0    0    0  0.00000000000E+00  0.00000000000E+00  0.14999999963E+04  0.15000000000E+04  0.10566000000E+00 0.  1.
        994   -1    0    0    0    0 -0.00000000000E+00 -0.00000000000E+00  0.11368683772E-12  0.17120000000E+03  0.17120000000E+03 0.  0.
         13    1    1    2    0    0  0.38821813097E+00 -0.28946498200E+02  0.15272260866E+03  0.15544213339E+03  0.10566000000E+00 0.  1.
        994    1    1    2    0    0  0.10644504985E+02  0.26787987804E+02  0.52943111021E+01  0.17369044737E+03  0.17120000000E+03 0.  0.
        998    1    1    2    0    0 -0.11032723116E+02  0.21585103960E+01  0.13419830765E+04  0.13420674192E+04  0.10000000000E+02 0.  1.
</event>
<event>
 5    1  0.1321379E-008  0.3812299E+03  0.7957747E-01  0.3445820E+00
         13   -1    0    0    0    0  0.00000000000E+00  0.00000000000E+00  0.14999999963E+04  0.15000000000E+04  0.10566000000E+00 0.  1.
        994   -1    0    0    0    0 -0.00000000000E+00 -0.00000000000E+00  0.11368683772E-12  0.17120000000E+03  0.17120000000E+03 0.  0.
         13    1    1    2    0    0 -0.17339928766E+02 -0.15627931529E+02  0.71658478684E+02  0.75364806805E+02  0.10566000000E+00 0.  1.
        994    1    1    2    0    0  0.18810232000E+02  0.21313334537E+02  0.62086390130E+01  0.17365503234E+03  0.17120000000E+03 0.  0.
        998    1    1    2    0    0 -0.14703032337E+01 -0.56854030086E+01  0.14221328786E+04  0.14221801609E+04  0.10000000000E+02 0.  1.
</event>
<event>
 5    1  0.1321379E-008  0.3841866E+03  0.7957747E-01  0.3433129E+00
         13   -1    0    0    0    0  0.00000000000E+00  0.00000000000E+00  0.14999999963E+04  0.15000000000E+04  0.10566000000E+00 0.  1.
        994   -1    0    0    0    0 -0.00000000000E+00 -0.00000000000E+00  0.11368683772E-12  0.17120000000E+03  0.17120000000E+03 0.  0.
         13    1    1    2    0    0  0.99782867616E+01 -0.10159928432E+02  0.50707056687E+02  0.52668843868E+02  0.10566000000E+00 0.  1.
        994    1    1    2    0    0 -0.34924434603E+01  0.28579155551E+01  0.21016483417E+01  0.17127236137E+03  0.17120000000E+03 0.  0.
        998    1    1    2    0    0 -0.64858433013E+01  0.73020128766E+01  0.14471912912E+04  0.14472587948E+04  0.10000000000E+02 0.  1.
</event>
<event>
 5    1  0.1321379E-008  0.3813348E+03  0.7957747E-01  0.3445367E+00
         13   -1    0    0    0    0  0.00000000000E+00  0.00000000000E+00  0.14999999963E+04  0.15000000000E+04  0.10566000000E+00 0. -1.
        994   -1    0    0    0    0 -0.00000000000E+00 -0.00000000000E+00  0.11368683772E-12  0.17120000000E+03  0.17120000000E+03 0.  0.
         13    1    1    2    0    0  0.30766475012E+01 -0.19238234708E+02  0.56225679471E+02  0.59505576466E+02  0.10566000000E+00 0. -1.
        994    1    1    2    0    0 -0.12078342087E+02 -0.32804391196E+00  0.39469243477E+01  0.17167123280E+03  0.17120000000E+03 0.  0.
        998    1    1    2    0    0  0.90016945860E+01  0.19566278620E+02  0.14398273925E+04  0.14400231907E+04  0.10000000000E+02 0. -1.
</event>
<event>
 5    1  0.1321379E-008  0.3813943E+03  0.7957747E-01  0.3445110E+00
         13   -1    0    0    0    0  0.00000000000E+00  0.00000000000E+00  0.14999999963E+04  0.15000000000E+04  0.10566000000E+00 0.  1.
        994   -1    0    0    0    0 -0.00000000000E+00 -0.00000000000E+00  0.11368683772E-12  0.17120000000E+03  0.17120000000E+03 0.  0.
         13    1    1    2    0    0 -0.12123199779E+02  0.25090761416E+02  0.11247701995E+03  0.11587756237E+03  0.10566000000E+00 0.  1.
        994    1    1    2    0    0 -0.21098149706E+01 -0.19118814581E+02  0.46630904059E+01  0.17234025880E+03  0.17120000000E+03 0.  0.
        998    1    1    2    0    0  0.14233014749E+02 -0.59719468353E+01  0.13828598859E+04  0.13829821788E+04  0.10000000000E+02 0.  1.
</event>
<event>
 5    1  0.1321379E-008  0.3720358E+03  0.7957747E-01  0.3486587E+00
         13   -1    0    0    0    0  0.00000000000E+00  0.00000000000E+00  0.14999999963E+04  0.15000000000E+04  0.10566000000E+00 0.  1.
        994   -1    0    0    0    0 -0.00000000000E+00 -0.00000000000E+00  0.11368683772E-12  0.17120000000E+03  0.17120000000E+03 0.  0.
         13    1    1    2    0    0 -0.57419403458E+01 -0.10020926586E+02  0.41857831294E+01  0.12284982419E+02  0.10566000000E+00 0.  1.
        994    1    1    2    0    0  0.45854206213E+01  0.20868488479E+02  0.97778785565E+01  0.17280499646E+03  0.17120000000E+03 0.  0.
        998    1    1    2    0    0  0.11565197246E+01 -0.10847561893E+02  0.14860363346E+04  0.14861100211E+04  0.10000000000E+02 0.  1.
</event>
<event>
 5    1  0.1321379E-008  0.3788069E+03  0.7957747E-01  0.3456370E+00
         13   -1    0    0    0    0  0.00000000000E+00  0.00000000000E+00  0.14999999963E+04  0.15000000000E+04  0.10566000000E+00 0. -1.
        994   -1    0    0    0    0 -0.00000000000E+00 -0.00000000000E+00  0.11368683772E-12  0.17120000000E+03  0.17120000000E+03 0.  0.
         13    1    1    2    0    0 -0.44199179943E+02  0.11874601765E+02  0.20271898142E+03  0.20782100536E+03  0.10566000000E+00 0. -1.
        994    1    1    2    0    0  0.37475107913E+02 -0.64523955161E+01  0.96049902647E+01  0.17563517005E+03  0.17120000000E+03 0.  0.
        998    1    1    2    0    0  0.67240720297E+01 -0.54222062489E+01  0.12876760246E+04  0.12877438246E+04  0.10000000000E+02 0. -1.
</event>
<event>
 5    1  0.1321379E-008  0.3015814E+03  0.7957747E-01  0.3884793E+00
         13   -1    0    0    0    0  0.00000000000E+00  0.00000000000E+00  0.14999999963E+04  0.15000000000E+04  0.10566000000E+00 0.  1.
        994   -1    0    0    0    0 -0.00000000000E+00 -0.00000000000E+00  0.11368683772E-12  0.17120000000E+03  0.17120000000E+03 0.  0.
         13    1    1    2    0    0 -0.24632959611E+03 -0.41199870091E+02  0.32152052979E+03  0.40712548613E+03  0.10566000000E+00 0.  1.
        994    1    1    2    0    0  0.24178831940E+03  0.32423892723E+02  0.47698024156E+03  0.56243443268E+03  0.17120000000E+03 0.  0.
        998    1    1    2    0    0  0.45412767073E+01  0.87759773679E+01  0.70149922492E+03  0.70164008120E+03  0.10000000000E+02 0.  1.
</event>
<event>
 5    1  0.1584365E-008  0.3854540E+03  0.7957747E-01  0.3427749E+00
         13   -1    0    0    0    0  0.00000000000E+00  0.00000000000E+00  0.14999999963E+04  0.15000000000E+04  0.10566000000E+00 0. -1.
        994   -1    0    0    0    0 -0.00000000000E+00 -0.00000000000E+00  0.11368683772E-12  0.17120000000E+03  0.17120000000E+03 0.  0.
         13    1    1    2    0    0 -0.11755433769E+02 -0.44003343254E+01  0.56307190213E+02  0.57689375096E+02  0.10566000000E+00 0. -1.
        994    1    1    2    0    0  0.77805691966E+01  0.31640437730E+01  0.16365914597E+01  0.17141373008E+03  0.17120000000E+03 0.  0.
        998    1    1    2    0    0  0.39748645720E+01  0.12362905525E+01  0.14420562146E+04  0.14420968948E+04  0.10000000000E+02 0. -1.
</event>
<event>
 5    1  0.1321379E-008  0.3840011E+03  0.7957747E-01  0.3433920E+00
         13   -1    0    0    0    0  0.00000000000E+00  0.00000000000E+00  0.14999999963E+04  0.15000000000E+04  0.10566000000E+00 0. -1.
        994   -1    0    0    0    0 -0.00000000000E+00 -0.00000000000E+00  0.11368683772E-12  0.17120000000E+03  0.17120000000E+03 0.  0.
         13    1    1    2    0    0  0.14036397408E+02  0.23832642291E+02  0.16612418801E+03  0.16841102189E+03  0.10566000000E+00 0. -1.
        994    1    1    2    0    0 -0.11925682636E+02 -0.22107783844E+02  0.42114621209E+01  0.17308423506E+03  0.17120000000E+03 0.  0.
        998    1    1    2    0    0 -0.21107147721E+01 -0.17248584472E+01  0.13296643462E+04  0.13297047430E+04  0.10000000000E+02 0. -1.
</event>
<event>
 5    1  0.1321379E-008  0.3834729E+03  0.7957747E-01  0.3436175E+00
         13   -1    0    0    0    0  0.00000000000E+00  0.00000000000E+00  0.14999999963E+04  0.15000000000E+04  0.10566000000E+00 0. -1.
        994   -1    0    0    0    0 -0.00000000000E+00 -0.00000000000E+00  0.11368683772E-12  0.17120000000E+03  0.17120000000E+03 0.  0.
         13    1    1    2    0    0  0.18137180392E+02 -0.34240215700E+00  0.66894275147E+02  0.69310387124E+02  0.10566000000E+00 0. -1.
        994    1    1    2    0    0 -0.15388155769E+02 -0.87558108881E-02  0.31732319359E+01  0.17191947189E+03  0.17120000000E+03 0.  0.
        998    1    1    2    0    0 -0.27490246235E+01  0.35115796789E+00  0.14299324892E+04  0.14299701410E+04  0.10000000000E+02 0. -1.
</event>
<event>
 5    1  0.1321379E-008  0.3854263E+03  0.7957747E-01  0.3427866E+00
         13   -1    0    0    0    0  0.00000000000E+00  0.00000000000E+00  0.14999999963E+04  0.15000000000E+04  0.10566000000E+00 0. -1.
        994   -1    0    0    0    0 -0.00000000000E+00 -0.00000000000E+00  0.11368683772E-12  0.17120000000E+03  0.17120000000E+03 0.  0.
         13    1    1    2    0    0 -0.44865259577E+01  0.93352372017E+01  0.40747642351E+02  0.42043514244E+02  0.10566000000E+00 0. -1.
        994    1    1    2    0    0 -0.54648842027E+01  0.44717790866E+01  0.15823910620E+01  0.17135286904E+03  0.17120000000E+03 0.  0.
        998    1    1    2    0    0  0.99514101604E+01 -0.13807016288E+02  0.14576699629E+04  0.14578036167E+04  0.10000000000E+02 0. -1.
</event>
<event>
 5    1  0.1321379E-008  0.3751240E+03  0.7957747E-01  0.3472668E+00
         13   -1    0    0    0    0  0.00000000000E+00  0.00000000000E+00  0.14999999963E+04  0.15000000000E+04  0.10566000000E+00 0. -1.
        994   -1    0    0    0    0 -0.00000000000E+00 -0.00000000000E+00  0.11368683772E-12  0.17120000000E+03  0.17120000000E+03 0.  0.
         13    1    1    2    0    0  0.11886691663E+02 -0.30952436621E+01  0.86557238921E+01  0.15026865680E+02  0.10566000000E+00 0. -1.
        994    1    1    2    0    0  0.48356934141E+00 -0.14452399715E+02  0.73258552321E+01  0.17196573453E+03  0.17120000000E+03 0.  0.
        998    1    1    2    0    0 -0.12370261004E+02  0.17547643377E+02  0.14840184172E+04  0.14842073998E+04  0.10000000000E+02 0. -1.
</event>
<event>
 5    1  0.1321379E-008  0.3750867E+03  0.7957747E-01  0.3472835E+00
         13   -1    0    0    0    0  0.00000000000E+00  0.00000000000E+00  0.14999999963E+04  0.15000000000E+04  0.10566000000E+00 0.  1.
        994   -1    0    0    0    0 -0.00000000000E+00 -0.00000000000E+00  0.11368683772E-12  0.17120000000E+03  0.17120000000E+03 0.  0.
         13    1    1    2    0    0  0.35383741827E+02  0.73516332122E+01  0.41243243564E+02  0.54836775983E+02  0.10566000000E+00 0.  1.
        994    1    1    2    0    0 -0.22222768838E+02 -0.65098699140E+02  0.30694365439E+02  0.18703816764E+03  0.17120000000E+03 0.  0.
        998    1    1    2    0    0 -0.13160972989E+02  0.57747065928E+02  0.14280623873E+04  0.14293250564E+04  0.10000000000E+02 0.  1.
</event>
<event>
 5    1  0.1321379E-008  0.3833579E+03  0.7957747E-01  0.3436667E+00
         13   -1    0    0    0    0  0.00000000000E+00  0.00000000000E+00  0.14999999963E+04  0.15000000000E+04  0.10566000000E+00 0. -1.
        994   -1    0    0    0    0 -0.00000000000E+00 -0.00000000000E+00  0.11368683772E-12  0.17120000000E+03  0.17120000000E+03 0.  0.
         13    1    1    2    0    0 -0.30500049055E+02 -0.15054089753E+02  0.17263959174E+03  0.17595828599E+03  0.10566000000E+00 0. -1.
        994    1    1    2    0    0  0.60471514780E+02  0.96128519498E+01  0.14943689639E+02  0.18243345330E+03  0.17120000000E+03 0.  0.
        998    1    1    2    0    0 -0.29971465725E+02  0.54412378029E+01  0.13124167149E+04  0.13128082607E+04  0.10000000000E+02 0. -1.
</event>
<event>
 5    1  0.1321379E-008  0.3856123E+03  0.7957747E-01  0.3427080E+00
         13   -1    0    0    0    0  0.00000000000E+00  0.00000000000E+00  0.14999999963E+04  0.15000000000E+04  0.10566000000E+00 0. -1.
        994   -1    0    0    0    0 -0.00000000000E+00 -0.00000000000E+00  0.11368683772E-12  0.17120000000E+03  0.17120000000E+03 0.  0.
         13    1    1    2    0    0 -0.12074794960E+02  0.10516685641E+02  0.95815933684E+02  0.97144766519E+02  0.10566000000E+00 0. -1.
        994    1    1    2    0    0  0.92732587569E+01 -0.76904954581E+01  0.18029564013E+01  0.17163282815E+03  0.17120000000E+03 0.  0.
        998    1    1    2    0    0  0.28015362029E+01 -0.28261901829E+01  0.14023811062E+04  0.14024224053E+04  0.10000000000E+02 0. -1.
</event>
<event>
 5    1  0.1321379E-008  0.3819523E+03  0.7957747E-01  0.3442702E+00
         13   -1    0    0    0    0  0.00000000000E+00  0.00000000000E+00  0.14999999963E+04  0.15000000000E+04  0.10566000000E+00 0.  1.
        994   -1    0    0    0    0 -0.00000000000E+00 -0.00000000000E+00  0.11368683772E-12  0.17120000000E+03  0.17120000000E+03 0.  0.
         13    1    1    2    0    0  0.32979269976E+02  0.75212682498E+01  0.19863264244E+03  0.20149228157E+03  0.10566000000E+00 0.  1.
        994    1    1    2    0    0 -0.85947430799E+01 -0.33802078303E+00  0.33966413609E+01  0.17144958746E+03  0.17120000000E+03 0.  0.
        998    1    1    2    0    0 -0.24384526896E+02 -0.71832474668E+01  0.12979707125E+04  0.12982581310E+04  0.10000000000E+02 0.  1.
</event>
<event>
 5    1  0.1321379E-008  0.3747142E+03  0.7957747E-01  0.3474502E+00
         13   -1    0    0    0    0  0.00000000000E+00  0.00000000000E+00  0.14999999963E+04  0.15000000000E+04  0.10566000000E+00 0.  1.
        994   -1    0    0    0    0 -0.00000000000E+00 -0.00000000000E+00  0.11368683772E-12  0.17120000000E+03  0.17120000000E+03 0.  0.
         13    1    1    2    0    0 -0.16685869976E+02 -0.22484349403E+02  0.53206274937E+02  0.60123897758E+02  0.10566000000E+00 0.  1.
        994    1    1    2    0    0  0.20731120167E+02  0.18788094160E+02  0.94935001413E+01  0.17373064891E+03  0.17120000000E+03 0.  0.
        998    1    1    2    0    0 -0.40452501907E+01  0.36962552427E+01  0.14373002212E+04  0.14373454533E+04  0.10000000000E+02 0.  1.
</event>
<event>
 5    1  0.1321379E-008  0.3784343E+03  0.7957747E-01  0.3458004E+00
         13   -1    0    0    0    0  0.00000000000E+00  0.00000000000E+00  0.14999999963E+04  0.15000000000E+04  0.10566000000E+00 0. -1.
        994   -1    0    0    0    0 -0.00000000000E+00 -0.00000000000E+00  0.11368683772E-12  0.17120000000E+03  0.17120000000E+03 0.  0.
         13    1    1    2    0    0 -0.91017229957E+01 -0.67385028899E+01  0.11101849669E+02  0.15859098738E+02  0.10566000000E+00 0. -1.
        994    1    1    2    0    0 -0.70229712853E+00 -0.36060800956E+01  0.49709293548E+01  0.17131155003E+03  0.17120000000E+03 0.  0.
        998    1    1    2    0    0  0.98040201242E+01  0.10344582986E+02  0.14839272173E+04  0.14840293512E+04  0.10000000000E+02 0. -1.
</event>
<event>
 5    1  0.1321379E-008  0.3787062E+03  0.7957747E-01  0.3456811E+00
         13   -1    0    0    0    0  0.00000000000E+00  0.00000000000E+00  0.14999999963E+04  0.15000000000E+04  0.10566000000E+00 0.  1.
        994   -1    0    0    0    0 -0.00000000000E+00 -0.00000000000E+00  0.11368683772E-12  0.17120000000E+03  0.17120000000E+03 0.  0.
         13    1    1    2    0    0 -0.35517135938E+02  0.22158851667E+02  0.49785975811E+02  0.65047184443E+02  0.10566000000E+00 0.  1.
        994    1    1    2    0    0  0.42966282097E+02  0.68431964691E+01  0.22476336420E+02  0.17806615746E+03  0.17120000000E+03 0.  0.
        998    1    1    2    0    0 -0.74491461593E+01 -0.29002048136E+02  0.14277376840E+04  0.14280866581E+04  0.10000000000E+02 0.  1.
</event>
<event>
 5    1  0.1321379E-008  0.2869380E+03  0.7957747E-01  0.3993921E+00
         13   -1    0    0    0    0  0.00000000000E+00  0.00000000000E+00  0.14999999963E+04  0.15000000000E+04  0.10566000000E+00 0.  1.
        994   -1    0    0    0    0 -0.00000000000E+00 -0.00000000000E+00  0.11368683772E-12  0.17120000000E+03  0.17120000000E+03 0.  0.
         13    1    1    2    0    0 -0.67767770936E+02  0.18806434204E+03  0.72165346874E+03  0.74882869045E+03  0.10566000000E+00 0.  1.
        994    1    1    2    0    0  0.28670697802E+02 -0.77970507862E+02  0.67484640344E+02  0.20190350589E+03  0.17120000000E+03 0.  0.
        998    1    1    2    0    0  0.39097073134E+02 -0.11009383418E+03  0.71086188719E+03  0.72046780366E+03  0.10000000000E+02 0.  1.
</event>
<event>
 5    1  0.1321379E-008  0.3732143E+03  0.7957747E-01  0.3481248E+00
         13   -1    0    0    0    0  0.00000000000E+00  0.00000000000E+00  0.14999999963E+04  0.15000000000E+04  0.10566000000E+00 0.  1.
        994   -1    0    0    0    0 -0.00000000000E+00 -0.00000000000E+00  0.11368683772E-12  0.17120000000E+03  0.17120000000E+03 0.  0.
         13    1    1    2    0    0  0.14980489554E+02  0.49180309749E+02  0.10636833268E+03  0.11814123452E+03  0.10566000000E+00 0.  1.
        994    1    1    2    0    0 -0.55163414741E+02  0.33326679533E+00  0.23487640362E+02  0.18139521119E+03  0.17120000000E+03 0.  0.
        998    1    1    2    0    0  0.40182925188E+02 -0.49513576544E+02  0.13701440232E+04  0.13716635543E+04  0.10000000000E+02 0.  1.
</event>
<event>
 5    1  0.1321379E-008  0.4382643E+03  0.7957747E-01  0.3231058E+00
         13   -1    0    0    0    0  0.00000000000E+00  0.00000000000E+00  0.14999999963E+04  0.15000000000E+04  0.10566000000E+00 0. -1.
        994   -1    0    0    0    0 -0.00000000000E+00 -0.00000000000E+00  0.11368683772E-12  0.17120000000E+03  0.17120000000E+03 0.  0.
         13    1    1    2    0    0  0.33074795816E+02  0.78927778039E+02  0.50294622745E+02  0.99262764950E+02  0.10566000000E+00 0. -1.
        994    1    1    2    0    0 -0.29535343461E+02 -0.85479337405E+02  0.92334496287E+02  0.21450909734E+03  0.17120000000E+03 0.  0.
        998    1    1    2    0    0 -0.35394523545E+01  0.65515593658E+01  0.13573708772E+04  0.13574281377E+04  0.10000000000E+02 0. -1.
</event>
<event>
 5    1  0.1321379E-008  0.3825307E+03  0.7957747E-01  0.3440213E+00
         13   -1    0    0    0    0  0.00000000000E+00  0.00000000000E+00  0.14999999963E+04  0.15000000000E+04  0.10566000000E+00 0. -1.
        994   -1    0    0    0    0 -0.00000000000E+00 -0.00000000000E+00  0.11368683772E-12  0.17120000000E+03  0.17120000000E+03 0.  0.
         13    1    1    2    0    0 -0.24758587620E+01  0.14872812767E+02  0.37226398302E+02  0.40163992964E+02  0.10566000000E+00 0. -1.
        994    1    1    2    0    0  0.89689438915E+01 -0.19486579941E+02  0.43881356887E+01  0.17259450886E+03  0.17120000000E+03 0.  0.
        998    1    1    2    0    0 -0.64930851296E+01  0.46137671733E+01  0.14583854623E+04  0.14584414982E+04  0.10000000000E+02 0. -1.
</event>
<event>
 5    1  0.1333560E-008  0.3861812E+03  0.7957747E-01  0.3424678E+00
         13   -1    0    0    0    0  0.00000000000E+00  0.00000000000E+00  0.14999999963E+04  0.15000000000E+04  0.10566000000E+00 0. -1.
        994   -1    0    0    0    0 -0.00000000000E+00 -0.00000000000E+00  0.11368683772E-12  0.17120000000E+03  0.17120000000E+03 0.  0.
         13    1    1    2    0    0  0.12727624370E+01 -0.11023801599E+02  0.57372997681E+02  0.58436428303E+02  0.10566000000E+00 0. -1.
        994    1    1    2    0    0 -0.39925669368E+01  0.12771066967E+02  0.16316050455E+01  0.17172985436E+03  0.17120000000E+03 0.  0.
        998    1    1    2    0    0  0.27198044998E+01 -0.17472653676E+01  0.14409953936E+04  0.14410337173E+04  0.10000000000E+02 0. -1.
</event>
<event>
 5    1  0.1321379E-008  0.3852197E+03  0.7957747E-01  0.3428741E+00
         13   -1    0    0    0    0  0.00000000000E+00  0.00000000000E+00  0.14999999963E+04  0.15000000000E+04  0.10566000000E+00 0.  1.
        994   -1    0    0    0    0 -0.00000000000E+00 -0.00000000000E+00  0.11368683772E-12  0.17120000000E+03  0.17120000000E+03 0.  0.
         13    1    1    2    0    0  0.13792006901E+02  0.31974106478E+01  0.67785728203E+02  0.69248530679E+02  0.10566000000E+00 0.  1.
        994    1    1    2    0    0 -0.58274914083E+01  0.10140631600E+01  0.16360847956E+01  0.17130996688E+03  0.17120000000E+03 0.  0.
        998    1    1    2    0    0 -0.79645154924E+01 -0.42114738078E+01  0.14305781833E+04  0.14306415024E+04  0.10000000000E+02 0.  1.
</event>
<event>
 5    1  0.1321379E-008  0.3810967E+03  0.7957747E-01  0.3446397E+00
         13   -1    0    0    0    0  0.00000000000E+00  0.00000000000E+00  0.14999999963E+04  0.15000000000E+04  0.10566000000E+00 0. -1.
        994   -1    0    0    0    0 -0.00000000000E+00 -0.00000000000E+00  0.11368683772E-12  0.17120000000E+03  0.17120000000E+03 0.  0.
         13    1    1    2    0    0  0.38729477331E+02  0.21208880729E+02  0.25039010835E+03  0.25425382309E+03  0.10566000000E+00 0. -1.
        994    1    1    2    0    0 -0.30299400077E+02 -0.15916279240E+02  0.74921014666E+01  0.17474825657E+03  0.17120000000E+03 0.  0.
        998    1    1    2    0    0 -0.84300772532E+01 -0.52926014886E+01  0.12421177865E+04  0.12421979203E+04  0.10000000000E+02 0. -1.
</event>
<event>
 5    1  0.1321379E-008  0.3693457E+03  0.7957747E-01  0.3498904E+00
         13   -1    0    0    0    0  0.00000000000E+00  0.00000000000E+00  0.14999999963E+04  0.15000000000E+04  0.10566000000E+00 0. -1.
        994   -1    0    0    0    0 -0.00000000000E+00 -0.00000000000E+00  0.11368683772E-12  0.17120000000E+03  0.17120000000E+03 0.  0.
         13    1    1    2    0    0 -0.31215667522E+00 -0.39222350629E+02  0.69113045165E+02  0.79467694107E+02  0.10566000000E+00 0. -1.
        994    1    1    2    0    0 -0.16648115444E+02  0.24066583743E+02  0.13586023764E+02  0.17421360522E+03  0.17120000000E+03 0.  0.
        998    1    1    2    0    0  0.16960272119E+02  0.15155766886E+02  0.14173009274E+04  0.14175187007E+04  0.10000000000E+02 0. -1.
</event>
<event>
 5    1  0.1610804E-008  0.3861046E+03  0.7957747E-01  0.3425001E+00
         13   -1    0    0    0    0  0.00000000000E+00  0.00000000000E+00  0.14999999963E+04  0.15000000000E+04  0.10566000000E+00 0.  1.
        994   -1    0    0    0    0 -0.00000000000E+00 -0.00000000000E+00  0.11368683772E-12  0.17120000000E+03  0.17120000000E+03 0.  0.
         13    1    1    2    0    0 -0.10408318544E+02  0.37696495608E+01  0.57398892997E+02  0.58456714192E+02  0.10566000000E+00 0.  1.
        994    1    1    2    0    0  0.76891384561E+01 -0.33245023404E+00  0.12768345012E+01  0.17137766389E+03  0.17120000000E+03 0.  0.
        998    1    1    2    0    0  0.27191800878E+01 -0.34371993268E+01  0.14413242688E+04  0.14413656219E+04  0.10000000000E+02 0.  1.
</event>
<event>
 5    1  0.1321379E-008  0.3717684E+03  0.7957747E-01  0.3487803E+00
         13   -1    0    0    0    0  0.00000000000E+00  0.00000000000E+00  0.14999999963E+04  0.15000000000E+04  0.10566000000E+00 0.  1.
        994   -1    0    0    0    0 -0.00000000000E+00 -0.00000000000E+00  0.11368683772E-12  0.17120000000E+03  0.17120000000E+03 0.  0.
         13    1    1    2    0    0 -0.96113402713E+02 -0.37259771297E+02  0.43851145251E+03  0.45046462890E+03  0.10566000000E+00 0.  1.
        994    1    1    2    0    0  0.56626260746E+02  0.23907825641E+02  0.25288792578E+02  0.18364934131E+03  0.17120000000E+03 0.  0.
        998    1    1    2    0    0  0.39487141967E+02  0.13351945656E+02  0.10361997512E+04  0.10370860298E+04  0.10000000000E+02 0.  1.
</event>
<event>
 5    1  0.1321379E-008  0.3835508E+03  0.7957747E-01  0.3435842E+00
         13   -1    0    0    0    0  0.00000000000E+00  0.00000000000E+00  0.14999999963E+04  0.15000000000E+04  0.10566000000E+00 0. -1.
        994   -1    0    0    0    0 -0.00000000000E+00 -0.00000000000E+00  0.11368683772E-12  0.17120000000E+03  0.17120000000E+03 0.  0.
         13    1    1    2    0    0  0.24079900465E+02  0.54593970748E+00  0.12417782270E+03  0.12649222297E+03  0.10566000000E+00 0. -1.
        994    1    1    2    0    0 -0.13172618795E+02 -0.70122190569E+00  0.29265414373E+01  0.17173239136E+03  0.17120000000E+03 0.  0.
        998    1    1    2    0    0 -0.10907281671E+02  0.15528219820E+00  0.13728956321E+04  0.13729753857E+04  0.10000000000E+02 0. -1.
</event>
<event>
 5    1  0.1321379E-008  0.3811358E+03  0.7957747E-01  0.3446228E+00
         13   -1    0    0    0    0  0.00000000000E+00  0.00000000000E+00  0.14999999963E+04  0.15000000000E+04  0.10566000000E+00 0.  1.
        994   -1    0    0    0    0 -0.00000000000E+00 -0.00000000000E+00  0.11368683772E-12  0.17120000000E+03  0.17120000000E+03 0.  0.
         13    1    1    2    0    0  0.14323173308E+01  0.27528322900E+02  0.11375579318E+03  0.11704807448E+03  0.10566000000E+00 0.  1.
        994    1    1    2    0    0 -0.10722037921E+02 -0.35598965373E+01  0.39861050432E+01  0.17161865864E+03  0.17120000000E+03 0.  0.
        998    1    1    2    0    0  0.92897205905E+01 -0.23968426363E+02  0.13822580981E+04  0.13825332669E+04  0.10000000000E+02 0.  1.
</event>
<event>
 5    1  0.1321379E-008  0.3731039E+03  0.7957747E-01  0.3481746E+00
         13   -1    0    0    0    0  0.00000000000E+00  0.00000000000E+00  0.14999999963E+04  0.15000000000E+04  0.10566000000E+00 0. -1.
        994   -1    0    0    0    0 -0.00000000000E+00 -0.00000000000E+00  0.11368683772E-12  0.17120000000E+03  0.17120000000E+03 0.  0.
         13    1    1    2    0    0 -0.23365278360E+02  0.38092833948E+01  0.34621454253E+02  0.41941663432E+02  0.10566000000E+00 0. -1.
        994    1    1    2    0    0 -0.24860023705E+01 -0.35572850561E+02  0.12018368619E+02  0.17528687655E+03  0.17120000000E+03 0.  0.
        998    1    1    2    0    0  0.25851280731E+02  0.31763567166E+02  0.14533601734E+04  0.14539714600E+04  0.10000000000E+02 0. -1.
</event>
<event>
 5    1  0.1321379E-008  0.3800000E+03  0.7957747E-01  0.3451158E+00
         13   -1    0    0    0    0  0.00000000000E+00  0.00000000000E+00  0.14999999963E+04  0.15000000000E+04  0.10566000000E+00 0. -1.
        994   -1    0    0    0    0 -0.00000000000E+00 -0.00000000000E+00  0.11368683772E-12  0.17120000000E+03  0.17120000000E+03 0.  0.
         13    1    1    2    0    0 -0.27169568475E+02  0.50855361270E+02  0.32674157391E+03  0.33178987402E+03  0.10566000000E+00 0. -1.
        994    1    1    2    0    0  0.35857398519E+02 -0.42631761234E+02  0.14577575675E+02  0.18062437767E+03  0.17120000000E+03 0.  0.
        998    1    1    2    0    0 -0.86878300435E+01 -0.82236000362E+01  0.11586808467E+04  0.11587857483E+04  0.10000000000E+02 0. -1.
</event>
<event>
 5    1  0.1321379E-008  0.3805699E+03  0.7957747E-01  0.3448681E+00
         13   -1    0    0    0    0  0.00000000000E+00  0.00000000000E+00  0.14999999963E+04  0.15000000000E+04  0.10566000000E+00 0.  1.
        994   -1    0    0    0    0 -0.00000000000E+00 -0.00000000000E+00  0.11368683772E-12  0.17120000000E+03  0.17120000000E+03 0.  0.
         13    1    1    2    0    0  0.21086201860E+02  0.65477214180E+01  0.61524308619E+02  0.65366293146E+02  0.10566000000E+00 0.  1.
        994    1    1    2    0    0 -0.13492845555E+02 -0.10470481607E+02  0.48196065660E+01  0.17211727535E+03  0.17120000000E+03 0.  0.
        998    1    1    2    0    0 -0.75933563048E+01  0.39227601887E+01  0.14336560811E+04  0.14337164315E+04  0.10000000000E+02 0.  1.
</event>
<event>
 5    1  0.1321379E-008  0.3848580E+03  0.7957747E-01  0.3430275E+00
         13   -1    0    0    0    0  0.00000000000E+00  0.00000000000E+00  0.14999999963E+04  0.15000000000E+04  0.10566000000E+00 0. -1.
        994   -1    0    0    0    0 -0.00000000000E+00 -0.00000000000E+00  0.11368683772E-12  0.17120000000E+03  0.17120000000E+03 0.  0.
         13    1    1    2    0    0  0.96084409679E+01 -0.79497466849E+01  0.43403676755E+02  0.45159837578E+02  0.10566000000E+00 0. -1.
        994    1    1    2    0    0 -0.10929952374E+02  0.14970064191E+02  0.28318687592E+01  0.17222376770E+03  0.17120000000E+03 0.  0.
        998    1    1    2    0    0  0.13215114061E+01 -0.70203175057E+01  0.14537644508E+04  0.14538163947E+04  0.10000000000E+02 0. -1.
</event>
<event>
 5    1  0.1321379E-008  0.3837802E+03  0.7957747E-01  0.3434862E+00
         13   -1    0    0    0    0  0.00000000000E+00  0.00000000000E+00  0.14999999963E+04  0.15000000000E+04  0.10566000000E+00 0.  1.
        994   -1    0    0    0    0 -0.00000000000E+00 -0.00000000000E+00  0.11368683772E-12  0.17120000000E+03  0.17120000000E+03 0.  0.
         13    1    1    2    0    0  0.57958945421E+01 -0.21144850141E+02  0.11257359761E+03  0.11468880993E+03  0.10566000000E+00 0.  1.
        994    1    1    2    0    0 -0.10575487823E+01  0.64875853833E+01  0.23796313478E+01  0.17134266783E+03  0.17120000000E+03 0.  0.
        998    1    1    2    0    0 -0.47383457598E+01  0.14657264758E+02  0.13850467673E+04  0.13851685222E+04  0.10000000000E+02 0.  1.
</event>
<event>
 5    1  0.1321379E-008  0.3829920E+03  0.7957747E-01  0.3438233E+00
         13   -1    0    0    0    0  0.00000000000E+00  0.00000000000E+00  0.14999999963E+04  0.15000000000E+04  0.10566000000E+00 0.  1.
        994   -1    0    0    0    0 -0.00000000000E+00 -0.00000000000E+00  0.11368683772E-12  0.17120000000E+03  0.17120000000E+03 0.  0.
         13    1    1    2    0    0  0.96708900578E+01 -0.10804951173E+02  0.37935303314E+02  0.40612454812E+02  0.10566000000E+00 0.  1.
        994    1    1    2    0    0 -0.67119890316E+01  0.17558815967E+02  0.38009382781E+01  0.17227086215E+03  0.17120000000E+03 0.  0.
        998    1    1    2    0    0 -0.29589010261E+01 -0.67538647942E+01  0.14582637547E+04  0.14583166830E+04  0.10000000000E+02 0.  1.
</event>
<event>
 5    1  0.1321379E-008  0.3702822E+03  0.7957747E-01  0.3494595E+00
         13   -1    0    0    0    0  0.00000000000E+00  0.00000000000E+00  0.14999999963E+04  0.15000000000E+04  0.10566000000E+00 0.  1.
        994   -1    0    0    0    0 -0.00000000000E+00 -0.00000000000E+00  0.11368683772E-12  0.17120000000E+03  0.17120000000E+03 0.  0.
         13    1    1    2    0    0  0.36312940345E+02 -0.23336922736E+02  0.93146688204E+02  0.10266235087E+03  0.10566000000E+00 0.  1.
        994    1    1    2    0    0 -0.37505040355E+02  0.22120017836E+02  0.15699282855E+02  0.17734664001E+03  0.17120000000E+03 0.  0.
        998    1    1    2    0    0  0.11921000098E+01  0.12169048997E+01  0.13911540252E+04  0.13911910091E+04  0.10000000000E+02 0.  1.
</event>
<event>
 5    1  0.1321379E-008  0.3757691E+03  0.7957747E-01  0.3469790E+00
         13   -1    0    0    0    0  0.00000000000E+00  0.00000000000E+00  0.14999999963E+04  0.15000000000E+04  0.10566000000E+00 0. -1.
        994   -1    0    0    0    0 -0.00000000000E+00 -0.00000000000E+00  0.11368683772E-12  0.17120000000E+03  0.17120000000E+03 0.  0.
         13    1    1    2    0    0  0.91677837028E+01 -0.17790882417E+02  0.26979180175E+02  0.33592425964E+02  0.10566000000E+00 0. -1.
        994    1    1    2    0    0 -0.30693980107E+02  0.33609069474E+02  0.13340728966E+02  0.17764882498E+03  0.17120000000E+03 0.  0.
        998    1    1    2    0    0  0.21526196404E+02 -0.15818187057E+02  0.14596800871E+04  0.14599587491E+04  0.10000000000E+02 0. -1.
</event>
<event>
 5    1  0.1321379E-008  0.3766362E+03  0.7957747E-01  0.3465937E+00
         13   -1    0    0    0    0  0.00000000000E+00  0.00000000000E+00  0.14999999963E+04  0.15000000000E+04  0.10566000000E+00 0. -1.
        994   -1    0    0    0    0 -0.00000000000E+00 -0.00000000000E+00  0.11368683772E-12  0.17120000000E+03  0.17120000000E+03 0.  0.
         13    1    1    2    0    0 -0.74877182590E+01 -0.17348205358E+02  0.27729038626E+02  0.33554983252E+02  0.10566000000E+00 0. -1.
        994    1    1    2    0    0  0.90285356739E+01  0.16270527463E+02  0.70122381060E+01  0.17235096752E+03  0.17120000000E+03 0.  0.
        998    1    1    2    0    0 -0.15408174148E+01  0.10776778957E+01  0.14652587195E+04  0.14652940492E+04  0.10000000000E+02 0. -1.
</event>
<event>
 5    1  0.1321379E-008  0.3822591E+03  0.7957747E-01  0.3441381E+00
         13   -1    0    0    0    0  0.00000000000E+00  0.00000000000E+00  0.14999999963E+04  0.15000000000E+04  0.10566000000E+00 0.  1.
        994   -1    0    0    0    0 -0.00000000000E+00 -0.00000000000E+00  0.11368683772E-12  0.17120000000E+03  0.17120000000E+03 0.  0.
         13    1    1    2    0    0 -0.32298800418E+01 -0.15874129504E+02  0.41899213889E+02  0.44921881095E+02  0.10566000000E+00 0.  1.
        994    1    1    2    0    0  0.47944477534E+01  0.15270850513E+02  0.38476331687E+01  0.17198962145E+03  0.17120000000E+03 0.  0.
        998    1    1    2    0    0 -0.15645677117E+01  0.60327899065E+00  0.14542531492E+04  0.14542884975E+04  0.10000000000E+02 0.  1.
</event>
<event>
 5    1  0.1321379E-008  0.3780745E+03  0.7957747E-01  0.3459586E+00
         13   -1    0    0    0    0  0.00000000000E+00  0.00000000000E+00  0.14999999963E+04  0.15000000000E+04  0.10566000000E+00 0. -1.
        994   -1    0    0    0    0 -0.00000000000E+00 -0.00000000000E+00  0.11368683772E-12  0.17120000000E+03  0.17120000000E+03 0.  0.
         13    1    1    2    0    0  0.13810366963E+02 -0.35598251902E+01  0.17494722885E+02  0.22571554752E+02  0.10566000000E+00 0. -1.
        994    1    1    2    0    0 -0.13968766446E+02  0.63618479336E+01  0.59013364016E+01  0.17198798015E+03  0.17120000000E+03 0.  0.
        998    1    1    2    0    0  0.15839948295E+00 -0.28020227435E+01  0.14766039370E+04  0.14766404651E+04  0.10000000000E+02 0. -1.
</event>
<event>
 5    1  0.1321379E-008  0.3745789E+03  0.7957747E-01  0.3475108E+00
         13   -1    0    0    0    0  0.00000000000E+00  0.00000000000E+00  0.14999999963E+04  0.15000000000E+04  0.10566000000E+00 0.  1.
        994   -1    0    0    0    0 -0.00000000000E+00 -0.00000000000E+00  0.11368683772E-12  0.17120000000E+03  0.17120000000E+03 0.  0.
         13    1    1    2    0    0  0.60097036864E+01  0.21685895539E+02  0.32842208327E+02  0.39812264637E+02  0.10566000000E+00 0.  1.
        994    1    1    2    0    0 -0.29494550824E+02 -0.19624830435E+02  0.11179374037E+02  0.17518413428E+03  0.17120000000E+03 0.  0.
        998    1    1    2    0    0  0.23484847138E+02 -0.20610651049E+01  0.14559784139E+04  0.14562036011E+04  0.10000000000E+02 0.  1.
</event>
<event>
 5    1  0.1321379E-008  0.3752456E+03  0.7957747E-01  0.3472125E+00
         13   -1    0    0    0    0  0.00000000000E+00  0.00000000000E+00  0.14999999963E+04  0.15000000000E+04  0.10566000000E+00 0.  1.
        994   -1    0    0    0    0 -0.00000000000E+00 -0.00000000000E+00  0.11368683772E-12  0.17120000000E+03  0.17120000000E+03 0.  0.
         13    1    1    2    0    0  0.12702556005E+02 -0.11372474236E+02  0.18958343734E+02  0.25497412820E+02  0.10566000000E+00 0.  1.
        994    1    1    2    0    0 -0.11267709628E+02  0.18529794845E+02  0.81516391363E+01  0.17276053889E+03  0.17120000000E+03 0.  0.
        998    1    1    2    0    0 -0.14348463771E+01 -0.71573206086E+01  0.14728900134E+04  0.14729420483E+04  0.10000000000E+02 0.  1.
</event>
<event>
 5    1  0.1321379E-008  0.3860757E+03  0.7957747E-01  0.3425123E+00
         13   -1    0    0    0    0  0.00000000000E+00  0.00000000000E+00  0.14999999963E+04  0.15000000000E+04  0.10566000000E+00 0.  1.
        994   -1    0    0    0    0 -0.00000000000E+00 -0.00000000000E+00  0.11368683772E-12  0.17120000000E+03  0.17120000000E+03 0.  0.
         13    1    1    2    0    0  0.21790805365E+01 -0.10864984586E+02  0.53654593806E+02  0.54787068571E+02  0.10566000000E+00 0.  1.
        994    1    1    2    0    0  0.10201558445E+01  0.15990925440E+02  0.19388762292E+01  0.17195915112E+03  0.17120000000E+03 0.  0.
        998    1    1    2    0    0 -0.31992363810E+01 -0.51259408535E+01  0.14444065262E+04  0.14444537803E+04  0.10000000000E+02 0.  1.
</event>
<event>
 5    1  0.1321379E-008  0.3722403E+03  0.7957747E-01  0.3485658E+00
         13   -1    0    0    0    0  0.00000000000E+00  0.00000000000E+00  0.14999999963E+04  0.15000000000E+04  0.10566000000E+00 0.  1.
        994   -1    0    0    0    0 -0.00000000000E+00 -0.00000000000E+00  0.11368683772E-12  0.17120000000E+03  0.17120000000E+03 0.  0.
         13    1    1    2    0    0 -0.12900182995E+02  0.21264713872E+02  0.34425212883E+02  0.42470097992E+02  0.10566000000E+00 0.  1.
        994    1    1    2    0    0  0.11901122085E+02 -0.18552884020E+02  0.97715673992E+01  0.17288947262E+03  0.17120000000E+03 0.  0.
        998    1    1    2    0    0  0.99906090997E+00 -0.27118298519E+01  0.14558032160E+04  0.14558404294E+04  0.10000000000E+02 0.  1.
</event>
<event>
 5    1  0.1321379E-008  0.3857642E+03  0.7957747E-01  0.3426438E+00
         13   -1    0    0    0    0  0.00000000000E+00  0.00000000000E+00  0.14999999963E+04  0.15000000000E+04  0.10566000000E+00 0. -1.
        994   -1    0    0    0    0 -0.00000000000E+00 -0.00000000000E+00  0.11368683772E-12  0.17120000000E+03  0.17120000000E+03 0.  0.
         13    1    1    2    0    0  0.36806791305E+01  0.10189662610E+02  0.46409831279E+02  0.47657740466E+02  0.10566000000E+00 0. -1.
        994    1    1    2    0    0 -0.74300737485E+01 -0.83087976254E+01  0.16588941032E+01  0.17157049293E+03  0.17120000000E+03 0.  0.
        998    1    1    2    0    0  0.37493946180E+01 -0.18808649849E+01  0.14519312709E+04  0.14519717666E+04  0.10000000000E+02 0. -1.
</event>
<event>
 5    1  0.1321379E-008  0.3692520E+03  0.7957747E-01  0.3499336E+00
         13   -1    0    0    0    0  0.00000000000E+00  0.00000000000E+00  0.14999999963E+04  0.15000000000E+04  0.10566000000E+00 0.  1.
        994   -1    0    0    0    0 -0.00000000000E+00 -0.00000000000E+00  0.11368683772E-12  0.17120000000E+03  0.17120000000E+03 0.  0.
         13    1    1    2    0    0 -0.11359040602E+03 -0.82502625638E+02  0.56342793704E+03  0.58065524624E+03  0.10566000000E+00 0.  1.
        994    1    1    2    0    0  0.12128338846E+03  0.80442103875E+02  0.87121988471E+02  0.24099849225E+03  0.17120000000E+03 0.  0.
        998    1    1    2    0    0 -0.76929824448E+01  0.20605217631E+01  0.84945007076E+03  0.84954626151E+03  0.10000000000E+02 0.  0.
</event>
<event>
 5    1  0.1321379E-008  0.3707350E+03  0.7957747E-01  0.3492520E+00
         13   -1    0    0    0    0  0.00000000000E+00  0.00000000000E+00  0.14999999963E+04  0.15000000000E+04  0.10566000000E+00 0.  1.
        994   -1    0    0    0    0 -0.00000000000E+00 -0.00000000000E+00  0.11368683772E-12  0.17120000000E+03  0.17120000000E+03 0.  0.
         13    1    1    2    0    0 -0.57066598667E+02 -0.19203057728E+02  0.18551749804E+03  0.19504386007E+03  0.10566000000E+00 0.  1.
        994    1    1    2    0    0  0.42207534121E+02  0.36710990654E+02  0.19756113452E+02  0.18118751831E+03  0.17120000000E+03 0.  0.
        998    1    1    2    0    0  0.14859064546E+02 -0.17507932926E+02  0.12947263848E+04  0.12949686216E+04  0.10000000000E+02 0.  1.
</event>
<event>
 5    1  0.1321379E-008  0.3745657E+03  0.7957747E-01  0.3475167E+00
         13   -1    0    0    0    0  0.00000000000E+00  0.00000000000E+00  0.14999999963E+04  0.15000000000E+04  0.10566000000E+00 0.  1.
        994   -1    0    0    0    0 -0.00000000000E+00 -0.00000000000E+00  0.11368683772E-12  0.17120000000E+03  0.17120000000E+03 0.  0.
         13    1    1    2    0    0 -0.15240314455E+02 -0.87002544044E+02  0.34760761766E+03  0.35865411872E+03  0.10566000000E+00 0.  1.
        994    1    1    2    0    0  0.20988295977E+02  0.18915311521E+02  0.16215041317E+02  0.17427181397E+03  0.17120000000E+03 0.  0.
        998    1    1    2    0    0 -0.57479815219E+01  0.68087232523E+02  0.11361773373E+04  0.11382740673E+04  0.10000000000E+02 0.  1.
</event>
<event>
 5    1  0.1321379E-008  0.3845879E+03  0.7957747E-01  0.3431422E+00
         13   -1    0    0    0    0  0.00000000000E+00  0.00000000000E+00  0.14999999963E+04  0.15000000000E+04  0.10566000000E+00 0. -1.
        994   -1    0    0    0    0 -0.00000000000E+00 -0.00000000000E+00  0.11368683772E-12  0.17120000000E+03  0.17120000000E+03 0.  0.
         13    1    1    2    0    0  0.81186139072E+01  0.14591216426E+02  0.72653223465E+02  0.74547418013E+02  0.10566000000E+00 0. -1.
        994    1    1    2    0    0 -0.11245325673E+02 -0.13891560723E+02  0.28875069685E+01  0.17215461221E+03  0.17120000000E+03 0.  0.
        998    1    1    2    0    0  0.31267117661E+01 -0.69965570377E+00  0.14244592658E+04  0.14244979698E+04  0.10000000000E+02 0. -1.
</event>
<event>
 5    1  0.1321379E-008  0.3816771E+03  0.7957747E-01  0.3443888E+00
         13   -1    0    0    0    0  0.00000000000E+00  0.00000000000E+00  0.14999999963E+04  0.15000000000E+04  0.10566000000E+00 0.  1.
        994   -1    0    0    0    0 -0.00000000000E+00 -0.00000000000E+00  0.11368683772E-12  0.17120000000E+03  0.17120000000E+03 0.  0.
         13    1    1    2    0    0 -0.27383113182E+02  0.13773293309E+02  0.13147409963E+03  0.13499995753E+03  0.10566000000E+00 0.  1.
        994    1    1    2    0    0  0.25993363935E+02 -0.14910021702E+02  0.62799312318E+01  0.17391619031E+03  0.17120000000E+03 0.  0.
        998    1    1    2    0    0  0.13897492475E+01  0.11367283932E+01  0.13622459654E+04  0.13622838522E+04  0.10000000000E+02 0.  1.
</event>
<event>
 5    1  0.1321379E-008  0.3735216E+03  0.7957747E-01  0.3479861E+00
         13   -1    0    0    0    0  0.00000000000E+00  0.00000000000E+00  0.14999999963E+04  0.15000000000E+04  0.10566000000E+00 0. -1.
        994   -1    0    0    0    0 -0.00000000000E+00 -0.00000000000E+00  0.11368683772E-12  0.17120000000E+03  0.17120000000E+03 0.  0.
         13    1    1    2    0    0  0.44703956281E+02 -0.36845613503E+01  0.13145411632E+03  0.13889642026E+03  0.10566000000E+00 0. -1.
        994    1    1    2    0    0 -0.27854710465E+02  0.15667143787E+02  0.10936989742E+02  0.17450043563E+03  0.17120000000E+03 0.  0.
        998    1    1    2    0    0 -0.16849245816E+02 -0.11982582437E+02  0.13576088902E+04  0.13578031441E+04  0.10000000000E+02 0. -1.
</event>
<event>
 5    1  0.1321379E-008  0.2982072E+03  0.7957747E-01  0.3908902E+00
         13   -1    0    0    0    0  0.00000000000E+00  0.00000000000E+00  0.14999999963E+04  0.15000000000E+04  0.10566000000E+00 0.  1.
        994   -1    0    0    0    0 -0.00000000000E+00 -0.00000000000E+00  0.11368683772E-12  0.17120000000E+03  0.17120000000E+03 0.  0.
         13    1    1    2    0    0  0.64919700969E+02  0.12927691102E+03  0.81564532842E+03  0.82837455310E+03  0.10566000000E+00 0.  1.
        994    1    1    2    0    0  0.25614385773E+02 -0.73935085614E+02  0.43534082113E+02  0.19320235493E+03  0.17120000000E+03 0.  0.
        998    1    1    2    0    0 -0.90534086742E+02 -0.55341825409E+02  0.64082058575E+03  0.64962309197E+03  0.10000000000E+02 0.  1.
</event>
<event>
 5    1  0.1321379E-008  0.3849745E+03  0.7957747E-01  0.3429780E+00
         13   -1    0    0    0    0  0.00000000000E+00  0.00000000000E+00  0.14999999963E+04  0.15000000000E+04  0.10566000000E+00 0. -1.
        994   -1    0    0    0    0 -0.00000000000E+00 -0.00000000000E+00  0.11368683772E-12  0.17120000000E+03  0.17120000000E+03 0.  0.
         13    1    1    2    0    0  0.66876147019E+01  0.11963550054E+02  0.59136768128E+02  0.60704359225E+02  0.10566000000E+00 0. -1.
        994    1    1    2    0    0 -0.11182322993E+02  0.21549766165E+01  0.20694498676E+01  0.17159082404E+03  0.17120000000E+03 0.  0.
        998    1    1    2    0    0  0.44947082916E+01 -0.14118526671E+02  0.14387937783E+04  0.14389048167E+04  0.10000000000E+02 0. -1.
</event>
<event>
 5    1  0.1321379E-008  0.3818243E+03  0.7957747E-01  0.3443253E+00
         13   -1    0    0    0    0  0.00000000000E+00  0.00000000000E+00  0.14999999963E+04  0.15000000000E+04  0.10566000000E+00 0.  1.
        994   -1    0    0    0    0 -0.00000000000E+00 -0.00000000000E+00  0.11368683772E-12  0.17120000000E+03  0.17120000000E+03 0.  0.
         13    1    1    2    0    0 -0.26768356768E+02 -0.10406284776E+02  0.12706976634E+03  0.13027498751E+03  0.10566000000E+00 0.  1.
        994    1    1    2    0    0  0.19226289354E+02 -0.11408252627E+01  0.44486581685E+01  0.17233740814E+03  0.17120000000E+03 0.  0.
        998    1    1    2    0    0  0.75420674137E+01  0.11547110038E+02  0.13684815718E+04  0.13685876044E+04  0.10000000000E+02 0.  1.
</event>
<event>
 5    1  0.1321379E-008  0.3826814E+03  0.7957747E-01  0.3439566E+00
         13   -1    0    0    0    0  0.00000000000E+00  0.00000000000E+00  0.14999999963E+04  0.15000000000E+04  0.10566000000E+00 0. -1.
        994   -1    0    0    0    0 -0.00000000000E+00 -0.00000000000E+00  0.11368683772E-12  0.17120000000E+03  0.17120000000E+03 0.  0.
         13    1    1    2    0    0 -0.92600417301E+01 -0.22399915469E+02  0.10103534349E+03  0.10390214812E+03  0.10566000000E+00 0. -1.
        994    1    1    2    0    0  0.15825856514E+02  0.15849358759E+02  0.44497377271E+01  0.17271624149E+03  0.17120000000E+03 0.  0.
        998    1    1    2    0    0 -0.65658147841E+01  0.65505567103E+01  0.13945149151E+04  0.13945816104E+04  0.10000000000E+02 0. -1.
</event>
<event>
 5    1  0.1321379E-008  0.3704293E+03  0.7957747E-01  0.3493920E+00
         13   -1    0    0    0    0  0.00000000000E+00  0.00000000000E+00  0.14999999963E+04  0.15000000000E+04  0.10566000000E+00 0. -1.
        994   -1    0    0    0    0 -0.00000000000E+00 -0.00000000000E+00  0.11368683772E-12  0.17120000000E+03  0.17120000000E+03 0.  0.
         13    1    1    2    0    0 -0.45376454095E+02  0.25830368123E+02  0.11382605519E+03  0.12523023799E+03  0.10566000000E+00 0. -1.
        994    1    1    2    0    0  0.38869413354E+02 -0.18820381013E+02  0.17724518018E+02  0.17745037778E+03  0.17120000000E+03 0.  0.
        998    1    1    2    0    0  0.65070407418E+01 -0.70099871093E+01  0.13684494231E+04  0.13685193842E+04  0.10000000000E+02 0. -1.
</event>
<event>
 5    1  0.1321379E-008  0.3823856E+03  0.7957747E-01  0.3440836E+00
         13   -1    0    0    0    0  0.00000000000E+00  0.00000000000E+00  0.14999999963E+04  0.15000000000E+04  0.10566000000E+00 0. -1.
        994   -1    0    0    0    0 -0.00000000000E+00 -0.00000000000E+00  0.11368683772E-12  0.17120000000E+03  0.17120000000E+03 0.  0.
         13    1    1    2    0    0  0.87472650306E+01 -0.12479292973E+02  0.38913323612E+02  0.41791211004E+02  0.10566000000E+00 0. -1.
        994    1    1    2    0    0 -0.48729429213E+01  0.63326645386E+01  0.31455165646E+01  0.17141523412E+03  0.17120000000E+03 0.  0.
        998    1    1    2    0    0 -0.38743221092E+01  0.61466284344E+01  0.14579411561E+04  0.14579935549E+04  0.10000000000E+02 0. -1.
</event>
<event>
 5    1  0.1321379E-008  0.3800547E+03  0.7957747E-01  0.3450920E+00
         13   -1    0    0    0    0  0.00000000000E+00  0.00000000000E+00  0.14999999963E+04  0.15000000000E+04  0.10566000000E+00 0. -1.
        994   -1    0    0    0    0 -0.00000000000E+00 -0.00000000000E+00  0.11368683772E-12  0.17120000000E+03  0.17120000000E+03 0.  0.
         13    1    1    2    0    0 -0.82241971444E+01  0.89762898127E+01  0.16035490159E+02  0.20133536851E+02  0.10566000000E+00 0. -1.
        994    1    1    2    0    0  0.10101141645E+02 -0.11277029795E+02  0.48719685910E+01  0.17193714125E+03  0.17120000000E+03 0.  0.
        998    1    1    2    0    0 -0.18769445003E+01  0.23007399822E+01  0.14790925375E+04  0.14791293219E+04  0.10000000000E+02 0. -1.
</event>
<event>
 5    1  0.1321379E-008  0.3730911E+03  0.7957747E-01  0.3481804E+00
         13   -1    0    0    0    0  0.00000000000E+00  0.00000000000E+00  0.14999999963E+04  0.15000000000E+04  0.10566000000E+00 0.  1.
        994   -1    0    0    0    0 -0.00000000000E+00 -0.00000000000E+00  0.11368683772E-12  0.17120000000E+03  0.17120000000E+03 0.  0.
         13    1    1    2    0    0  0.51630620862E+02 -0.48921095529E+02  0.27006783868E+03  0.27927700094E+03  0.10566000000E+00 0.  1.
        994    1    1    2    0    0 -0.43493739859E+02  0.56741347386E+02  0.25356510512E+02  0.18725298004E+03  0.17120000000E+03 0.  0.
        998    1    1    2    0    0 -0.81368810028E+01 -0.78202518566E+01  0.12045756471E+04  0.12046700190E+04  0.10000000000E+02 0.  1.
</event>
<event>
 5    1  0.1321379E-008  0.3732200E+03  0.7957747E-01  0.3481222E+00
         13   -1    0    0    0    0  0.00000000000E+00  0.00000000000E+00  0.14999999963E+04  0.15000000000E+04  0.10566000000E+00 0.  1.
        994   -1    0    0    0    0 -0.00000000000E+00 -0.00000000000E+00  0.11368683772E-12  0.17120000000E+03  0.17120000000E+03 0.  0.
         13    1    1    2    0    0  0.11653093949E+02  0.77052858801E+01  0.94629532007E+01  0.16873786665E+02  0.10566000000E+00 0.  1.
        994    1    1    2    0    0 -0.70876290135E+01 -0.50821327952E+01  0.78558137043E+01  0.17160191248E+03  0.17120000000E+03 0.  0.
        998    1    1    2    0    0 -0.45654649359E+01 -0.26231530849E+01  0.14826812294E+04  0.14827243009E+04  0.10000000000E+02 0.  1.
</event>
<event>
 5    1  0.1321379E-008  0.3775946E+03  0.7957747E-01  0.3461700E+00
         13   -1    0    0    0    0  0.00000000000E+00  0.00000000000E+00  0.14999999963E+04  0.15000000000E+04  0.10566000000E+00 0. -1.
        994   -1    0    0    0    0 -0.00000000000E+00 -0.00000000000E+00  0.11368683772E-12  0.17120000000E+03  0.17120000000E+03 0.  0.
         13    1    1    2    0    0  0.29288444453E+01 -0.38290139141E+02  0.14289449180E+03  0.14796472498E+03  0.10566000000E+00 0. -1.
        994    1    1    2    0    0 -0.23614188500E+01  0.13542623804E+02  0.59894106235E+01  0.17185543925E+03  0.17120000000E+03 0.  0.
        998    1    1    2    0    0 -0.56742559534E+00  0.24747515337E+02  0.13511160939E+04  0.13513798358E+04  0.10000000000E+02 0. -1.
</event>
<event>
 5    1  0.1321379E-008  0.3840764E+03  0.7957747E-01  0.3433599E+00
         13   -1    0    0    0    0  0.00000000000E+00  0.00000000000E+00  0.14999999963E+04  0.15000000000E+04  0.10566000000E+00 0.  1.
        994   -1    0    0    0    0 -0.00000000000E+00 -0.00000000000E+00  0.11368683772E-12  0.17120000000E+03  0.17120000000E+03 0.  0.
         13    1    1    2    0    0 -0.51290869000E+01 -0.17973221329E+02  0.79832105297E+02  0.81990977660E+02  0.10566000000E+00 0.  1.
        994    1    1    2    0    0  0.22741123351E+00  0.19352450734E+02  0.33258849600E+01  0.17232257709E+03  0.17120000000E+03 0.  0.
        998    1    1    2    0    0  0.49016756665E+01 -0.13792294055E+01  0.14168420060E+04  0.14168864452E+04  0.10000000000E+02 0.  1.
</event>
<event>
 5    1  0.1321379E-008  0.3821793E+03  0.7957747E-01  0.3441724E+00
         13   -1    0    0    0    0  0.00000000000E+00  0.00000000000E+00  0.14999999963E+04  0.15000000000E+04  0.10566000000E+00 0. -1.
        994   -1    0    0    0    0 -0.00000000000E+00 -0.00000000000E+00  0.11368683772E-12  0.17120000000E+03  0.17120000000E+03 0.  0.
         13    1    1    2    0    0  0.17673993835E+02  0.29924912081E+02  0.18133873730E+03  0.18463915953E+03  0.10566000000E+00 0. -1.
        994    1    1    2    0    0 -0.88649594527E+01 -0.31203077586E+02  0.65372778699E+01  0.17436856242E+03  0.17120000000E+03 0.  0.
        998    1    1    2    0    0 -0.88090343827E+01  0.12781655053E+01  0.13121239811E+04  0.13121922781E+04  0.10000000000E+02 0. -1.
</event>
<event>
 5    1  0.1321379E-008  0.3770181E+03  0.7957747E-01  0.3464246E+00
         13   -1    0    0    0    0  0.00000000000E+00  0.00000000000E+00  0.14999999963E+04  0.15000000000E+04  0.10566000000E+00 0. -1.
        994   -1    0    0    0    0 -0.00000000000E+00 -0.00000000000E+00  0.11368683772E-12  0.17120000000E+03  0.17120000000E+03 0.  0.
         13    1    1    2    0    0  0.10389313291E+02  0.30492923007E+01  0.77703049866E+01  0.13327596100E+02  0.10566000000E+00 0. -1.
        994    1    1    2    0    0 -0.96517048370E+01 -0.43300113603E+01  0.60239227581E+01  0.17163225819E+03  0.17120000000E+03 0.  0.
        998    1    1    2    0    0 -0.73760845379E+00  0.12807190596E+01  0.14862057685E+04  0.14862401457E+04  0.10000000000E+02 0. -1.
</event>
<event>
 5    1  0.1321379E-008  0.3812829E+03  0.7957747E-01  0.3445592E+00
         13   -1    0    0    0    0  0.00000000000E+00  0.00000000000E+00  0.14999999963E+04  0.15000000000E+04  0.10566000000E+00 0. -1.
        994   -1    0    0    0    0 -0.00000000000E+00 -0.00000000000E+00  0.11368683772E-12  0.17120000000E+03  0.17120000000E+03 0.  0.
         13    1    1    2    0    0 -0.18211993842E+02 -0.12377722904E+02  0.75895019656E+02  0.79024995517E+02  0.10566000000E+00 0. -1.
        994    1    1    2    0    0  0.16322643316E+01 -0.15359089524E+02  0.42815058160E+01  0.17194864701E+03  0.17120000000E+03 0.  0.
        998    1    1    2    0    0  0.16579729510E+02  0.27736812428E+02  0.14198234708E+04  0.14202263575E+04  0.10000000000E+02 0. -1.
</event>
<event>
 5    1  0.1321379E-008  0.3848016E+03  0.7957747E-01  0.3430514E+00
         13   -1    0    0    0    0  0.00000000000E+00  0.00000000000E+00  0.14999999963E+04  0.15000000000E+04  0.10566000000E+00 0.  1.
        994   -1    0    0    0    0 -0.00000000000E+00 -0.00000000000E+00  0.11368683772E-12  0.17120000000E+03  0.17120000000E+03 0.  0.
         13    1    1    2    0    0 -0.11750264752E+01  0.12889096242E+02  0.46945043938E+02  0.48696589239E+02  0.10566000000E+00 0.  1.
        994    1    1    2    0    0  0.82529995630E+01 -0.13385628695E+02  0.25428698018E+01  0.17193950461E+03  0.17120000000E+03 0.  0.
        998    1    1    2    0    0 -0.70779730878E+01  0.49653245284E+00  0.14505120825E+04  0.14505639062E+04  0.10000000000E+02 0.  1.
</event>
<event>
 5    1  0.1321379E-008  0.3839476E+03  0.7957747E-01  0.3434148E+00
         13   -1    0    0    0    0  0.00000000000E+00  0.00000000000E+00  0.14999999963E+04  0.15000000000E+04  0.10566000000E+00 0.  1.
        994   -1    0    0    0    0 -0.00000000000E+00 -0.00000000000E+00  0.11368683772E-12  0.17120000000E+03  0.17120000000E+03 0.  0.
         13    1    1    2    0    0 -0.77003633121E+01 -0.68876160869E+01  0.24219421604E+02  0.26331091838E+02  0.10566000000E+00 0.  1.
        994    1    1    2    0    0  0.80713353423E+01 -0.57450744025E-01  0.23685489600E+01  0.17140653365E+03  0.17120000000E+03 0.  0.
        998    1    1    2    0    0 -0.37097203024E+00  0.69450668310E+01  0.14734120257E+04  0.14734623745E+04  0.10000000000E+02 0.  1.
</event>
<event>
 5    1  0.1321379E-008  0.3854913E+03  0.7957747E-01  0.3427591E+00
         13   -1    0    0    0    0  0.00000000000E+00  0.00000000000E+00  0.14999999963E+04  0.15000000000E+04  0.10566000000E+00 0.  1.
        994   -1    0    0    0    0 -0.00000000000E+00 -0.00000000000E+00  0.11368683772E-12  0.17120000000E+03  0.17120000000E+03 0.  0.
         13    1    1    2    0    0 -0.11983713513E+02 -0.16397492944E+00  0.56464474397E+02  0.57722476647E+02  0.10566000000E+00 0.  1.
        994    1    1    2    0    0 -0.45921642891E+01  0.28871741758E+00  0.14559449079E+01  0.17126800958E+03  0.17120000000E+03 0.  0.
        998    1    1    2    0    0  0.16575877802E+02 -0.12474248815E+00  0.14420795770E+04  0.14422095138E+04  0.10000000000E+02 0.  1.
</event>
<event>
 5    1  0.1321379E-008  0.3753493E+03  0.7957747E-01  0.3471662E+00
         13   -1    0    0    0    0  0.00000000000E+00  0.00000000000E+00  0.14999999963E+04  0.15000000000E+04  0.10566000000E+00 0. -1.
        994   -1    0    0    0    0 -0.00000000000E+00 -0.00000000000E+00  0.11368683772E-12  0.17120000000E+03  0.17120000000E+03 0.  0.
         13    1    1    2    0    0 -0.16903218835E+02 -0.14680034083E+00  0.19927396324E+02  0.26131449359E+02  0.10566000000E+00 0. -1.
        994    1    1    2    0    0 -0.35928975388E+01 -0.10788376185E+02  0.69385931812E+01  0.17171744829E+03  0.17120000000E+03 0.  0.
        998    1    1    2    0    0  0.20496116374E+02  0.10935176526E+02  0.14731340068E+04  0.14733511023E+04  0.10000000000E+02 0. -1.
</event>
<event>
 5    1  0.1321379E-008  0.3795809E+03  0.7957747E-01  0.3452985E+00
         13   -1    0    0    0    0  0.00000000000E+00  0.00000000000E+00  0.14999999963E+04  0.15000000000E+04  0.10566000000E+00 0.  1.
        994   -1    0    0    0    0 -0.00000000000E+00 -0.00000000000E+00  0.11368683772E-12  0.17120000000E+03  0.17120000000E+03 0.  0.
         13    1    1    2    0    0 -0.36893061104E+02 -0.34460557545E+01  0.14582011771E+03  0.15045428260E+03  0.10566000000E+00 0.  1.
        994    1    1    2    0    0  0.34831907815E+02 -0.10405155488E+02  0.87814174284E+01  0.17523721738E+03  0.17120000000E+03 0.  0.
        998    1    1    2    0    0  0.20611532894E+01  0.13851211243E+02  0.13453984611E+04  0.13455085000E+04  0.10000000000E+02 0.  1.
</event>
<event>
 5    1  0.1321379E-008  0.3723966E+03  0.7957747E-01  0.3484948E+00
         13   -1    0    0    0    0  0.00000000000E+00  0.00000000000E+00  0.14999999963E+04  0.15000000000E+04  0.10566000000E+00 0. -1.
        994   -1    0    0    0    0 -0.00000000000E+00 -0.00000000000E+00  0.11368683772E-12  0.17120000000E+03  0.17120000000E+03 0.  0.
         13    1    1    2    0    0 -0.13473954120E+02  0.27637853320E+01  0.83822061313E+01  0.16107715314E+02  0.10566000000E+00 0. -1.
        994    1    1    2    0    0 -0.45658388338E+01 -0.14612381517E+02  0.88258607016E+01  0.17210957090E+03  0.17120000000E+03 0.  0.
        998    1    1    2    0    0  0.18039792954E+02  0.11848596185E+02  0.14827919294E+04  0.14829827138E+04  0.10000000000E+02 0. -1.
</event>
<event>
 5    1  0.1321379E-008  0.3832371E+03  0.7957747E-01  0.3437183E+00
         13   -1    0    0    0    0  0.00000000000E+00  0.00000000000E+00  0.14999999963E+04  0.15000000000E+04  0.10566000000E+00 0.  1.
        994   -1    0    0    0    0 -0.00000000000E+00 -0.00000000000E+00  0.11368683772E-12  0.17120000000E+03  0.17120000000E+03 0.  0.
         13    1    1    2    0    0  0.15123423014E+02  0.16344363802E+02  0.94021521514E+02  0.96622532691E+02  0.10566000000E+00 0.  1.
        994    1    1    2    0    0 -0.11270408415E+02 -0.18038704971E+02  0.40057400008E+01  0.17256275072E+03  0.17120000000E+03 0.  0.
        998    1    1    2    0    0 -0.38530145988E+01  0.16943411686E+01  0.14019727348E+04  0.14020147166E+04  0.10000000000E+02 0.  1.
</event>
<event>
 5    1  0.1321379E-008  0.3825619E+03  0.7957747E-01  0.3440079E+00
         13   -1    0    0    0    0  0.00000000000E+00  0.00000000000E+00  0.14999999963E+04  0.15000000000E+04  0.10566000000E+00 0. -1.
        994   -1    0    0    0    0 -0.00000000000E+00 -0.00000000000E+00  0.11368683772E-12  0.17120000000E+03  0.17120000000E+03 0.  0.
         13    1    1    2    0    0  0.46888650449E+01 -0.17743113657E+02  0.56216915633E+02  0.59136759338E+02  0.10566000000E+00 0. -1.
        994    1    1    2    0    0 -0.54762649860E+00  0.20365947425E+02  0.42226005853E+01  0.17245968243E+03  0.17120000000E+03 0.  0.
        998    1    1    2    0    0 -0.41412385463E+01 -0.26228337687E+01  0.14395604801E+04  0.14396035582E+04  0.10000000000E+02 0. -1.
</event>
<event>
 5    1  0.1321379E-008  0.3726261E+03  0.7957747E-01  0.3483908E+00
         13   -1    0    0    0    0  0.00000000000E+00  0.00000000000E+00  0.14999999963E+04  0.15000000000E+04  0.10566000000E+00 0. -1.
        994   -1    0    0    0    0 -0.00000000000E+00 -0.00000000000E+00  0.11368683772E-12  0.17120000000E+03  0.17120000000E+03 0.  0.
         13    1    1    2    0    0  0.56808860998E+02 -0.76316580704E+02  0.47223876750E+03  0.48172703046E+03  0.10566000000E+00 0. -1.
        994    1    1    2    0    0 -0.39321075877E+02  0.64681594558E+02  0.27799738506E+02  0.18924090769E+03  0.17120000000E+03 0.  0.
        998    1    1    2    0    0 -0.17487785121E+02  0.11634986146E+02  0.99996149027E+03  0.10002320619E+04  0.10000000000E+02 0. -1.
</event>
<event>
 5    1  0.1321379E-008  0.3830318E+03  0.7957747E-01  0.3438062E+00
         13   -1    0    0    0    0  0.00000000000E+00  0.00000000000E+00  0.14999999963E+04  0.15000000000E+04  0.10566000000E+00 0.  1.
        994   -1    0    0    0    0 -0.00000000000E+00 -0.00000000000E+00  0.11368683772E-12  0.17120000000E+03  0.17120000000E+03 0.  0.
         13    1    1    2    0    0  0.24313607900E+02  0.11434134951E+01  0.11761441894E+03  0.12010670935E+03  0.10566000000E+00 0.  1.
        994    1    1    2    0    0 -0.93103090422E+01  0.89941785392E+01  0.31652878735E+01  0.17171789700E+03  0.17120000000E+03 0.  0.
        998    1    1    2    0    0 -0.15003298858E+02 -0.10137592034E+02  0.13792202895E+04  0.13793753937E+04  0.10000000000E+02 0.  1.
</event>
<event>
 5    1  0.1321379E-008  0.3794763E+03  0.7957747E-01  0.3453442E+00
         13   -1    0    0    0    0  0.00000000000E+00  0.00000000000E+00  0.14999999963E+04  0.15000000000E+04  0.10566000000E+00 0.  1.
        994   -1    0    0    0    0 -0.00000000000E+00 -0.00000000000E+00  0.11368683772E-12  0.17120000000E+03  0.17120000000E+03 0.  0.
         13    1    1    2    0    0 -0.31281469993E+02  0.24500706161E+02  0.16022292611E+03  0.16507638287E+03  0.10566000000E+00 0.  1.
        994    1    1    2    0    0  0.29398891413E+02 -0.27297049530E+02  0.98061488792E+01  0.17611082955E+03  0.17120000000E+03 0.  0.
        998    1    1    2    0    0  0.18825785805E+01  0.27963433696E+01  0.13299709213E+04  0.13300127876E+04  0.10000000000E+02 0.  1.
</event>
<event>
 5    1  0.1321379E-008  0.3820269E+03  0.7957747E-01  0.3442380E+00
         13   -1    0    0    0    0  0.00000000000E+00  0.00000000000E+00  0.14999999963E+04  0.15000000000E+04  0.10566000000E+00 0.  1.
        994   -1    0    0    0    0 -0.00000000000E+00 -0.00000000000E+00  0.11368683772E-12  0.17120000000E+03  0.17120000000E+03 0.  0.
         13    1    1    2    0    0  0.11297997928E+03 -0.10628704462E+03  0.87812475490E+03  0.89171997169E+03  0.10566000000E+00 0.  1.
        994    1    1    2    0    0 -0.10529578385E+03  0.15864977215E+03  0.13468311271E+03  0.28931977663E+03  0.17120000000E+03 0.  0.
        998    1    1    2    0    0 -0.76841954244E+01 -0.52362727531E+02  0.48719212866E+03  0.49016025168E+03  0.10000000000E+02 0.  1.
</event>
<event>
 5    1  0.1321379E-008  0.3857950E+03  0.7957747E-01  0.3426308E+00
         13   -1    0    0    0    0  0.00000000000E+00  0.00000000000E+00  0.14999999963E+04  0.15000000000E+04  0.10566000000E+00 0.  1.
        994   -1    0    0    0    0 -0.00000000000E+00 -0.00000000000E+00  0.11368683772E-12  0.17120000000E+03  0.17120000000E+03 0.  0.
         13    1    1    2    0    0 -0.87530461528E+01  0.10057953719E+02  0.73417012104E+02  0.74618007748E+02  0.10566000000E+00 0.  1.
        994    1    1    2    0    0  0.20042115508E+01 -0.78804974211E+01  0.14528726498E+01  0.17139915386E+03  0.17120000000E+03 0.  0.
        998    1    1    2    0    0  0.67488346019E+01 -0.21774562977E+01  0.14251301115E+04  0.14251828384E+04  0.10000000000E+02 0.  1.
</event>
<event>
 5    1  0.1321379E-008  0.3713321E+03  0.7957747E-01  0.3489791E+00
         13   -1    0    0    0    0  0.00000000000E+00  0.00000000000E+00  0.14999999963E+04  0.15000000000E+04  0.10566000000E+00 0.  1.
        994   -1    0    0    0    0 -0.00000000000E+00 -0.00000000000E+00  0.11368683772E-12  0.17120000000E+03  0.17120000000E+03 0.  0.
         13    1    1    2    0    0 -0.55105712514E+01  0.20657506343E+02  0.23013524699E+02  0.31412297702E+02  0.10566000000E+00 0.  1.
        994    1    1    2    0    0  0.46633324138E+00 -0.15906320621E+02  0.94464828837E+01  0.17219728378E+03  0.17120000000E+03 0.  0.
        998    1    1    2    0    0  0.50442380100E+01 -0.47511857221E+01  0.14675399887E+04  0.14675904185E+04  0.10000000000E+02 0.  1.
</event>
<event>
 5    1  0.1321379E-008  0.3858476E+03  0.7957747E-01  0.3426085E+00
         13   -1    0    0    0    0  0.00000000000E+00  0.00000000000E+00  0.14999999963E+04  0.15000000000E+04  0.10566000000E+00 0.  1.
        994   -1    0    0    0    0 -0.00000000000E+00 -0.00000000000E+00  0.11368683772E-12  0.17120000000E+03  0.17120000000E+03 0.  0.
         13    1    1    2    0    0 -0.10767491990E+02 -0.64698630919E+01  0.63513028842E+02  0.64743447613E+02  0.10566000000E+00 0.  1.
        994    1    1    2    0    0  0.10999848580E+02  0.76067912619E+01  0.17967106222E+01  0.17173097598E+03  0.17120000000E+03 0.  0.
        998    1    1    2    0    0 -0.23235659041E+00 -0.11369281699E+01  0.14346902568E+04  0.14347255764E+04  0.10000000000E+02 0.  1.
</event>
<event>
 5    1  0.1321379E-008  0.3704174E+03  0.7957747E-01  0.3493975E+00
         13   -1    0    0    0    0  0.00000000000E+00  0.00000000000E+00  0.14999999963E+04  0.15000000000E+04  0.10566000000E+00 0.  1.
        994   -1    0    0    0    0 -0.00000000000E+00 -0.00000000000E+00  0.11368683772E-12  0.17120000000E+03  0.17120000000E+03 0.  0.
         13    1    1    2    0    0 -0.50986903171E+02 -0.33591328397E+00  0.10399180444E+03  0.11581918531E+03  0.10566000000E+00 0.  1.
        994    1    1    2    0    0  0.54504694127E+02 -0.45282094380E+01  0.21706973981E+02  0.18103010546E+03  0.17120000000E+03 0.  0.
        998    1    1    2    0    0 -0.35177909568E+01  0.48641227219E+01  0.13743012179E+04  0.13743507092E+04  0.10000000000E+02 0.  1.
</event>
<event>
 5    1  0.1321379E-008  0.3765466E+03  0.7957747E-01  0.3466334E+00
         13   -1    0    0    0    0  0.00000000000E+00  0.00000000000E+00  0.14999999963E+04  0.15000000000E+04  0.10566000000E+00 0. -1.
        994   -1    0    0    0    0 -0.00000000000E+00 -0.00000000000E+00  0.11368683772E-12  0.17120000000E+03  0.17120000000E+03 0.  0.
         13    1    1    2    0    0 -0.24552940703E+02  0.20875240308E+02  0.84916576631E+02  0.90826530848E+02  0.10566000000E+00 0. -1.
        994    1    1    2    0    0  0.16275925238E+02 -0.16832869771E+02  0.77427929376E+01  0.17296717055E+03  0.17120000000E+03 0.  0.
        998    1    1    2    0    0  0.82770154651E+01 -0.40423705371E+01  0.14073406267E+04  0.14074062986E+04  0.10000000000E+02 0. -1.
</event>
<event>
 5    1  0.1321379E-008  0.3815650E+03  0.7957747E-01  0.3444372E+00
         13   -1    0    0    0    0  0.00000000000E+00  0.00000000000E+00  0.14999999963E+04  0.15000000000E+04  0.10566000000E+00 0.  1.
        994   -1    0    0    0    0 -0.00000000000E+00 -0.00000000000E+00  0.11368683772E-12  0.17120000000E+03  0.17120000000E+03 0.  0.
         13    1    1    2    0    0  0.18771808099E+02 -0.31079814378E+02  0.17456171057E+03  0.17829789007E+03  0.10566000000E+00 0.  1.
        994    1    1    2    0    0 -0.16018334107E+02  0.33287303067E+02  0.78969427224E+01  0.17531809170E+03  0.17120000000E+03 0.  0.
        998    1    1    2    0    0 -0.27534739921E+01 -0.22074886895E+01  0.13175413430E+04  0.13175840182E+04  0.10000000000E+02 0.  1.
</event>
<event>
 5    1  0.1321379E-008  0.4025496E+03  0.7957747E-01  0.3358490E+00
         13   -1    0    0    0    0  0.00000000000E+00  0.00000000000E+00  0.14999999963E+04  0.15000000000E+04  0.10566000000E+00 0. -1.
        994   -1    0    0    0    0 -0.00000000000E+00 -0.00000000000E+00  0.11368683772E-12  0.17120000000E+03  0.17120000000E+03 0.  0.
         13    1    1    2    0    0 -0.86100181120E+01  0.35042881268E+02  0.10143847555E+02  0.37483926511E+02  0.10566000000E+00 0. -1.
        994    1    1    2    0    0  0.78431004734E+01 -0.36007067773E+02  0.34701259028E+02  0.17852630208E+03  0.17120000000E+03 0.  0.
        998    1    1    2    0    0  0.76691763856E+00  0.96418650515E+00  0.14551548897E+04  0.14551897714E+04  0.10000000000E+02 0. -1.
</event>
<event>
 5    1  0.1321379E-008  0.3722881E+03  0.7957747E-01  0.3485441E+00
         13   -1    0    0    0    0  0.00000000000E+00  0.00000000000E+00  0.14999999963E+04  0.15000000000E+04  0.10566000000E+00 0. -1.
        994   -1    0    0    0    0 -0.00000000000E+00 -0.00000000000E+00  0.11368683772E-12  0.17120000000E+03  0.17120000000E+03 0.  0.
         13    1    1    2    0    0 -0.73414619676E+02  0.12349030243E+03  0.67933560761E+03  0.69436045402E+03  0.10566000000E+00 0. -1.
        994    1    1    2    0    0  0.79794219181E+02 -0.11555722944E+03  0.79090456609E+02  0.23512832883E+03  0.17120000000E+03 0.  0.
        998    1    1    2    0    0 -0.63795995048E+01 -0.79330729858E+01  0.74157393205E+03  0.74171121715E+03  0.10000000000E+02 0. -1.
</event>
<event>
 5    1  0.1321379E-008  0.3951910E+03  0.7957747E-01  0.3387568E+00
         13   -1    0    0    0    0  0.00000000000E+00  0.00000000000E+00  0.14999999963E+04  0.15000000000E+04  0.10566000000E+00 0.  1.
        994   -1    0    0    0    0 -0.00000000000E+00 -0.00000000000E+00  0.11368683772E-12  0.17120000000E+03  0.17120000000E+03 0.  0.
         13    1    1    2    0    0 -0.12872165713E+02 -0.37088871766E+02  0.20807338701E+02  0.44432348203E+02  0.10566000000E+00 0.  1.
        994    1    1    2    0    0  0.19464347362E+02  0.31988138084E+02  0.30337014956E+02  0.17785352477E+03  0.17120000000E+03 0.  0.
        998    1    1    2    0    0 -0.65921816490E+01  0.51007336817E+01  0.14488556426E+04  0.14489141270E+04  0.10000000000E+02 0.  1.
</event>
<event>
 5    1  0.1321379E-008  0.3854438E+03  0.7957747E-01  0.3427792E+00
         13   -1    0    0    0    0  0.00000000000E+00  0.00000000000E+00  0.14999999963E+04  0.15000000000E+04  0.10566000000E+00 0.  1.
        994   -1    0    0    0    0 -0.00000000000E+00 -0.00000000000E+00  0.11368683772E-12  0.17120000000E+03  0.17120000000E+03 0.  0.
         13    1    1    2    0    0  0.72764155314E+01  0.92714381151E+01  0.53781273395E+02  0.55057627262E+02  0.10566000000E+00 0.  1.
        994    1    1    2    0    0 -0.60142181157E-02  0.69631000580E+01  0.15691972465E+01  0.17134872973E+03  0.17120000000E+03 0.  0.
        998    1    1    2    0    0 -0.72704013132E+01 -0.16234538173E+02  0.14446495256E+04  0.14447936430E+04  0.10000000000E+02 0.  1.
</event>
<event>
 5    1  0.1321379E-008  0.3837991E+03  0.7957747E-01  0.3434781E+00
         13   -1    0    0    0    0  0.00000000000E+00  0.00000000000E+00  0.14999999963E+04  0.15000000000E+04  0.10566000000E+00 0.  1.
        994   -1    0    0    0    0 -0.00000000000E+00 -0.00000000000E+00  0.11368683772E-12  0.17120000000E+03  0.17120000000E+03 0.  0.
         13    1    1    2    0    0 -0.20446121553E+02 -0.18897827343E+01  0.10012670614E+03  0.10221048680E+03  0.10566000000E+00 0.  1.
        994    1    1    2    0    0  0.42294798353E+01 -0.29717258368E+01  0.23157607165E+01  0.17129367298E+03  0.17120000000E+03 0.  0.
        998    1    1    2    0    0  0.16216641718E+02  0.48615085711E+01  0.13975575294E+04  0.13976958402E+04  0.10000000000E+02 0.  1.
</event>
<event>
 5    1  0.1321379E-008  0.3705557E+03  0.7957747E-01  0.3493341E+00
         13   -1    0    0    0    0  0.00000000000E+00  0.00000000000E+00  0.14999999963E+04  0.15000000000E+04  0.10566000000E+00 0. -1.
        994   -1    0    0    0    0 -0.00000000000E+00 -0.00000000000E+00  0.11368683772E-12  0.17120000000E+03  0.17120000000E+03 0.  0.
         13    1    1    2    0    0 -0.40360383661E+02 -0.49184322718E+02  0.20863340856E+03  0.21811916125E+03  0.10566000000E+00 0. -1.
        994    1    1    2    0    0  0.10334812668E+02  0.55978030743E+02  0.20245807563E+02  0.18154801294E+03  0.17120000000E+03 0.  0.
        998    1    1    2    0    0  0.30025570992E+02 -0.67937080246E+01  0.12711207802E+04  0.12715328258E+04  0.10000000000E+02 0. -1.
</event>
<event>
 5    1  0.1321379E-008  0.3956247E+03  0.7957747E-01  0.3385825E+00
         13   -1    0    0    0    0  0.00000000000E+00  0.00000000000E+00  0.14999999963E+04  0.15000000000E+04  0.10566000000E+00 0. -1.
        994   -1    0    0    0    0 -0.00000000000E+00 -0.00000000000E+00  0.11368683772E-12  0.17120000000E+03  0.17120000000E+03 0.  0.
         13    1    1    2    0    0  0.70474267617E+02  0.21388365862E+02  0.10042566558E+03  0.12453678196E+03  0.10566000000E+00 0. -1.
        994    1    1    2    0    0 -0.42821599535E+02 -0.31307857663E+02  0.36091832108E+02  0.18282760099E+03  0.17120000000E+03 0.  0.
        998    1    1    2    0    0 -0.27652668081E+02  0.99194918014E+01  0.13634824986E+04  0.13638356170E+04  0.10000000000E+02 0. -1.
</event>
<event>
 5    1  0.1321379E-008  0.3781548E+03  0.7957747E-01  0.3459232E+00
         13   -1    0    0    0    0  0.00000000000E+00  0.00000000000E+00  0.14999999963E+04  0.15000000000E+04  0.10566000000E+00 0.  1.
        994   -1    0    0    0    0 -0.00000000000E+00 -0.00000000000E+00  0.11368683772E-12  0.17120000000E+03  0.17120000000E+03 0.  0.
         13    1    1    2    0    0 -0.26750507487E+01  0.98962086819E+01  0.82702947727E+01  0.13171931614E+02  0.10566000000E+00 0.  1.
        994    1    1    2    0    0  0.44585656768E+01  0.45458005797E+01  0.52038733567E+01  0.17139738449E+03  0.17120000000E+03 0.  0.
        998    1    1    2    0    0 -0.17835149281E+01 -0.14442009262E+02  0.14865258281E+04  0.14866306839E+04  0.10000000000E+02 0.  1.
</event>
<event>
 5    1  0.1321379E-008  0.3784933E+03  0.7957747E-01  0.3457745E+00
         13   -1    0    0    0    0  0.00000000000E+00  0.00000000000E+00  0.14999999963E+04  0.15000000000E+04  0.10566000000E+00 0. -1.
        994   -1    0    0    0    0 -0.00000000000E+00 -0.00000000000E+00  0.11368683772E-12  0.17120000000E+03  0.17120000000E+03 0.  0.
         13    1    1    2    0    0  0.23750368602E+02  0.26565789098E+02  0.12318727567E+03  0.12823781506E+03  0.10566000000E+00 0. -1.
        994    1    1    2    0    0 -0.28730055256E+02 -0.12719196049E+02  0.82194129604E+01  0.17425324322E+03  0.17120000000E+03 0.  0.
        998    1    1    2    0    0  0.49796866531E+01 -0.13846593050E+02  0.13685933076E+04  0.13687089417E+04  0.10000000000E+02 0. -1.
</event>
<event>
 5    1  0.1321379E-008  0.3816389E+03  0.7957747E-01  0.3444053E+00
         13   -1    0    0    0    0  0.00000000000E+00  0.00000000000E+00  0.14999999963E+04  0.15000000000E+04  0.10566000000E+00 0. -1.
        994   -1    0    0    0    0 -0.00000000000E+00 -0.00000000000E+00  0.11368683772E-12  0.17120000000E+03  0.17120000000E+03 0.  0.
         13    1    1    2    0    0 -0.14831482315E+02  0.71594171975E+01  0.40156721909E+02  0.43402806370E+02  0.10566000000E+00 0. -1.
        994    1    1    2    0    0  0.60526176900E+01 -0.73152985374E+01  0.36079190181E+01  0.17150103455E+03  0.17120000000E+03 0.  0.
        998    1    1    2    0    0  0.87788646247E+01  0.15588133985E+00  0.14562353554E+04  0.14562961591E+04  0.10000000000E+02 0. -1.
</event>
<event>
 5    1  0.1321379E-008  0.3751925E+03  0.7957747E-01  0.3472362E+00
         13   -1    0    0    0    0  0.00000000000E+00  0.00000000000E+00  0.14999999963E+04  0.15000000000E+04  0.10566000000E+00 0. -1.
        994   -1    0    0    0    0 -0.00000000000E+00 -0.00000000000E+00  0.11368683772E-12  0.17120000000E+03  0.17120000000E+03 0.  0.
         13    1    1    2    0    0 -0.71055080950E+02 -0.27234690179E+02  0.41973528235E+03  0.42657739191E+03  0.10566000000E+00 0. -1.
        994    1    1    2    0    0  0.46630573239E+02  0.12581656144E+02  0.14545676003E+02  0.17847611919E+03  0.17120000000E+03 0.  0.
        998    1    1    2    0    0  0.24424507711E+02  0.14653034035E+02  0.10657190379E+04  0.10661464889E+04  0.10000000000E+02 0. -1.
</event>
<event>
 5    1  0.1321379E-008  0.3787684E+03  0.7957747E-01  0.3456539E+00
         13   -1    0    0    0    0  0.00000000000E+00  0.00000000000E+00  0.14999999963E+04  0.15000000000E+04  0.10566000000E+00 0. -1.
        994   -1    0    0    0    0 -0.00000000000E+00 -0.00000000000E+00  0.11368683772E-12  0.17120000000E+03  0.17120000000E+03 0.  0.
         13    1    1    2    0    0  0.14720083863E+02 -0.13588775775E+02  0.38439038851E+02  0.43346355877E+02  0.10566000000E+00 0. -1.
        994    1    1    2    0    0 -0.18690726810E+02  0.21391675889E+02  0.74694652701E+01  0.17370141041E+03  0.17120000000E+03 0.  0.
        998    1    1    2    0    0  0.39706429471E+01 -0.78029001139E+01  0.14540914922E+04  0.14541522337E+04  0.10000000000E+02 0. -1.
</event>
<event>
 5    1  0.1321379E-008  0.3755986E+03  0.7957747E-01  0.3470550E+00
         13   -1    0    0    0    0  0.00000000000E+00  0.00000000000E+00  0.14999999963E+04  0.15000000000E+04  0.10566000000E+00 0.  1.
        994   -1    0    0    0    0 -0.00000000000E+00 -0.00000000000E+00  0.11368683772E-12  0.17120000000E+03  0.17120000000E+03 0.  0.
         13    1    1    2    0    0 -0.43956094128E+02 -0.14861446023E+02  0.18063908694E+03  0.18650332888E+03  0.10566000000E+00 0.  1.
        994    1    1    2    0    0  0.11196627017E+02  0.89384737125E+01  0.70682958546E+01  0.17194377446E+03  0.17120000000E+03 0.  0.
        998    1    1    2    0    0  0.32759467111E+02  0.59229723102E+01  0.13122926135E+04  0.13127528967E+04  0.10000000000E+02 0.  1.
</event>
<event>
 5    1  0.1321379E-008  0.3752491E+03  0.7957747E-01  0.3472109E+00
         13   -1    0    0    0    0  0.00000000000E+00  0.00000000000E+00  0.14999999963E+04  0.15000000000E+04  0.10566000000E+00 0. -1.
        994   -1    0    0    0    0 -0.00000000000E+00 -0.00000000000E+00  0.11368683772E-12  0.17120000000E+03  0.17120000000E+03 0.  0.
         13    1    1    2    0    0 -0.39877328737E+02  0.60244249172E+02  0.31013900009E+03  0.31844274438E+03  0.10566000000E+00 0. -1.
        994    1    1    2    0    0  0.30726709793E+02 -0.68499630237E+02  0.25941146924E+02  0.18872920585E+03  0.17120000000E+03 0.  0.
        998    1    1    2    0    0  0.91506189442E+01  0.82553810644E+01  0.11639198493E+04  0.11640280498E+04  0.10000000000E+02 0. -1.
</event>
<event>
 5    1  0.1321379E-008  0.3693421E+03  0.7957747E-01  0.3498920E+00
         13   -1    0    0    0    0  0.00000000000E+00  0.00000000000E+00  0.14999999963E+04  0.15000000000E+04  0.10566000000E+00 0.  1.
        994   -1    0    0    0    0 -0.00000000000E+00 -0.00000000000E+00  0.11368683772E-12  0.17120000000E+03  0.17120000000E+03 0.  0.
         13    1    1    2    0    0  0.18422800010E+02  0.21504403517E+02  0.31184930473E+02  0.42123033882E+02  0.10566000000E+00 0.  1.
        994    1    1    2    0    0 -0.14507326513E+01 -0.61342094472E+02  0.23841097400E+02  0.18341972387E+03  0.17120000000E+03 0.  0.
        998    1    1    2    0    0 -0.16972067359E+02  0.39837690955E+02  0.14449739684E+04  0.14456572422E+04  0.10000000000E+02 0.  1.
</event>
<event>
 5    1  0.1321379E-008  0.3804543E+03  0.7957747E-01  0.3449183E+00
         13   -1    0    0    0    0  0.00000000000E+00  0.00000000000E+00  0.14999999963E+04  0.15000000000E+04  0.10566000000E+00 0.  1.
        994   -1    0    0    0    0 -0.00000000000E+00 -0.00000000000E+00  0.11368683772E-12  0.17120000000E+03  0.17120000000E+03 0.  0.
         13    1    1    2    0    0 -0.11165762715E+02 -0.38891001449E+01  0.16849173798E+02  0.20584100142E+02  0.10566000000E+00 0.  1.
        994    1    1    2    0    0 -0.60271757289E+01  0.69448836220E+00  0.40268856258E+01  0.17135479266E+03  0.17120000000E+03 0.  0.
        998    1    1    2    0    0  0.17192938444E+02  0.31946117827E+01  0.14791239369E+04  0.14792611072E+04  0.10000000000E+02 0.  1.
</event>
<event>
 5    1  0.1321379E-008  0.3816047E+03  0.7957747E-01  0.3444201E+00
         13   -1    0    0    0    0  0.00000000000E+00  0.00000000000E+00  0.14999999963E+04  0.15000000000E+04  0.10566000000E+00 0. -1.
        994   -1    0    0    0    0 -0.00000000000E+00 -0.00000000000E+00  0.11368683772E-12  0.17120000000E+03  0.17120000000E+03 0.  0.
         13    1    1    2    0    0 -0.11081429503E+02  0.77824404170E+01  0.27773059971E+02  0.30898519105E+02  0.10566000000E+00 0. -1.
        994    1    1    2    0    0 -0.19637642260E+01  0.10620582204E+02  0.37132813272E+01  0.17158053967E+03  0.17120000000E+03 0.  0.
        998    1    1    2    0    0  0.13045193729E+02 -0.18403022621E+02  0.14685136550E+04  0.14687209412E+04  0.10000000000E+02 0. -1.
</event>
<event>
 5    1  0.1321379E-008  0.3807792E+03  0.7957747E-01  0.3447773E+00
         13   -1    0    0    0    0  0.00000000000E+00  0.00000000000E+00  0.14999999963E+04  0.15000000000E+04  0.10566000000E+00 0.  1.
        994   -1    0    0    0    0 -0.00000000000E+00 -0.00000000000E+00  0.11368683772E-12  0.17120000000E+03  0.17120000000E+03 0.  0.
         13    1    1    2    0    0  0.92542776607E+01  0.88346163511E+01  0.19824603427E+02  0.23594875846E+02  0.10566000000E+00 0.  1.
        994    1    1    2    0    0 -0.11285844535E+02 -0.14752063862E+02  0.48915117168E+01  0.17227408558E+03  0.17120000000E+03 0.  0.
        998    1    1    2    0    0  0.20315668747E+01  0.59174475109E+01  0.14752838811E+04  0.14753310386E+04  0.10000000000E+02 0.  1.
</event>
<event>
 5    1  0.1321379E-008  0.3021349E+03  0.7957747E-01  0.3880895E+00
         13   -1    0    0    0    0  0.00000000000E+00  0.00000000000E+00  0.14999999963E+04  0.15000000000E+04  0.10566000000E+00 0. -1.
        994   -1    0    0    0    0 -0.00000000000E+00 -0.00000000000E+00  0.11368683772E-12  0.17120000000E+03  0.17120000000E+03 0.  0.
         13    1    1    2    0    0 -0.19197017727E+03 -0.11278168345E+03  0.56744216666E+03  0.60955957933E+03  0.10566000000E+00 0. -1.
        994    1    1    2    0    0  0.19385528561E+03  0.10184834611E+03  0.23518498048E+03  0.36410763849E+03  0.17120000000E+03 0.  0.
        998    1    1    2    0    0 -0.18851083406E+01  0.10933337334E+02  0.69737284914E+03  0.69753278218E+03  0.10000000000E+02 0. -1.
</event>
<event>
 5    1  0.1321379E-008  0.3843539E+03  0.7957747E-01  0.3432417E+00
         13   -1    0    0    0    0  0.00000000000E+00  0.00000000000E+00  0.14999999963E+04  0.15000000000E+04  0.10566000000E+00 0. -1.
        994   -1    0    0    0    0 -0.00000000000E+00 -0.00000000000E+00  0.11368683772E-12  0.17120000000E+03  0.17120000000E+03 0.  0.
         13    1    1    2    0    0 -0.85733888574E+01  0.77051973937E+01  0.32369478553E+02  0.34360840636E+02  0.10566000000E+00 0. -1.
        994    1    1    2    0    0  0.13955438761E+02 -0.95160797958E+01  0.28920558725E+01  0.17205555508E+03  0.17120000000E+03 0.  0.
        998    1    1    2    0    0 -0.53820499040E+01  0.18108824021E+01  0.14647384619E+04  0.14647836043E+04  0.10000000000E+02 0. -1.
</event>
<event>
 5    1  0.1321379E-008  0.3769406E+03  0.7957747E-01  0.3464589E+00
         13   -1    0    0    0    0  0.00000000000E+00  0.00000000000E+00  0.14999999963E+04  0.15000000000E+04  0.10566000000E+00 0.  1.
        994   -1    0    0    0    0 -0.00000000000E+00 -0.00000000000E+00  0.11368683772E-12  0.17120000000E+03  0.17120000000E+03 0.  0.
         13    1    1    2    0    0  0.49079997679E+01  0.28072100263E+02  0.65885961032E+02  0.71785111966E+02  0.10566000000E+00 0.  1.
        994    1    1    2    0    0 -0.35940155269E+02 -0.25977376741E+02  0.12355664543E+02  0.17728119277E+03  0.17120000000E+03 0.  0.
        998    1    1    2    0    0  0.31032155502E+02 -0.20947235223E+01  0.14217583707E+04  0.14221336953E+04  0.10000000000E+02 0.  1.
</event>
<event>
 5    1  0.1321379E-008  0.3838145E+03  0.7957747E-01  0.3434716E+00
         13   -1    0    0    0    0  0.00000000000E+00  0.00000000000E+00  0.14999999963E+04  0.15000000000E+04  0.10566000000E+00 0. -1.
        994   -1    0    0    0    0 -0.00000000000E+00 -0.00000000000E+00  0.11368683772E-12  0.17120000000E+03  0.17120000000E+03 0.  0.
         13    1    1    2    0    0  0.14498787779E+02  0.90277199606E+01  0.64241993404E+02  0.66473750122E+02  0.10566000000E+00 0. -1.
        994    1    1    2    0    0 -0.16335100169E+02 -0.79497529811E-01  0.31012961850E+01  0.17200552275E+03  0.17120000000E+03 0.  0.
        998    1    1    2    0    0  0.18363123899E+01 -0.89482224308E+01  0.14326567067E+04  0.14327207271E+04  0.10000000000E+02 0. -1.
</event>
<event>
 5    1  0.1321379E-008  0.3848248E+03  0.7957747E-01  0.3430416E+00
         13   -1    0    0    0    0  0.00000000000E+00  0.00000000000E+00  0.14999999963E+04  0.15000000000E+04  0.10566000000E+00 0.  1.
        994   -1    0    0    0    0 -0.00000000000E+00 -0.00000000000E+00  0.11368683772E-12  0.17120000000E+03  0.17120000000E+03 0.  0.
         13    1    1    2    0    0  0.17839780991E+02 -0.12673662192E+00  0.10503459695E+03  0.10653896737E+03  0.10566000000E+00 0.  1.
        994    1    1    2    0    0  0.42015039545E+01  0.18747478696E+01  0.17868227202E+01  0.17127113023E+03  0.17120000000E+03 0.  0.
        998    1    1    2    0    0 -0.22041284945E+02 -0.17480112477E+01  0.13931785766E+04  0.13933899024E+04  0.10000000000E+02 0.  1.
</event>
<event>
 5    1  0.1321379E-008  0.3786556E+03  0.7957747E-01  0.3457033E+00
         13   -1    0    0    0    0  0.00000000000E+00  0.00000000000E+00  0.14999999963E+04  0.15000000000E+04  0.10566000000E+00 0.  1.
        994   -1    0    0    0    0 -0.00000000000E+00 -0.00000000000E+00  0.11368683772E-12  0.17120000000E+03  0.17120000000E+03 0.  0.
         13    1    1    2    0    0  0.69802078278E+01  0.21616160899E+02  0.54286719416E+02  0.58847606428E+02  0.10566000000E+00 0.  1.
        994    1    1    2    0    0 -0.39667470566E+01 -0.65046027491E+00  0.48676095176E+01  0.17131635008E+03  0.17120000000E+03 0.  0.
        998    1    1    2    0    0 -0.30134607712E+01 -0.20965700624E+02  0.14408456673E+04  0.14410360435E+04  0.10000000000E+02 0.  1.
</event>
<event>
 5    1  0.1321379E-008  0.3824386E+03  0.7957747E-01  0.3440609E+00
         13   -1    0    0    0    0  0.00000000000E+00  0.00000000000E+00  0.14999999963E+04  0.15000000000E+04  0.10566000000E+00 0.  1.
        994   -1    0    0    0    0 -0.00000000000E+00 -0.00000000000E+00  0.11368683772E-12  0.17120000000E+03  0.17120000000E+03 0.  0.
         13    1    1    2    0    0 -0.44519061721E+01  0.25160370313E+02  0.11370361742E+03  0.11653921006E+03  0.10566000000E+00 0.  1.
        994    1    1    2    0    0  0.22993608246E+02 -0.90464778448E+01  0.49345006485E+01  0.17304431247E+03  0.17120000000E+03 0.  0.
        998    1    1    2    0    0 -0.18541702074E+02 -0.16113892468E+02  0.13813618782E+04  0.13816164775E+04  0.10000000000E+02 0.  1.
</event>
<event>
 5    1  0.1321379E-008  0.3834705E+03  0.7957747E-01  0.3436185E+00
         13   -1    0    0    0    0  0.00000000000E+00  0.00000000000E+00  0.14999999963E+04  0.15000000000E+04  0.10566000000E+00 0. -1.
        994   -1    0    0    0    0 -0.00000000000E+00 -0.00000000000E+00  0.11368683772E-12  0.17120000000E+03  0.17120000000E+03 0.  0.
         13    1    1    2    0    0  0.12896466041E+01  0.17467866868E+02  0.68646488612E+02  0.70845897017E+02  0.10566000000E+00 0. -1.
        994    1    1    2    0    0  0.42209394770E+01  0.23657538650E+01  0.24688202138E+01  0.17128615879E+03  0.17120000000E+03 0.  0.
        998    1    1    2    0    0 -0.55105860811E+01 -0.19833620733E+02  0.14288846875E+04  0.14290679442E+04  0.10000000000E+02 0. -1.
</event>
<event>
 5    1  0.1321379E-008  0.3710970E+03  0.7957747E-01  0.3490865E+00
         13   -1    0    0    0    0  0.00000000000E+00  0.00000000000E+00  0.14999999963E+04  0.15000000000E+04  0.10566000000E+00 0.  1.
        994   -1    0    0    0    0 -0.00000000000E+00 -0.00000000000E+00  0.11368683772E-12  0.17120000000E+03  0.17120000000E+03 0.  0.
         13    1    1    2    0    0  0.38900246431E+02 -0.70124216889E+02  0.29315186624E+03  0.30392213280E+03  0.10566000000E+00 0.  1.
        994    1    1    2    0    0 -0.31886009743E+02  0.74746751470E+02  0.31800312244E+02  0.19215747274E+03  0.17120000000E+03 0.  0.
        998    1    1    2    0    0 -0.70142366881E+01 -0.46225345814E+01  0.11750478178E+04  0.11751203945E+04  0.10000000000E+02 0.  1.
</event>
<event>
 5    1  0.1321379E-008  0.3803865E+03  0.7957747E-01  0.3449477E+00
         13   -1    0    0    0    0  0.00000000000E+00  0.00000000000E+00  0.14999999963E+04  0.15000000000E+04  0.10566000000E+00 0.  1.
        994   -1    0    0    0    0 -0.00000000000E+00 -0.00000000000E+00  0.11368683772E-12  0.17120000000E+03  0.17120000000E+03 0.  0.
         13    1    1    2    0    0 -0.11489727803E+02  0.25942946019E+02  0.96137902163E+02  0.10023750640E+03  0.10566000000E+00 0.  1.
        994    1    1    2    0    0  0.80844329775E+01 -0.25588746504E+02  0.63461922678E+01  0.17340662087E+03  0.17120000000E+03 0.  0.
        998    1    1    2    0    0  0.34052948254E+01 -0.35419951474E+00  0.13975159018E+04  0.13975558727E+04  0.10000000000E+02 0.  1.
</event>
<event>
 5    1  0.1321379E-008  0.3752885E+03  0.7957747E-01  0.3471933E+00
         13   -1    0    0    0    0  0.00000000000E+00  0.00000000000E+00  0.14999999963E+04  0.15000000000E+04  0.10566000000E+00 0.  1.
        994   -1    0    0    0    0 -0.00000000000E+00 -0.00000000000E+00  0.11368683772E-12  0.17120000000E+03  0.17120000000E+03 0.  0.
         13    1    1    2    0    0  0.46618825024E+02 -0.27130559484E+01  0.14801725074E+03  0.15520886959E+03  0.10566000000E+00 0.  1.
        994    1    1    2    0    0 -0.48354696706E+02  0.47158830942E+01  0.14588877038E+02  0.17855725015E+03  0.17120000000E+03 0.  0.
        998    1    1    2    0    0  0.17358716821E+01 -0.20028271458E+01  0.13373938685E+04  0.13374338803E+04  0.10000000000E+02 0.  1.
</event>
<event>
 5    1  0.1321379E-008  0.3797405E+03  0.7957747E-01  0.3452289E+00
         13   -1    0    0    0    0  0.00000000000E+00  0.00000000000E+00  0.14999999963E+04  0.15000000000E+04  0.10566000000E+00 0. -1.
        994   -1    0    0    0    0 -0.00000000000E+00 -0.00000000000E+00  0.11368683772E-12  0.17120000000E+03  0.17120000000E+03 0.  0.
         13    1    1    2    0    0  0.10862861799E+02  0.33213196764E+02  0.12058463441E+03  0.12554594149E+03  0.10566000000E+00 0. -1.
        994    1    1    2    0    0 -0.22229764900E+02 -0.45740765904E+02  0.12966701625E+02  0.17906410993E+03  0.17120000000E+03 0.  0.
        998    1    1    2    0    0  0.11366903101E+02  0.12527569140E+02  0.13664486602E+04  0.13665899486E+04  0.10000000000E+02 0. -1.
</event>
<event>
 5    1  0.1321379E-008  0.4069620E+03  0.7957747E-01  0.3341554E+00
         13   -1    0    0    0    0  0.00000000000E+00  0.00000000000E+00  0.14999999963E+04  0.15000000000E+04  0.10566000000E+00 0. -1.
        994   -1    0    0    0    0 -0.00000000000E+00 -0.00000000000E+00  0.11368683772E-12  0.17120000000E+03  0.17120000000E+03 0.  0.
         13    1    1    2    0    0 -0.12040519007E+03  0.34220955551E+02  0.22796064534E+03  0.26006643494E+03  0.10566000000E+00 0. -1.
        994    1    1    2    0    0  0.44635618366E+02 -0.16359063813E+03  0.16059027326E+03  0.28957367142E+03  0.17120000000E+03 0.  0.
        998    1    1    2    0    0  0.75769571704E+02  0.12936968258E+03  0.11114490777E+04  0.11215598936E+04  0.10000000000E+02 0. -1.
</event>
<event>
 5    1  0.1321379E-008  0.3689299E+03  0.7957747E-01  0.3500823E+00
         13   -1    0    0    0    0  0.00000000000E+00  0.00000000000E+00  0.14999999963E+04  0.15000000000E+04  0.10566000000E+00 0.  1.
        994   -1    0    0    0    0 -0.00000000000E+00 -0.00000000000E+00  0.11368683772E-12  0.17120000000E+03  0.17120000000E+03 0.  0.
         13    1    1    2    0    0 -0.31504296068E+02 -0.37164136696E+02  0.11035345680E+03  0.12062997272E+03  0.10566000000E+00 0.  1.
        994    1    1    2    0    0  0.31868466434E+02  0.14537433751E+02  0.14659498582E+02  0.17536042037E+03  0.17120000000E+03 0.  0.
        998    1    1    2    0    0 -0.36417036559E+00  0.22626702945E+02  0.13749870409E+04  0.13752096069E+04  0.10000000000E+02 0.  1.
</event>
<event>
 5    1  0.1321379E-008  0.3815215E+03  0.7957747E-01  0.3444560E+00
         13   -1    0    0    0    0  0.00000000000E+00  0.00000000000E+00  0.14999999963E+04  0.15000000000E+04  0.10566000000E+00 0.  1.
        994   -1    0    0    0    0 -0.00000000000E+00 -0.00000000000E+00  0.11368683772E-12  0.17120000000E+03  0.17120000000E+03 0.  0.
         13    1    1    2    0    0 -0.15518717289E+02 -0.88227208699E+01  0.48468719836E+02  0.51651708166E+02  0.10566000000E+00 0.  1.
        994    1    1    2    0    0  0.68797750216E+01 -0.12983824714E+02  0.40855425271E+01  0.17187798773E+03  0.17120000000E+03 0.  0.
        998    1    1    2    0    0  0.86389422675E+01  0.21806545584E+02  0.14474457339E+04  0.14476703041E+04  0.10000000000E+02 0.  1.
</event>
<event>
 5    1  0.1321379E-008  0.3688245E+03  0.7957747E-01  0.3501311E+00
         13   -1    0    0    0    0  0.00000000000E+00  0.00000000000E+00  0.14999999963E+04  0.15000000000E+04  0.10566000000E+00 0. -1.
        994   -1    0    0    0    0 -0.00000000000E+00 -0.00000000000E+00  0.11368683772E-12  0.17120000000E+03  0.17120000000E+03 0.  0.
         13    1    1    2    0    0  0.55900405976E+02 -0.72063677637E+02  0.30769388588E+03  0.32092610925E+03  0.10566000000E+00 0. -1.
        994    1    1    2    0    0 -0.63494615877E+02  0.70730787485E+02  0.42470116726E+02  0.20036856380E+03  0.17120000000E+03 0.  0.
        998    1    1    2    0    0  0.75942099013E+01  0.13328901521E+01  0.11498359937E+04  0.11499053270E+04  0.10000000000E+02 0. -1.
</event>
<event>
 5    1  0.1321379E-008  0.3763099E+03  0.7957747E-01  0.3467385E+00
         13   -1    0    0    0    0  0.00000000000E+00  0.00000000000E+00  0.14999999963E+04  0.15000000000E+04  0.10566000000E+00 0.  1.
        994   -1    0    0    0    0 -0.00000000000E+00 -0.00000000000E+00  0.11368683772E-12  0.17120000000E+03  0.17120000000E+03 0.  0.
         13    1    1    2    0    0 -0.29367012423E+01 -0.16700145889E+02  0.35001443274E+01  0.17314192480E+02  0.10566000000E+00 0.  1.
        994    1    1    2    0    0  0.49400896297E+01  0.18358895798E+02  0.15608206879E+02  0.17295811534E+03  0.17120000000E+03 0.  0.
        998    1    1    2    0    0 -0.20033883874E+01 -0.16587499088E+01  0.14808916451E+04  0.14809276922E+04  0.10000000000E+02 0.  1.
</event>
<event>
 5    1  0.1321379E-008  0.3814089E+03  0.7957747E-01  0.3445047E+00
         13   -1    0    0    0    0  0.00000000000E+00  0.00000000000E+00  0.14999999963E+04  0.15000000000E+04  0.10566000000E+00 0. -1.
        994   -1    0    0    0    0 -0.00000000000E+00 -0.00000000000E+00  0.11368683772E-12  0.17120000000E+03  0.17120000000E+03 0.  0.
         13    1    1    2    0    0 -0.71234543619E+01  0.12051085057E+02  0.26943986711E+02  0.30363824479E+02  0.10566000000E+00 0. -1.
        994    1    1    2    0    0  0.13065752240E+02 -0.82462610320E+01  0.42183400722E+01  0.17194751843E+03  0.17120000000E+03 0.  0.
        998    1    1    2    0    0 -0.59422978779E+01 -0.38048240245E+01  0.14688376695E+04  0.14688886571E+04  0.10000000000E+02 0. -1.
</event>
<event>
 5    1  0.1321379E-008  0.3818955E+03  0.7957747E-01  0.3442947E+00
         13   -1    0    0    0    0  0.00000000000E+00  0.00000000000E+00  0.14999999963E+04  0.15000000000E+04  0.10566000000E+00 0.  1.
        994   -1    0    0    0    0 -0.00000000000E+00 -0.00000000000E+00  0.11368683772E-12  0.17120000000E+03  0.17120000000E+03 0.  0.
         13    1    1    2    0    0  0.42192808285E+02 -0.13866696536E+02  0.49010135102E+02  0.66140175768E+02  0.10566000000E+00 0.  1.
        994    1    1    2    0    0 -0.43139237243E+02  0.41248797160E+01  0.24256390403E+02  0.17825773727E+03  0.17120000000E+03 0.  0.
        998    1    1    2    0    0  0.94642895738E+00  0.97418168200E+01  0.14267334708E+04  0.14268020870E+04  0.10000000000E+02 0.  1.
</event>
<event>
 5    1  0.1321379E-008  0.3796799E+03  0.7957747E-01  0.3452553E+00
         13   -1    0    0    0    0  0.00000000000E+00  0.00000000000E+00  0.14999999963E+04  0.15000000000E+04  0.10566000000E+00 0.  1.
        994   -1    0    0    0    0 -0.00000000000E+00 -0.00000000000E+00  0.11368683772E-12  0.17120000000E+03  0.17120000000E+03 0.  0.
         13    1    1    2    0    0  0.10927830280E+02 -0.61628792582E+01  0.17359080425E+02  0.21418389123E+02  0.10566000000E+00 0.  1.
        994    1    1    2    0    0  0.19580469898E+02  0.11505933853E+02  0.60227421705E+01  0.17280478795E+03  0.17120000000E+03 0.  0.
        998    1    1    2    0    0 -0.30508300178E+02 -0.53430545947E+01  0.14766181737E+04  0.14769768229E+04  0.10000000000E+02 0.  1.
</event>
<event>
 5    1  0.1321379E-008  0.3735708E+03  0.7957747E-01  0.3479640E+00
         13   -1    0    0    0    0  0.00000000000E+00  0.00000000000E+00  0.14999999963E+04  0.15000000000E+04  0.10566000000E+00 0.  1.
        994   -1    0    0    0    0 -0.00000000000E+00 -0.00000000000E+00  0.11368683772E-12  0.17120000000E+03  0.17120000000E+03 0.  0.
         13    1    1    2    0    0  0.52629127425E+02  0.11892632990E+03  0.49269181474E+03  0.50956700489E+03  0.10566000000E+00 0.  1.
        994    1    1    2    0    0 -0.41278013967E+02 -0.16556151524E+03  0.11446328578E+03  0.26744302862E+03  0.17120000000E+03 0.  0.
        998    1    1    2    0    0 -0.11351113458E+02  0.46635185339E+02  0.89284489576E+03  0.89418996649E+03  0.10000000000E+02 0.  1.
</event>
<event>
 5    1  0.1321379E-008  0.3806023E+03  0.7957747E-01  0.3448540E+00
         13   -1    0    0    0    0  0.00000000000E+00  0.00000000000E+00  0.14999999963E+04  0.15000000000E+04  0.10566000000E+00 0. -1.
        994   -1    0    0    0    0 -0.00000000000E+00 -0.00000000000E+00  0.11368683772E-12  0.17120000000E+03  0.17120000000E+03 0.  0.
         13    1    1    2    0    0  0.20170955994E+02 -0.49610077283E+02  0.28593874414E+03  0.29091064573E+03  0.10566000000E+00 0. -1.
        994    1    1    2    0    0 -0.42074998214E+02  0.48684110985E+02  0.17768791062E+02  0.18375423280E+03  0.17120000000E+03 0.  0.
        998    1    1    2    0    0  0.21904042220E+02  0.92596629732E+00  0.11962924611E+04  0.11965351215E+04  0.10000000000E+02 0. -1.
</event>
<event>
 5    1  0.1321379E-008  0.3854448E+03  0.7957747E-01  0.3427788E+00
         13   -1    0    0    0    0  0.00000000000E+00  0.00000000000E+00  0.14999999963E+04  0.15000000000E+04  0.10566000000E+00 0. -1.
        994   -1    0    0    0    0 -0.00000000000E+00 -0.00000000000E+00  0.11368683772E-12  0.17120000000E+03  0.17120000000E+03 0.  0.
         13    1    1    2    0    0 -0.99874848397E+01  0.87485506193E+01  0.67624421523E+02  0.68915604487E+02  0.10566000000E+00 0. -1.
        994    1    1    2    0    0  0.21321299325E+01  0.49831057733E+01  0.15059668148E+01  0.17129239696E+03  0.17120000000E+03 0.  0.
        998    1    1    2    0    0  0.78553549071E+01 -0.13731656393E+02  0.14308696079E+04  0.14309919986E+04  0.10000000000E+02 0. -1.
</event>
<event>
 5    1  0.1321379E-008  0.3846169E+03  0.7957747E-01  0.3431299E+00
         13   -1    0    0    0    0  0.00000000000E+00  0.00000000000E+00  0.14999999963E+04  0.15000000000E+04  0.10566000000E+00 0. -1.
        994   -1    0    0    0    0 -0.00000000000E+00 -0.00000000000E+00  0.11368683772E-12  0.17120000000E+03  0.17120000000E+03 0.  0.
         13    1    1    2    0    0 -0.54682287303E+01 -0.94970221613E+01  0.31743744248E+02  0.33582308115E+02  0.10566000000E+00 0. -1.
        994    1    1    2    0    0  0.13498897472E+02  0.82401596203E+01  0.26444918562E+01  0.17194927683E+03  0.17120000000E+03 0.  0.
        998    1    1    2    0    0 -0.80306687414E+01  0.12568625410E+01  0.14656117602E+04  0.14656684151E+04  0.10000000000E+02 0. -1.
</event>
<event>
 5    1  0.1321379E-008  0.3837953E+03  0.7957747E-01  0.3434798E+00
         13   -1    0    0    0    0  0.00000000000E+00  0.00000000000E+00  0.14999999963E+04  0.15000000000E+04  0.10566000000E+00 0. -1.
        994   -1    0    0    0    0 -0.00000000000E+00 -0.00000000000E+00  0.11368683772E-12  0.17120000000E+03  0.17120000000E+03 0.  0.
         13    1    1    2    0    0  0.10188663838E+02 -0.17197911405E+02  0.95187647766E+02  0.97263952617E+02  0.10566000000E+00 0. -1.
        994    1    1    2    0    0  0.53245395573E+01  0.64782753785E+01  0.24616454193E+01  0.17142292283E+03  0.17120000000E+03 0.  0.
        998    1    1    2    0    0 -0.15513203395E+02  0.10719636027E+02  0.14023507031E+04  0.14025131246E+04  0.10000000000E+02 0. -1.
</event>
<event>
 5    1  0.1321379E-008  0.3814503E+03  0.7957747E-01  0.3444868E+00
         13   -1    0    0    0    0  0.00000000000E+00  0.00000000000E+00  0.14999999963E+04  0.15000000000E+04  0.10566000000E+00 0.  1.
        994   -1    0    0    0    0 -0.00000000000E+00 -0.00000000000E+00  0.11368683772E-12  0.17120000000E+03  0.17120000000E+03 0.  0.
         13    1    1    2    0    0  0.25432826440E+02  0.20756365167E+02  0.17659151396E+03  0.17961689599E+03  0.10566000000E+00 0.  1.
        994    1    1    2    0    0  0.32503087873E+01 -0.10807703691E+02  0.38267123863E+01  0.17161426134E+03  0.17120000000E+03 0.  0.
        998    1    1    2    0    0 -0.28683135227E+02 -0.99486614759E+01  0.13195817699E+04  0.13199688427E+04  0.10000000000E+02 0.  1.
</event>
<event>
 5    1  0.1321379E-008  0.3850571E+03  0.7957747E-01  0.3429430E+00
         13   -1    0    0    0    0  0.00000000000E+00  0.00000000000E+00  0.14999999963E+04  0.15000000000E+04  0.10566000000E+00 0.  1.
        994   -1    0    0    0    0 -0.00000000000E+00 -0.00000000000E+00  0.11368683772E-12  0.17120000000E+03  0.17120000000E+03 0.  0.
         13    1    1    2    0    0 -0.47968816753E+00  0.12718421019E+02  0.51573650421E+02  0.53121002586E+02  0.10566000000E+00 0.  1.
        994    1    1    2    0    0 -0.72672560814E+01 -0.53124766811E+01  0.18682990493E+01  0.17144668548E+03  0.17120000000E+03 0.  0.
        998    1    1    2    0    0  0.77469442490E+01 -0.74059443377E+01  0.14465580468E+04  0.14466323119E+04  0.10000000000E+02 0.  1.
</event>
<event>
 5    1  0.1667449E-008  0.3862761E+03  0.7957747E-01  0.3424278E+00
         13   -1    0    0    0    0  0.00000000000E+00  0.00000000000E+00  0.14999999963E+04  0.15000000000E+04  0.10566000000E+00 0. -1.
        994   -1    0    0    0    0 -0.00000000000E+00 -0.00000000000E+00  0.11368683772E-12  0.17120000000E+03  0.17120000000E+03 0.  0.
         13    1    1    2    0    0  0.88668774927E+01  0.56487024358E+01  0.51738941098E+02  0.52796387620E+02  0.10566000000E+00 0. -1.
        994    1    1    2    0    0 -0.14450457205E+02 -0.12898673064E+02  0.22276590062E+01  0.17230668572E+03  0.17120000000E+03 0.  0.
        998    1    1    2    0    0  0.55835797121E+01  0.72499706278E+01  0.14460333962E+04  0.14460969267E+04  0.10000000000E+02 0. -1.
</event>
<event>
 5    1  0.1321379E-008  0.3839529E+03  0.7957747E-01  0.3434125E+00
         13   -1    0    0    0    0  0.00000000000E+00  0.00000000000E+00  0.14999999963E+04  0.15000000000E+04  0.10566000000E+00 0. -1.
        994   -1    0    0    0    0 -0.00000000000E+00 -0.00000000000E+00  0.11368683772E-12  0.17120000000E+03  0.17120000000E+03 0.  0.
         13    1    1    2    0    0  0.33462880330E+02 -0.10717980621E+01  0.19722629357E+03  0.20004783215E+03  0.10566000000E+00 0. -1.
        994    1    1    2    0    0 -0.48968124334E+02  0.20884870180E+01  0.10118575468E+02  0.17836497568E+03  0.17120000000E+03 0.  0.
        998    1    1    2    0    0  0.15505244005E+02 -0.10166889559E+01  0.12926551272E+04  0.12927871922E+04  0.10000000000E+02 0. -1.
</event>
<event>
 5    1  0.1321379E-008  0.4119836E+03  0.7957747E-01  0.3322718E+00
         13   -1    0    0    0    0  0.00000000000E+00  0.00000000000E+00  0.14999999963E+04  0.15000000000E+04  0.10566000000E+00 0. -1.
        994   -1    0    0    0    0 -0.00000000000E+00 -0.00000000000E+00  0.11368683772E-12  0.17120000000E+03  0.17120000000E+03 0.  0.
         13    1    1    2    0    0 -0.80245777138E+01 -0.44000060774E+02  0.15079622272E+02  0.47199633129E+02  0.10566000000E+00 0. -1.
        994    1    1    2    0    0 -0.11182040683E+02  0.39385573658E+02  0.42076397435E+02  0.18098653173E+03  0.17120000000E+03 0.  0.
        998    1    1    2    0    0  0.19206618397E+02  0.46144871160E+01  0.14428439766E+04  0.14430138351E+04  0.10000000000E+02 0. -1.
</event>
<event>
 5    1  0.1321379E-008  0.3693641E+03  0.7957747E-01  0.3498819E+00
         13   -1    0    0    0    0  0.00000000000E+00  0.00000000000E+00  0.14999999963E+04  0.15000000000E+04  0.10566000000E+00 0. -1.
        994   -1    0    0    0    0 -0.00000000000E+00 -0.00000000000E+00  0.11368683772E-12  0.17120000000E+03  0.17120000000E+03 0.  0.
         13    1    1    2    0    0 -0.42699873626E+02  0.46323419793E+02  0.18089134498E+03  0.19154850112E+03  0.10566000000E+00 0. -1.
        994    1    1    2    0    0  0.58153863605E+02 -0.30662414692E+02  0.24731831775E+02  0.18504907195E+03  0.17120000000E+03 0.  0.
        998    1    1    2    0    0 -0.15453989980E+02 -0.15661005101E+02  0.12943768195E+04  0.12946024269E+04  0.10000000000E+02 0. -1.
</event>
<event>
 5    1  0.1321379E-008  0.3791800E+03  0.7957747E-01  0.3454737E+00
         13   -1    0    0    0    0  0.00000000000E+00  0.00000000000E+00  0.14999999963E+04  0.15000000000E+04  0.10566000000E+00 0. -1.
        994   -1    0    0    0    0 -0.00000000000E+00 -0.00000000000E+00  0.11368683772E-12  0.17120000000E+03  0.17120000000E+03 0.  0.
         13    1    1    2    0    0 -0.45241467294E+02  0.72057109741E+02  0.51138969016E+03  0.51841917768E+03  0.10566000000E+00 0. -1.
        994    1    1    2    0    0  0.72607987277E+02 -0.59198096857E+02  0.34551699928E+02  0.19819080316E+03  0.17120000000E+03 0.  0.
        998    1    1    2    0    0 -0.27366519983E+02 -0.12859012883E+02  0.95405860619E+03  0.95459001916E+03  0.10000000000E+02 0. -1.
</event>
<event>
 5    1  0.1321379E-008  0.3757939E+03  0.7957747E-01  0.3469680E+00
         13   -1    0    0    0    0  0.00000000000E+00  0.00000000000E+00  0.14999999963E+04  0.15000000000E+04  0.10566000000E+00 0.  1.
        994   -1    0    0    0    0 -0.00000000000E+00 -0.00000000000E+00  0.11368683772E-12  0.17120000000E+03  0.17120000000E+03 0.  0.
         13    1    1    2    0    0  0.59332063534E+02  0.16840059677E+03  0.87724001796E+03  0.89522573412E+03  0.10566000000E+00 0.  1.
        994    1    1    2    0    0 -0.41000741724E+02 -0.17607292482E+03  0.12660792585E+03  0.27932372360E+03  0.17120000000E+03 0.  0.
        998    1    1    2    0    0 -0.18331321810E+02  0.76723280466E+01  0.49615205247E+03  0.49665054228E+03  0.10000000000E+02 0.  1.
</event>
<event>
 5    1  0.1321379E-008  0.3769422E+03  0.7957747E-01  0.3464582E+00
         13   -1    0    0    0    0  0.00000000000E+00  0.00000000000E+00  0.14999999963E+04  0.15000000000E+04  0.10566000000E+00 0. -1.
        994   -1    0    0    0    0 -0.00000000000E+00 -0.00000000000E+00  0.11368683772E-12  0.17120000000E+03  0.17120000000E+03 0.  0.
         13    1    1    2    0    0  0.82636917576E+02  0.60932790203E+02  0.29238651168E+03  0.30988957460E+03  0.10566000000E+00 0. -1.
        994    1    1    2    0    0 -0.70471630850E+02 -0.67829809694E+02  0.49791982398E+02  0.20336129265E+03  0.17120000000E+03 0.  0.
        998    1    1    2    0    0 -0.12165286726E+02  0.68970194913E+01  0.11578215022E+04  0.11579491327E+04  0.10000000000E+02 0. -1.
</event>
<event>
 5    1  0.1321379E-008  0.3766887E+03  0.7957747E-01  0.3465704E+00
         13   -1    0    0    0    0  0.00000000000E+00  0.00000000000E+00  0.14999999963E+04  0.15000000000E+04  0.10566000000E+00 0. -1.
        994   -1    0    0    0    0 -0.00000000000E+00 -0.00000000000E+00  0.11368683772E-12  0.17120000000E+03  0.17120000000E+03 0.  0.
         13    1    1    2    0    0 -0.54351176702E+02  0.54179205224E+00  0.24852140989E+03  0.25439584565E+03  0.10566000000E+00 0. -1.
        994    1    1    2    0    0  0.33102609563E+02 -0.43014140704E+01  0.95895329515E+01  0.17468738954E+03  0.17120000000E+03 0.  0.
        998    1    1    2    0    0  0.21248567140E+02  0.37596220181E+01  0.12418890534E+04  0.12421167648E+04  0.10000000000E+02 0. -1.
</event>
<event>
 5    1  0.1321379E-008  0.3794330E+03  0.7957747E-01  0.3453631E+00
         13   -1    0    0    0    0  0.00000000000E+00  0.00000000000E+00  0.14999999963E+04  0.15000000000E+04  0.10566000000E+00 0.  1.
        994   -1    0    0    0    0 -0.00000000000E+00 -0.00000000000E+00  0.11368683772E-12  0.17120000000E+03  0.17120000000E+03 0.  0.
         13    1    1    2    0    0 -0.22742208861E+02 -0.70381642655E+00  0.57592565787E+02  0.61924294258E+02  0.10566000000E+00 0.  1.
        994    1    1    2    0    0  0.11993117875E+02 -0.95309456777E+01  0.52059833233E+01  0.17196283338E+03  0.17120000000E+03 0.  0.
        998    1    1    2    0    0  0.10749090986E+02  0.10234762104E+02  0.14372014472E+04  0.14373128724E+04  0.10000000000E+02 0.  1.
</event>
<event>
 5    1  0.1321379E-008  0.3739767E+03  0.7957747E-01  0.3477812E+00
         13   -1    0    0    0    0  0.00000000000E+00  0.00000000000E+00  0.14999999963E+04  0.15000000000E+04  0.10566000000E+00 0. -1.
        994   -1    0    0    0    0 -0.00000000000E+00 -0.00000000000E+00  0.11368683772E-12  0.17120000000E+03  0.17120000000E+03 0.  0.
         13    1    1    2    0    0  0.13018178757E+02 -0.15131822212E+02  0.25988316343E+02  0.32769631856E+02  0.10566000000E+00 0. -1.
        994    1    1    2    0    0  0.13063575071E+02  0.11790069299E+01  0.77922023513E+01  0.17187846133E+03  0.17120000000E+03 0.  0.
        998    1    1    2    0    0 -0.26081753828E+02  0.13952815283E+02  0.14662194776E+04  0.14665519068E+04  0.10000000000E+02 0. -1.
</event>
<event>
 5    1  0.1321379E-008  0.3762795E+03  0.7957747E-01  0.3467520E+00
         13   -1    0    0    0    0  0.00000000000E+00  0.00000000000E+00  0.14999999963E+04  0.15000000000E+04  0.10566000000E+00 0.  1.
        994   -1    0    0    0    0 -0.00000000000E+00 -0.00000000000E+00  0.11368683772E-12  0.17120000000E+03  0.17120000000E+03 0.  0.
         13    1    1    2    0    0 -0.35472336656E+02 -0.98337320165E+01  0.12437222371E+03  0.12970524333E+03  0.10566000000E+00 0.  1.
        994    1    1    2    0    0 -0.34266763308E+01  0.50580173003E+01  0.61494876524E+01  0.17141931585E+03  0.17120000000E+03 0.  0.
        998    1    1    2    0    0  0.38899012987E+02  0.47757147162E+01  0.13694782849E+04  0.13700754408E+04  0.10000000000E+02 0.  1.
</event>
<event>
 5    1  0.1321379E-008  0.3839765E+03  0.7957747E-01  0.3434025E+00
         13   -1    0    0    0    0  0.00000000000E+00  0.00000000000E+00  0.14999999963E+04  0.15000000000E+04  0.10566000000E+00 0.  1.
        994   -1    0    0    0    0 -0.00000000000E+00 -0.00000000000E+00  0.11368683772E-12  0.17120000000E+03  0.17120000000E+03 0.  0.
         13    1    1    2    0    0 -0.37014846468E+01  0.16728713170E+02  0.69266500478E+02  0.71354117508E+02  0.10566000000E+00 0.  1.
        994    1    1    2    0    0 -0.43527251467E+01 -0.95787010194E+01  0.25045056135E+01  0.17154127864E+03  0.17120000000E+03 0.  0.
        998    1    1    2    0    0  0.80542097935E+01 -0.71500121511E+01  0.14282289902E+04  0.14283046039E+04  0.10000000000E+02 0.  1.
</event>
<event>
 5    1  0.1321379E-008  0.3773104E+03  0.7957747E-01  0.3462954E+00
         13   -1    0    0    0    0  0.00000000000E+00  0.00000000000E+00  0.14999999963E+04  0.15000000000E+04  0.10566000000E+00 0. -1.
        994   -1    0    0    0    0 -0.00000000000E+00 -0.00000000000E+00  0.11368683772E-12  0.17120000000E+03  0.17120000000E+03 0.  0.
         13    1    1    2    0    0 -0.44921450781E+02 -0.12636009759E+02  0.65961895444E+02  0.80799680058E+02  0.10566000000E+00 0. -1.
        994    1    1    2    0    0  0.40563414252E+02  0.12553920416E+02  0.21355082521E+02  0.17767518409E+03  0.17120000000E+03 0.  0.
        998    1    1    2    0    0  0.43580365294E+01  0.82089342693E-01  0.14126830183E+04  0.14127251358E+04  0.10000000000E+02 0. -1.
</event>
<event>
 5    1  0.1321379E-008  0.3715207E+03  0.7957747E-01  0.3488931E+00
         13   -1    0    0    0    0  0.00000000000E+00  0.00000000000E+00  0.14999999963E+04  0.15000000000E+04  0.10566000000E+00 0.  1.
        994   -1    0    0    0    0 -0.00000000000E+00 -0.00000000000E+00  0.11368683772E-12  0.17120000000E+03  0.17120000000E+03 0.  0.
         13    1    1    2    0    0 -0.42736133065E+02  0.25894047285E+02  0.16482419834E+03  0.17223212905E+03  0.10566000000E+00 0.  1.
        994    1    1    2    0    0  0.92841871813E+01  0.89635724090E+01  0.90493856540E+01  0.17192403306E+03  0.17120000000E+03 0.  0.
        998    1    1    2    0    0  0.33451945884E+02 -0.34857619694E+02  0.13261264123E+04  0.13270438379E+04  0.10000000000E+02 0. -1.
</event>
<event>
 5    1  0.1321379E-008  0.3849120E+03  0.7957747E-01  0.3430046E+00
         13   -1    0    0    0    0  0.00000000000E+00  0.00000000000E+00  0.14999999963E+04  0.15000000000E+04  0.10566000000E+00 0.  1.
        994   -1    0    0    0    0 -0.00000000000E+00 -0.00000000000E+00  0.11368683772E-12  0.17120000000E+03  0.17120000000E+03 0.  0.
         13    1    1    2    0    0  0.80999565999E+01  0.10950623018E+02  0.57413865743E+02  0.59007529901E+02  0.10566000000E+00 0.  1.
        994    1    1    2    0    0 -0.60567565663E+01  0.86884200347E+00  0.17970237876E+01  0.17131873360E+03  0.17120000000E+03 0.  0.
        998    1    1    2    0    0 -0.20432000336E+01 -0.11819465022E+02  0.14407891067E+04  0.14408737365E+04  0.10000000000E+02 0.  1.
</event>
<event>
 5    1  0.1321379E-008  0.3852928E+03  0.7957747E-01  0.3428431E+00
         13   -1    0    0    0    0  0.00000000000E+00  0.00000000000E+00  0.14999999963E+04  0.15000000000E+04  0.10566000000E+00 0. -1.
        994   -1    0    0    0    0 -0.00000000000E+00 -0.00000000000E+00  0.11368683772E-12  0.17120000000E+03  0.17120000000E+03 0.  0.
         13    1    1    2    0    0 -0.66090193793E+01 -0.75582827584E+01  0.34169771874E+02  0.35614480895E+02  0.10566000000E+00 0. -1.
        994    1    1    2    0    0  0.11145542688E+01  0.58182014292E+01  0.16001309036E+01  0.17130993584E+03  0.17120000000E+03 0.  0.
        998    1    1    2    0    0  0.54944651105E+01  0.17400813291E+01  0.14642300935E+04  0.14642755833E+04  0.10000000000E+02 0. -1.
</event>
<event>
 5    1  0.1321379E-008  0.3844179E+03  0.7957747E-01  0.3432145E+00
         13   -1    0    0    0    0  0.00000000000E+00  0.00000000000E+00  0.14999999963E+04  0.15000000000E+04  0.10566000000E+00 0.  1.
        994   -1    0    0    0    0 -0.00000000000E+00 -0.00000000000E+00  0.11368683772E-12  0.17120000000E+03  0.17120000000E+03 0.  0.
         13    1    1    2    0    0  0.15497245974E+02  0.16112975265E+02  0.11844167649E+03  0.12053312614E+03  0.10566000000E+00 0.  1.
        994    1    1    2    0    0 -0.19589215287E+02 -0.16819630681E+02  0.41190017305E+01  0.17318499793E+03  0.17120000000E+03 0.  0.
        998    1    1    2    0    0  0.40919693137E+01  0.70665541678E+00  0.13774393181E+04  0.13774818759E+04  0.10000000000E+02 0.  1.
</event>
<event>
 5    1  0.1321379E-008  0.3850567E+03  0.7957747E-01  0.3429432E+00
         13   -1    0    0    0    0  0.00000000000E+00  0.00000000000E+00  0.14999999963E+04  0.15000000000E+04  0.10566000000E+00 0. -1.
        994   -1    0    0    0    0 -0.00000000000E+00 -0.00000000000E+00  0.11368683772E-12  0.17120000000E+03  0.17120000000E+03 0.  0.
         13    1    1    2    0    0 -0.40191037192E+01 -0.19086573243E+02  0.10912785875E+03  0.11085734614E+03  0.10566000000E+00 0. -1.
        994    1    1    2    0    0 -0.22798573661E+01  0.23843704911E+02  0.34906799639E+01  0.17290270345E+03  0.17120000000E+03 0.  0.
        998    1    1    2    0    0  0.62989610854E+01 -0.47571316677E+01  0.13873814576E+04  0.13874399504E+04  0.10000000000E+02 0. -1.
</event>
<event>
 5    1  0.1321379E-008  0.3776574E+03  0.7957747E-01  0.3461423E+00
         13   -1    0    0    0    0  0.00000000000E+00  0.00000000000E+00  0.14999999963E+04  0.15000000000E+04  0.10566000000E+00 0.  1.
        994   -1    0    0    0    0 -0.00000000000E+00 -0.00000000000E+00  0.11368683772E-12  0.17120000000E+03  0.17120000000E+03 0.  0.
         13    1    1    2    0    0  0.23113381335E+02  0.56900172025E+01  0.50968561197E+02  0.56253089578E+02  0.10566000000E+00 0.  1.
        994    1    1    2    0    0 -0.13292184514E+02 -0.16578828331E+02  0.68431158944E+01  0.17264937866E+03  0.17120000000E+03 0.  0.
        998    1    1    2    0    0 -0.98211968218E+01  0.10888811129E+02  0.14421883192E+04  0.14422975318E+04  0.10000000000E+02 0.  1.
</event>
<event>
 5    1  0.1321379E-008  0.3724454E+03  0.7957747E-01  0.3484727E+00
         13   -1    0    0    0    0  0.00000000000E+00  0.00000000000E+00  0.14999999963E+04  0.15000000000E+04  0.10566000000E+00 0.  1.
        994   -1    0    0    0    0 -0.00000000000E+00 -0.00000000000E+00  0.11368683772E-12  0.17120000000E+03  0.17120000000E+03 0.  0.
         13    1    1    2    0    0 -0.91967730639E+00 -0.10519440843E+02  0.32206582784E+01  0.11040300982E+02  0.10566000000E+00 0.  1.
        994    1    1    2    0    0  0.76298507864E+01  0.10414808195E+02  0.85681519385E+01  0.17189978499E+03  0.17120000000E+03 0.  0.
        998    1    1    2    0    0 -0.67101734800E+01  0.10463264756E+00  0.14882111861E+04  0.14882599140E+04  0.10000000000E+02 0.  1.
</event>
<event>
 5    1  0.1321379E-008  0.3760202E+03  0.7957747E-01  0.3468673E+00
         13   -1    0    0    0    0  0.00000000000E+00  0.00000000000E+00  0.14999999963E+04  0.15000000000E+04  0.10566000000E+00 0.  1.
        994   -1    0    0    0    0 -0.00000000000E+00 -0.00000000000E+00  0.11368683772E-12  0.17120000000E+03  0.17120000000E+03 0.  0.
         13    1    1    2    0    0  0.45639127268E+02  0.47802936709E+00  0.70579487968E+02  0.84051375573E+02  0.10566000000E+00 0.  1.
        994    1    1    2    0    0 -0.19586433145E+02  0.66894224202E+02  0.31720500083E+02  0.18754758255E+03  0.17120000000E+03 0.  0.
        998    1    1    2    0    0 -0.26052694123E+02 -0.67372253570E+02  0.13977000082E+04  0.13996010419E+04  0.10000000000E+02 0.  1.
</event>
<event>
 5    1  0.1321379E-008  0.3843656E+03  0.7957747E-01  0.3432367E+00
         13   -1    0    0    0    0  0.00000000000E+00  0.00000000000E+00  0.14999999963E+04  0.15000000000E+04  0.10566000000E+00 0. -1.
        994   -1    0    0    0    0 -0.00000000000E+00 -0.00000000000E+00  0.11368683772E-12  0.17120000000E+03  0.17120000000E+03 0.  0.
         13    1    1    2    0    0  0.53449316136E+02  0.27676856847E+02  0.86405422979E+02  0.10530311527E+03  0.10566000000E+00 0. -1.
        994    1    1    2    0    0 -0.57584860930E+02 -0.11457903767E+02  0.31553353442E+02  0.18371813705E+03  0.17120000000E+03 0.  0.
        998    1    1    2    0    0  0.41355447943E+01 -0.16218953080E+02  0.13820412199E+04  0.13821787477E+04  0.10000000000E+02 0. -1.
</event>
<event>
 5    1  0.1321379E-008  0.3818814E+03  0.7957747E-01  0.3443007E+00
         13   -1    0    0    0    0  0.00000000000E+00  0.00000000000E+00  0.14999999963E+04  0.15000000000E+04  0.10566000000E+00 0.  1.
        994   -1    0    0    0    0 -0.00000000000E+00 -0.00000000000E+00  0.11368683772E-12  0.17120000000E+03  0.17120000000E+03 0.  0.
         13    1    1    2    0    0  0.71322846739E+01 -0.23254129881E+02  0.94541386624E+02  0.97620228386E+02  0.10566000000E+00 0.  1.
        994    1    1    2    0    0 -0.73046659762E+01  0.80464351909E+01  0.35789071600E+01  0.17158191000E+03  0.17120000000E+03 0.  0.
        998    1    1    2    0    0  0.17238130224E+00  0.15207694690E+02  0.14018797025E+04  0.14019978616E+04  0.10000000000E+02 0.  1.
</event>
<event>
 5    1  0.1321379E-008  0.3727195E+03  0.7957747E-01  0.3483485E+00
         13   -1    0    0    0    0  0.00000000000E+00  0.00000000000E+00  0.14999999963E+04  0.15000000000E+04  0.10566000000E+00 0. -1.
        994   -1    0    0    0    0 -0.00000000000E+00 -0.00000000000E+00  0.11368683772E-12  0.17120000000E+03  0.17120000000E+03 0.  0.
         13    1    1    2    0    0  0.38453944783E+02 -0.81623342891E+01  0.99610024866E+02  0.10708640338E+03  0.10566000000E+00 0. -1.
        994    1    1    2    0    0 -0.14021814851E+02  0.12303615255E+01  0.85334615787E+01  0.17198949110E+03  0.17120000000E+03 0.  0.
        998    1    1    2    0    0 -0.24432129933E+02  0.69319727636E+01  0.13918565098E+04  0.13921241055E+04  0.10000000000E+02 0. -1.
</event>
<event>
 5    1  0.1321379E-008  0.3774623E+03  0.7957747E-01  0.3462283E+00
         13   -1    0    0    0    0  0.00000000000E+00  0.00000000000E+00  0.14999999963E+04  0.15000000000E+04  0.10566000000E+00 0.  1.
        994   -1    0    0    0    0 -0.00000000000E+00 -0.00000000000E+00  0.11368683772E-12  0.17120000000E+03  0.17120000000E+03 0.  0.
         13    1    1    2    0    0  0.35318711311E+02  0.22540006262E+02  0.14340991485E+03  0.14940508054E+03  0.10566000000E+00 0.  1.
        994    1    1    2    0    0 -0.40512854735E+02 -0.20173085235E+02  0.12356043372E+02  0.17751156744E+03  0.17120000000E+03 0.  0.
        998    1    1    2    0    0  0.51941434238E+01 -0.23669210273E+01  0.13442340381E+04  0.13442833520E+04  0.10000000000E+02 0.  1.
</event>
<event>
 5    1  0.1321379E-008  0.3848506E+03  0.7957747E-01  0.3430306E+00
         13   -1    0    0    0    0  0.00000000000E+00  0.00000000000E+00  0.14999999963E+04  0.15000000000E+04  0.10566000000E+00 0. -1.
        994   -1    0    0    0    0 -0.00000000000E+00 -0.00000000000E+00  0.11368683772E-12  0.17120000000E+03  0.17120000000E+03 0.  0.
         13    1    1    2    0    0 -0.93845003162E+01  0.92103240873E+01  0.56985314792E+02  0.58482785347E+02  0.10566000000E+00 0. -1.
        994    1    1    2    0    0  0.98873526383E+01  0.25132896905E+02  0.41079866742E+01  0.17336590727E+03  0.17120000000E+03 0.  0.
        998    1    1    2    0    0 -0.50285232209E+00 -0.34343220993E+02  0.14389066948E+04  0.14393513074E+04  0.10000000000E+02 0. -1.
</event>
<event>
 5    1  0.1436487E-008  0.3849659E+03  0.7957747E-01  0.3429817E+00
         13   -1    0    0    0    0  0.00000000000E+00  0.00000000000E+00  0.14999999963E+04  0.15000000000E+04  0.10566000000E+00 0.  1.
        994   -1    0    0    0    0 -0.00000000000E+00 -0.00000000000E+00  0.11368683772E-12  0.17120000000E+03  0.17120000000E+03 0.  0.
         13    1    1    2    0    0 -0.99398810333E+01 -0.54734840991E+01  0.38531020794E+02  0.40167287568E+02  0.10566000000E+00 0.  1.
        994    1    1    2    0    0  0.79234595815E+01  0.58804173737E+01  0.19673671382E+01  0.17149539660E+03  0.17120000000E+03 0.  0.
        998    1    1    2    0    0  0.20164214518E+01 -0.40693327461E+00  0.14595016083E+04  0.14595373158E+04  0.10000000000E+02 0.  1.
</event>
<event>
 5    1  0.1321379E-008  0.4347960E+03  0.7957747E-01  0.3242535E+00
         13   -1    0    0    0    0  0.00000000000E+00  0.00000000000E+00  0.14999999963E+04  0.15000000000E+04  0.10566000000E+00 0. -1.
        994   -1    0    0    0    0 -0.00000000000E+00 -0.00000000000E+00  0.11368683772E-12  0.17120000000E+03  0.17120000000E+03 0.  0.
         13    1    1    2    0    0  0.76418712042E+02  0.49870864901E+02  0.63012211421E+02  0.11089397039E+03  0.10566000000E+00 0. -1.
        994    1    1    2    0    0 -0.72984601253E+02 -0.67740573589E+02  0.97668809117E+02  0.22082611622E+03  0.17120000000E+03 0.  0.
        998    1    1    2    0    0 -0.34341107888E+01  0.17869708689E+02  0.13393189757E+04  0.13394799134E+04  0.10000000000E+02 0. -1.
</event>
<event>
 5    1  0.1321379E-008  0.3827078E+03  0.7957747E-01  0.3439452E+00
         13   -1    0    0    0    0  0.00000000000E+00  0.00000000000E+00  0.14999999963E+04  0.15000000000E+04  0.10566000000E+00 0.  1.
        994   -1    0    0    0    0 -0.00000000000E+00 -0.00000000000E+00  0.11368683772E-12  0.17120000000E+03  0.17120000000E+03 0.  0.
         13    1    1    2    0    0 -0.58471093386E+01  0.19034392844E+02  0.68413719535E+02  0.71252684042E+02  0.10566000000E+00 0.  1.
        994    1    1    2    0    0  0.21831300834E+01 -0.19341469717E+02  0.40287397007E+01  0.17235001959E+03  0.17120000000E+03 0.  0.
        998    1    1    2    0    0  0.36639792552E+01  0.30707687309E+00  0.14275575370E+04  0.14275972964E+04  0.10000000000E+02 0.  1.
</event>
<event>
 5    1  0.1321379E-008  0.3823575E+03  0.7957747E-01  0.3440957E+00
         13   -1    0    0    0    0  0.00000000000E+00  0.00000000000E+00  0.14999999963E+04  0.15000000000E+04  0.10566000000E+00 0.  1.
        994   -1    0    0    0    0 -0.00000000000E+00 -0.00000000000E+00  0.11368683772E-12  0.17120000000E+03  0.17120000000E+03 0.  0.
         13    1    1    2    0    0 -0.23287488695E+02 -0.39002282828E+01  0.89964682943E+02  0.93011688789E+02  0.10566000000E+00 0.  1.
        994    1    1    2    0    0  0.20405549481E+02  0.10280586229E+02  0.46814785076E+01  0.17278146065E+03  0.17120000000E+03 0.  0.
        998    1    1    2    0    0  0.28819392139E+01 -0.63803579465E+01  0.14053538348E+04  0.14054068506E+04  0.10000000000E+02 0.  1.
</event>
<event>
 5    1  0.1321379E-008  0.3814686E+03  0.7957747E-01  0.3444789E+00
         13   -1    0    0    0    0  0.00000000000E+00  0.00000000000E+00  0.14999999963E+04  0.15000000000E+04  0.10566000000E+00 0.  1.
        994   -1    0    0    0    0 -0.00000000000E+00 -0.00000000000E+00  0.11368683772E-12  0.17120000000E+03  0.17120000000E+03 0.  0.
         13    1    1    2    0    0 -0.11177697232E+02 -0.97316904015E+01  0.30299706960E+02  0.33730255252E+02  0.10566000000E+00 0.  1.
        994    1    1    2    0    0  0.12423429178E+02  0.12785239642E+02  0.44515976084E+01  0.17218321831E+03  0.17120000000E+03 0.  0.
        998    1    1    2    0    0 -0.12457319459E+01 -0.30535492408E+01  0.14652486917E+04  0.14652865264E+04  0.10000000000E+02 0.  1.
</event>
<event>
 5    1  0.1321379E-008  0.3739177E+03  0.7957747E-01  0.3478078E+00
         13   -1    0    0    0    0  0.00000000000E+00  0.00000000000E+00  0.14999999963E+04  0.15000000000E+04  0.10566000000E+00 0.  1.
        994   -1    0    0    0    0 -0.00000000000E+00 -0.00000000000E+00  0.11368683772E-12  0.17120000000E+03  0.17120000000E+03 0.  0.
         13    1    1    2    0    0 -0.58726442892E+00 -0.26637116657E+02  0.48774328482E+02  0.55577217871E+02  0.10566000000E+00 0.  1.
        994    1    1    2    0    0  0.12508362601E+02 -0.26896082550E+00  0.77697825519E+01  0.17183230487E+03  0.17120000000E+03 0.  0.
        998    1    1    2    0    0 -0.11921098172E+02  0.26906077483E+02  0.14434558852E+04  0.14437904773E+04  0.10000000000E+02 0.  1.
</event>
<event>
 5    1  0.1321379E-008  0.3860262E+03  0.7957747E-01  0.3425332E+00
         13   -1    0    0    0    0  0.00000000000E+00  0.00000000000E+00  0.14999999963E+04  0.15000000000E+04  0.10566000000E+00 0.  1.
        994   -1    0    0    0    0 -0.00000000000E+00 -0.00000000000E+00  0.11368683772E-12  0.17120000000E+03  0.17120000000E+03 0.  0.
         13    1    1    2    0    0 -0.11459493249E+02 -0.32728731923E+00  0.56069992548E+02  0.57230082394E+02  0.10566000000E+00 0.  1.
        994    1    1    2    0    0  0.15635413773E+02  0.49884611634E+01  0.20048839581E+01  0.17199654202E+03  0.17120000000E+03 0.  0.
        998    1    1    2    0    0 -0.41759205242E+01 -0.46611738442E+01  0.14419251198E+04  0.14419733756E+04  0.10000000000E+02 0.  1.
</event>
<event>
 5    1  0.1321379E-008  0.3791755E+03  0.7957747E-01  0.3454757E+00
         13   -1    0    0    0    0  0.00000000000E+00  0.00000000000E+00  0.14999999963E+04  0.15000000000E+04  0.10566000000E+00 0. -1.
        994   -1    0    0    0    0 -0.00000000000E+00 -0.00000000000E+00  0.11368683772E-12  0.17120000000E+03  0.17120000000E+03 0.  0.
         13    1    1    2    0    0  0.21697469672E+02 -0.38700210318E+02  0.22370980162E+03  0.22806703614E+03  0.10566000000E+00 0. -1.
        994    1    1    2    0    0 -0.39331476866E+02  0.28956634992E+01  0.97812519300E+01  0.17595585477E+03  0.17120000000E+03 0.  0.
        998    1    1    2    0    0  0.17634007194E+02  0.35804546819E+02  0.12665089427E+04  0.12671771091E+04  0.10000000000E+02 0. -1.
</event>
<event>
 5    1  0.1321379E-008  0.3822064E+03  0.7957747E-01  0.3441607E+00
         13   -1    0    0    0    0  0.00000000000E+00  0.00000000000E+00  0.14999999963E+04  0.15000000000E+04  0.10566000000E+00 0. -1.
        994   -1    0    0    0    0 -0.00000000000E+00 -0.00000000000E+00  0.11368683772E-12  0.17120000000E+03  0.17120000000E+03 0.  0.
         13    1    1    2    0    0 -0.15286556107E+02 -0.19471805415E+02  0.10638719732E+03  0.10922946910E+03  0.10566000000E+00 0. -1.
        994    1    1    2    0    0  0.34301884856E+01  0.46223088613E+01  0.31334509490E+01  0.17132539347E+03  0.17120000000E+03 0.  0.
        998    1    1    2    0    0  0.11856367622E+02  0.14849496554E+02  0.13904793480E+04  0.13906451374E+04  0.10000000000E+02 0. -1.
</event>
<event>
 5    1  0.1321379E-008  0.3805439E+03  0.7957747E-01  0.3448793E+00
         13   -1    0    0    0    0  0.00000000000E+00  0.00000000000E+00  0.14999999963E+04  0.15000000000E+04  0.10566000000E+00 0.  1.
        994   -1    0    0    0    0 -0.00000000000E+00 -0.00000000000E+00  0.11368683772E-12  0.17120000000E+03  0.17120000000E+03 0.  0.
         13    1    1    2    0    0  0.37842440725E+01  0.19146656350E+02  0.47810865461E+02  0.51641117075E+02  0.10566000000E+00 0.  1.
        994    1    1    2    0    0 -0.36384029532E+01 -0.13013687449E+02  0.44683528253E+01  0.17179057079E+03  0.17120000000E+03 0.  0.
        998    1    1    2    0    0 -0.14584111928E+00 -0.61329689005E+01  0.14477207780E+04  0.14477683121E+04  0.10000000000E+02 0.  1.
</event>
<event>
 5    1  0.1321379E-008  0.3705921E+03  0.7957747E-01  0.3493174E+00
         13   -1    0    0    0    0  0.00000000000E+00  0.00000000000E+00  0.14999999963E+04  0.15000000000E+04  0.10566000000E+00 0.  1.
        994   -1    0    0    0    0 -0.00000000000E+00 -0.00000000000E+00  0.11368683772E-12  0.17120000000E+03  0.17120000000E+03 0.  0.
         13    1    1    2    0    0  0.23037362657E+02 -0.15024833981E+02  0.38659421799E+02  0.47444997336E+02  0.10566000000E+00 0.  1.
        994    1    1    2    0    0 -0.20847076627E+02  0.19377476896E+01  0.10473933529E+02  0.17279322543E+03  0.17120000000E+03 0.  0.
        998    1    1    2    0    0 -0.21902860296E+01  0.13087086291E+02  0.14508666410E+04  0.14509617772E+04  0.10000000000E+02 0.  1.
</event>
<event>
 5    1  0.1321379E-008  0.3849767E+03  0.7957747E-01  0.3429771E+00
         13   -1    0    0    0    0  0.00000000000E+00  0.00000000000E+00  0.14999999963E+04  0.15000000000E+04  0.10566000000E+00 0. -1.
        994   -1    0    0    0    0 -0.00000000000E+00 -0.00000000000E+00  0.11368683772E-12  0.17120000000E+03  0.17120000000E+03 0.  0.
         13    1    1    2    0    0  0.21596723918E+00  0.13625340669E+02  0.55890755204E+02  0.57528116878E+02  0.10566000000E+00 0. -1.
        994    1    1    2    0    0  0.43947465045E+01 -0.11070707110E+02  0.21084698702E+01  0.17162680443E+03  0.17120000000E+03 0.  0.
        998    1    1    2    0    0 -0.46107137436E+01 -0.25546335586E+01  0.14420007712E+04  0.14420450787E+04  0.10000000000E+02 0. -1.
</event>
<event>
 5    1  0.1321379E-008  0.3844164E+03  0.7957747E-01  0.3432151E+00
         13   -1    0    0    0    0  0.00000000000E+00  0.00000000000E+00  0.14999999963E+04  0.15000000000E+04  0.10566000000E+00 0.  1.
        994   -1    0    0    0    0 -0.00000000000E+00 -0.00000000000E+00  0.11368683772E-12  0.17120000000E+03  0.17120000000E+03 0.  0.
         13    1    1    2    0    0 -0.12602273663E+02  0.67685349034E+00  0.44049005129E+02  0.45821408196E+02  0.10566000000E+00 0.  1.
        994    1    1    2    0    0 -0.56405387944E+01 -0.28240274825E+01  0.20512703849E+01  0.17132845216E+03  0.17120000000E+03 0.  0.
        998    1    1    2    0    0  0.18242812457E+02  0.21471739921E+01  0.14538997208E+04  0.14540501396E+04  0.10000000000E+02 0.  1.
</event>
<event>
 5    1  0.1321379E-008  0.3761505E+03  0.7957747E-01  0.3468093E+00
         13   -1    0    0    0    0  0.00000000000E+00  0.00000000000E+00  0.14999999963E+04  0.15000000000E+04  0.10566000000E+00 0.  1.
        994   -1    0    0    0    0 -0.00000000000E+00 -0.00000000000E+00  0.11368683772E-12  0.17120000000E+03  0.17120000000E+03 0.  0.
         13    1    1    2    0    0  0.74732394654E+01  0.10241164430E+02  0.10400307717E+02  0.16398424365E+02  0.10566000000E+00 0.  1.
        994    1    1    2    0    0 -0.53728789596E+01 -0.11092091110E+02  0.66036092079E+01  0.17177004968E+03  0.17120000000E+03 0.  0.
        998    1    1    2    0    0 -0.21003605057E+01  0.85092667970E+00  0.14829960794E+04  0.14830315260E+04  0.10000000000E+02 0.  1.
</event>
<event>
 5    1  0.1321379E-008  0.3806600E+03  0.7957747E-01  0.3448290E+00
         13   -1    0    0    0    0  0.00000000000E+00  0.00000000000E+00  0.14999999963E+04  0.15000000000E+04  0.10566000000E+00 0.  1.
        994   -1    0    0    0    0 -0.00000000000E+00 -0.00000000000E+00  0.11368683772E-12  0.17120000000E+03  0.17120000000E+03 0.  0.
         13    1    1    2    0    0 -0.48955967043E+01  0.32506873848E+02  0.15874527416E+03  0.16211334598E+03  0.10566000000E+00 0.  1.
        994    1    1    2    0    0  0.67257867750E+01 -0.11582904101E+01  0.39557170545E+01  0.17138163712E+03  0.17120000000E+03 0.  0.
        998    1    1    2    0    0 -0.18301900707E+01 -0.31348583438E+02  0.13372990051E+04  0.13377050169E+04  0.10000000000E+02 0.  1.
</event>
<event>
 5    1  0.1321379E-008  0.3849860E+03  0.7957747E-01  0.3429731E+00
         13   -1    0    0    0    0  0.00000000000E+00  0.00000000000E+00  0.14999999963E+04  0.15000000000E+04  0.10566000000E+00 0.  1.
        994   -1    0    0    0    0 -0.00000000000E+00 -0.00000000000E+00  0.11368683772E-12  0.17120000000E+03  0.17120000000E+03 0.  0.
         13    1    1    2    0    0  0.98482728219E+01 -0.37211951903E+01  0.34826308840E+02  0.36382945492E+02  0.10566000000E+00 0.  1.
        994    1    1    2    0    0 -0.35566263821E+01 -0.94490253748E+01  0.19723866771E+01  0.17150878689E+03  0.17120000000E+03 0.  0.
        998    1    1    2    0    0 -0.62916464398E+01  0.13170220565E+02  0.14632013008E+04  0.14633082676E+04  0.10000000000E+02 0.  1.
</event>
<event>
 5    1  0.1321379E-008  0.3754395E+03  0.7957747E-01  0.3471259E+00
         13   -1    0    0    0    0  0.00000000000E+00  0.00000000000E+00  0.14999999963E+04  0.15000000000E+04  0.10566000000E+00 0. -1.
        994   -1    0    0    0    0 -0.00000000000E+00 -0.00000000000E+00  0.11368683772E-12  0.17120000000E+03  0.17120000000E+03 0.  0.
         13    1    1    2    0    0 -0.46108918113E+02  0.70205531197E+02  0.23672563155E+03  0.25118496121E+03  0.10566000000E+00 0. -1.
        994    1    1    2    0    0  0.16843014708E+02 -0.63249641414E+02  0.29275401742E+02  0.18560897993E+03  0.17120000000E+03 0.  0.
        998    1    1    2    0    0  0.29265903405E+02 -0.69558897829E+01  0.12339989630E+04  0.12344060589E+04  0.10000000000E+02 0. -1.
</event>
<event>
 5    1  0.1321379E-008  0.3789154E+03  0.7957747E-01  0.3455895E+00
         13   -1    0    0    0    0  0.00000000000E+00  0.00000000000E+00  0.14999999963E+04  0.15000000000E+04  0.10566000000E+00 0. -1.
        994   -1    0    0    0    0 -0.00000000000E+00 -0.00000000000E+00  0.11368683772E-12  0.17120000000E+03  0.17120000000E+03 0.  0.
         13    1    1    2    0    0  0.28931417885E+01  0.18926579045E+02  0.37212212670E+02  0.41849081228E+02  0.10566000000E+00 0. -1.
        994    1    1    2    0    0 -0.80399110084E+01 -0.12562808746E+02  0.54283613056E+01  0.17193420672E+03  0.17120000000E+03 0.  0.
        998    1    1    2    0    0  0.51467692199E+01 -0.63637702987E+01  0.14573594223E+04  0.14574167121E+04  0.10000000000E+02 0. -1.
</event>
<event>
 5    1  0.1321379E-008  0.3701561E+03  0.7957747E-01  0.3495174E+00
         13   -1    0    0    0    0  0.00000000000E+00  0.00000000000E+00  0.14999999963E+04  0.15000000000E+04  0.10566000000E+00 0. -1.
        994   -1    0    0    0    0 -0.00000000000E+00 -0.00000000000E+00  0.11368683772E-12  0.17120000000E+03  0.17120000000E+03 0.  0.
         13    1    1    2    0    0  0.37679934466E+02  0.91997204755E+02  0.34418607256E+03  0.35825595159E+03  0.10566000000E+00 0. -1.
        994    1    1    2    0    0 -0.26664259853E+02 -0.94033805699E+02  0.45229959230E+02  0.20225856862E+03  0.17120000000E+03 0.  0.
        998    1    1    2    0    0 -0.11015674613E+02  0.20366009435E+01  0.11105839645E+04  0.11106854798E+04  0.10000000000E+02 0. -1.
</event>
<event>
 5    1  0.1321379E-008  0.3791984E+03  0.7957747E-01  0.3454656E+00
         13   -1    0    0    0    0  0.00000000000E+00  0.00000000000E+00  0.14999999963E+04  0.15000000000E+04  0.10566000000E+00 0.  1.
        994   -1    0    0    0    0 -0.00000000000E+00 -0.00000000000E+00  0.11368683772E-12  0.17120000000E+03  0.17120000000E+03 0.  0.
         13    1    1    2    0    0  0.21678013653E+02 -0.49337673881E+01  0.49571810741E+02  0.54329125898E+02  0.10566000000E+00 0.  1.
        994    1    1    2    0    0 -0.32217209297E+02  0.10264888684E+01  0.80287240977E+01  0.17439295475E+03  0.17120000000E+03 0.  0.
        998    1    1    2    0    0  0.10539195644E+02  0.39072785197E+01  0.14423994614E+04  0.14424779194E+04  0.10000000000E+02 0.  1.
</event>
<event>
 5    1  0.1321379E-008  0.3794776E+03  0.7957747E-01  0.3453436E+00
         13   -1    0    0    0    0  0.00000000000E+00  0.00000000000E+00  0.14999999963E+04  0.15000000000E+04  0.10566000000E+00 0.  1.
        994   -1    0    0    0    0 -0.00000000000E+00 -0.00000000000E+00  0.11368683772E-12  0.17120000000E+03  0.17120000000E+03 0.  0.
         13    1    1    2    0    0 -0.65137342827E+01 -0.14548476074E+02  0.30192466612E+02  0.34142101495E+02  0.10566000000E+00 0.  1.
        994    1    1    2    0    0  0.49829485020E+02 -0.50055024802E+02  0.21287280469E+02  0.18641639251E+03  0.17120000000E+03 0.  0.
        998    1    1    2    0    0 -0.43315750737E+02  0.64603500877E+02  0.14485202492E+04  0.14506415060E+04  0.10000000000E+02 0.  1.
</event>
<event>
 5    1  0.1321379E-008  0.3839754E+03  0.7957747E-01  0.3434029E+00
         13   -1    0    0    0    0  0.00000000000E+00  0.00000000000E+00  0.14999999963E+04  0.15000000000E+04  0.10566000000E+00 0.  1.
        994   -1    0    0    0    0 -0.00000000000E+00 -0.00000000000E+00  0.11368683772E-12  0.17120000000E+03  0.17120000000E+03 0.  0.
         13    1    1    2    0    0 -0.13991351766E+02  0.15392815698E+02  0.99528268202E+02  0.10167882786E+03  0.10566000000E+00 0.  1.
        994    1    1    2    0    0  0.12378384841E+02 -0.86581533677E+01  0.28929801094E+01  0.17188949172E+03  0.17120000000E+03 0.  0.
        998    1    1    2    0    0  0.16129669249E+01 -0.67346623299E+01  0.13975787480E+04  0.13976316804E+04  0.10000000000E+02 0.  1.
</event>
<event>
 5    1  0.1321379E-008  0.2777675E+03  0.7957747E-01  0.4068747E+00
         13   -1    0    0    0    0  0.00000000000E+00  0.00000000000E+00  0.14999999963E+04  0.15000000000E+04  0.10566000000E+00 0. -1.
        994   -1    0    0    0    0 -0.00000000000E+00 -0.00000000000E+00  0.11368683772E-12  0.17120000000E+03  0.17120000000E+03 0.  0.
         13    1    1    2    0    0  0.10429141890E+03 -0.17598045201E+03  0.36316774070E+03  0.41681727243E+03  0.10566000000E+00 0. -1.
        994    1    1    2    0    0 -0.14271603938E+03  0.17097465778E+03  0.28002173292E+03  0.39663813786E+03  0.17120000000E+03 0.  0.
        998    1    1    2    0    0  0.38424620479E+02  0.50057942390E+01  0.85681052266E+03  0.85774458971E+03  0.10000000000E+02 0.  1.
</event>
<event>
 5    1  0.1321379E-008  0.3799172E+03  0.7957747E-01  0.3451519E+00
         13   -1    0    0    0    0  0.00000000000E+00  0.00000000000E+00  0.14999999963E+04  0.15000000000E+04  0.10566000000E+00 0.  1.
        994   -1    0    0    0    0 -0.00000000000E+00 -0.00000000000E+00  0.11368683772E-12  0.17120000000E+03  0.17120000000E+03 0.  0.
         13    1    1    2    0    0  0.77064322001E+01  0.99695089808E+01  0.18429616579E+02  0.22325817742E+02  0.10566000000E+00 0.  1.
        994    1    1    2    0    0  0.29820252498E+02 -0.17756422641E+01  0.71647423712E+01  0.17393439538E+03  0.17120000000E+03 0.  0.
        998    1    1    2    0    0 -0.37526684698E+02 -0.81938667167E+01  0.14744056373E+04  0.14749397869E+04  0.10000000000E+02 0.  1.
</event>
<event>
 5    1  0.1321379E-008  0.3744816E+03  0.7957747E-01  0.3475544E+00
         13   -1    0    0    0    0  0.00000000000E+00  0.00000000000E+00  0.14999999963E+04  0.15000000000E+04  0.10566000000E+00 0. -1.
        994   -1    0    0    0    0 -0.00000000000E+00 -0.00000000000E+00  0.11368683772E-12  0.17120000000E+03  0.17120000000E+03 0.  0.
         13    1    1    2    0    0  0.64399164657E+01 -0.21304786570E+02  0.32926419298E+02  0.39743259890E+02  0.10566000000E+00 0. -1.
        994    1    1    2    0    0  0.52119657837E+00  0.14888447016E+02  0.77012406560E+01  0.17201943672E+03  0.17120000000E+03 0.  0.
        998    1    1    2    0    0 -0.69611130441E+01  0.64163395541E+01  0.14593723363E+04  0.14594373034E+04  0.10000000000E+02 0. -1.
</event>
<event>
 5    1  0.1321379E-008  0.3856824E+03  0.7957747E-01  0.3426783E+00
         13   -1    0    0    0    0  0.00000000000E+00  0.00000000000E+00  0.14999999963E+04  0.15000000000E+04  0.10566000000E+00 0. -1.
        994   -1    0    0    0    0 -0.00000000000E+00 -0.00000000000E+00  0.11368683772E-12  0.17120000000E+03  0.17120000000E+03 0.  0.
         13    1    1    2    0    0 -0.73775970245E+00  0.13967747347E+02  0.78183057994E+02  0.79424454525E+02  0.10566000000E+00 0. -1.
        994    1    1    2    0    0  0.16042012461E+01 -0.59395081797E+01  0.14159077526E+01  0.17131636236E+03  0.17120000000E+03 0.  0.
        998    1    1    2    0    0 -0.86644154366E+00 -0.80282391676E+01  0.14204010305E+04  0.14204591831E+04  0.10000000000E+02 0. -1.
</event>
<event>
 5    1  0.1321379E-008  0.3839990E+03  0.7957747E-01  0.3433929E+00
         13   -1    0    0    0    0  0.00000000000E+00  0.00000000000E+00  0.14999999963E+04  0.15000000000E+04  0.10566000000E+00 0.  1.
        994   -1    0    0    0    0 -0.00000000000E+00 -0.00000000000E+00  0.11368683772E-12  0.17120000000E+03  0.17120000000E+03 0.  0.
         13    1    1    2    0    0  0.96268534228E+01 -0.36873376647E+01  0.24689855240E+02  0.26755800898E+02  0.10566000000E+00 0.  1.
        994    1    1    2    0    0 -0.86228043337E+01 -0.13865276634E+02  0.30080277861E+01  0.17200315951E+03  0.17120000000E+03 0.  0.
        998    1    1    2    0    0 -0.10040490891E+01  0.17552614299E+02  0.14723021133E+04  0.14724410396E+04  0.10000000000E+02 0.  1.
</event>
<event>
 5    1  0.1321379E-008  0.2875690E+03  0.7957747E-01  0.3988967E+00
         13   -1    0    0    0    0  0.00000000000E+00  0.00000000000E+00  0.14999999963E+04  0.15000000000E+04  0.10566000000E+00 0.  1.
        994   -1    0    0    0    0 -0.00000000000E+00 -0.00000000000E+00  0.11368683772E-12  0.17120000000E+03  0.17120000000E+03 0.  0.
         13    1    1    2    0    0 -0.19612195408E+02  0.14011660605E+03  0.70898947566E+03  0.72296845661E+03  0.10566000000E+00 0.  1.
        994    1    1    2    0    0 -0.24243108168E+02 -0.68224857658E+02  0.37076155255E+02  0.18954271493E+03  0.17120000000E+03 0.  0.
        998    1    1    2    0    0  0.43855303576E+02 -0.71891748394E+02  0.75393436536E+03  0.75868882845E+03  0.10000000000E+02 0.  1.
</event>
<event>
 5    1  0.1321379E-008  0.3852463E+03  0.7957747E-01  0.3428628E+00
         13   -1    0    0    0    0  0.00000000000E+00  0.00000000000E+00  0.14999999963E+04  0.15000000000E+04  0.10566000000E+00 0.  1.
        994   -1    0    0    0    0 -0.00000000000E+00 -0.00000000000E+00  0.11368683772E-12  0.17120000000E+03  0.17120000000E+03 0.  0.
         13    1    1    2    0    0  0.37981386516E+01 -0.16851284155E+02  0.96739662511E+02  0.98269858561E+02  0.10566000000E+00 0.  1.
        994    1    1    2    0    0 -0.60013371807E+01  0.13225988011E+02  0.22013702419E+01  0.17182906866E+03  0.17120000000E+03 0.  0.
        998    1    1    2    0    0  0.22031985291E+01  0.36252961442E+01  0.14010589635E+04  0.14011010728E+04  0.10000000000E+02 0.  1.
</event>
<event>
 5    1  0.1321379E-008  0.3874903E+03  0.7957747E-01  0.3419179E+00
         13   -1    0    0    0    0  0.00000000000E+00  0.00000000000E+00  0.14999999963E+04  0.15000000000E+04  0.10566000000E+00 0. -1.
        994   -1    0    0    0    0 -0.00000000000E+00 -0.00000000000E+00  0.11368683772E-12  0.17120000000E+03  0.17120000000E+03 0.  0.
         13    1    1    2    0    0  0.95510516808E+02  0.42746905287E+02  0.35411074459E+03  0.36924786706E+03  0.10566000000E+00 0. -1.
        994    1    1    2    0    0  0.11356155546E+02 -0.50694590400E+02  0.30630191186E+02  0.18151185189E+03  0.17120000000E+03 0.  0.
        998    1    1    2    0    0 -0.10686667235E+03  0.79476851131E+01  0.11152590605E+04  0.11204402810E+04  0.10000000000E+02 0. -1.
</event>
<event>
 5    1  0.1321379E-008  0.3818836E+03  0.7957747E-01  0.3442998E+00
         13   -1    0    0    0    0  0.00000000000E+00  0.00000000000E+00  0.14999999963E+04  0.15000000000E+04  0.10566000000E+00 0.  1.
        994   -1    0    0    0    0 -0.00000000000E+00 -0.00000000000E+00  0.11368683772E-12  0.17120000000E+03  0.17120000000E+03 0.  0.
         13    1    1    2    0    0 -0.43259295059E+02 -0.14731194764E+02  0.27043178322E+03  0.27426581130E+03  0.10566000000E+00 0.  1.
        994    1    1    2    0    0  0.44420134319E+02  0.11913530130E+02  0.10244219112E+02  0.17756538108E+03  0.17120000000E+03 0.  0.
        998    1    1    2    0    0 -0.11608392595E+01  0.28176646348E+01  0.12193239939E+04  0.12193688076E+04  0.10000000000E+02 0.  1.
</event>
<event>
 5    1  0.1321379E-008  0.3825117E+03  0.7957747E-01  0.3440294E+00
         13   -1    0    0    0    0  0.00000000000E+00  0.00000000000E+00  0.14999999963E+04  0.15000000000E+04  0.10566000000E+00 0. -1.
        994   -1    0    0    0    0 -0.00000000000E+00 -0.00000000000E+00  0.11368683772E-12  0.17120000000E+03  0.17120000000E+03 0.  0.
         13    1    1    2    0    0  0.25520290216E+02  0.74679819861E+01  0.12767063104E+03  0.13041034147E+03  0.10566000000E+00 0. -1.
        994    1    1    2    0    0 -0.10114786542E+02 -0.36624049035E+00  0.32102843752E+01  0.17152897413E+03  0.17120000000E+03 0.  0.
        998    1    1    2    0    0 -0.15405503674E+02 -0.71017414957E+01  0.13691190809E+04  0.13692606844E+04  0.10000000000E+02 0. -1.
</event>
<event>
 5    1  0.1321379E-008  0.3752644E+03  0.7957747E-01  0.3472041E+00
         13   -1    0    0    0    0  0.00000000000E+00  0.00000000000E+00  0.14999999963E+04  0.15000000000E+04  0.10566000000E+00 0. -1.
        994   -1    0    0    0    0 -0.00000000000E+00 -0.00000000000E+00  0.11368683772E-12  0.17120000000E+03  0.17120000000E+03 0.  0.
         13    1    1    2    0    0  0.29297548431E+02 -0.20974088643E+02  0.91385537084E+02  0.98232307774E+02  0.10566000000E+00 0. -1.
        994    1    1    2    0    0 -0.27855576324E+02  0.23777315229E+02  0.11111890389E+02  0.17542579046E+03  0.17120000000E+03 0.  0.
        998    1    1    2    0    0 -0.14419721075E+01 -0.28032265858E+01  0.13975025688E+04  0.13975419018E+04  0.10000000000E+02 0. -1.
</event>
<event>
 5    1  0.1321379E-008  0.3688305E+03  0.7957747E-01  0.3501283E+00
         13   -1    0    0    0    0  0.00000000000E+00  0.00000000000E+00  0.14999999963E+04  0.15000000000E+04  0.10566000000E+00 0.  1.
        994   -1    0    0    0    0 -0.00000000000E+00 -0.00000000000E+00  0.11368683772E-12  0.17120000000E+03  0.17120000000E+03 0.  0.
         13    1    1    2    0    0 -0.16210168874E+02  0.19106628583E+02  0.25903245993E+02  0.36039175181E+02  0.10566000000E+00 0.  1.
        994    1    1    2    0    0 -0.12079228934E+02 -0.37080471357E+02  0.15635673743E+02  0.17628041134E+03  0.17120000000E+03 0.  0.
        998    1    1    2    0    0  0.28289397808E+02  0.17973842774E+02  0.14584610765E+04  0.14588804135E+04  0.10000000000E+02 0.  1.
</event>
<event>
 5    1  0.1321379E-008  0.3836082E+03  0.7957747E-01  0.3435597E+00
         13   -1    0    0    0    0  0.00000000000E+00  0.00000000000E+00  0.14999999963E+04  0.15000000000E+04  0.10566000000E+00 0.  1.
        994   -1    0    0    0    0 -0.00000000000E+00 -0.00000000000E+00  0.11368683772E-12  0.17120000000E+03  0.17120000000E+03 0.  0.
         13    1    1    2    0    0  0.18769680587E+02 -0.30772087998E+01  0.81899248309E+02  0.84078940056E+02  0.10566000000E+00 0.  1.
        994    1    1    2    0    0 -0.41274197325E+01 -0.81399051775E+01  0.25979532247E+01  0.17146277442E+03  0.17120000000E+03 0.  0.
        998    1    1    2    0    0 -0.14642260855E+02  0.11217113977E+02  0.14155027947E+04  0.14156582855E+04  0.10000000000E+02 0.  1.
</event>
<event>
 5    1  0.1321379E-008  0.3841420E+03  0.7957747E-01  0.3433319E+00
         13   -1    0    0    0    0  0.00000000000E+00  0.00000000000E+00  0.14999999963E+04  0.15000000000E+04  0.10566000000E+00 0.  1.
        994   -1    0    0    0    0 -0.00000000000E+00 -0.00000000000E+00  0.11368683772E-12  0.17120000000E+03  0.17120000000E+03 0.  0.
         13    1    1    2    0    0  0.38043681381E+01 -0.22660411285E+02  0.12824813463E+03  0.13029030147E+03  0.10566000000E+00 0.  1.
        994    1    1    2    0    0 -0.81283724859E+01  0.12732619603E+02  0.28096282721E+01  0.17188811492E+03  0.17120000000E+03 0.  0.
        998    1    1    2    0    0  0.43240043478E+01  0.99277916820E+01  0.13689422334E+04  0.13690215836E+04  0.10000000000E+02 0.  1.
</event>
<event>
 5    1  0.1321379E-008  0.3779062E+03  0.7957747E-01  0.3460326E+00
         13   -1    0    0    0    0  0.00000000000E+00  0.00000000000E+00  0.14999999963E+04  0.15000000000E+04  0.10566000000E+00 0. -1.
        994   -1    0    0    0    0 -0.00000000000E+00 -0.00000000000E+00  0.11368683772E-12  0.17120000000E+03  0.17120000000E+03 0.  0.
         13    1    1    2    0    0  0.84544253175E+01 -0.43036136744E+02  0.23713470320E+03  0.24115651557E+03  0.10566000000E+00 0. -1.
        994    1    1    2    0    0 -0.21875565856E+02 -0.11750667994E+02  0.72722578459E+01  0.17314428756E+03  0.17120000000E+03 0.  0.
        998    1    1    2    0    0  0.13421140539E+02  0.54786804739E+02  0.12555930352E+04  0.12568991969E+04  0.10000000000E+02 0. -1.
</event>
<event>
 5    1  0.1321379E-008  0.3687779E+03  0.7957747E-01  0.3501526E+00
         13   -1    0    0    0    0  0.00000000000E+00  0.00000000000E+00  0.14999999963E+04  0.15000000000E+04  0.10566000000E+00 0.  1.
        994   -1    0    0    0    0 -0.00000000000E+00 -0.00000000000E+00  0.11368683772E-12  0.17120000000E+03  0.17120000000E+03 0.  0.
         13    1    1    2    0    0 -0.92793593184E+02 -0.10315273862E+03  0.81005231137E+03  0.82184907175E+03  0.10566000000E+00 0.  1.
        994    1    1    2    0    0  0.25565963403E+02  0.12250925522E+03  0.66985306424E+02  0.22239291215E+03  0.17120000000E+03 0.  0.
        998    1    1    2    0    0  0.67227629780E+02 -0.19356516592E+02  0.62296237849E+03  0.62695801610E+03  0.10000000000E+02 0. -1.
</event>
<event>
 5    1  0.1321379E-008  0.3858539E+03  0.7957747E-01  0.3426059E+00
         13   -1    0    0    0    0  0.00000000000E+00  0.00000000000E+00  0.14999999963E+04  0.15000000000E+04  0.10566000000E+00 0.  1.
        994   -1    0    0    0    0 -0.00000000000E+00 -0.00000000000E+00  0.11368683772E-12  0.17120000000E+03  0.17120000000E+03 0.  0.
         13    1    1    2    0    0  0.39786236146E+01 -0.93718411781E+01  0.40404486264E+02  0.41667667648E+02  0.10566000000E+00 0.  1.
        994    1    1    2    0    0 -0.14694367265E+02  0.14510656596E+02  0.26067348768E+01  0.17246077424E+03  0.17120000000E+03 0.  0.
        998    1    1    2    0    0  0.10715743650E+02 -0.51388154183E+01  0.14569887751E+04  0.14570715581E+04  0.10000000000E+02 0.  1.
</event>
<event>
 5    1  0.1321379E-008  0.4263825E+03  0.7957747E-01  0.3271129E+00
         13   -1    0    0    0    0  0.00000000000E+00  0.00000000000E+00  0.14999999963E+04  0.15000000000E+04  0.10566000000E+00 0.  1.
        994   -1    0    0    0    0 -0.00000000000E+00 -0.00000000000E+00  0.11368683772E-12  0.17120000000E+03  0.17120000000E+03 0.  0.
         13    1    1    2    0    0  0.44509659719E+02  0.22796671915E+02  0.78995168056E+01  0.50628169910E+02  0.10566000000E+00 0.  1.
        994    1    1    2    0    0 -0.10712926187E+03 -0.39788429134E+01  0.97307502423E+02  0.22421128421E+03  0.17120000000E+03 0.  0.
        998    1    1    2    0    0  0.62619602149E+02 -0.18817829002E+02  0.13947929771E+04  0.13963605459E+04  0.10000000000E+02 0.  1.
</event>
<event>
 5    1  0.1321379E-008  0.3813627E+03  0.7957747E-01  0.3445246E+00
         13   -1    0    0    0    0  0.00000000000E+00  0.00000000000E+00  0.14999999963E+04  0.15000000000E+04  0.10566000000E+00 0. -1.
        994   -1    0    0    0    0 -0.00000000000E+00 -0.00000000000E+00  0.11368683772E-12  0.17120000000E+03  0.17120000000E+03 0.  0.
         13    1    1    2    0    0  0.41195553662E+02  0.96014419577E+02  0.45752899315E+03  0.46930654496E+03  0.10566000000E+00 0. -1.
        994    1    1    2    0    0  0.28905946392E+01 -0.11152007330E+02  0.17561456030E+02  0.17248352832E+03  0.17120000000E+03 0.  0.
        998    1    1    2    0    0 -0.44086148301E+02 -0.84862412246E+02  0.10249095471E+04  0.10294099267E+04  0.10000000000E+02 0. -1.
</event>
<event>
 5    1  0.1321379E-008  0.3822235E+03  0.7957747E-01  0.3441534E+00
         13   -1    0    0    0    0  0.00000000000E+00  0.00000000000E+00  0.14999999963E+04  0.15000000000E+04  0.10566000000E+00 0. -1.
        994   -1    0    0    0    0 -0.00000000000E+00 -0.00000000000E+00  0.11368683772E-12  0.17120000000E+03  0.17120000000E+03 0.  0.
         13    1    1    2    0    0 -0.14809760818E+02 -0.46928933026E+01  0.38857777424E+02  0.41848420441E+02  0.10566000000E+00 0. -1.
        994    1    1    2    0    0  0.11741062635E+02  0.14626301954E+00  0.34725901313E+01  0.17163732935E+03  0.17120000000E+03 0.  0.
        998    1    1    2    0    0  0.30686981838E+01  0.45466302831E+01  0.14576696287E+04  0.14577142502E+04  0.10000000000E+02 0. -1.
</event>
<event>
 5    1  0.1321379E-008  0.3776434E+03  0.7957747E-01  0.3461484E+00
         13   -1    0    0    0    0  0.00000000000E+00  0.00000000000E+00  0.14999999963E+04  0.15000000000E+04  0.10566000000E+00 0. -1.
        994   -1    0    0    0    0 -0.00000000000E+00 -0.00000000000E+00  0.11368683772E-12  0.17120000000E+03  0.17120000000E+03 0.  0.
         13    1    1    2    0    0 -0.10703490096E+03 -0.46847502829E+00  0.31277275932E+03  0.33058054938E+03  0.10566000000E+00 0. -1.
        994    1    1    2    0    0  0.96666030184E+02  0.12533538425E+02  0.50018203678E+02  0.20325518856E+03  0.17120000000E+03 0.  0.
        998    1    1    2    0    0  0.10368870777E+02 -0.12065063397E+02  0.11372090333E+04  0.11373642621E+04  0.10000000000E+02 0. -1.
</event>
<event>
 5    1  0.1321379E-008  0.3689104E+03  0.7957747E-01  0.3500914E+00
         13   -1    0    0    0    0  0.00000000000E+00  0.00000000000E+00  0.14999999963E+04  0.15000000000E+04  0.10566000000E+00 0. -1.
        994   -1    0    0    0    0 -0.00000000000E+00 -0.00000000000E+00  0.11368683772E-12  0.17120000000E+03  0.17120000000E+03 0.  0.
         13    1    1    2    0    0  0.26645957277E+02  0.18328399377E+01  0.29481361675E+02  0.39781002899E+02  0.10566000000E+00 0. -1.
        994    1    1    2    0    0 -0.28406497555E+02  0.21854383439E+01  0.13195937405E+02  0.17405538776E+03  0.17120000000E+03 0.  0.
        998    1    1    2    0    0  0.17605402780E+01 -0.40182782816E+01  0.14573226972E+04  0.14573636093E+04  0.10000000000E+02 0. -1.
</event>
<event>
 5    1  0.1321379E-008  0.3845704E+03  0.7957747E-01  0.3431496E+00
         13   -1    0    0    0    0  0.00000000000E+00  0.00000000000E+00  0.14999999963E+04  0.15000000000E+04  0.10566000000E+00 0.  1.
        994   -1    0    0    0    0 -0.00000000000E+00 -0.00000000000E+00  0.11368683772E-12  0.17120000000E+03  0.17120000000E+03 0.  0.
         13    1    1    2    0    0 -0.11054831062E+02 -0.74991964593E+01  0.46471543722E+02  0.48353518768E+02  0.10566000000E+00 0.  1.
        994    1    1    2    0    0  0.18280908346E+02  0.14225734994E+01  0.29515996567E+01  0.17220443451E+03  0.17120000000E+03 0.  0.
        998    1    1    2    0    0 -0.72260772831E+01  0.60766229599E+01  0.14505768529E+04  0.14506420467E+04  0.10000000000E+02 0.  1.
</event>
<event>
 5    1  0.1321379E-008  0.3812746E+03  0.7957747E-01  0.3445627E+00
         13   -1    0    0    0    0  0.00000000000E+00  0.00000000000E+00  0.14999999963E+04  0.15000000000E+04  0.10566000000E+00 0.  1.
        994   -1    0    0    0    0 -0.00000000000E+00 -0.00000000000E+00  0.11368683772E-12  0.17120000000E+03  0.17120000000E+03 0.  0.
         13    1    1    2    0    0 -0.51002408094E+01 -0.12717306034E+02  0.26024992825E+02  0.29411796012E+02  0.10566000000E+00 0.  1.
        994    1    1    2    0    0 -0.27354685099E+01  0.44626153402E+01  0.35823065278E+01  0.17131745575E+03  0.17120000000E+03 0.  0.
        998    1    1    2    0    0  0.78357093192E+01  0.82546906938E+01  0.14703926969E+04  0.14704707482E+04  0.10000000000E+02 0.  1.
</event>
<event>
 5    1  0.1321379E-008  0.3832355E+03  0.7957747E-01  0.3437190E+00
         13   -1    0    0    0    0  0.00000000000E+00  0.00000000000E+00  0.14999999963E+04  0.15000000000E+04  0.10566000000E+00 0.  1.
        994   -1    0    0    0    0 -0.00000000000E+00 -0.00000000000E+00  0.11368683772E-12  0.17120000000E+03  0.17120000000E+03 0.  0.
         13    1    1    2    0    0 -0.91119022205E+01  0.13259679128E+02  0.49454943704E+02  0.52006234948E+02  0.10566000000E+00 0.  1.
        994    1    1    2    0    0  0.11838050416E+02 -0.12252829843E+02  0.34694016087E+01  0.17208064396E+03  0.17120000000E+03 0.  0.
        998    1    1    2    0    0 -0.27261481952E+01 -0.10068492855E+01  0.14470756510E+04  0.14471131211E+04  0.10000000000E+02 0.  1.
</event>
<event>
 5    1  0.1321379E-008  0.3486560E+03  0.7957747E-01  0.3600129E+00
         13   -1    0    0    0    0  0.00000000000E+00  0.00000000000E+00  0.14999999963E+04  0.15000000000E+04  0.10566000000E+00 0.  1.
        994   -1    0    0    0    0 -0.00000000000E+00 -0.00000000000E+00  0.11368683772E-12  0.17120000000E+03  0.17120000000E+03 0.  0.
         13    1    1    2    0    0  0.57315246753E+02  0.29387141371E+03  0.76770233063E+03  0.82402204153E+03  0.10566000000E+00 0.  1.
        994    1    1    2    0    0 -0.30370515859E+02 -0.27337726408E+03  0.40812093180E+03  0.52108505229E+03  0.17120000000E+03 0.  0.
        998    1    1    2    0    0 -0.26944730894E+02 -0.20494149637E+02  0.32417673385E+03  0.32609290618E+03  0.10000000000E+02 0. -1.
</event>
<event>
 5    1  0.1321379E-008  0.3800934E+03  0.7957747E-01  0.3450752E+00
         13   -1    0    0    0    0  0.00000000000E+00  0.00000000000E+00  0.14999999963E+04  0.15000000000E+04  0.10566000000E+00 0.  1.
        994   -1    0    0    0    0 -0.00000000000E+00 -0.00000000000E+00  0.11368683772E-12  0.17120000000E+03  0.17120000000E+03 0.  0.
         13    1    1    2    0    0  0.10314302999E+02 -0.73712476850E+01  0.17631218179E+02  0.21716149689E+02  0.10566000000E+00 0.  1.
        994    1    1    2    0    0 -0.13781759271E+02  0.77536741808E+01  0.49220834054E+01  0.17199919551E+03  0.17120000000E+03 0.  0.
        998    1    1    2    0    0  0.34674562725E+01 -0.38242649579E+00  0.14774466947E+04  0.14774846548E+04  0.10000000000E+02 0.  1.
</event>
<event>
 5    1  0.1321379E-008  0.3727841E+03  0.7957747E-01  0.3483193E+00
         13   -1    0    0    0    0  0.00000000000E+00  0.00000000000E+00  0.14999999963E+04  0.15000000000E+04  0.10566000000E+00 0. -1.
        994   -1    0    0    0    0 -0.00000000000E+00 -0.00000000000E+00  0.11368683772E-12  0.17120000000E+03  0.17120000000E+03 0.  0.
         13    1    1    2    0    0  0.66108996947E+02  0.47502003655E+02  0.22834384535E+03  0.24242063176E+03  0.10566000000E+00 0. -1.
        994    1    1    2    0    0 -0.67800241364E+02 -0.37129454057E+02  0.33825871751E+02  0.19086408433E+03  0.17120000000E+03 0.  0.
        998    1    1    2    0    0  0.16912444176E+01 -0.10372549597E+02  0.12378302792E+04  0.12379152839E+04  0.10000000000E+02 0. -1.
</event>
<event>
 5    1  0.1321379E-008  0.3831608E+03  0.7957747E-01  0.3437510E+00
         13   -1    0    0    0    0  0.00000000000E+00  0.00000000000E+00  0.14999999963E+04  0.15000000000E+04  0.10566000000E+00 0. -1.
        994   -1    0    0    0    0 -0.00000000000E+00 -0.00000000000E+00  0.11368683772E-12  0.17120000000E+03  0.17120000000E+03 0.  0.
         13    1    1    2    0    0 -0.22572724779E+02 -0.34188096886E+01  0.10719189761E+03  0.10959621453E+03  0.10566000000E+00 0. -1.
        994    1    1    2    0    0  0.61243425896E+01  0.80365034776E+00  0.26722787862E+01  0.17133223427E+03  0.17120000000E+03 0.  0.
        998    1    1    2    0    0  0.16448382190E+02  0.26151593408E+01  0.13901358199E+04  0.13902715512E+04  0.10000000000E+02 0. -1.
</event>
<event>
 5    1  0.1321379E-008  0.3850706E+03  0.7957747E-01  0.3429373E+00
         13   -1    0    0    0    0  0.00000000000E+00  0.00000000000E+00  0.14999999963E+04  0.15000000000E+04  0.10566000000E+00 0.  1.
        994   -1    0    0    0    0 -0.00000000000E+00 -0.00000000000E+00  0.11368683772E-12  0.17120000000E+03  0.17120000000E+03 0.  0.
         13    1    1    2    0    0 -0.81609594911E+00  0.16873076096E+02  0.91043881179E+02  0.92597873484E+02  0.10566000000E+00 0.  1.
        994    1    1    2    0    0  0.13193969231E+01 -0.86637872110E+01  0.18476737077E+01  0.17143411538E+03  0.17120000000E+03 0.  0.
        998    1    1    2    0    0 -0.50330097395E+00 -0.82092888855E+01  0.14071084414E+04  0.14071680111E+04  0.10000000000E+02 0.  1.
</event>
<event>
 5    1  0.1321379E-008  0.3813422E+03  0.7957747E-01  0.3445335E+00
         13   -1    0    0    0    0  0.00000000000E+00  0.00000000000E+00  0.14999999963E+04  0.15000000000E+04  0.10566000000E+00 0. -1.
        994   -1    0    0    0    0 -0.00000000000E+00 -0.00000000000E+00  0.11368683772E-12  0.17120000000E+03  0.17120000000E+03 0.  0.
         13    1    1    2    0    0 -0.38571912078E+02 -0.30160979519E+02  0.27112895495E+03  0.27551478810E+03  0.10566000000E+00 0. -1.
        994    1    1    2    0    0  0.42484763356E+02  0.34052584231E+02  0.13387182182E+02  0.18014769012E+03  0.17120000000E+03 0.  0.
        998    1    1    2    0    0 -0.39128512774E+01 -0.38916047118E+01  0.12154838592E+04  0.12155375218E+04  0.10000000000E+02 0. -1.
</event>
<event>
 5    1  0.1321379E-008  0.3781103E+03  0.7957747E-01  0.3459428E+00
         13   -1    0    0    0    0  0.00000000000E+00  0.00000000000E+00  0.14999999963E+04  0.15000000000E+04  0.10566000000E+00 0.  1.
        994   -1    0    0    0    0 -0.00000000000E+00 -0.00000000000E+00  0.11368683772E-12  0.17120000000E+03  0.17120000000E+03 0.  0.
         13    1    1    2    0    0  0.60157940329E+01 -0.25701493040E+02  0.16414509817E+02  0.31083819246E+02  0.10566000000E+00 0.  1.
        994    1    1    2    0    0 -0.81945322615E+01  0.16342219851E+02  0.16496701350E+02  0.17296184453E+03  0.17120000000E+03 0.  0.
        998    1    1    2    0    0  0.21787382287E+01  0.93592731892E+01  0.14670887851E+04  0.14671543362E+04  0.10000000000E+02 0.  1.
</event>
<event>
 5    1  0.1321379E-008  0.3805997E+03  0.7957747E-01  0.3448551E+00
         13   -1    0    0    0    0  0.00000000000E+00  0.00000000000E+00  0.14999999963E+04  0.15000000000E+04  0.10566000000E+00 0. -1.
        994   -1    0    0    0    0 -0.00000000000E+00 -0.00000000000E+00  0.11368683772E-12  0.17120000000E+03  0.17120000000E+03 0.  0.
         13    1    1    2    0    0  0.11793203737E+02 -0.22562203522E+02  0.81412310639E+02  0.85300106505E+02  0.10566000000E+00 0. -1.
        994    1    1    2    0    0  0.10770842857E+01  0.23815785749E+02  0.57292124791E+01  0.17294685784E+03  0.17120000000E+03 0.  0.
        998    1    1    2    0    0 -0.12870288023E+02 -0.12535822267E+01  0.14128584732E+04  0.14129530357E+04  0.10000000000E+02 0. -1.
</event>
<event>
 5    1  0.1321379E-008  0.3759604E+03  0.7957747E-01  0.3468939E+00
         13   -1    0    0    0    0  0.00000000000E+00  0.00000000000E+00  0.14999999963E+04  0.15000000000E+04  0.10566000000E+00 0. -1.
        994   -1    0    0    0    0 -0.00000000000E+00 -0.00000000000E+00  0.11368683772E-12  0.17120000000E+03  0.17120000000E+03 0.  0.
         13    1    1    2    0    0 -0.22320600023E+01 -0.13410709889E+02  0.11907448153E+02  0.18072844744E+02  0.10566000000E+00 0. -1.
        994    1    1    2    0    0 -0.41712789454E+01  0.20849210321E+02  0.77196359149E+01  0.17268793217E+03  0.17120000000E+03 0.  0.
        998    1    1    2    0    0  0.64033389477E+01 -0.74385004320E+01  0.14803729122E+04  0.14804392231E+04  0.10000000000E+02 0. -1.
</event>
<event>
 5    1  0.1321379E-008  0.3839814E+03  0.7957747E-01  0.3434004E+00
         13   -1    0    0    0    0  0.00000000000E+00  0.00000000000E+00  0.14999999963E+04  0.15000000000E+04  0.10566000000E+00 0.  1.
        994   -1    0    0    0    0 -0.00000000000E+00 -0.00000000000E+00  0.11368683772E-12  0.17120000000E+03  0.17120000000E+03 0.  0.
         13    1    1    2    0    0 -0.12124197809E+01 -0.12037460652E+02  0.34056178445E+02  0.36141456459E+02  0.10566000000E+00 0.  1.
        994    1    1    2    0    0  0.11364208854E+02  0.45209158498E+01  0.26304280063E+01  0.17165646820E+03  0.17120000000E+03 0.  0.
        998    1    1    2    0    0 -0.10151789073E+02  0.75165448025E+01  0.14633133898E+04  0.14634020753E+04  0.10000000000E+02 0.  1.
</event>
<event>
 5    1  0.1321379E-008  0.3890827E+03  0.7957747E-01  0.3412539E+00
         13   -1    0    0    0    0  0.00000000000E+00  0.00000000000E+00  0.14999999963E+04  0.15000000000E+04  0.10566000000E+00 0.  1.
        994   -1    0    0    0    0 -0.00000000000E+00 -0.00000000000E+00  0.11368683772E-12  0.17120000000E+03  0.17120000000E+03 0.  0.
         13    1    1    2    0    0  0.60750712741E+02  0.10576025842E+03  0.27229992676E+03  0.29836746243E+03  0.10566000000E+00 0.  1.
        994    1    1    2    0    0  0.71045142680E+01 -0.14672203483E+03  0.10767570085E+03  0.24996264957E+03  0.17120000000E+03 0.  0.
        998    1    1    2    0    0 -0.67855227009E+02  0.40961776408E+02  0.11200243687E+04  0.11228698880E+04  0.10000000000E+02 0. -1.
</event>
<event>
 5    1  0.1321379E-008  0.3823071E+03  0.7957747E-01  0.3441174E+00
         13   -1    0    0    0    0  0.00000000000E+00  0.00000000000E+00  0.14999999963E+04  0.15000000000E+04  0.10566000000E+00 0.  1.
        994   -1    0    0    0    0 -0.00000000000E+00 -0.00000000000E+00  0.11368683772E-12  0.17120000000E+03  0.17120000000E+03 0.  0.
         13    1    1    2    0    0  0.18596318065E+02 -0.18501794701E+02  0.10404767007E+03  0.10730362652E+03  0.10566000000E+00 0.  1.
        994    1    1    2    0    0 -0.26806856832E+02  0.19100271840E+02  0.65758049733E+01  0.17445947715E+03  0.17120000000E+03 0.  0.
        998    1    1    2    0    0  0.82105387675E+01 -0.59847713992E+00  0.13893765212E+04  0.13894368963E+04  0.10000000000E+02 0.  1.
</event>
<event>
 5    1  0.1321379E-008  0.3798910E+03  0.7957747E-01  0.3451633E+00
         13   -1    0    0    0    0  0.00000000000E+00  0.00000000000E+00  0.14999999963E+04  0.15000000000E+04  0.10566000000E+00 0.  1.
        994   -1    0    0    0    0 -0.00000000000E+00 -0.00000000000E+00  0.11368683772E-12  0.17120000000E+03  0.17120000000E+03 0.  0.
         13    1    1    2    0    0 -0.42609756766E+02 -0.16731370495E+02  0.21026296864E+03  0.21518842272E+03  0.10566000000E+00 0.  1.
        994    1    1    2    0    0  0.28850874365E+02  0.75244529684E+02  0.26220265963E+02  0.19102631899E+03  0.17120000000E+03 0.  0.
        998    1    1    2    0    0  0.13758882401E+02 -0.58513159189E+02  0.12635167617E+04  0.12649852583E+04  0.10000000000E+02 0.  1.
</event>
<event>
 5    1  0.1321379E-008  0.3781943E+03  0.7957747E-01  0.3459059E+00
         13   -1    0    0    0    0  0.00000000000E+00  0.00000000000E+00  0.14999999963E+04  0.15000000000E+04  0.10566000000E+00 0. -1.
        994   -1    0    0    0    0 -0.00000000000E+00 -0.00000000000E+00  0.11368683772E-12  0.17120000000E+03  0.17120000000E+03 0.  0.
         13    1    1    2    0    0  0.13862755643E+02 -0.29905651083E+00  0.16959228893E+02  0.21906438266E+02  0.10566000000E+00 0. -1.
        994    1    1    2    0    0 -0.78770560512E+01 -0.80714340596E+01  0.54753026706E+01  0.17165842537E+03  0.17120000000E+03 0.  0.
        998    1    1    2    0    0 -0.59856995914E+01  0.83704905704E+01  0.14775654647E+04  0.14776351364E+04  0.10000000000E+02 0. -1.
</event>
<event>
 5    1  0.2287588E-008  0.3864217E+03  0.7957747E-01  0.3423665E+00
         13   -1    0    0    0    0  0.00000000000E+00  0.00000000000E+00  0.14999999963E+04  0.15000000000E+04  0.10566000000E+00 0.  1.
        994   -1    0    0    0    0 -0.00000000000E+00 -0.00000000000E+00  0.11368683772E-12  0.17120000000E+03  0.17120000000E+03 0.  0.
         13    1    1    2    0    0 -0.84825051622E+01 -0.57689023817E+01  0.58529766839E+02  0.59422032099E+02  0.10566000000E+00 0.  1.
        994    1    1    2    0    0  0.20568340048E+01  0.71412952289E+01  0.11067576658E+01  0.17136479678E+03  0.17120000000E+03 0.  0.
        998    1    1    2    0    0  0.64256711575E+01 -0.13723928472E+01  0.14403634718E+04  0.14404131711E+04  0.10000000000E+02 0.  1.
</event>
<event>
 5    1  0.2325966E-008  0.3865905E+03  0.7957747E-01  0.3422955E+00
         13   -1    0    0    0    0  0.00000000000E+00  0.00000000000E+00  0.14999999963E+04  0.15000000000E+04  0.10566000000E+00 0. -1.
        994   -1    0    0    0    0 -0.00000000000E+00 -0.00000000000E+00  0.11368683772E-12  0.17120000000E+03  0.17120000000E+03 0.  0.
         13    1    1    2    0    0  0.11014621485E+02  0.77030368452E+01  0.81237479344E+02  0.82341956968E+02  0.10566000000E+00 0. -1.
        994    1    1    2    0    0 -0.41958375079E+02 -0.12832672207E+02  0.71667716790E+01  0.17687844790E+03  0.17120000000E+03 0.  0.
        998    1    1    2    0    0  0.30943753594E+02  0.51296353622E+01  0.14115957453E+04  0.14119795951E+04  0.10000000000E+02 0. -1.
</event>
<event>
 5    1  0.1321379E-008  0.3813905E+03  0.7957747E-01  0.3445126E+00
         13   -1    0    0    0    0  0.00000000000E+00  0.00000000000E+00  0.14999999963E+04  0.15000000000E+04  0.10566000000E+00 0. -1.
        994   -1    0    0    0    0 -0.00000000000E+00 -0.00000000000E+00  0.11368683772E-12  0.17120000000E+03  0.17120000000E+03 0.  0.
         13    1    1    2    0    0  0.18634962831E+02 -0.14308618620E+02  0.71154989442E+02  0.74933584547E+02  0.10566000000E+00 0. -1.
        994    1    1    2    0    0 -0.29814888986E+02  0.23110926045E+02  0.81827329775E+01  0.17549769123E+03  0.17120000000E+03 0.  0.
        998    1    1    2    0    0  0.11179926155E+02 -0.88023074248E+01  0.14206622739E+04  0.14207687242E+04  0.10000000000E+02 0. -1.
</event>
<event>
 5    1  0.1321379E-008  0.3761897E+03  0.7957747E-01  0.3467919E+00
         13   -1    0    0    0    0  0.00000000000E+00  0.00000000000E+00  0.14999999963E+04  0.15000000000E+04  0.10566000000E+00 0.  1.
        994   -1    0    0    0    0 -0.00000000000E+00 -0.00000000000E+00  0.11368683772E-12  0.17120000000E+03  0.17120000000E+03 0.  0.
         13    1    1    2    0    0  0.33128722544E+02 -0.68868799921E+02  0.36949258501E+03  0.37731313971E+03  0.10566000000E+00 0.  1.
        994    1    1    2    0    0 -0.10722072712E+03  0.42704591392E+02  0.52587675773E+02  0.21306071926E+03  0.17120000000E+03 0.  0.
        998    1    1    2    0    0  0.74092004572E+02  0.26164208529E+02  0.10779197355E+04  0.10808261410E+04  0.10000000000E+02 0.  1.
</event>
<event>
 5    1  0.1321379E-008  0.3706424E+03  0.7957747E-01  0.3492944E+00
         13   -1    0    0    0    0  0.00000000000E+00  0.00000000000E+00  0.14999999963E+04  0.15000000000E+04  0.10566000000E+00 0. -1.
        994   -1    0    0    0    0 -0.00000000000E+00 -0.00000000000E+00  0.11368683772E-12  0.17120000000E+03  0.17120000000E+03 0.  0.
         13    1    1    2    0    0  0.13120733008E+02  0.74565473512E+01  0.86938399740E+01  0.17416881196E+02  0.10566000000E+00 0. -1.
        994    1    1    2    0    0 -0.13033171054E+02 -0.28960322257E+01  0.95488935021E+01  0.17198509214E+03  0.17120000000E+03 0.  0.
        998    1    1    2    0    0 -0.87561953427E-01 -0.45605151255E+01  0.14817572628E+04  0.14817980267E+04  0.10000000000E+02 0. -1.
</event>
<event>
 5    1  0.1321379E-008  0.3804614E+03  0.7957747E-01  0.3449152E+00
         13   -1    0    0    0    0  0.00000000000E+00  0.00000000000E+00  0.14999999963E+04  0.15000000000E+04  0.10566000000E+00 0.  1.
        994   -1    0    0    0    0 -0.00000000000E+00 -0.00000000000E+00  0.11368683772E-12  0.17120000000E+03  0.17120000000E+03 0.  0.
         13    1    1    2    0    0 -0.15661381699E+02  0.65766157313E+01  0.13437405138E+01  0.17039587841E+02  0.10566000000E+00 0.  1.
        994    1    1    2    0    0  0.40294381858E+00 -0.89691694127E+01  0.16873743453E+02  0.17226366878E+03  0.17120000000E+03 0.  0.
        998    1    1    2    0    0  0.15258437881E+02  0.23925536813E+01  0.14817825123E+04  0.14818967434E+04  0.10000000000E+02 0.  1.
</event>
<event>
 5    1  0.1321379E-008  0.3835949E+03  0.7957747E-01  0.3435654E+00
         13   -1    0    0    0    0  0.00000000000E+00  0.00000000000E+00  0.14999999963E+04  0.15000000000E+04  0.10566000000E+00 0.  1.
        994   -1    0    0    0    0 -0.00000000000E+00 -0.00000000000E+00  0.11368683772E-12  0.17120000000E+03  0.17120000000E+03 0.  0.
         13    1    1    2    0    0  0.25117936539E+02  0.80469774655E+01  0.14166673553E+03  0.14410114400E+03  0.10566000000E+00 0.  1.
        994    1    1    2    0    0 -0.22327450174E+02 -0.26748209209E+01  0.40017405523E+01  0.17271688865E+03  0.17120000000E+03 0.  0.
        998    1    1    2    0    0 -0.27904863651E+01 -0.53721565446E+01  0.13543315202E+04  0.13543819673E+04  0.10000000000E+02 0.  1.
</event>
<event>
 5    1  0.1321379E-008  0.3832788E+03  0.7957747E-01  0.3437005E+00
         13   -1    0    0    0    0  0.00000000000E+00  0.00000000000E+00  0.14999999963E+04  0.15000000000E+04  0.10566000000E+00 0.  1.
        994   -1    0    0    0    0 -0.00000000000E+00 -0.00000000000E+00  0.11368683772E-12  0.17120000000E+03  0.17120000000E+03 0.  0.
         13    1    1    2    0    0  0.41684745923E+01 -0.13005810783E+02  0.35574433762E+02  0.38106151683E+02  0.10566000000E+00 0.  1.
        994    1    1    2    0    0 -0.55626897576E+01  0.16381073695E+02  0.34774923898E+01  0.17210699011E+03  0.17120000000E+03 0.  0.
        998    1    1    2    0    0  0.13942151653E+01 -0.33752629120E+01  0.14609480701E+04  0.14609868582E+04  0.10000000000E+02 0.  1.
</event>
<event>
 5    1  0.1321379E-008  0.3797738E+03  0.7957747E-01  0.3452144E+00
         13   -1    0    0    0    0  0.00000000000E+00  0.00000000000E+00  0.14999999963E+04  0.15000000000E+04  0.10566000000E+00 0.  1.
        994   -1    0    0    0    0 -0.00000000000E+00 -0.00000000000E+00  0.11368683772E-12  0.17120000000E+03  0.17120000000E+03 0.  0.
         13    1    1    2    0    0  0.23511213939E+02 -0.14705125916E+02  0.75875378292E+02  0.80784293671E+02  0.10566000000E+00 0.  1.
        994    1    1    2    0    0 -0.30392792018E+02  0.52762644753E+02  0.16752282944E+02  0.18247656691E+03  0.17120000000E+03 0.  0.
        998    1    1    2    0    0  0.68815780793E+01 -0.38057518837E+02  0.14073723350E+04  0.14079391394E+04  0.10000000000E+02 0.  1.
</event>
<event>
 5    1  0.1321379E-008  0.3799778E+03  0.7957747E-01  0.3451255E+00
         13   -1    0    0    0    0  0.00000000000E+00  0.00000000000E+00  0.14999999963E+04  0.15000000000E+04  0.10566000000E+00 0. -1.
        994   -1    0    0    0    0 -0.00000000000E+00 -0.00000000000E+00  0.11368683772E-12  0.17120000000E+03  0.17120000000E+03 0.  0.
         13    1    1    2    0    0  0.53060952897E+01  0.13995108098E+02  0.25846668074E+02  0.29867693457E+02  0.10566000000E+00 0. -1.
        994    1    1    2    0    0 -0.39278198893E+00 -0.37390866457E+01  0.41915937819E+01  0.17129256991E+03  0.17120000000E+03 0.  0.
        998    1    1    2    0    0 -0.49133133007E+01 -0.10256021452E+02  0.14699617344E+04  0.14700397366E+04  0.10000000000E+02 0. -1.
</event>
<event>
 5    1  0.1321379E-008  0.3815771E+03  0.7957747E-01  0.3444320E+00
         13   -1    0    0    0    0  0.00000000000E+00  0.00000000000E+00  0.14999999963E+04  0.15000000000E+04  0.10566000000E+00 0.  1.
        994   -1    0    0    0    0 -0.00000000000E+00 -0.00000000000E+00  0.11368683772E-12  0.17120000000E+03  0.17120000000E+03 0.  0.
         13    1    1    2    0    0  0.41946800391E+02  0.53440286830E+01  0.21260669961E+03  0.21677110644E+03  0.10566000000E+00 0.  1.
        994    1    1    2    0    0 -0.50045123283E+02 -0.25614740024E+02  0.13922294493E+02  0.18073156768E+03  0.17120000000E+03 0.  0.
        998    1    1    2    0    0  0.80983228910E+01  0.20270711341E+02  0.12734710022E+04  0.12736973259E+04  0.10000000000E+02 0.  1.
</event>
<event>
 5    1  0.1321379E-008  0.3751978E+03  0.7957747E-01  0.3472339E+00
         13   -1    0    0    0    0  0.00000000000E+00  0.00000000000E+00  0.14999999963E+04  0.15000000000E+04  0.10566000000E+00 0. -1.
        994   -1    0    0    0    0 -0.00000000000E+00 -0.00000000000E+00  0.11368683772E-12  0.17120000000E+03  0.17120000000E+03 0.  0.
         13    1    1    2    0    0  0.34233504037E+02 -0.17157425057E+02  0.47382308641E+02  0.60921296518E+02  0.10566000000E+00 0. -1.
        994    1    1    2    0    0 -0.24275086880E+02  0.26543633746E+02  0.18335310277E+02  0.17589618512E+03  0.17120000000E+03 0.  0.
        998    1    1    2    0    0 -0.99584171572E+01 -0.93862086896E+01  0.14342823774E+04  0.14343825184E+04  0.10000000000E+02 0. -1.
</event>
<event>
 5    1  0.1321379E-008  0.3759551E+03  0.7957747E-01  0.3468962E+00
         13   -1    0    0    0    0  0.00000000000E+00  0.00000000000E+00  0.14999999963E+04  0.15000000000E+04  0.10566000000E+00 0.  1.
        994   -1    0    0    0    0 -0.00000000000E+00 -0.00000000000E+00  0.11368683772E-12  0.17120000000E+03  0.17120000000E+03 0.  0.
         13    1    1    2    0    0 -0.99245508530E+01 -0.79477056914E+01  0.10224264543E+02  0.16315927337E+02  0.10566000000E+00 0.  1.
        994    1    1    2    0    0  0.10885015731E+02  0.52822736187E+01  0.66852272266E+01  0.17175714904E+03  0.17120000000E+03 0.  0.
        998    1    1    2    0    0 -0.96046487842E+00  0.26654320727E+01  0.14830905045E+04  0.14831269236E+04  0.10000000000E+02 0.  1.
</event>
<event>
 5    1  0.1321379E-008  0.3814152E+03  0.7957747E-01  0.3445019E+00
         13   -1    0    0    0    0  0.00000000000E+00  0.00000000000E+00  0.14999999963E+04  0.15000000000E+04  0.10566000000E+00 0.  1.
        994   -1    0    0    0    0 -0.00000000000E+00 -0.00000000000E+00  0.11368683772E-12  0.17120000000E+03  0.17120000000E+03 0.  0.
         13    1    1    2    0    0  0.93753396008E+02 -0.61365225453E+02  0.57550812739E+03  0.58631476701E+03  0.10566000000E+00 0.  1.
        994    1    1    2    0    0 -0.22553003034E+02 -0.10337270434E+02  0.19351802386E+02  0.17406731273E+03  0.17120000000E+03 0.  0.
        998    1    1    2    0    0 -0.71200392974E+02  0.71702495886E+02  0.90514006650E+03  0.91081792026E+03  0.10000000000E+02 0.  1.
</event>
<event>
 5    1  0.1321379E-008  0.3849391E+03  0.7957747E-01  0.3429931E+00
         13   -1    0    0    0    0  0.00000000000E+00  0.00000000000E+00  0.14999999963E+04  0.15000000000E+04  0.10566000000E+00 0. -1.
        994   -1    0    0    0    0 -0.00000000000E+00 -0.00000000000E+00  0.11368683772E-12  0.17120000000E+03  0.17120000000E+03 0.  0.
         13    1    1    2    0    0 -0.94362357466E+01 -0.67671203355E+01  0.40472749669E+02  0.42105713300E+02  0.10566000000E+00 0. -1.
        994    1    1    2    0    0  0.14718465567E+02 -0.70000270182E+01  0.25346175682E+01  0.17199272628E+03  0.17120000000E+03 0.  0.
        998    1    1    2    0    0 -0.52822298203E+01  0.13767147354E+02  0.14569926290E+04  0.14571015604E+04  0.10000000000E+02 0. -1.
</event>
<event>
 5    1  0.1321379E-008  0.3854676E+03  0.7957747E-01  0.3427691E+00
         13   -1    0    0    0    0  0.00000000000E+00  0.00000000000E+00  0.14999999963E+04  0.15000000000E+04  0.10566000000E+00 0. -1.
        994   -1    0    0    0    0 -0.00000000000E+00 -0.00000000000E+00  0.11368683772E-12  0.17120000000E+03  0.17120000000E+03 0.  0.
         13    1    1    2    0    0 -0.26781432120E+01  0.12234267007E+02  0.61478636822E+02  0.62741403314E+02  0.10566000000E+00 0. -1.
        994    1    1    2    0    0 -0.11273578588E+02  0.20849503633E+01  0.18298633416E+01  0.17159320788E+03  0.17120000000E+03 0.  0.
        998    1    1    2    0    0  0.13951721800E+02 -0.14319217370E+02  0.14366914961E+04  0.14368653888E+04  0.10000000000E+02 0. -1.
</event>
<event>
 5    1  0.1321379E-008  0.3817449E+03  0.7957747E-01  0.3443596E+00
         13   -1    0    0    0    0  0.00000000000E+00  0.00000000000E+00  0.14999999963E+04  0.15000000000E+04  0.10566000000E+00 0. -1.
        994   -1    0    0    0    0 -0.00000000000E+00 -0.00000000000E+00  0.11368683772E-12  0.17120000000E+03  0.17120000000E+03 0.  0.
         13    1    1    2    0    0 -0.22252962794E+02  0.29367977624E+02  0.20877122035E+03  0.21199789167E+03  0.10566000000E+00 0. -1.
        994    1    1    2    0    0  0.12021741458E+02 -0.16714050827E+02  0.46650543874E+01  0.17249662169E+03  0.17120000000E+03 0.  0.
        998    1    1    2    0    0  0.10231221335E+02 -0.12653926797E+02  0.12865637215E+04  0.12867054866E+04  0.10000000000E+02 0. -1.
</event>
<event>
 5    1  0.1321379E-008  0.3762000E+03  0.7957747E-01  0.3467873E+00
         13   -1    0    0    0    0  0.00000000000E+00  0.00000000000E+00  0.14999999963E+04  0.15000000000E+04  0.10566000000E+00 0. -1.
        994   -1    0    0    0    0 -0.00000000000E+00 -0.00000000000E+00  0.11368683772E-12  0.17120000000E+03  0.17120000000E+03 0.  0.
         13    1    1    2    0    0  0.18820413966E+02 -0.86141059630E+01  0.32116680020E+02  0.38208678372E+02  0.10566000000E+00 0. -1.
        994    1    1    2    0    0 -0.19443013906E+02  0.10767901363E+02  0.77379537051E+01  0.17280999513E+03  0.17120000000E+03 0.  0.
        998    1    1    2    0    0  0.62259994078E+00 -0.21537953997E+01  0.14601453626E+04  0.14601813265E+04  0.10000000000E+02 0. -1.
</event>
<event>
 5    1  0.1321379E-008  0.3863169E+03  0.7957747E-01  0.3424106E+00
         13   -1    0    0    0    0  0.00000000000E+00  0.00000000000E+00  0.14999999963E+04  0.15000000000E+04  0.10566000000E+00 0.  1.
        994   -1    0    0    0    0 -0.00000000000E+00 -0.00000000000E+00  0.11368683772E-12  0.17120000000E+03  0.17120000000E+03 0.  0.
         13    1    1    2    0    0 -0.61820807526E+01  0.28108908446E+02  0.12226853578E+02  0.31270368864E+02  0.10566000000E+00 0.  1.
        994    1    1    2    0    0  0.56218499831E+01 -0.31313094008E+02  0.23604746818E+02  0.17572347346E+03  0.17120000000E+03 0.  0.
        998    1    1    2    0    0  0.56023076948E+00  0.32041855618E+01  0.14641683959E+04  0.14642061577E+04  0.10000000000E+02 0.  1.
</event>
<event>
 5    1  0.1321379E-008  0.3761705E+03  0.7957747E-01  0.3468004E+00
         13   -1    0    0    0    0  0.00000000000E+00  0.00000000000E+00  0.14999999963E+04  0.15000000000E+04  0.10566000000E+00 0. -1.
        994   -1    0    0    0    0 -0.00000000000E+00 -0.00000000000E+00  0.11368683772E-12  0.17120000000E+03  0.17120000000E+03 0.  0.
         13    1    1    2    0    0 -0.16309230977E+02 -0.45193820387E+02  0.17762312385E+03  0.18400667843E+03  0.10566000000E+00 0. -1.
        994    1    1    2    0    0  0.50049673919E+01  0.38248073712E+02  0.11133505193E+02  0.17584470359E+03  0.17120000000E+03 0.  0.
        998    1    1    2    0    0  0.11304263585E+02  0.69457466744E+01  0.13112433672E+04  0.13113486180E+04  0.10000000000E+02 0. -1.
</event>
<event>
 5    1  0.1321379E-008  0.3817427E+03  0.7957747E-01  0.3443605E+00
         13   -1    0    0    0    0  0.00000000000E+00  0.00000000000E+00  0.14999999963E+04  0.15000000000E+04  0.10566000000E+00 0. -1.
        994   -1    0    0    0    0 -0.00000000000E+00 -0.00000000000E+00  0.11368683772E-12  0.17120000000E+03  0.17120000000E+03 0.  0.
         13    1    1    2    0    0  0.67881460588E+01  0.18610785031E+02  0.61473490481E+02  0.64586697101E+02  0.10566000000E+00 0. -1.
        994    1    1    2    0    0  0.33949601380E+01 -0.58703797586E+01  0.34088815074E+01  0.17136816386E+03  0.17120000000E+03 0.  0.
        998    1    1    2    0    0 -0.10183106197E+02 -0.12740405272E+02  0.14351176243E+04  0.14352451390E+04  0.10000000000E+02 0. -1.
</event>
<event>
 5    1  0.1321379E-008  0.3851288E+03  0.7957747E-01  0.3429126E+00
         13   -1    0    0    0    0  0.00000000000E+00  0.00000000000E+00  0.14999999963E+04  0.15000000000E+04  0.10566000000E+00 0.  1.
        994   -1    0    0    0    0 -0.00000000000E+00 -0.00000000000E+00  0.11368683772E-12  0.17120000000E+03  0.17120000000E+03 0.  0.
         13    1    1    2    0    0  0.15954680403E+02  0.55207188761E+01  0.63970634683E+02  0.66161041629E+02  0.10566000000E+00 0.  1.
        994    1    1    2    0    0 -0.67406539772E+02 -0.17468993757E+02  0.17671220713E+02  0.18566238011E+03  0.17120000000E+03 0.  0.
        998    1    1    2    0    0  0.51451859369E+02  0.11948274881E+02  0.14183581409E+04  0.14193765783E+04  0.10000000000E+02 0.  1.
</event>
<event>
 5    1  0.1321379E-008  0.3705266E+03  0.7957747E-01  0.3493474E+00
         13   -1    0    0    0    0  0.00000000000E+00  0.00000000000E+00  0.14999999963E+04  0.15000000000E+04  0.10566000000E+00 0. -1.
        994   -1    0    0    0    0 -0.00000000000E+00 -0.00000000000E+00  0.11368683772E-12  0.17120000000E+03  0.17120000000E+03 0.  0.
         13    1    1    2    0    0  0.18079303680E+02 -0.10877411673E+02  0.14277669203E+02  0.25476308763E+02  0.10566000000E+00 0. -1.
        994    1    1    2    0    0 -0.26997400987E+02  0.23786209341E+02  0.15765565077E+02  0.17564918576E+03  0.17120000000E+03 0.  0.
        998    1    1    2    0    0  0.89180973070E+01 -0.12908797668E+02  0.14699567620E+04  0.14700745055E+04  0.10000000000E+02 0. -1.
</event>
<event>
 5    1  0.1321379E-008  0.3852828E+03  0.7957747E-01  0.3428474E+00
         13   -1    0    0    0    0  0.00000000000E+00  0.00000000000E+00  0.14999999963E+04  0.15000000000E+04  0.10566000000E+00 0.  1.
        994   -1    0    0    0    0 -0.00000000000E+00 -0.00000000000E+00  0.11368683772E-12  0.17120000000E+03  0.17120000000E+03 0.  0.
         13    1    1    2    0    0  0.90205816098E+01  0.51405042372E+01  0.35451373894E+02  0.36940584070E+02  0.10566000000E+00 0.  1.
        994    1    1    2    0    0 -0.11586725372E+02 -0.17506201570E+01  0.19411230926E+01  0.17161155216E+03  0.17120000000E+03 0.  0.
        998    1    1    2    0    0  0.25661437627E+01 -0.33898840803E+01  0.14626074993E+04  0.14626478638E+04  0.10000000000E+02 0.  1.
</event>
<event>
 5    1  0.1321379E-008  0.3831621E+03  0.7957747E-01  0.3437504E+00
         13   -1    0    0    0    0  0.00000000000E+00  0.00000000000E+00  0.14999999963E+04  0.15000000000E+04  0.10566000000E+00 0. -1.
        994   -1    0    0    0    0 -0.00000000000E+00 -0.00000000000E+00  0.11368683772E-12  0.17120000000E+03  0.17120000000E+03 0.  0.
         13    1    1    2    0    0  0.47973233549E+01  0.10888921136E+02  0.26119622639E+02  0.28702417419E+02  0.10566000000E+00 0. -1.
        994    1    1    2    0    0 -0.26492768990E+01 -0.17572950139E+02  0.35909350654E+01  0.17215737585E+03  0.17120000000E+03 0.  0.
        998    1    1    2    0    0 -0.21480464559E+01  0.66840290028E+01  0.14702894386E+04  0.14703402067E+04  0.10000000000E+02 0. -1.
</event>
<event>
 5    1  0.1321379E-008  0.3710020E+03  0.7957747E-01  0.3491299E+00
         13   -1    0    0    0    0  0.00000000000E+00  0.00000000000E+00  0.14999999963E+04  0.15000000000E+04  0.10566000000E+00 0.  1.
        994   -1    0    0    0    0 -0.00000000000E+00 -0.00000000000E+00  0.11368683772E-12  0.17120000000E+03  0.17120000000E+03 0.  0.
         13    1    1    2    0    0 -0.10651331131E+03  0.53833120574E+02  0.39130322906E+03  0.40909817721E+03  0.10566000000E+00 0.  1.
        994    1    1    2    0    0  0.11138338090E+03 -0.80245811047E+02  0.80861036867E+02  0.23386661800E+03  0.17120000000E+03 0.  0.
        998    1    1    2    0    0 -0.48700695881E+01  0.26412690472E+02  0.10278357304E+04  0.10282352048E+04  0.10000000000E+02 0.  1.
</event>
<event>
 5    1  0.1321379E-008  0.3816145E+03  0.7957747E-01  0.3444159E+00
         13   -1    0    0    0    0  0.00000000000E+00  0.00000000000E+00  0.14999999963E+04  0.15000000000E+04  0.10566000000E+00 0.  1.
        994   -1    0    0    0    0 -0.00000000000E+00 -0.00000000000E+00  0.11368683772E-12  0.17120000000E+03  0.17120000000E+03 0.  0.
         13    1    1    2    0    0 -0.11996401197E+02  0.17191910140E+02  0.63426206576E+02  0.66800974998E+02  0.10566000000E+00 0.  1.
        994    1    1    2    0    0  0.99265339783E+01 -0.16225067862E+02  0.45242930324E+01  0.17231279155E+03  0.17120000000E+03 0.  0.
        998    1    1    2    0    0  0.20698672183E+01 -0.96684227878E+00  0.14320494967E+04  0.14320862335E+04  0.10000000000E+02 0.  1.
</event>
<event>
 5    1  0.1321379E-008  0.3839170E+03  0.7957747E-01  0.3434278E+00
         13   -1    0    0    0    0  0.00000000000E+00  0.00000000000E+00  0.14999999963E+04  0.15000000000E+04  0.10566000000E+00 0. -1.
        994   -1    0    0    0    0 -0.00000000000E+00 -0.00000000000E+00  0.11368683772E-12  0.17120000000E+03  0.17120000000E+03 0.  0.
         13    1    1    2    0    0  0.18734804559E+02  0.24489429257E+01  0.84072921437E+02  0.86169933888E+02  0.10566000000E+00 0. -1.
        994    1    1    2    0    0 -0.67417469113E+01 -0.94450522320E+01  0.26133152406E+01  0.17161273140E+03  0.17120000000E+03 0.  0.
        998    1    1    2    0    0 -0.11993057648E+02  0.69961093063E+01  0.14133137596E+04  0.14134173347E+04  0.10000000000E+02 0. -1.
</event>
<event>
 5    1  0.1321379E-008  0.3781512E+03  0.7957747E-01  0.3459248E+00
         13   -1    0    0    0    0  0.00000000000E+00  0.00000000000E+00  0.14999999963E+04  0.15000000000E+04  0.10566000000E+00 0.  1.
        994   -1    0    0    0    0 -0.00000000000E+00 -0.00000000000E+00  0.11368683772E-12  0.17120000000E+03  0.17120000000E+03 0.  0.
         13    1    1    2    0    0 -0.15225472926E+02 -0.60023925905E+02  0.29471310545E+03  0.30114865498E+03  0.10566000000E+00 0.  1.
        994    1    1    2    0    0  0.14124174302E+02  0.63911970548E+02  0.19617199666E+02  0.18433259832E+03  0.17120000000E+03 0.  0.
        998    1    1    2    0    0  0.11012986244E+01 -0.38880446429E+01  0.11856696912E+04  0.11857187467E+04  0.10000000000E+02 0.  1.
</event>
<event>
 5    1  0.1428373E-008  0.3844854E+03  0.7957747E-01  0.3431857E+00
         13   -1    0    0    0    0  0.00000000000E+00  0.00000000000E+00  0.14999999963E+04  0.15000000000E+04  0.10566000000E+00 0. -1.
        994   -1    0    0    0    0 -0.00000000000E+00 -0.00000000000E+00  0.11368683772E-12  0.17120000000E+03  0.17120000000E+03 0.  0.
         13    1    1    2    0    0  0.26464429815E+01  0.14453319818E+02  0.54888132580E+02  0.56820950154E+02  0.10566000000E+00 0. -1.
        994    1    1    2    0    0 -0.33457834120E+01 -0.16289724293E+02  0.27973467922E+01  0.17202852825E+03  0.17120000000E+03 0.  0.
        998    1    1    2    0    0  0.69934043051E+00  0.18364044754E+01  0.14423145169E+04  0.14423505216E+04  0.10000000000E+02 0. -1.
</event>
<event>
 5    1  0.1321379E-008  0.3696905E+03  0.7957747E-01  0.3497314E+00
         13   -1    0    0    0    0  0.00000000000E+00  0.00000000000E+00  0.14999999963E+04  0.15000000000E+04  0.10566000000E+00 0. -1.
        994   -1    0    0    0    0 -0.00000000000E+00 -0.00000000000E+00  0.11368683772E-12  0.17120000000E+03  0.17120000000E+03 0.  0.
         13    1    1    2    0    0 -0.98957843497E+02 -0.27131981294E+01  0.37881811157E+03  0.39153951149E+03  0.10566000000E+00 0. -1.
        994    1    1    2    0    0  0.99571068857E+02 -0.11359033107E+00  0.44576422757E+02  0.20300469975E+03  0.17120000000E+03 0.  0.
        998    1    1    2    0    0 -0.61322536084E+00  0.28267884605E+01  0.10766054619E+04  0.10766557888E+04  0.10000000000E+02 0.  0.
</event>
<event>
 5    1  0.1321379E-008  0.3803854E+03  0.7957747E-01  0.3449482E+00
         13   -1    0    0    0    0  0.00000000000E+00  0.00000000000E+00  0.14999999963E+04  0.15000000000E+04  0.10566000000E+00 0. -1.
        994   -1    0    0    0    0 -0.00000000000E+00 -0.00000000000E+00  0.11368683772E-12  0.17120000000E+03  0.17120000000E+03 0.  0.
         13    1    1    2    0    0 -0.17811238119E+02 -0.10810451525E+02  0.53015598047E+02  0.56962890251E+02  0.10566000000E+00 0. -1.
        994    1    1    2    0    0  0.23968664853E+02 -0.72299940575E+01  0.60340896227E+01  0.17312602331E+03  0.17120000000E+03 0.  0.
        998    1    1    2    0    0 -0.61574267346E+01  0.18040445582E+02  0.14409503086E+04  0.14411110864E+04  0.10000000000E+02 0. -1.
</event>
<event>
 5    1  0.1321379E-008  0.3840829E+03  0.7957747E-01  0.3433571E+00
         13   -1    0    0    0    0  0.00000000000E+00  0.00000000000E+00  0.14999999963E+04  0.15000000000E+04  0.10566000000E+00 0.  1.
        994   -1    0    0    0    0 -0.00000000000E+00 -0.00000000000E+00  0.11368683772E-12  0.17120000000E+03  0.17120000000E+03 0.  0.
         13    1    1    2    0    0 -0.13875172641E+01  0.15864243440E+02  0.58428493660E+02  0.60559883252E+02  0.10566000000E+00 0.  1.
        994    1    1    2    0    0  0.14639652856E+01 -0.16505041592E+02  0.29923124350E+01  0.17202602572E+03  0.17120000000E+03 0.  0.
        998    1    1    2    0    0 -0.76448021499E-01  0.64079815169E+00  0.14385791902E+04  0.14386140910E+04  0.10000000000E+02 0.  1.
</event>
<event>
 5    1  0.1321379E-008  0.3754299E+03  0.7957747E-01  0.3471302E+00
         13   -1    0    0    0    0  0.00000000000E+00  0.00000000000E+00  0.14999999963E+04  0.15000000000E+04  0.10566000000E+00 0.  1.
        994   -1    0    0    0    0 -0.00000000000E+00 -0.00000000000E+00  0.11368683772E-12  0.17120000000E+03  0.17120000000E+03 0.  0.
         13    1    1    2    0    0 -0.31011766985E+02  0.57735330399E+02  0.15922152430E+03  0.17218188938E+03  0.10566000000E+00 0.  1.
        994    1    1    2    0    0  0.10011204730E+02 -0.25534830321E+02  0.16524762836E+02  0.17416876748E+03  0.17120000000E+03 0.  0.
        998    1    1    2    0    0  0.21000562255E+02 -0.32200500077E+02  0.13242537091E+04  0.13248493431E+04  0.10000000000E+02 0.  1.
</event>
<event>
 5    1  0.1321379E-008  0.3781284E+03  0.7957747E-01  0.3459348E+00
         13   -1    0    0    0    0  0.00000000000E+00  0.00000000000E+00  0.14999999963E+04  0.15000000000E+04  0.10566000000E+00 0. -1.
        994   -1    0    0    0    0 -0.00000000000E+00 -0.00000000000E+00  0.11368683772E-12  0.17120000000E+03  0.17120000000E+03 0.  0.
         13    1    1    2    0    0 -0.99116716267E+01  0.26053907579E+02  0.78427386952E+02  0.83234088706E+02  0.10566000000E+00 0. -1.
        994    1    1    2    0    0  0.68553038693E+01 -0.34418008458E+01  0.52788382383E+01  0.17145304698E+03  0.17120000000E+03 0.  0.
        998    1    1    2    0    0  0.30563677574E+01 -0.22612106733E+02  0.14162937711E+04  0.14165128643E+04  0.10000000000E+02 0. -1.
</event>
<event>
 5    1  0.1321379E-008  0.3685583E+03  0.7957747E-01  0.3502543E+00
         13   -1    0    0    0    0  0.00000000000E+00  0.00000000000E+00  0.14999999963E+04  0.15000000000E+04  0.10566000000E+00 0.  1.
        994   -1    0    0    0    0 -0.00000000000E+00 -0.00000000000E+00  0.11368683772E-12  0.17120000000E+03  0.17120000000E+03 0.  0.
         13    1    1    2    0    0 -0.52709327301E+02 -0.63713168117E+02  0.35092644146E+03  0.36053712632E+03  0.10566000000E+00 0.  1.
        994    1    1    2    0    0  0.18788989635E+02  0.39620636732E+02  0.16736121576E+02  0.17751720692E+03  0.17120000000E+03 0.  0.
        998    1    1    2    0    0  0.33920337666E+02  0.24092531385E+02  0.11323374332E+04  0.11331456668E+04  0.10000000000E+02 0.  1.
</event>
<event>
 5    1  0.1321379E-008  0.3797507E+03  0.7957747E-01  0.3452245E+00
         13   -1    0    0    0    0  0.00000000000E+00  0.00000000000E+00  0.14999999963E+04  0.15000000000E+04  0.10566000000E+00 0. -1.
        994   -1    0    0    0    0 -0.00000000000E+00 -0.00000000000E+00  0.11368683772E-12  0.17120000000E+03  0.17120000000E+03 0.  0.
         13    1    1    2    0    0 -0.46939133765E+01  0.23812390584E+02  0.65609065310E+02  0.69954437908E+02  0.10566000000E+00 0. -1.
        994    1    1    2    0    0  0.45286546770E+00 -0.22954708438E+02  0.60245949500E+01  0.17283766797E+03  0.17120000000E+03 0.  0.
        998    1    1    2    0    0  0.42410479088E+01 -0.85768214525E+00  0.14283663360E+04  0.14284078941E+04  0.10000000000E+02 0. -1.
</event>
<event>
 5    1  0.1321379E-008  0.3839746E+03  0.7957747E-01  0.3434033E+00
         13   -1    0    0    0    0  0.00000000000E+00  0.00000000000E+00  0.14999999963E+04  0.15000000000E+04  0.10566000000E+00 0.  1.
        994   -1    0    0    0    0 -0.00000000000E+00 -0.00000000000E+00  0.11368683772E-12  0.17120000000E+03  0.17120000000E+03 0.  0.
         13    1    1    2    0    0  0.85606463150E+01 -0.12758999590E+02  0.54066690283E+02  0.56207605340E+02  0.10566000000E+00 0.  1.
        994    1    1    2    0    0 -0.78170484873E+01  0.96784160079E+01  0.26509456557E+01  0.17167191237E+03  0.17120000000E+03 0.  0.
        998    1    1    2    0    0 -0.74359782766E+00  0.30805835819E+01  0.14432823603E+04  0.14433204823E+04  0.10000000000E+02 0.  1.
</event>
<event>
 5    1  0.1321379E-008  0.3778039E+03  0.7957747E-01  0.3460777E+00
         13   -1    0    0    0    0  0.00000000000E+00  0.00000000000E+00  0.14999999963E+04  0.15000000000E+04  0.10566000000E+00 0.  1.
        994   -1    0    0    0    0 -0.00000000000E+00 -0.00000000000E+00  0.11368683772E-12  0.17120000000E+03  0.17120000000E+03 0.  0.
         13    1    1    2    0    0 -0.13525205067E+02  0.87461536346E+01  0.21293647576E+02  0.26699381390E+02  0.10566000000E+00 0.  1.
        994    1    1    2    0    0  0.14474169588E+02 -0.36999522828E+02  0.10579622017E+02  0.17606769913E+03  0.17120000000E+03 0.  0.
        998    1    1    2    0    0 -0.94896452141E+00  0.28253369194E+02  0.14681267267E+04  0.14684329195E+04  0.10000000000E+02 0.  1.
</event>
<event>
 5    1  0.1321379E-008  0.3798472E+03  0.7957747E-01  0.3451824E+00
         13   -1    0    0    0    0  0.00000000000E+00  0.00000000000E+00  0.14999999963E+04  0.15000000000E+04  0.10566000000E+00 0.  1.
        994   -1    0    0    0    0 -0.00000000000E+00 -0.00000000000E+00  0.11368683772E-12  0.17120000000E+03  0.17120000000E+03 0.  0.
         13    1    1    2    0    0  0.17198747773E+02 -0.18364350328E+02  0.71827759604E+02  0.76107059474E+02  0.10566000000E+00 0.  1.
        994    1    1    2    0    0 -0.12870151609E+02  0.17571819838E+02  0.57986240682E+01  0.17267736880E+03  0.17120000000E+03 0.  0.
        998    1    1    2    0    0 -0.43285961635E+01  0.79253049003E+00  0.14223736126E+04  0.14224155717E+04  0.10000000000E+02 0.  0.
</event>
<event>
 5    1  0.1321379E-008  0.3697552E+03  0.7957747E-01  0.3497017E+00
         13   -1    0    0    0    0  0.00000000000E+00  0.00000000000E+00  0.14999999963E+04  0.15000000000E+04  0.10566000000E+00 0. -1.
        994   -1    0    0    0    0 -0.00000000000E+00 -0.00000000000E+00  0.11368683772E-12  0.17120000000E+03  0.17120000000E+03 0.  0.
         13    1    1    2    0    0 -0.17679788498E+02 -0.54426512681E+02  0.13164758023E+03  0.14354761143E+03  0.10566000000E+00 0. -1.
        994    1    1    2    0    0  0.22303177439E+02  0.60193554875E+02  0.25344985116E+02  0.18458738863E+03  0.17120000000E+03 0.  0.
        998    1    1    2    0    0 -0.46233889415E+01 -0.57670421935E+01  0.13430074309E+04  0.13430649999E+04  0.10000000000E+02 0. -1.
</event>
<event>
 5    1  0.1321379E-008  0.3836475E+03  0.7957747E-01  0.3435429E+00
         13   -1    0    0    0    0  0.00000000000E+00  0.00000000000E+00  0.14999999963E+04  0.15000000000E+04  0.10566000000E+00 0.  1.
        994   -1    0    0    0    0 -0.00000000000E+00 -0.00000000000E+00  0.11368683772E-12  0.17120000000E+03  0.17120000000E+03 0.  0.
         13    1    1    2    0    0  0.99709015627E+01 -0.17667958143E+02  0.30626606811E+01  0.20517472490E+02  0.10566000000E+00 0.  1.
        994    1    1    2    0    0 -0.10483891090E+02  0.14958600791E+02  0.19571830657E+02  0.17328060557E+03  0.17120000000E+03 0.  0.
        998    1    1    2    0    0  0.51298952751E+00  0.27093573516E+01  0.14773655049E+04  0.14774019219E+04  0.10000000000E+02 0.  1.
</event>
<event>
 5    1  0.1321379E-008  0.3685078E+03  0.7957747E-01  0.3502777E+00
         13   -1    0    0    0    0  0.00000000000E+00  0.00000000000E+00  0.14999999963E+04  0.15000000000E+04  0.10566000000E+00 0. -1.
        994   -1    0    0    0    0 -0.00000000000E+00 -0.00000000000E+00  0.11368683772E-12  0.17120000000E+03  0.17120000000E+03 0.  0.
         13    1    1    2    0    0  0.10610144307E+02  0.12418015951E+02  0.86285820230E+01  0.18472841529E+02  0.10566000000E+00 0. -1.
        994    1    1    2    0    0 -0.11094592268E+02 -0.41449525831E+01  0.10639917982E+02  0.17193870554E+03  0.17120000000E+03 0.  0.
        998    1    1    2    0    0  0.48444796124E+00 -0.82730633681E+01  0.14807314963E+04  0.14807884529E+04  0.10000000000E+02 0. -1.
</event>
<event>
 5    1  0.1321379E-008  0.3842048E+03  0.7957747E-01  0.3433052E+00
         13   -1    0    0    0    0  0.00000000000E+00  0.00000000000E+00  0.14999999963E+04  0.15000000000E+04  0.10566000000E+00 0. -1.
        994   -1    0    0    0    0 -0.00000000000E+00 -0.00000000000E+00  0.11368683772E-12  0.17120000000E+03  0.17120000000E+03 0.  0.
         13    1    1    2    0    0  0.14986786684E+02 -0.11017632059E+02  0.88818664358E+02  0.90745569003E+02  0.10566000000E+00 0. -1.
        994    1    1    2    0    0 -0.22514462779E+02 -0.19500005691E+02  0.49560195060E+01  0.17384232334E+03  0.17120000000E+03 0.  0.
        998    1    1    2    0    0  0.75276760947E+01  0.30517637750E+02  0.14062253124E+04  0.14066121077E+04  0.10000000000E+02 0. -1.
</event>
<event>
 5    1  0.1321379E-008  0.3714283E+03  0.7957747E-01  0.3489352E+00
         13   -1    0    0    0    0  0.00000000000E+00  0.00000000000E+00  0.14999999963E+04  0.15000000000E+04  0.10566000000E+00 0. -1.
        994   -1    0    0    0    0 -0.00000000000E+00 -0.00000000000E+00  0.11368683772E-12  0.17120000000E+03  0.17120000000E+03 0.  0.
         13    1    1    2    0    0  0.60143754879E+02 -0.51752215463E+02  0.45932908196E+03  0.46613171932E+03  0.10566000000E+00 0. -1.
        994    1    1    2    0    0  0.46092436356E+02  0.35233295075E+02  0.23617931734E+02  0.18229960085E+03  0.17120000000E+03 0.  0.
        998    1    1    2    0    0 -0.10623619123E+03  0.16518920389E+02  0.10170529826E+04  0.10227686798E+04  0.10000000000E+02 0. -1.
</event>
<event>
 5    1  0.1321379E-008  0.3825035E+03  0.7957747E-01  0.3440330E+00
         13   -1    0    0    0    0  0.00000000000E+00  0.00000000000E+00  0.14999999963E+04  0.15000000000E+04  0.10566000000E+00 0.  1.
        994   -1    0    0    0    0 -0.00000000000E+00 -0.00000000000E+00  0.11368683772E-12  0.17120000000E+03  0.17120000000E+03 0.  0.
         13    1    1    2    0    0  0.13404203285E+00  0.16118195915E+02  0.43165941148E+02  0.46077368046E+02  0.10566000000E+00 0.  1.
        994    1    1    2    0    0  0.13167294956E+01 -0.16766354130E+02  0.38130377085E+01  0.17206633507E+03  0.17120000000E+03 0.  0.
        998    1    1    2    0    0 -0.14507715285E+01  0.64815821464E+00  0.14530210174E+04  0.14530562969E+04  0.10000000000E+02 0.  1.
</event>
<event>
 5    1  0.1321379E-008  0.3689926E+03  0.7957747E-01  0.3500534E+00
         13   -1    0    0    0    0  0.00000000000E+00  0.00000000000E+00  0.14999999963E+04  0.15000000000E+04  0.10566000000E+00 0.  1.
        994   -1    0    0    0    0 -0.00000000000E+00 -0.00000000000E+00  0.11368683772E-12  0.17120000000E+03  0.17120000000E+03 0.  0.
         13    1    1    2    0    0  0.13734029949E+02  0.33455709307E+02  0.67032479552E+02  0.76166085253E+02  0.10566000000E+00 0.  1.
        994    1    1    2    0    0  0.22057876249E+02 -0.13711042382E+02  0.12140580264E+02  0.17358391710E+03  0.17120000000E+03 0.  0.
        998    1    1    2    0    0 -0.35791906198E+02 -0.19744666925E+02  0.14208269365E+04  0.14214499976E+04  0.10000000000E+02 0.  1.
</event>
<event>
 5    1  0.1321379E-008  0.3849019E+03  0.7957747E-01  0.3430088E+00
         13   -1    0    0    0    0  0.00000000000E+00  0.00000000000E+00  0.14999999963E+04  0.15000000000E+04  0.10566000000E+00 0.  1.
        994   -1    0    0    0    0 -0.00000000000E+00 -0.00000000000E+00  0.11368683772E-12  0.17120000000E+03  0.17120000000E+03 0.  0.
         13    1    1    2    0    0  0.17207940990E+02 -0.61970950951E+01  0.96258723917E+02  0.97980969146E+02  0.10566000000E+00 0.  1.
        994    1    1    2    0    0 -0.18792546109E+02 -0.38171736616E+01  0.28894856934E+01  0.17229486275E+03  0.17120000000E+03 0.  0.
        998    1    1    2    0    0  0.15846051190E+01  0.10014268757E+02  0.14008517867E+04  0.14009241681E+04  0.10000000000E+02 0.  1.
</event>
<event>
 5    1  0.1321379E-008  0.3690073E+03  0.7957747E-01  0.3500465E+00
         13   -1    0    0    0    0  0.00000000000E+00  0.00000000000E+00  0.14999999963E+04  0.15000000000E+04  0.10566000000E+00 0.  1.
        994   -1    0    0    0    0 -0.00000000000E+00 -0.00000000000E+00  0.11368683772E-12  0.17120000000E+03  0.17120000000E+03 0.  0.
         13    1    1    2    0    0  0.78318279245E+02 -0.15204001310E+02  0.44001285934E+03  0.44718703254E+03  0.10566000000E+00 0.  1.
        994    1    1    2    0    0 -0.32725601620E+01 -0.59877442663E+01  0.10577117653E+02  0.17166210458E+03  0.17120000000E+03 0.  0.
        998    1    1    2    0    0 -0.75045719083E+02  0.21191745577E+02  0.10494100193E+04  0.10523508629E+04  0.10000000000E+02 0. -1.
</event>
<event>
 5    1  0.1321379E-008  0.3831925E+03  0.7957747E-01  0.3437374E+00
         13   -1    0    0    0    0  0.00000000000E+00  0.00000000000E+00  0.14999999963E+04  0.15000000000E+04  0.10566000000E+00 0.  1.
        994   -1    0    0    0    0 -0.00000000000E+00 -0.00000000000E+00  0.11368683772E-12  0.17120000000E+03  0.17120000000E+03 0.  0.
         13    1    1    2    0    0 -0.84868489810E+01 -0.75600711401E+01  0.25687819534E+02  0.28090149834E+02  0.10566000000E+00 0.  1.
        994    1    1    2    0    0  0.10532738278E+02 -0.17829690376E+02  0.39500732993E+01  0.17249312889E+03  0.17120000000E+03 0.  0.
        998    1    1    2    0    0 -0.20458892967E+01  0.25389761516E+02  0.14703621034E+04  0.14706167213E+04  0.10000000000E+02 0.  1.
</event>
<event>
 5    1  0.1321379E-008  0.3787876E+03  0.7957747E-01  0.3456454E+00
         13   -1    0    0    0    0  0.00000000000E+00  0.00000000000E+00  0.14999999963E+04  0.15000000000E+04  0.10566000000E+00 0.  1.
        994   -1    0    0    0    0 -0.00000000000E+00 -0.00000000000E+00  0.11368683772E-12  0.17120000000E+03  0.17120000000E+03 0.  0.
         13    1    1    2    0    0  0.39068308636E+02 -0.28369288026E+01  0.15231995814E+03  0.15727606848E+03  0.10566000000E+00 0.  1.
        994    1    1    2    0    0 -0.31912817620E+02 -0.69245231587E+01  0.83338512660E+01  0.17448573015E+03  0.17120000000E+03 0.  0.
        998    1    1    2    0    0 -0.71554910157E+01  0.97614519613E+01  0.13393461869E+04  0.13394382014E+04  0.10000000000E+02 0.  1.
</event>
<event>
 5    1  0.1321379E-008  0.3830187E+03  0.7957747E-01  0.3438119E+00
         13   -1    0    0    0    0  0.00000000000E+00  0.00000000000E+00  0.14999999963E+04  0.15000000000E+04  0.10566000000E+00 0. -1.
        994   -1    0    0    0    0 -0.00000000000E+00 -0.00000000000E+00  0.11368683772E-12  0.17120000000E+03  0.17120000000E+03 0.  0.
         13    1    1    2    0    0 -0.18660826606E+02 -0.16465460647E+02  0.12860977577E+03  0.13099550920E+03  0.10566000000E+00 0. -1.
        994    1    1    2    0    0 -0.10198963613E+01  0.55012945372E+01  0.27206658195E+01  0.17131300725E+03  0.17120000000E+03 0.  0.
        998    1    1    2    0    0  0.19680722967E+02  0.10964166110E+02  0.13686695547E+04  0.13688914835E+04  0.10000000000E+02 0. -1.
</event>
<event>
 5    1  0.1321379E-008  0.3859643E+03  0.7957747E-01  0.3425593E+00
         13   -1    0    0    0    0  0.00000000000E+00  0.00000000000E+00  0.14999999963E+04  0.15000000000E+04  0.10566000000E+00 0.  1.
        994   -1    0    0    0    0 -0.00000000000E+00 -0.00000000000E+00  0.11368683772E-12  0.17120000000E+03  0.17120000000E+03 0.  0.
         13    1    1    2    0    0 -0.34625892370E+01 -0.11091072854E+02  0.57264470372E+02  0.58431431201E+02  0.10566000000E+00 0.  1.
        994    1    1    2    0    0  0.94488040465E+01  0.10353159611E+02  0.17965114906E+01  0.17178223210E+03  0.17120000000E+03 0.  0.
        998    1    1    2    0    0 -0.59862148095E+01  0.73791324310E+00  0.14409390144E+04  0.14409863367E+04  0.10000000000E+02 0.  1.
</event>
<event>
 5    1  0.1321379E-008  0.3821339E+03  0.7957747E-01  0.3441920E+00
         13   -1    0    0    0    0  0.00000000000E+00  0.00000000000E+00  0.14999999963E+04  0.15000000000E+04  0.10566000000E+00 0.  1.
        994   -1    0    0    0    0 -0.00000000000E+00 -0.00000000000E+00  0.11368683772E-12  0.17120000000E+03  0.17120000000E+03 0.  0.
         13    1    1    2    0    0  0.82222419173E+00 -0.24629190632E+02  0.88271983421E+02  0.91647298405E+02  0.10566000000E+00 0.  1.
        994    1    1    2    0    0  0.15731721585E+02  0.35726722998E+02  0.81349584340E+01  0.17578254563E+03  0.17120000000E+03 0.  0.
        998    1    1    2    0    0 -0.16553945777E+02 -0.11097532366E+02  0.14035930544E+04  0.14037701560E+04  0.10000000000E+02 0.  1.
</event>
<event>
 5    1  0.1321379E-008  0.3806881E+03  0.7957747E-01  0.3448168E+00
         13   -1    0    0    0    0  0.00000000000E+00  0.00000000000E+00  0.14999999963E+04  0.15000000000E+04  0.10566000000E+00 0.  1.
        994   -1    0    0    0    0 -0.00000000000E+00 -0.00000000000E+00  0.11368683772E-12  0.17120000000E+03  0.17120000000E+03 0.  0.
         13    1    1    2    0    0  0.88777413073E+01  0.56596213372E+01  0.12710422199E+02  0.16504896271E+02  0.10566000000E+00 0.  1.
        994    1    1    2    0    0 -0.18400707137E+02 -0.24770387010E+01  0.49367922419E+01  0.17227458797E+03  0.17120000000E+03 0.  0.
        998    1    1    2    0    0  0.95229658298E+01 -0.31825826362E+01  0.14823527818E+04  0.14824205158E+04  0.10000000000E+02 0.  1.
</event>
<event>
 5    1  0.1321379E-008  0.3864024E+03  0.7957747E-01  0.3423746E+00
         13   -1    0    0    0    0  0.00000000000E+00  0.00000000000E+00  0.14999999963E+04  0.15000000000E+04  0.10566000000E+00 0. -1.
        994   -1    0    0    0    0 -0.00000000000E+00 -0.00000000000E+00  0.11368683772E-12  0.17120000000E+03  0.17120000000E+03 0.  0.
         13    1    1    2    0    0  0.70585381743E+01 -0.75044025441E+01  0.60104962644E+02  0.60981609663E+02  0.10566000000E+00 0. -1.
        994    1    1    2    0    0  0.48945642840E+01  0.77440936779E+01  0.12102827439E+01  0.17144921269E+03  0.17120000000E+03 0.  0.
        998    1    1    2    0    0 -0.11953102458E+02 -0.23969113381E+00  0.14386847509E+04  0.14387691777E+04  0.10000000000E+02 0. -1.
</event>
<event>
 5    1  0.1321379E-008  0.3692467E+03  0.7957747E-01  0.3499360E+00
         13   -1    0    0    0    0  0.00000000000E+00  0.00000000000E+00  0.14999999963E+04  0.15000000000E+04  0.10566000000E+00 0.  1.
        994   -1    0    0    0    0 -0.00000000000E+00 -0.00000000000E+00  0.11368683772E-12  0.17120000000E+03  0.17120000000E+03 0.  0.
         13    1    1    2    0    0 -0.33408320680E+02 -0.59043839846E+01  0.69538930462E+02  0.77373455750E+02  0.10566000000E+00 0.  1.
        994    1    1    2    0    0 -0.76076160119E+02 -0.36612889833E+02  0.35826139804E+02  0.19421904678E+03  0.17120000000E+03 0.  0.
        998    1    1    2    0    0  0.10948448080E+03  0.42517273818E+02  0.13946349260E+04  0.13996074975E+04  0.10000000000E+02 0.  1.
</event>
<event>
 5    1  0.1321379E-008  0.3729196E+03  0.7957747E-01  0.3482580E+00
         13   -1    0    0    0    0  0.00000000000E+00  0.00000000000E+00  0.14999999963E+04  0.15000000000E+04  0.10566000000E+00 0. -1.
        994   -1    0    0    0    0 -0.00000000000E+00 -0.00000000000E+00  0.11368683772E-12  0.17120000000E+03  0.17120000000E+03 0.  0.
         13    1    1    2    0    0 -0.41881021951E+02  0.49956204019E+02  0.25154289061E+03  0.25985280315E+03  0.10566000000E+00 0. -1.
        994    1    1    2    0    0  0.36223645748E+02 -0.34561211154E+02  0.16380845051E+02  0.17912119336E+03  0.17120000000E+03 0.  0.
        998    1    1    2    0    0  0.56573762034E+01 -0.15394992865E+02  0.12320762606E+04  0.12322260035E+04  0.10000000000E+02 0. -1.
</event>
<event>
 5    1  0.1321379E-008  0.3802612E+03  0.7957747E-01  0.3450022E+00
         13   -1    0    0    0    0  0.00000000000E+00  0.00000000000E+00  0.14999999963E+04  0.15000000000E+04  0.10566000000E+00 0.  1.
        994   -1    0    0    0    0 -0.00000000000E+00 -0.00000000000E+00  0.11368683772E-12  0.17120000000E+03  0.17120000000E+03 0.  0.
         13    1    1    2    0    0 -0.14745422288E+02  0.27088295022E+02  0.13350438188E+03  0.13702056178E+03  0.10566000000E+00 0.  1.
        994    1    1    2    0    0  0.25107434290E+01  0.39901840346E+01  0.40755910281E+01  0.17131338489E+03  0.17120000000E+03 0.  0.
        998    1    1    2    0    0  0.12234678859E+02 -0.31078479056E+02  0.13624200234E+04  0.13628660533E+04  0.10000000000E+02 0.  1.
</event>
<event>
 5    1  0.1321379E-008  0.3821803E+03  0.7957747E-01  0.3441719E+00
         13   -1    0    0    0    0  0.00000000000E+00  0.00000000000E+00  0.14999999963E+04  0.15000000000E+04  0.10566000000E+00 0. -1.
        994   -1    0    0    0    0 -0.00000000000E+00 -0.00000000000E+00  0.11368683772E-12  0.17120000000E+03  0.17120000000E+03 0.  0.
         13    1    1    2    0    0  0.15302449823E+02  0.14156398571E+01  0.36434786191E+02  0.39543315689E+02  0.10566000000E+00 0. -1.
        994    1    1    2    0    0 -0.20010507110E+02 -0.54064663640E+01  0.44638643302E+01  0.17250801824E+03  0.17120000000E+03 0.  0.
        998    1    1    2    0    0  0.47080572867E+01  0.39908265070E+01  0.14591013458E+04  0.14591486661E+04  0.10000000000E+02 0. -1.
</event>
<event>
 5    1  0.1321379E-008  0.3803349E+03  0.7957747E-01  0.3449702E+00
         13   -1    0    0    0    0  0.00000000000E+00  0.00000000000E+00  0.14999999963E+04  0.15000000000E+04  0.10566000000E+00 0.  1.
        994   -1    0    0    0    0 -0.00000000000E+00 -0.00000000000E+00  0.11368683772E-12  0.17120000000E+03  0.17120000000E+03 0.  0.
         13    1    1    2    0    0 -0.23681477595E+02  0.31466211495E+02  0.21112809257E+03  0.21476968474E+03  0.10566000000E+00 0.  1.
        994    1    1    2    0    0  0.20227558957E+02 -0.50755112855E+00  0.53324995722E+01  0.17247401921E+03  0.17120000000E+03 0.  0.
        998    1    1    2    0    0  0.34539186387E+01 -0.30958660366E+02  0.12835394041E+04  0.12839562961E+04  0.10000000000E+02 0.  1.
</event>
<event>
 5    1  0.1321379E-008  0.3850151E+03  0.7957747E-01  0.3429608E+00
         13   -1    0    0    0    0  0.00000000000E+00  0.00000000000E+00  0.14999999963E+04  0.15000000000E+04  0.10566000000E+00 0. -1.
        994   -1    0    0    0    0 -0.00000000000E+00 -0.00000000000E+00  0.11368683772E-12  0.17120000000E+03  0.17120000000E+03 0.  0.
         13    1    1    2    0    0  0.82989457177E+00 -0.12426981747E+02  0.49298660754E+02  0.50847691358E+02  0.10566000000E+00 0. -1.
        994    1    1    2    0    0  0.75422911495E+01  0.31455048644E+01  0.18422780564E+01  0.17140482591E+03  0.17120000000E+03 0.  0.
        998    1    1    2    0    0 -0.83721857212E+01  0.92814768824E+01  0.14488590575E+04  0.14489474827E+04  0.10000000000E+02 0. -1.
</event>
<event>
 5    1  0.1321379E-008  0.3778946E+03  0.7957747E-01  0.3460377E+00
         13   -1    0    0    0    0  0.00000000000E+00  0.00000000000E+00  0.14999999963E+04  0.15000000000E+04  0.10566000000E+00 0.  1.
        994   -1    0    0    0    0 -0.00000000000E+00 -0.00000000000E+00  0.11368683772E-12  0.17120000000E+03  0.17120000000E+03 0.  0.
         13    1    1    2    0    0 -0.17259660094E+03 -0.17309452541E+03  0.90397785690E+03  0.93644395365E+03  0.10566000000E+00 0.  1.
        994    1    1    2    0    0  0.20173929494E+03  0.16652348796E+03  0.28781190744E+03  0.42493993603E+03  0.17120000000E+03 0.  0.
        998    1    1    2    0    0 -0.29142694000E+02  0.65710374492E+01  0.30821023194E+03  0.30981611033E+03  0.10000000000E+02 0.  1.
</event>
<event>
 5    1  0.1321379E-008  0.3749023E+03  0.7957747E-01  0.3473660E+00
         13   -1    0    0    0    0  0.00000000000E+00  0.00000000000E+00  0.14999999963E+04  0.15000000000E+04  0.10566000000E+00 0. -1.
        994   -1    0    0    0    0 -0.00000000000E+00 -0.00000000000E+00  0.11368683772E-12  0.17120000000E+03  0.17120000000E+03 0.  0.
         13    1    1    2    0    0 -0.20560894424E+02  0.36662926328E+02  0.15434578363E+03  0.15996734865E+03  0.10566000000E+00 0. -1.
        994    1    1    2    0    0 -0.15638984702E+02  0.11491366135E+01  0.75654703300E+01  0.17208304594E+03  0.17120000000E+03 0.  0.
        998    1    1    2    0    0  0.36199879126E+02 -0.37812062942E+02  0.13380887423E+04  0.13391496054E+04  0.10000000000E+02 0. -1.
</event>
<event>
 5    1  0.1321379E-008  0.3720331E+03  0.7957747E-01  0.3486599E+00
         13   -1    0    0    0    0  0.00000000000E+00  0.00000000000E+00  0.14999999963E+04  0.15000000000E+04  0.10566000000E+00 0.  1.
        994   -1    0    0    0    0 -0.00000000000E+00 -0.00000000000E+00  0.11368683772E-12  0.17120000000E+03  0.17120000000E+03 0.  0.
         13    1    1    2    0    0  0.11407057541E+02 -0.49192718696E+02  0.13890424795E+03  0.14779866642E+03  0.10566000000E+00 0.  1.
        994    1    1    2    0    0  0.96913400466E+02  0.80844231363E+02  0.65053958525E+02  0.22241729801E+03  0.17120000000E+03 0.  0.
        998    1    1    2    0    0 -0.10832045801E+03 -0.31651512667E+02  0.12960417898E+04  0.13009840356E+04  0.10000000000E+02 0.  1.
</event>
<event>
 5    1  0.1321379E-008  0.3835366E+03  0.7957747E-01  0.3435903E+00
         13   -1    0    0    0    0  0.00000000000E+00  0.00000000000E+00  0.14999999963E+04  0.15000000000E+04  0.10566000000E+00 0. -1.
        994   -1    0    0    0    0 -0.00000000000E+00 -0.00000000000E+00  0.11368683772E-12  0.17120000000E+03  0.17120000000E+03 0.  0.
         13    1    1    2    0    0 -0.11909063417E+02  0.53854556729E+01  0.35300990221E+02  0.37643060435E+02  0.10566000000E+00 0. -1.
        994    1    1    2    0    0  0.64936696510E+01 -0.10896676530E+02  0.28903097335E+01  0.17169362014E+03  0.17120000000E+03 0.  0.
        998    1    1    2    0    0  0.54153937657E+01  0.55112208571E+01  0.14618086963E+04  0.14618633194E+04  0.10000000000E+02 0. -1.
</event>
<event>
 5    1  0.1321379E-008  0.3950204E+03  0.7957747E-01  0.3388255E+00
         13   -1    0    0    0    0  0.00000000000E+00  0.00000000000E+00  0.14999999963E+04  0.15000000000E+04  0.10566000000E+00 0.  1.
        994   -1    0    0    0    0 -0.00000000000E+00 -0.00000000000E+00  0.11368683772E-12  0.17120000000E+03  0.17120000000E+03 0.  0.
         13    1    1    2    0    0  0.16994016840E+02  0.72099262677E+02  0.96471593296E+02  0.12163009399E+03  0.10566000000E+00 0.  1.
        994    1    1    2    0    0 -0.18923851482E+02 -0.70970928577E+02  0.45847043907E+02  0.19184987958E+03  0.17120000000E+03 0.  0.
        998    1    1    2    0    0  0.19298346416E+01 -0.11283341003E+01  0.13576813591E+04  0.13577200264E+04  0.10000000000E+02 0.  1.
</event>
<event>
 5    1  0.1321379E-008  0.3704929E+03  0.7957747E-01  0.3493629E+00
         13   -1    0    0    0    0  0.00000000000E+00  0.00000000000E+00  0.14999999963E+04  0.15000000000E+04  0.10566000000E+00 0.  1.
        994   -1    0    0    0    0 -0.00000000000E+00 -0.00000000000E+00  0.11368683772E-12  0.17120000000E+03  0.17120000000E+03 0.  0.
         13    1    1    2    0    0 -0.45194993101E+02 -0.50228690518E+02  0.21747477422E+03  0.22772965845E+03  0.10566000000E+00 0.  1.
        994    1    1    2    0    0  0.46150354064E+02  0.46303697605E+02  0.23912119187E+02  0.18481103061E+03  0.17120000000E+03 0.  0.
        998    1    1    2    0    0 -0.95536096240E+00  0.39249929133E+01  0.12586131029E+04  0.12586593109E+04  0.10000000000E+02 0.  1.
</event>
<event>
 5    1  0.1321379E-008  0.3822415E+03  0.7957747E-01  0.3441456E+00
         13   -1    0    0    0    0  0.00000000000E+00  0.00000000000E+00  0.14999999963E+04  0.15000000000E+04  0.10566000000E+00 0.  1.
        994   -1    0    0    0    0 -0.00000000000E+00 -0.00000000000E+00  0.11368683772E-12  0.17120000000E+03  0.17120000000E+03 0.  0.
         13    1    1    2    0    0 -0.36004604911E+02  0.17251430017E+02  0.23389797062E+03  0.23728087836E+03  0.10566000000E+00 0.  1.
        994    1    1    2    0    0  0.28895967655E+02 -0.24016715171E+02  0.77048622300E+01  0.17544396386E+03  0.17120000000E+03 0.  0.
        998    1    1    2    0    0  0.71086372554E+01  0.67652851539E+01  0.12583971634E+04  0.12584751578E+04  0.10000000000E+02 0.  1.
</event>
<event>
 5    1  0.1321379E-008  0.3840240E+03  0.7957747E-01  0.3433822E+00
         13   -1    0    0    0    0  0.00000000000E+00  0.00000000000E+00  0.14999999963E+04  0.15000000000E+04  0.10566000000E+00 0. -1.
        994   -1    0    0    0    0 -0.00000000000E+00 -0.00000000000E+00  0.11368683772E-12  0.17120000000E+03  0.17120000000E+03 0.  0.
         13    1    1    2    0    0 -0.11803038342E+02  0.10492971381E+01  0.31743253452E+02  0.33883005214E+02  0.10566000000E+00 0. -1.
        994    1    1    2    0    0  0.14413901444E+02 -0.56199104334E+01  0.29054731696E+01  0.17192215018E+03  0.17120000000E+03 0.  0.
        998    1    1    2    0    0 -0.26108631019E+01  0.45706132953E+01  0.14653512697E+04  0.14653948446E+04  0.10000000000E+02 0. -1.
</event>
<event>
 5    1  0.1321379E-008  0.3848002E+03  0.7957747E-01  0.3430520E+00
         13   -1    0    0    0    0  0.00000000000E+00  0.00000000000E+00  0.14999999963E+04  0.15000000000E+04  0.10566000000E+00 0. -1.
        994   -1    0    0    0    0 -0.00000000000E+00 -0.00000000000E+00  0.11368683772E-12  0.17120000000E+03  0.17120000000E+03 0.  0.
         13    1    1    2    0    0 -0.99147841556E+01  0.19332311169E+02  0.11717745742E+03  0.11917469905E+03  0.10566000000E+00 0. -1.
        994    1    1    2    0    0  0.11525040336E+02 -0.30495249734E+02  0.52345901254E+01  0.17435489022E+03  0.17120000000E+03 0.  0.
        998    1    1    2    0    0 -0.16102561805E+01  0.11162938565E+02  0.13775879487E+04  0.13776704107E+04  0.10000000000E+02 0. -1.
</event>
<event>
 5    1  0.1321379E-008  0.3861172E+03  0.7957747E-01  0.3424948E+00
         13   -1    0    0    0    0  0.00000000000E+00  0.00000000000E+00  0.14999999963E+04  0.15000000000E+04  0.10566000000E+00 0.  1.
        994   -1    0    0    0    0 -0.00000000000E+00 -0.00000000000E+00  0.11368683772E-12  0.17120000000E+03  0.17120000000E+03 0.  0.
         13    1    1    2    0    0  0.10361734398E+02  0.39147255656E+01  0.58085457487E+02  0.59132242909E+02  0.10566000000E+00 0.  1.
        994    1    1    2    0    0 -0.65626130766E+01 -0.15782027734E+01  0.12257804195E+01  0.17133738982E+03  0.17120000000E+03 0.  0.
        998    1    1    2    0    0 -0.37991213212E+01 -0.23365227922E+01  0.14406887584E+04  0.14407303673E+04  0.10000000000E+02 0.  1.
</event>
<event>
 5    1  0.1321379E-008  0.3684823E+03  0.7957747E-01  0.3502895E+00
         13   -1    0    0    0    0  0.00000000000E+00  0.00000000000E+00  0.14999999963E+04  0.15000000000E+04  0.10566000000E+00 0.  1.
        994   -1    0    0    0    0 -0.00000000000E+00 -0.00000000000E+00  0.11368683772E-12  0.17120000000E+03  0.17120000000E+03 0.  0.
         13    1    1    2    0    0 -0.98593644965E+02  0.30392507021E+02  0.43622379334E+03  0.44825843032E+03  0.10566000000E+00 0.  1.
        994    1    1    2    0    0  0.95671550580E+02  0.19690326697E+02  0.44093242487E+02  0.20197625749E+03  0.17120000000E+03 0.  0.
        998    1    1    2    0    0  0.29220943845E+01 -0.50082833718E+02  0.10196829604E+04  0.10209653122E+04  0.10000000000E+02 0.  1.
</event>
<event>
 5    1  0.1321379E-008  0.3797096E+03  0.7957747E-01  0.3452424E+00
         13   -1    0    0    0    0  0.00000000000E+00  0.00000000000E+00  0.14999999963E+04  0.15000000000E+04  0.10566000000E+00 0. -1.
        994   -1    0    0    0    0 -0.00000000000E+00 -0.00000000000E+00  0.11368683772E-12  0.17120000000E+03  0.17120000000E+03 0.  0.
         13    1    1    2    0    0  0.38409015756E+00 -0.26760225823E+02  0.93949709345E+02  0.97687339309E+02  0.10566000000E+00 0. -1.
        994    1    1    2    0    0 -0.21357528590E+01 -0.10297703629E+02  0.46500130373E+01  0.17158574172E+03  0.17120000000E+03 0.  0.
        998    1    1    2    0    0  0.17516627015E+01  0.37057929452E+02  0.14014002739E+04  0.14019269190E+04  0.10000000000E+02 0. -1.
</event>
<event>
 5    1  0.1321379E-008  0.3840378E+03  0.7957747E-01  0.3433763E+00
         13   -1    0    0    0    0  0.00000000000E+00  0.00000000000E+00  0.14999999963E+04  0.15000000000E+04  0.10566000000E+00 0. -1.
        994   -1    0    0    0    0 -0.00000000000E+00 -0.00000000000E+00  0.11368683772E-12  0.17120000000E+03  0.17120000000E+03 0.  0.
         13    1    1    2    0    0 -0.15907750977E+02  0.14068550174E+02  0.98650536591E+02  0.10091045624E+03  0.10566000000E+00 0. -1.
        994    1    1    2    0    0  0.19688456005E+02 -0.14807995957E+02  0.41133565718E+01  0.17301234565E+03  0.17120000000E+03 0.  0.
        998    1    1    2    0    0 -0.37807050281E+01  0.73944578304E+00  0.13972361031E+04  0.13972771981E+04  0.10000000000E+02 0. -1.
</event>
<event>
 5    1  0.1321379E-008  0.3855956E+03  0.7957747E-01  0.3427150E+00
         13   -1    0    0    0    0  0.00000000000E+00  0.00000000000E+00  0.14999999963E+04  0.15000000000E+04  0.10566000000E+00 0.  1.
        994   -1    0    0    0    0 -0.00000000000E+00 -0.00000000000E+00  0.11368683772E-12  0.17120000000E+03  0.17120000000E+03 0.  0.
         13    1    1    2    0    0 -0.45151245383E+01  0.13553600031E+02  0.75015401914E+02  0.76363657009E+02  0.10566000000E+00 0.  1.
        994    1    1    2    0    0  0.41586327236E+02 -0.20579335059E+01  0.70459475579E+01  0.17633134458E+03  0.17120000000E+03 0.  0.
        998    1    1    2    0    0 -0.37071202697E+02 -0.11495666526E+02  0.14179386468E+04  0.14185049984E+04  0.10000000000E+02 0.  1.
</event>
<event>
 5    1  0.1321379E-008  0.3845118E+03  0.7957747E-01  0.3431746E+00
         13   -1    0    0    0    0  0.00000000000E+00  0.00000000000E+00  0.14999999963E+04  0.15000000000E+04  0.10566000000E+00 0.  1.
        994   -1    0    0    0    0 -0.00000000000E+00 -0.00000000000E+00  0.11368683772E-12  0.17120000000E+03  0.17120000000E+03 0.  0.
         13    1    1    2    0    0  0.10209054190E+02  0.11382317275E+02  0.62636057186E+02  0.64475334492E+02  0.10566000000E+00 0.  1.
        994    1    1    2    0    0 -0.60950007266E+01 -0.63739688980E+01  0.21289650332E+01  0.17144021992E+03  0.17120000000E+03 0.  0.
        998    1    1    2    0    0 -0.41140534636E+01 -0.50083483774E+01  0.14352349741E+04  0.14352844456E+04  0.10000000000E+02 0.  1.
</event>
<event>
 5    1  0.1321379E-008  0.3841315E+03  0.7957747E-01  0.3433364E+00
         13   -1    0    0    0    0  0.00000000000E+00  0.00000000000E+00  0.14999999963E+04  0.15000000000E+04  0.10566000000E+00 0.  1.
        994   -1    0    0    0    0 -0.00000000000E+00 -0.00000000000E+00  0.11368683772E-12  0.17120000000E+03  0.17120000000E+03 0.  0.
         13    1    1    2    0    0 -0.15426803330E+02  0.35706790375E+01  0.60840977722E+02  0.62867891200E+02  0.10566000000E+00 0.  1.
        994    1    1    2    0    0  0.66214492664E+01 -0.12181314985E+02  0.26961662236E+01  0.17178165600E+03  0.17120000000E+03 0.  0.
        998    1    1    2    0    0  0.88053540638E+01  0.86106359472E+01  0.14364628523E+04  0.14365504528E+04  0.10000000000E+02 0.  1.
</event>
<event>
 5    1  0.1321379E-008  0.3972888E+03  0.7957747E-01  0.3379169E+00
         13   -1    0    0    0    0  0.00000000000E+00  0.00000000000E+00  0.14999999963E+04  0.15000000000E+04  0.10566000000E+00 0. -1.
        994   -1    0    0    0    0 -0.00000000000E+00 -0.00000000000E+00  0.11368683772E-12  0.17120000000E+03  0.17120000000E+03 0.  0.
         13    1    1    2    0    0  0.36609450113E+02  0.63087790106E+02  0.93473118712E+02  0.11856456546E+03  0.10566000000E+00 0. -1.
        994    1    1    2    0    0 -0.18574771769E+02 -0.49818782132E+02  0.37195297764E+02  0.18308430674E+03  0.17120000000E+03 0.  0.
        998    1    1    2    0    0 -0.18034678344E+02 -0.13269007974E+02  0.13693315798E+04  0.13695511278E+04  0.10000000000E+02 0. -1.
</event>
<event>
 5    1  0.1321379E-008  0.3798211E+03  0.7957747E-01  0.3451938E+00
         13   -1    0    0    0    0  0.00000000000E+00  0.00000000000E+00  0.14999999963E+04  0.15000000000E+04  0.10566000000E+00 0.  1.
        994   -1    0    0    0    0 -0.00000000000E+00 -0.00000000000E+00  0.11368683772E-12  0.17120000000E+03  0.17120000000E+03 0.  0.
         13    1    1    2    0    0  0.24504287237E+02  0.23232542466E+02  0.14907777869E+03  0.15285419977E+03  0.10566000000E+00 0.  1.
        994    1    1    2    0    0  0.12673813760E+02 -0.17988108389E+02  0.58447639539E+01  0.17270726350E+03  0.17120000000E+03 0.  0.
        998    1    1    2    0    0 -0.37178100997E+02 -0.52444340769E+01  0.13450774536E+04  0.13456385367E+04  0.10000000000E+02 0.  1.
</event>
<event>
 5    1  0.1321379E-008  0.4343873E+03  0.7957747E-01  0.3243898E+00
         13   -1    0    0    0    0  0.00000000000E+00  0.00000000000E+00  0.14999999963E+04  0.15000000000E+04  0.10566000000E+00 0.  1.
        994   -1    0    0    0    0 -0.00000000000E+00 -0.00000000000E+00  0.11368683772E-12  0.17120000000E+03  0.17120000000E+03 0.  0.
         13    1    1    2    0    0 -0.48044278180E+02 -0.92369243569E+01  0.44998386796E+01  0.49130775993E+02  0.10566000000E+00 0.  1.
        994    1    1    2    0    0  0.58840145908E+02  0.12294782168E+02  0.66894783743E+02  0.19338478878E+03  0.17120000000E+03 0.  0.
        998    1    1    2    0    0 -0.10795867728E+02 -0.30578578111E+01  0.14286053739E+04  0.14286844352E+04  0.10000000000E+02 0.  1.
</event>
<event>
 5    1  0.1321379E-008  0.3827585E+03  0.7957747E-01  0.3439235E+00
         13   -1    0    0    0    0  0.00000000000E+00  0.00000000000E+00  0.14999999963E+04  0.15000000000E+04  0.10566000000E+00 0.  1.
        994   -1    0    0    0    0 -0.00000000000E+00 -0.00000000000E+00  0.11368683772E-12  0.17120000000E+03  0.17120000000E+03 0.  0.
         13    1    1    2    0    0  0.33159726654E+01 -0.28980192254E+02  0.14152248448E+03  0.14449730792E+03  0.10566000000E+00 0.  1.
        994    1    1    2    0    0 -0.44049639221E+02  0.26651867531E+02  0.11578250176E+02  0.17914851000E+03  0.17120000000E+03 0.  0.
        998    1    1    2    0    0  0.40733666556E+02  0.23283247237E+01  0.13468992616E+04  0.13475541821E+04  0.10000000000E+02 0.  1.
</event>
<event>
 5    1  0.1321379E-008  0.3753026E+03  0.7957747E-01  0.3471870E+00
         13   -1    0    0    0    0  0.00000000000E+00  0.00000000000E+00  0.14999999963E+04  0.15000000000E+04  0.10566000000E+00 0.  1.
        994   -1    0    0    0    0 -0.00000000000E+00 -0.00000000000E+00  0.11368683772E-12  0.17120000000E+03  0.17120000000E+03 0.  0.
         13    1    1    2    0    0  0.27791736949E+02  0.12439998553E+02  0.74691263838E+02  0.80659347037E+02  0.10566000000E+00 0.  1.
        994    1    1    2    0    0  0.23651383542E+01  0.25979806745E+01  0.65653199265E+01  0.17136185926E+03  0.17120000000E+03 0.  0.
        998    1    1    2    0    0 -0.30156875303E+02 -0.15037979228E+02  0.14187434125E+04  0.14191787937E+04  0.10000000000E+02 0.  1.
</event>
<event>
 5    1  0.1321379E-008  0.3841075E+03  0.7957747E-01  0.3433466E+00
         13   -1    0    0    0    0  0.00000000000E+00  0.00000000000E+00  0.14999999963E+04  0.15000000000E+04  0.10566000000E+00 0. -1.
        994   -1    0    0    0    0 -0.00000000000E+00 -0.00000000000E+00  0.11368683772E-12  0.17120000000E+03  0.17120000000E+03 0.  0.
         13    1    1    2    0    0  0.11157493139E+02  0.46357129033E+01  0.34266734313E+02  0.36334552863E+02  0.10566000000E+00 0. -1.
        994    1    1    2    0    0 -0.12179332866E+02  0.55995056300E+00  0.25643147716E+01  0.17165274657E+03  0.17120000000E+03 0.  0.
        998    1    1    2    0    0  0.10218397267E+01 -0.51956634663E+01  0.14631689472E+04  0.14632127006E+04  0.10000000000E+02 0. -1.
</event>
<event>
 5    1  0.1321379E-008  0.3831998E+03  0.7957747E-01  0.3437343E+00
         13   -1    0    0    0    0  0.00000000000E+00  0.00000000000E+00  0.14999999963E+04  0.15000000000E+04  0.10566000000E+00 0. -1.
        994   -1    0    0    0    0 -0.00000000000E+00 -0.00000000000E+00  0.11368683772E-12  0.17120000000E+03  0.17120000000E+03 0.  0.
         13    1    1    2    0    0 -0.12283502898E+02  0.24230182029E+01  0.29769723515E+02  0.32295557943E+02  0.10566000000E+00 0. -1.
        994    1    1    2    0    0  0.11513324443E+02 -0.56328398310E+01  0.30702090993E+01  0.17170658609E+03  0.17120000000E+03 0.  0.
        998    1    1    2    0    0  0.77017845499E+00  0.32098216281E+01  0.14671600637E+04  0.14671978560E+04  0.10000000000E+02 0. -1.
</event>
<event>
 5    1  0.1321379E-008  0.4140364E+03  0.7957747E-01  0.3315147E+00
         13   -1    0    0    0    0  0.00000000000E+00  0.00000000000E+00  0.14999999963E+04  0.15000000000E+04  0.10566000000E+00 0. -1.
        994   -1    0    0    0    0 -0.00000000000E+00 -0.00000000000E+00  0.11368683772E-12  0.17120000000E+03  0.17120000000E+03 0.  0.
         13    1    1    2    0    0  0.36246271396E+02 -0.38327940235E+00  0.31572160931E+01  0.36385687718E+02  0.10566000000E+00 0. -1.
        994    1    1    2    0    0 -0.38912516065E+02 -0.16704281928E+01  0.42777329812E+02  0.18071058127E+03  0.17120000000E+03 0.  0.
        998    1    1    2    0    0  0.26662446687E+01  0.20537075951E+01  0.14540654504E+04  0.14541037310E+04  0.10000000000E+02 0. -1.
</event>
<event>
 5    1  0.1321379E-008  0.3725002E+03  0.7957747E-01  0.3484479E+00
         13   -1    0    0    0    0  0.00000000000E+00  0.00000000000E+00  0.14999999963E+04  0.15000000000E+04  0.10566000000E+00 0.  1.
        994   -1    0    0    0    0 -0.00000000000E+00 -0.00000000000E+00  0.11368683772E-12  0.17120000000E+03  0.17120000000E+03 0.  0.
         13    1    1    2    0    0 -0.10585763759E+02 -0.15321365739E+02  0.18468718798E+02  0.26227988496E+02  0.10566000000E+00 0.  1.
        994    1    1    2    0    0  0.51725606504E+01  0.86326882318E+01  0.83153444098E+01  0.17169701116E+03  0.17120000000E+03 0.  0.
        998    1    1    2    0    0  0.54132031084E+01  0.66886775076E+01  0.14732159331E+04  0.14732750003E+04  0.10000000000E+02 0.  1.
</event>
<event>
 5    1  0.1321379E-008  0.3802242E+03  0.7957747E-01  0.3450183E+00
         13   -1    0    0    0    0  0.00000000000E+00  0.00000000000E+00  0.14999999963E+04  0.15000000000E+04  0.10566000000E+00 0.  1.
        994   -1    0    0    0    0 -0.00000000000E+00 -0.00000000000E+00  0.11368683772E-12  0.17120000000E+03  0.17120000000E+03 0.  0.
         13    1    1    2    0    0 -0.24139620436E+02  0.15230212771E+02  0.10889391626E+03  0.11257254025E+03  0.10566000000E+00 0.  1.
        994    1    1    2    0    0 -0.34389134526E+00 -0.38010175155E+01  0.40686757544E+01  0.17129086408E+03  0.17120000000E+03 0.  0.
        998    1    1    2    0    0  0.24483511781E+02 -0.11429195255E+02  0.13870374043E+04  0.13873365957E+04  0.10000000000E+02 0.  1.
</event>
<event>
 5    1  0.1321379E-008  0.3861118E+03  0.7957747E-01  0.3424971E+00
         13   -1    0    0    0    0  0.00000000000E+00  0.00000000000E+00  0.14999999963E+04  0.15000000000E+04  0.10566000000E+00 0.  1.
        994   -1    0    0    0    0 -0.00000000000E+00 -0.00000000000E+00  0.11368683772E-12  0.17120000000E+03  0.17120000000E+03 0.  0.
         13    1    1    2    0    0 -0.82743504561E+01  0.70072372767E+01  0.53304026123E+02  0.54395740777E+02  0.10566000000E+00 0.  1.
        994    1    1    2    0    0  0.16101199416E+02 -0.34701361659E+00  0.19295287435E+01  0.17196665991E+03  0.17120000000E+03 0.  0.
        998    1    1    2    0    0 -0.78268489601E+01 -0.66602236601E+01  0.14447664414E+04  0.14448375993E+04  0.10000000000E+02 0.  1.
</event>
<event>
 5    1  0.1321379E-008  0.3852519E+03  0.7957747E-01  0.3428605E+00
         13   -1    0    0    0    0  0.00000000000E+00  0.00000000000E+00  0.14999999963E+04  0.15000000000E+04  0.10566000000E+00 0. -1.
        994   -1    0    0    0    0 -0.00000000000E+00 -0.00000000000E+00  0.11368683772E-12  0.17120000000E+03  0.17120000000E+03 0.  0.
         13    1    1    2    0    0 -0.15556746666E+02 -0.10721155333E+01  0.81492965906E+02  0.82971540029E+02  0.10566000000E+00 0. -1.
        994    1    1    2    0    0  0.90018884677E+01  0.54584516339E+01  0.18693827688E+01  0.17153356314E+03  0.17120000000E+03 0.  0.
        998    1    1    2    0    0  0.65548581983E+01 -0.43863361006E+01  0.14166376476E+04  0.14166948968E+04  0.10000000000E+02 0. -1.
</event>
<event>
 5    1  0.1321379E-008  0.3700066E+03  0.7957747E-01  0.3495861E+00
         13   -1    0    0    0    0  0.00000000000E+00  0.00000000000E+00  0.14999999963E+04  0.15000000000E+04  0.10566000000E+00 0. -1.
        994   -1    0    0    0    0 -0.00000000000E+00 -0.00000000000E+00  0.11368683772E-12  0.17120000000E+03  0.17120000000E+03 0.  0.
         13    1    1    2    0    0  0.39447849542E+02 -0.29520535163E+02  0.13298478006E+03  0.14181874955E+03  0.10566000000E+00 0. -1.
        994    1    1    2    0    0 -0.20936883206E+02  0.68262411224E+01  0.10944149804E+02  0.17295711914E+03  0.17120000000E+03 0.  0.
        998    1    1    2    0    0 -0.18510966336E+02  0.22694294040E+02  0.13560710664E+04  0.13564241313E+04  0.10000000000E+02 0. -1.
</event>
<event>
 5    1  0.1321379E-008  0.3828948E+03  0.7957747E-01  0.3438650E+00
         13   -1    0    0    0    0  0.00000000000E+00  0.00000000000E+00  0.14999999963E+04  0.15000000000E+04  0.10566000000E+00 0. -1.
        994   -1    0    0    0    0 -0.00000000000E+00 -0.00000000000E+00  0.11368683772E-12  0.17120000000E+03  0.17120000000E+03 0.  0.
         13    1    1    2    0    0  0.90742376262E+01  0.11006547596E+02  0.36266544428E+02  0.38971262326E+02  0.10566000000E+00 0. -1.
        994    1    1    2    0    0 -0.79762851116E+01 -0.13510155761E+02  0.34944034340E+01  0.17195288974E+03  0.17120000000E+03 0.  0.
        998    1    1    2    0    0 -0.10979525146E+01  0.25036081644E+01  0.14602390484E+04  0.14602758479E+04  0.10000000000E+02 0. -1.
</event>
<event>
 5    1  0.1321379E-008  0.3821660E+03  0.7957747E-01  0.3441781E+00
         13   -1    0    0    0    0  0.00000000000E+00  0.00000000000E+00  0.14999999963E+04  0.15000000000E+04  0.10566000000E+00 0.  1.
        994   -1    0    0    0    0 -0.00000000000E+00 -0.00000000000E+00  0.11368683772E-12  0.17120000000E+03  0.17120000000E+03 0.  0.
         13    1    1    2    0    0 -0.26283118404E+02 -0.34820421162E+02  0.24973621590E+03  0.25351815071E+03  0.10566000000E+00 0.  1.
        994    1    1    2    0    0  0.31917524955E+02  0.37179552140E+02  0.11054511841E+02  0.17841717891E+03  0.17120000000E+03 0.  0.
        998    1    1    2    0    0 -0.56344065511E+01 -0.23591309784E+01  0.12392092685E+04  0.12392646704E+04  0.10000000000E+02 0.  1.
</event>
<event>
 5    1  0.1321379E-008  0.3894024E+03  0.7957747E-01  0.3411213E+00
         13   -1    0    0    0    0  0.00000000000E+00  0.00000000000E+00  0.14999999963E+04  0.15000000000E+04  0.10566000000E+00 0. -1.
        994   -1    0    0    0    0 -0.00000000000E+00 -0.00000000000E+00  0.11368683772E-12  0.17120000000E+03  0.17120000000E+03 0.  0.
         13    1    1    2    0    0  0.35500597205E+02 -0.31179917971E+02  0.42694763701E+02  0.63681502009E+02  0.10566000000E+00 0. -1.
        994    1    1    2    0    0 -0.45648134554E+02  0.15921039277E+02  0.30416051364E+02  0.18047661306E+03  0.17120000000E+03 0.  0.
        998    1    1    2    0    0  0.10147537349E+02  0.15258878694E+02  0.14268891812E+04  0.14270418849E+04  0.10000000000E+02 0. -1.
</event>
<event>
 5    1  0.1321379E-008  0.3813675E+03  0.7957747E-01  0.3445226E+00
         13   -1    0    0    0    0  0.00000000000E+00  0.00000000000E+00  0.14999999963E+04  0.15000000000E+04  0.10566000000E+00 0.  1.
        994   -1    0    0    0    0 -0.00000000000E+00 -0.00000000000E+00  0.11368683772E-12  0.17120000000E+03  0.17120000000E+03 0.  0.
         13    1    1    2    0    0 -0.13701586783E+01  0.25018972296E+02  0.82615621857E+02  0.86331792802E+02  0.10566000000E+00 0.  1.
        994    1    1    2    0    0 -0.18272105128E+02 -0.33872813134E+02  0.83895369140E+01  0.17567316706E+03  0.17120000000E+03 0.  0.
        998    1    1    2    0    0  0.19642263806E+02  0.88538408374E+01  0.14089948375E+04  0.14091950401E+04  0.10000000000E+02 0.  1.
</event>
<event>
 5    1  0.1321379E-008  0.3833388E+03  0.7957747E-01  0.3436748E+00
         13   -1    0    0    0    0  0.00000000000E+00  0.00000000000E+00  0.14999999963E+04  0.15000000000E+04  0.10566000000E+00 0. -1.
        994   -1    0    0    0    0 -0.00000000000E+00 -0.00000000000E+00  0.11368683772E-12  0.17120000000E+03  0.17120000000E+03 0.  0.
         13    1    1    2    0    0 -0.10020308646E+02 -0.23132921938E+02  0.12137586613E+03  0.12396632892E+03  0.10566000000E+00 0. -1.
        994    1    1    2    0    0  0.96289251577E+01  0.21510376067E+02  0.42957390345E+01  0.17286788554E+03  0.17120000000E+03 0.  0.
        998    1    1    2    0    0  0.39138348805E+00  0.16225458718E+01  0.13743283911E+04  0.13743657855E+04  0.10000000000E+02 0.  0.
</event>
<event>
 5    1  0.1321379E-008  0.3823733E+03  0.7957747E-01  0.3440889E+00
         13   -1    0    0    0    0  0.00000000000E+00  0.00000000000E+00  0.14999999963E+04  0.15000000000E+04  0.10566000000E+00 0. -1.
        994   -1    0    0    0    0 -0.00000000000E+00 -0.00000000000E+00  0.11368683772E-12  0.17120000000E+03  0.17120000000E+03 0.  0.
         13    1    1    2    0    0  0.18103423485E+02  0.24218505432E+02  0.17385548016E+03  0.17646531980E+03  0.10566000000E+00 0. -1.
        994    1    1    2    0    0  0.18429789938E+01 -0.57384896958E+01  0.30603967567E+01  0.17133339681E+03  0.17120000000E+03 0.  0.
        998    1    1    2    0    0 -0.19946402479E+02 -0.18480015736E+02  0.13230841194E+04  0.13234012834E+04  0.10000000000E+02 0. -1.
</event>
<event>
 5    1  0.1321379E-008  0.3795276E+03  0.7957747E-01  0.3453218E+00
         13   -1    0    0    0    0  0.00000000000E+00  0.00000000000E+00  0.14999999963E+04  0.15000000000E+04  0.10566000000E+00 0. -1.
        994   -1    0    0    0    0 -0.00000000000E+00 -0.00000000000E+00  0.11368683772E-12  0.17120000000E+03  0.17120000000E+03 0.  0.
         13    1    1    2    0    0  0.50469226940E+02 -0.28175007335E+02  0.33954565850E+03  0.34443031121E+03  0.10566000000E+00 0. -1.
        994    1    1    2    0    0 -0.32248618780E+02  0.34797390754E+02  0.11945026371E+02  0.17805323775E+03  0.17120000000E+03 0.  0.
        998    1    1    2    0    0 -0.18220608160E+02 -0.66223834185E+01  0.11485093114E+04  0.11487164510E+04  0.10000000000E+02 0. -1.
</event>
<event>
 5    1  0.1321379E-008  0.3776965E+03  0.7957747E-01  0.3461250E+00
         13   -1    0    0    0    0  0.00000000000E+00  0.00000000000E+00  0.14999999963E+04  0.15000000000E+04  0.10566000000E+00 0.  1.
        994   -1    0    0    0    0 -0.00000000000E+00 -0.00000000000E+00  0.11368683772E-12  0.17120000000E+03  0.17120000000E+03 0.  0.
         13    1    1    2    0    0 -0.23228744146E+02  0.29833647254E+02  0.13408709523E+03  0.13931612016E+03  0.10566000000E+00 0.  1.
        994    1    1    2    0    0  0.18845118030E+02 -0.11953406399E+02  0.69799199191E+01  0.17278941426E+03  0.17120000000E+03 0.  0.
        998    1    1    2    0    0  0.43836261162E+01 -0.17880240855E+02  0.13589329811E+04  0.13590944656E+04  0.10000000000E+02 0.  1.
</event>
<event>
 5    1  0.1321379E-008  0.3684817E+03  0.7957747E-01  0.3502898E+00
         13   -1    0    0    0    0  0.00000000000E+00  0.00000000000E+00  0.14999999963E+04  0.15000000000E+04  0.10566000000E+00 0. -1.
        994   -1    0    0    0    0 -0.00000000000E+00 -0.00000000000E+00  0.11368683772E-12  0.17120000000E+03  0.17120000000E+03 0.  0.
         13    1    1    2    0    0 -0.19619460590E+02  0.35025686714E+02  0.72489387181E+02  0.82864011378E+02  0.10566000000E+00 0. -1.
        994    1    1    2    0    0  0.20029254856E+02 -0.34614746990E+02  0.15720574967E+02  0.17651041963E+03  0.17120000000E+03 0.  0.
        998    1    1    2    0    0 -0.40979426542E+00 -0.41093972336E+00  0.14117900341E+04  0.14118255690E+04  0.10000000000E+02 0. -1.
</event>
<event>
 5    1  0.1321379E-008  0.3838370E+03  0.7957747E-01  0.3434620E+00
         13   -1    0    0    0    0  0.00000000000E+00  0.00000000000E+00  0.14999999963E+04  0.15000000000E+04  0.10566000000E+00 0. -1.
        994   -1    0    0    0    0 -0.00000000000E+00 -0.00000000000E+00  0.11368683772E-12  0.17120000000E+03  0.17120000000E+03 0.  0.
         13    1    1    2    0    0  0.26515101155E+01  0.27992007865E+02  0.15632792093E+03  0.15883643485E+03  0.10566000000E+00 0. -1.
        994    1    1    2    0    0 -0.70479669371E+01 -0.32041671557E+02  0.57698815125E+01  0.17441064786E+03  0.17120000000E+03 0.  0.
        998    1    1    2    0    0  0.43964568216E+01  0.40496636913E+01  0.13379021938E+04  0.13379529173E+04  0.10000000000E+02 0.  0.
</event>
<event>
 5    1  0.1321379E-008  0.3699468E+03  0.7957747E-01  0.3496135E+00
         13   -1    0    0    0    0  0.00000000000E+00  0.00000000000E+00  0.14999999963E+04  0.15000000000E+04  0.10566000000E+00 0.  1.
        994   -1    0    0    0    0 -0.00000000000E+00 -0.00000000000E+00  0.11368683772E-12  0.17120000000E+03  0.17120000000E+03 0.  0.
         13    1    1    2    0    0 -0.30810251896E+02 -0.10301556805E+02  0.56605766007E+02  0.65265746022E+02  0.10566000000E+00 0.  1.
        994    1    1    2    0    0 -0.51332398116E+01  0.17647643328E+02  0.10465905347E+02  0.17250149171E+03  0.17120000000E+03 0.  0.
        998    1    1    2    0    0  0.35943491708E+02 -0.73460865221E+01  0.14329283249E+04  0.14334327623E+04  0.10000000000E+02 0.  1.
</event>
<event>
 5    1  0.1321379E-008  0.3855836E+03  0.7957747E-01  0.3427201E+00
         13   -1    0    0    0    0  0.00000000000E+00  0.00000000000E+00  0.14999999963E+04  0.15000000000E+04  0.10566000000E+00 0. -1.
        994   -1    0    0    0    0 -0.00000000000E+00 -0.00000000000E+00  0.11368683772E-12  0.17120000000E+03  0.17120000000E+03 0.  0.
         13    1    1    2    0    0  0.26533013583E+01  0.10552201618E+02  0.44850432060E+02  0.46151504711E+02  0.10566000000E+00 0. -1.
        994    1    1    2    0    0  0.11560692117E+01 -0.59440208391E+01  0.14610462735E+01  0.17131328768E+03  0.17120000000E+03 0.  0.
        998    1    1    2    0    0 -0.38093705700E+01 -0.46081807789E+01  0.14536885179E+04  0.14537352076E+04  0.10000000000E+02 0. -1.
</event>
<event>
 5    1  0.1321379E-008  0.3795820E+03  0.7957747E-01  0.3452981E+00
         13   -1    0    0    0    0  0.00000000000E+00  0.00000000000E+00  0.14999999963E+04  0.15000000000E+04  0.10566000000E+00 0. -1.
        994   -1    0    0    0    0 -0.00000000000E+00 -0.00000000000E+00  0.11368683772E-12  0.17120000000E+03  0.17120000000E+03 0.  0.
         13    1    1    2    0    0  0.13533078431E+01 -0.21944772895E+02  0.52118891075E+02  0.56566725824E+02  0.10566000000E+00 0. -1.
        994    1    1    2    0    0 -0.92211025226E+00  0.23786951871E+02  0.62435516350E+01  0.17295979678E+03  0.17120000000E+03 0.  0.
        998    1    1    2    0    0 -0.43119759085E+00 -0.18421789753E+01  0.14416375536E+04  0.14416734774E+04  0.10000000000E+02 0. -1.
</event>
<event>
 5    1  0.1321379E-008  0.3709520E+03  0.7957747E-01  0.3491527E+00
         13   -1    0    0    0    0  0.00000000000E+00  0.00000000000E+00  0.14999999963E+04  0.15000000000E+04  0.10566000000E+00 0.  1.
        994   -1    0    0    0    0 -0.00000000000E+00 -0.00000000000E+00  0.11368683772E-12  0.17120000000E+03  0.17120000000E+03 0.  0.
         13    1    1    2    0    0 -0.78919521555E+02 -0.65410822969E+01  0.30257202044E+03  0.31276335361E+03  0.10566000000E+00 0.  1.
        994    1    1    2    0    0  0.69267825613E+02  0.60255351274E+01  0.25622174713E+02  0.18654831700E+03  0.17120000000E+03 0.  0.
        998    1    1    2    0    0  0.96516959419E+01  0.51554716947E+00  0.11718058011E+04  0.11718883294E+04  0.10000000000E+02 0.  1.
</event>
<event>
 5    1  0.1321379E-008  0.3784376E+03  0.7957747E-01  0.3457990E+00
         13   -1    0    0    0    0  0.00000000000E+00  0.00000000000E+00  0.14999999963E+04  0.15000000000E+04  0.10566000000E+00 0. -1.
        994   -1    0    0    0    0 -0.00000000000E+00 -0.00000000000E+00  0.11368683772E-12  0.17120000000E+03  0.17120000000E+03 0.  0.
         13    1    1    2    0    0  0.49018308444E+02  0.21769043250E+02  0.29638365580E+03  0.30119755708E+03  0.10566000000E+00 0. -1.
        994    1    1    2    0    0 -0.16248446008E+02 -0.35880376830E+02  0.10154804337E+02  0.17596583046E+03  0.17120000000E+03 0.  0.
        998    1    1    2    0    0 -0.32769862436E+02  0.14111333580E+02  0.11934615361E+04  0.11940366125E+04  0.10000000000E+02 0. -1.
</event>
<event>
 5    1  0.1321379E-008  0.3839479E+03  0.7957747E-01  0.3434147E+00
         13   -1    0    0    0    0  0.00000000000E+00  0.00000000000E+00  0.14999999963E+04  0.15000000000E+04  0.10566000000E+00 0.  1.
        994   -1    0    0    0    0 -0.00000000000E+00 -0.00000000000E+00  0.11368683772E-12  0.17120000000E+03  0.17120000000E+03 0.  0.
         13    1    1    2    0    0  0.12027444549E+02 -0.97320997272E+01  0.52239982542E+02  0.54483026049E+02  0.10566000000E+00 0.  1.
        994    1    1    2    0    0 -0.15455766097E+02  0.14160588018E+02  0.36047138515E+01  0.17251619321E+03  0.17120000000E+03 0.  0.
        998    1    1    2    0    0  0.34283215476E+01 -0.44284882911E+01  0.14441552999E+04  0.14442007807E+04  0.10000000000E+02 0.  1.
</event>
<event>
 5    1  0.1321379E-008  0.3857815E+03  0.7957747E-01  0.3426365E+00
         13   -1    0    0    0    0  0.00000000000E+00  0.00000000000E+00  0.14999999963E+04  0.15000000000E+04  0.10566000000E+00 0. -1.
        994   -1    0    0    0    0 -0.00000000000E+00 -0.00000000000E+00  0.11368683772E-12  0.17120000000E+03  0.17120000000E+03 0.  0.
         13    1    1    2    0    0 -0.10672167761E+02 -0.57658323191E+00  0.46746444274E+02  0.47952777075E+02  0.10566000000E+00 0. -1.
        994    1    1    2    0    0  0.54058843745E+01  0.73427998280E+01  0.15154309859E+01  0.17144934187E+03  0.17120000000E+03 0.  0.
        998    1    1    2    0    0  0.52662833863E+01 -0.67662165961E+01  0.14517381210E+04  0.14517978811E+04  0.10000000000E+02 0. -1.
</event>
<event>
 5    1  0.1321379E-008  0.3846670E+03  0.7957747E-01  0.3431086E+00
         13   -1    0    0    0    0  0.00000000000E+00  0.00000000000E+00  0.14999999963E+04  0.15000000000E+04  0.10566000000E+00 0.  1.
        994   -1    0    0    0    0 -0.00000000000E+00 -0.00000000000E+00  0.11368683772E-12  0.17120000000E+03  0.17120000000E+03 0.  0.
         13    1    1    2    0    0 -0.33178164867E+01  0.16930791513E+02  0.80707212654E+02  0.82530751516E+02  0.10566000000E+00 0.  1.
        994    1    1    2    0    0  0.39117715553E+01 -0.14393838695E+02  0.25283721442E+01  0.17186714990E+03  0.17120000000E+03 0.  0.
        998    1    1    2    0    0 -0.59395506868E+00 -0.25369528179E+01  0.14167644115E+04  0.14168020986E+04  0.10000000000E+02 0.  1.
</event>
<event>
 5    1  0.1321379E-008  0.3844345E+03  0.7957747E-01  0.3432074E+00
         13   -1    0    0    0    0  0.00000000000E+00  0.00000000000E+00  0.14999999963E+04  0.15000000000E+04  0.10566000000E+00 0.  1.
        994   -1    0    0    0    0 -0.00000000000E+00 -0.00000000000E+00  0.11368683772E-12  0.17120000000E+03  0.17120000000E+03 0.  0.
         13    1    1    2    0    0  0.97886217813E+01 -0.62334561539E+01  0.34069390606E+02  0.35991771731E+02  0.10566000000E+00 0.  1.
        994    1    1    2    0    0 -0.92364269670E+01  0.96219416830E+01  0.24974935129E+01  0.17173692328E+03  0.17120000000E+03 0.  0.
        998    1    1    2    0    0 -0.55219481429E+00 -0.33884855290E+01  0.14634331122E+04  0.14634713050E+04  0.10000000000E+02 0.  1.
</event>
<event>
 5    1  0.1321379E-008  0.3847256E+03  0.7957747E-01  0.3430837E+00
         13   -1    0    0    0    0  0.00000000000E+00  0.00000000000E+00  0.14999999963E+04  0.15000000000E+04  0.10566000000E+00 0. -1.
        994   -1    0    0    0    0 -0.00000000000E+00 -0.00000000000E+00  0.11368683772E-12  0.17120000000E+03  0.17120000000E+03 0.  0.
         13    1    1    2    0    0 -0.10313669591E+02 -0.49505688989E+01  0.38922352469E+02  0.40568961025E+02  0.10566000000E+00 0. -1.
        994    1    1    2    0    0 -0.42291351438E+00 -0.83162543390E+01  0.19946788695E+01  0.17141399501E+03  0.17120000000E+03 0.  0.
        998    1    1    2    0    0  0.10736583106E+02  0.13266823238E+02  0.14590829649E+04  0.14592170440E+04  0.10000000000E+02 0. -1.
</event>
<event>
 5    1  0.1321379E-008  0.3811276E+03  0.7957747E-01  0.3446263E+00
         13   -1    0    0    0    0  0.00000000000E+00  0.00000000000E+00  0.14999999963E+04  0.15000000000E+04  0.10566000000E+00 0.  1.
        994   -1    0    0    0    0 -0.00000000000E+00 -0.00000000000E+00  0.11368683772E-12  0.17120000000E+03  0.17120000000E+03 0.  0.
         13    1    1    2    0    0 -0.66082198417E+00  0.10921316404E+02  0.15211221636E+02  0.18737776425E+02  0.10566000000E+00 0.  1.
        994    1    1    2    0    0  0.19935856747E+02 -0.84359135369E+01  0.51272775887E+01  0.17263931185E+03  0.17120000000E+03 0.  0.
        998    1    1    2    0    0 -0.19275034763E+02 -0.24854028667E+01  0.14796614971E+04  0.14798229117E+04  0.10000000000E+02 0.  1.
</event>
<event>
 5    1  0.1321379E-008  0.3831789E+03  0.7957747E-01  0.3437433E+00
         13   -1    0    0    0    0  0.00000000000E+00  0.00000000000E+00  0.14999999963E+04  0.15000000000E+04  0.10566000000E+00 0. -1.
        994   -1    0    0    0    0 -0.00000000000E+00 -0.00000000000E+00  0.11368683772E-12  0.17120000000E+03  0.17120000000E+03 0.  0.
         13    1    1    2    0    0  0.15694037558E+02 -0.14979850452E+01  0.47661367363E+02  0.50201233820E+02  0.10566000000E+00 0. -1.
        994    1    1    2    0    0 -0.12825061541E+02  0.39681527597E+01  0.31334558313E+01  0.17175414692E+03  0.17120000000E+03 0.  0.
        998    1    1    2    0    0 -0.28689760163E+01 -0.24701677145E+01  0.14492051731E+04  0.14492446193E+04  0.10000000000E+02 0. -1.
</event>
<event>
 5    1  0.1321379E-008  0.3783250E+03  0.7957747E-01  0.3458484E+00
         13   -1    0    0    0    0  0.00000000000E+00  0.00000000000E+00  0.14999999963E+04  0.15000000000E+04  0.10566000000E+00 0. -1.
        994   -1    0    0    0    0 -0.00000000000E+00 -0.00000000000E+00  0.11368683772E-12  0.17120000000E+03  0.17120000000E+03 0.  0.
         13    1    1    2    0    0 -0.35361203423E+02  0.51080674602E+01  0.11458398183E+03  0.12002502704E+03  0.10566000000E+00 0. -1.
        994    1    1    2    0    0  0.39759944058E+02 -0.11062860545E+02  0.10727984124E+02  0.17643063702E+03  0.17120000000E+03 0.  0.
        998    1    1    2    0    0 -0.43987406349E+01  0.59547930845E+01  0.13746880303E+04  0.13747443359E+04  0.10000000000E+02 0. -1.
</event>
<event>
 5    1  0.1321379E-008  0.4537107E+03  0.7957747E-01  0.3182013E+00
         13   -1    0    0    0    0  0.00000000000E+00  0.00000000000E+00  0.14999999963E+04  0.15000000000E+04  0.10566000000E+00 0.  1.
        994   -1    0    0    0    0 -0.00000000000E+00 -0.00000000000E+00  0.11368683772E-12  0.17120000000E+03  0.17120000000E+03 0.  0.
         13    1    1    2    0    0  0.82304631459E+02  0.87973795283E+02  0.11032658055E+03  0.16335668507E+03  0.10566000000E+00 0.  1.
        994    1    1    2    0    0 -0.11089125052E+03  0.55401253551E+02  0.14914219188E+03  0.25868707300E+03  0.17120000000E+03 0.  0.
        998    1    1    2    0    0  0.28586619064E+02 -0.14337504883E+03  0.12405312239E+04  0.12491562419E+04  0.10000000000E+02 0.  1.
</event>
<event>
 5    1  0.1321379E-008  0.3825406E+03  0.7957747E-01  0.3440170E+00
         13   -1    0    0    0    0  0.00000000000E+00  0.00000000000E+00  0.14999999963E+04  0.15000000000E+04  0.10566000000E+00 0.  1.
        994   -1    0    0    0    0 -0.00000000000E+00 -0.00000000000E+00  0.11368683772E-12  0.17120000000E+03  0.17120000000E+03 0.  0.
         13    1    1    2    0    0 -0.69512991695E+01  0.12928951757E+02  0.35886694094E+02  0.38772984548E+02  0.10566000000E+00 0.  1.
        994    1    1    2    0    0  0.14131442774E+02 -0.10793971356E+02  0.39050601192E+01  0.17216531877E+03  0.17120000000E+03 0.  0.
        998    1    1    2    0    0 -0.71801436049E+01 -0.21349804008E+01  0.14602082421E+04  0.14602616967E+04  0.10000000000E+02 0.  1.
</event>
<event>
 5    1  0.1321379E-008  0.3752713E+03  0.7957747E-01  0.3472010E+00
         13   -1    0    0    0    0  0.00000000000E+00  0.00000000000E+00  0.14999999963E+04  0.15000000000E+04  0.10566000000E+00 0.  1.
        994   -1    0    0    0    0 -0.00000000000E+00 -0.00000000000E+00  0.11368683772E-12  0.17120000000E+03  0.17120000000E+03 0.  0.
         13    1    1    2    0    0  0.12522663481E+02  0.22706171170E+02  0.18791315272E+02  0.32023616341E+02  0.10566000000E+00 0.  1.
        994    1    1    2    0    0 -0.19834677540E+02 -0.73173920511E+01  0.15347213775E+02  0.17318179936E+03  0.17120000000E+03 0.  0.
        998    1    1    2    0    0  0.73120140584E+01 -0.15388779119E+02  0.14658614672E+04  0.14659945843E+04  0.10000000000E+02 0.  1.
</event>
<event>
 5    1  0.1321379E-008  0.3842243E+03  0.7957747E-01  0.3432969E+00
         13   -1    0    0    0    0  0.00000000000E+00  0.00000000000E+00  0.14999999963E+04  0.15000000000E+04  0.10566000000E+00 0. -1.
        994   -1    0    0    0    0 -0.00000000000E+00 -0.00000000000E+00  0.11368683772E-12  0.17120000000E+03  0.17120000000E+03 0.  0.
         13    1    1    2    0    0  0.11650963573E+02  0.98823796785E+01  0.61312345644E+02  0.63187192315E+02  0.10566000000E+00 0. -1.
        994    1    1    2    0    0  0.11195523892E+02 -0.11712469883E+02  0.28817278017E+01  0.17198914518E+03  0.17120000000E+03 0.  0.
        998    1    1    2    0    0 -0.22846487465E+02  0.18300902048E+01  0.14358059228E+04  0.14360236625E+04  0.10000000000E+02 0. -1.
</event>
<event>
 5    1  0.1321379E-008  0.3855921E+03  0.7957747E-01  0.3427165E+00
         13   -1    0    0    0    0  0.00000000000E+00  0.00000000000E+00  0.14999999963E+04  0.15000000000E+04  0.10566000000E+00 0. -1.
        994   -1    0    0    0    0 -0.00000000000E+00 -0.00000000000E+00  0.11368683772E-12  0.17120000000E+03  0.17120000000E+03 0.  0.
         13    1    1    2    0    0  0.95759937001E+01  0.34098271436E+01  0.39378452380E+02  0.40669401918E+02  0.10566000000E+00 0. -1.
        994    1    1    2    0    0 -0.32838698232E+01 -0.34000795199E+01  0.14098241500E+01  0.17127104818E+03  0.17120000000E+03 0.  0.
        998    1    1    2    0    0 -0.62921238770E+01 -0.97476236560E-02  0.14592117197E+04  0.14592595499E+04  0.10000000000E+02 0. -1.
</event>
<event>
 5    1  0.1321379E-008  0.3751474E+03  0.7957747E-01  0.3472564E+00
         13   -1    0    0    0    0  0.00000000000E+00  0.00000000000E+00  0.14999999963E+04  0.15000000000E+04  0.10566000000E+00 0. -1.
        994   -1    0    0    0    0 -0.00000000000E+00 -0.00000000000E+00  0.11368683772E-12  0.17120000000E+03  0.17120000000E+03 0.  0.
         13    1    1    2    0    0  0.15808028169E+02  0.52789927470E+02  0.19073675573E+03  0.19853763207E+03  0.10566000000E+00 0. -1.
        994    1    1    2    0    0  0.35435403697E+01 -0.67136971715E+02  0.22117835208E+02  0.18525271465E+03  0.17120000000E+03 0.  0.
        998    1    1    2    0    0 -0.19351568539E+02  0.14347044245E+02  0.12871454053E+04  0.12874096533E+04  0.10000000000E+02 0. -1.
</event>
<event>
 5    1  0.1321379E-008  0.3847067E+03  0.7957747E-01  0.3430917E+00
         13   -1    0    0    0    0  0.00000000000E+00  0.00000000000E+00  0.14999999963E+04  0.15000000000E+04  0.10566000000E+00 0.  1.
        994   -1    0    0    0    0 -0.00000000000E+00 -0.00000000000E+00  0.11368683772E-12  0.17120000000E+03  0.17120000000E+03 0.  0.
         13    1    1    2    0    0  0.98937913318E+01 -0.16162499389E+02  0.93963939746E+02  0.95855863827E+02  0.10566000000E+00 0.  1.
        994    1    1    2    0    0 -0.15327193441E+02  0.16529137839E+02  0.34502693672E+01  0.17271212932E+03  0.17120000000E+03 0.  0.
        998    1    1    2    0    0  0.54334021090E+01 -0.36663845065E+00  0.14025857872E+04  0.14026320069E+04  0.10000000000E+02 0.  1.
</event>
<event>
 5    1  0.1321379E-008  0.3859339E+03  0.7957747E-01  0.3425721E+00
         13   -1    0    0    0    0  0.00000000000E+00  0.00000000000E+00  0.14999999963E+04  0.15000000000E+04  0.10566000000E+00 0. -1.
        994   -1    0    0    0    0 -0.00000000000E+00 -0.00000000000E+00  0.11368683772E-12  0.17120000000E+03  0.17120000000E+03 0.  0.
         13    1    1    2    0    0  0.62176061676E+01 -0.11801651560E+02  0.79574508312E+02  0.80684887948E+02  0.10566000000E+00 0. -1.
        994    1    1    2    0    0 -0.59843296200E+01  0.23521837179E+01  0.13027480035E+01  0.17132566101E+03  0.17120000000E+03 0.  0.
        998    1    1    2    0    0 -0.23327654760E+00  0.94494678417E+01  0.14191227400E+04  0.14191894510E+04  0.10000000000E+02 0. -1.
</event>
<event>
 5    1  0.1321379E-008  0.3837055E+03  0.7957747E-01  0.3435181E+00
         13   -1    0    0    0    0  0.00000000000E+00  0.00000000000E+00  0.14999999963E+04  0.15000000000E+04  0.10566000000E+00 0.  1.
        994   -1    0    0    0    0 -0.00000000000E+00 -0.00000000000E+00  0.11368683772E-12  0.17120000000E+03  0.17120000000E+03 0.  0.
         13    1    1    2    0    0  0.12818849069E+02 -0.84987247674E+01  0.51020130597E+02  0.53288048419E+02  0.10566000000E+00 0.  1.
        994    1    1    2    0    0 -0.16288961453E+02 -0.29308559909E+01  0.31793589744E+01  0.17202752252E+03  0.17120000000E+03 0.  0.
        998    1    1    2    0    0  0.34701123840E+01  0.11429580758E+02  0.14458005067E+04  0.14458844291E+04  0.10000000000E+02 0.  1.
</event>
<event>
 5    1  0.1321379E-008  0.3824251E+03  0.7957747E-01  0.3440666E+00
         13   -1    0    0    0    0  0.00000000000E+00  0.00000000000E+00  0.14999999963E+04  0.15000000000E+04  0.10566000000E+00 0.  1.
        994   -1    0    0    0    0 -0.00000000000E+00 -0.00000000000E+00  0.11368683772E-12  0.17120000000E+03  0.17120000000E+03 0.  0.
         13    1    1    2    0    0 -0.21956367254E+02  0.35299142305E+01  0.95660483466E+02  0.98211412872E+02  0.10566000000E+00 0.  1.
        994    1    1    2    0    0 -0.86611633220E+01 -0.44664581670E+01  0.32289325038E+01  0.17150752463E+03  0.17120000000E+03 0.  0.
        998    1    1    2    0    0  0.30617530576E+02  0.93654393646E+00  0.14011105803E+04  0.14014810625E+04  0.10000000000E+02 0.  1.
</event>
<event>
 5    1  0.1321379E-008  0.3854477E+03  0.7957747E-01  0.3427776E+00
         13   -1    0    0    0    0  0.00000000000E+00  0.00000000000E+00  0.14999999963E+04  0.15000000000E+04  0.10566000000E+00 0. -1.
        994   -1    0    0    0    0 -0.00000000000E+00 -0.00000000000E+00  0.11368683772E-12  0.17120000000E+03  0.17120000000E+03 0.  0.
         13    1    1    2    0    0  0.97273310649E+02 -0.27943131212E+02  0.23868269033E+03  0.25925345393E+03  0.10566000000E+00 0. -1.
        994    1    1    2    0    0 -0.75442793228E+02  0.30273275738E+02  0.44219389828E+02  0.19460955966E+03  0.17120000000E+03 0.  0.
        998    1    1    2    0    0 -0.21830517421E+02 -0.23301445267E+01  0.12170979161E+04  0.12173369864E+04  0.10000000000E+02 0. -1.
</event>
<event>
 5    1  0.1321379E-008  0.3816937E+03  0.7957747E-01  0.3443817E+00
         13   -1    0    0    0    0  0.00000000000E+00  0.00000000000E+00  0.14999999963E+04  0.15000000000E+04  0.10566000000E+00 0.  1.
        994   -1    0    0    0    0 -0.00000000000E+00 -0.00000000000E+00  0.11368683772E-12  0.17120000000E+03  0.17120000000E+03 0.  0.
         13    1    1    2    0    0 -0.24329145329E+02  0.10504612814E+02  0.10115807149E+03  0.10457160606E+03  0.10566000000E+00 0.  1.
        994    1    1    2    0    0  0.17650512418E+02 -0.20866393387E+02  0.57676579610E+01  0.17346369315E+03  0.17120000000E+03 0.  0.
        998    1    1    2    0    0  0.66786329107E+01  0.10361780573E+02  0.13930742668E+04  0.13931647008E+04  0.10000000000E+02 0.  1.
</event>
<event>
 5    1  0.1321379E-008  0.3794404E+03  0.7957747E-01  0.3453599E+00
         13   -1    0    0    0    0  0.00000000000E+00  0.00000000000E+00  0.14999999963E+04  0.15000000000E+04  0.10566000000E+00 0. -1.
        994   -1    0    0    0    0 -0.00000000000E+00 -0.00000000000E+00  0.11368683772E-12  0.17120000000E+03  0.17120000000E+03 0.  0.
         13    1    1    2    0    0  0.18484129167E+01 -0.12033717311E+02  0.16919741261E+02  0.20845042361E+02  0.10566000000E+00 0. -1.
        994    1    1    2    0    0  0.16935351617E+01 -0.43676194130E+02  0.10841009387E+02  0.17702385568E+03  0.17120000000E+03 0.  0.
        998    1    1    2    0    0 -0.35419480784E+01  0.55709911441E+02  0.14722392456E+04  0.14733311020E+04  0.10000000000E+02 0. -1.
</event>
<event>
 5    1  0.1321379E-008  0.3800972E+03  0.7957747E-01  0.3450735E+00
         13   -1    0    0    0    0  0.00000000000E+00  0.00000000000E+00  0.14999999963E+04  0.15000000000E+04  0.10566000000E+00 0. -1.
        994   -1    0    0    0    0 -0.00000000000E+00 -0.00000000000E+00  0.11368683772E-12  0.17120000000E+03  0.17120000000E+03 0.  0.
         13    1    1    2    0    0 -0.11702890904E+03  0.27710688592E+02  0.62383987782E+03  0.63532657125E+03  0.10566000000E+00 0. -1.
        994    1    1    2    0    0  0.14229241376E+03 -0.51682581714E+02  0.84915673676E+02  0.24379977830E+03  0.17120000000E+03 0.  0.
        998    1    1    2    0    0 -0.25263504720E+02  0.23971893123E+02  0.79124444478E+03  0.79207365045E+03  0.10000000000E+02 0. -1.
</event>
<event>
 5    1  0.1321379E-008  0.3867791E+03  0.7957747E-01  0.3422162E+00
         13   -1    0    0    0    0  0.00000000000E+00  0.00000000000E+00  0.14999999963E+04  0.15000000000E+04  0.10566000000E+00 0. -1.
        994   -1    0    0    0    0 -0.00000000000E+00 -0.00000000000E+00  0.11368683772E-12  0.17120000000E+03  0.17120000000E+03 0.  0.
         13    1    1    2    0    0 -0.83496472512E+02  0.72767959723E+02  0.26570241052E+03  0.28786215278E+03  0.10566000000E+00 0. -1.
        994    1    1    2    0    0  0.93706270313E+02 -0.35188465571E+02  0.58373809178E+02  0.20672695713E+03  0.17120000000E+03 0.  0.
        998    1    1    2    0    0 -0.10209797801E+02 -0.37579494151E+02  0.11759237766E+04  0.11766108901E+04  0.10000000000E+02 0. -1.
</event>
<event>
 5    1  0.1321379E-008  0.3690540E+03  0.7957747E-01  0.3500250E+00
         13   -1    0    0    0    0  0.00000000000E+00  0.00000000000E+00  0.14999999963E+04  0.15000000000E+04  0.10566000000E+00 0. -1.
        994   -1    0    0    0    0 -0.00000000000E+00 -0.00000000000E+00  0.11368683772E-12  0.17120000000E+03  0.17120000000E+03 0.  0.
         13    1    1    2    0    0  0.42620109051E+02  0.10202502462E+03  0.47034290785E+03  0.48316461116E+03  0.10566000000E+00 0. -1.
        994    1    1    2    0    0 -0.32943957455E+02 -0.83976620311E+02  0.39357516556E+02  0.19747362153E+03  0.17120000000E+03 0.  0.
        998    1    1    2    0    0 -0.96761515953E+01 -0.18048404313E+02  0.99029957187E+03  0.99056176731E+03  0.10000000000E+02 0. -1.
</event>
<event>
 5    1  0.1321379E-008  0.3826306E+03  0.7957747E-01  0.3439784E+00
         13   -1    0    0    0    0  0.00000000000E+00  0.00000000000E+00  0.14999999963E+04  0.15000000000E+04  0.10566000000E+00 0.  1.
        994   -1    0    0    0    0 -0.00000000000E+00 -0.00000000000E+00  0.11368683772E-12  0.17120000000E+03  0.17120000000E+03 0.  0.
         13    1    1    2    0    0 -0.63580825949E+01  0.16121450088E+02  0.50875580120E+02  0.53746275999E+02  0.10566000000E+00 0.  1.
        994    1    1    2    0    0  0.49416608872E+01 -0.18074007555E+02  0.39755083239E+01  0.17226820492E+03  0.17120000000E+03 0.  0.
        998    1    1    2    0    0  0.14164217078E+01  0.19525574669E+01  0.14451489078E+04  0.14451855191E+04  0.10000000000E+02 0.  1.
</event>
<event>
 5    1  0.1321379E-008  0.3789752E+03  0.7957747E-01  0.3455633E+00
         13   -1    0    0    0    0  0.00000000000E+00  0.00000000000E+00  0.14999999963E+04  0.15000000000E+04  0.10566000000E+00 0. -1.
        994   -1    0    0    0    0 -0.00000000000E+00 -0.00000000000E+00  0.11368683772E-12  0.17120000000E+03  0.17120000000E+03 0.  0.
         13    1    1    2    0    0  0.10554358646E+02 -0.44105372255E+01  0.12218107269E+02  0.16737402257E+02  0.10566000000E+00 0. -1.
        994    1    1    2    0    0 -0.27875650640E+01 -0.37151404048E+01  0.47237259972E+01  0.17132812488E+03  0.17120000000E+03 0.  0.
        998    1    1    2    0    0 -0.77667935818E+01  0.81256776303E+01  0.14830581630E+04  0.14831344729E+04  0.10000000000E+02 0. -1.
</event>
<event>
 5    1  0.1321379E-008  0.3735129E+03  0.7957747E-01  0.3479900E+00
         13   -1    0    0    0    0  0.00000000000E+00  0.00000000000E+00  0.14999999963E+04  0.15000000000E+04  0.10566000000E+00 0. -1.
        994   -1    0    0    0    0 -0.00000000000E+00 -0.00000000000E+00  0.11368683772E-12  0.17120000000E+03  0.17120000000E+03 0.  0.
         13    1    1    2    0    0  0.10525602457E+02 -0.15996045805E+02  0.21538587667E+02  0.28819849257E+02  0.10566000000E+00 0. -1.
        994    1    1    2    0    0 -0.80188968482E+01  0.90526858060E+01  0.79441580479E+01  0.17181037068E+03  0.17120000000E+03 0.  0.
        998    1    1    2    0    0 -0.25067056092E+01  0.69433599988E+01  0.14705172506E+04  0.14705697801E+04  0.10000000000E+02 0. -1.
</event>
<event>
 5    1  0.1321379E-008  0.3837659E+03  0.7957747E-01  0.3434923E+00
         13   -1    0    0    0    0  0.00000000000E+00  0.00000000000E+00  0.14999999963E+04  0.15000000000E+04  0.10566000000E+00 0. -1.
        994   -1    0    0    0    0 -0.00000000000E+00 -0.00000000000E+00  0.11368683772E-12  0.17120000000E+03  0.17120000000E+03 0.  0.
         13    1    1    2    0    0  0.17358693253E+01  0.99499037415E+01  0.22302448471E+02  0.24483141110E+02  0.10566000000E+00 0. -1.
        994    1    1    2    0    0 -0.61416046852E+01 -0.18656237720E+01  0.23801236530E+01  0.17133681697E+03  0.17120000000E+03 0.  0.
        998    1    1    2    0    0  0.44057353599E+01 -0.80842799696E+01  0.14753174242E+04  0.14753800419E+04  0.10000000000E+02 0. -1.
</event>
<event>
 5    1  0.1321379E-008  0.3850881E+03  0.7957747E-01  0.3429299E+00
         13   -1    0    0    0    0  0.00000000000E+00  0.00000000000E+00  0.14999999963E+04  0.15000000000E+04  0.10566000000E+00 0.  1.
        994   -1    0    0    0    0 -0.00000000000E+00 -0.00000000000E+00  0.11368683772E-12  0.17120000000E+03  0.17120000000E+03 0.  0.
         13    1    1    2    0    0  0.10202533725E+02 -0.80993427575E+01  0.52628086737E+02  0.54216397198E+02  0.10566000000E+00 0.  1.
        994    1    1    2    0    0 -0.54059023225E+01  0.11757720139E+02  0.21371971954E+01  0.17170170464E+03  0.17120000000E+03 0.  0.
        998    1    1    2    0    0 -0.47966314021E+01 -0.36583773817E+01  0.14452347123E+04  0.14452818982E+04  0.10000000000E+02 0.  1.
</event>
<event>
 5    1  0.1321379E-008  0.2407873E+03  0.7957747E-01  0.4437121E+00
         13   -1    0    0    0    0  0.00000000000E+00  0.00000000000E+00  0.14999999963E+04  0.15000000000E+04  0.10566000000E+00 0. -1.
        994   -1    0    0    0    0 -0.00000000000E+00 -0.00000000000E+00  0.11368683772E-12  0.17120000000E+03  0.17120000000E+03 0.  0.
         13    1    1    2    0    0 -0.16576412197E+03  0.10984200298E+01  0.12340275034E+03  0.20665720557E+03  0.10566000000E+00 0. -1.
        994    1    1    2    0    0  0.16743049483E+03 -0.56698810344E+01  0.28245888276E+03  0.37034791562E+03  0.17120000000E+03 0.  0.
        998    1    1    2    0    0 -0.16663728580E+01  0.45714610046E+01  0.10941383632E+04  0.10941948788E+04  0.10000000000E+02 0.  0.
</event>
<event>
 5    1  0.1321379E-008  0.3770018E+03  0.7957747E-01  0.3464318E+00
         13   -1    0    0    0    0  0.00000000000E+00  0.00000000000E+00  0.14999999963E+04  0.15000000000E+04  0.10566000000E+00 0.  1.
        994   -1    0    0    0    0 -0.00000000000E+00 -0.00000000000E+00  0.11368683772E-12  0.17120000000E+03  0.17120000000E+03 0.  0.
         13    1    1    2    0    0 -0.42585782313E+02  0.18950203315E+02  0.16470740948E+03  0.17117593570E+03  0.10566000000E+00 0.  1.
        994    1    1    2    0    0  0.43350556839E+02 -0.31957776864E+02  0.15511251864E+02  0.18014052630E+03  0.17120000000E+03 0.  0.
        998    1    1    2    0    0 -0.76477452535E+00  0.13007573549E+02  0.13197813349E+04  0.13198835380E+04  0.10000000000E+02 0.  1.
</event>
<event>
 5    1  0.1321379E-008  0.3817257E+03  0.7957747E-01  0.3443679E+00
         13   -1    0    0    0    0  0.00000000000E+00  0.00000000000E+00  0.14999999963E+04  0.15000000000E+04  0.10566000000E+00 0.  1.
        994   -1    0    0    0    0 -0.00000000000E+00 -0.00000000000E+00  0.11368683772E-12  0.17120000000E+03  0.17120000000E+03 0.  0.
         13    1    1    2    0    0  0.38289273974E+01  0.16165194208E+02  0.40560450289E+02  0.43830759524E+02  0.10566000000E+00 0.  1.
        994    1    1    2    0    0  0.20503307740E+02 -0.20013463621E+02  0.59980574307E+01  0.17368460222E+03  0.17120000000E+03 0.  0.
        998    1    1    2    0    0 -0.24332235138E+02  0.38482694126E+01  0.14534414886E+04  0.14536846383E+04  0.10000000000E+02 0.  1.
</event>
<event>
 5    1  0.1321379E-008  0.3742854E+03  0.7957747E-01  0.3476425E+00
         13   -1    0    0    0    0  0.00000000000E+00  0.00000000000E+00  0.14999999963E+04  0.15000000000E+04  0.10566000000E+00 0.  1.
        994   -1    0    0    0    0 -0.00000000000E+00 -0.00000000000E+00  0.11368683772E-12  0.17120000000E+03  0.17120000000E+03 0.  0.
         13    1    1    2    0    0  0.20510540891E+02 -0.12824273293E+02  0.41263318454E+02  0.47831128850E+02  0.10566000000E+00 0.  1.
        994    1    1    2    0    0  0.10848609558E+02  0.62505554054E+01  0.75804494760E+01  0.17182451800E+03  0.17120000000E+03 0.  0.
        998    1    1    2    0    0 -0.31359150449E+02  0.65737178881E+01  0.14511562283E+04  0.14515443531E+04  0.10000000000E+02 0.  1.
</event>
<event>
 5    1  0.1321379E-008  0.3789094E+03  0.7957747E-01  0.3455921E+00
         13   -1    0    0    0    0  0.00000000000E+00  0.00000000000E+00  0.14999999963E+04  0.15000000000E+04  0.10566000000E+00 0. -1.
        994   -1    0    0    0    0 -0.00000000000E+00 -0.00000000000E+00  0.11368683772E-12  0.17120000000E+03  0.17120000000E+03 0.  0.
         13    1    1    2    0    0 -0.47857567572E+02 -0.50921681777E+02  0.35876254705E+03  0.36550504891E+03  0.10566000000E+00 0. -1.
        994    1    1    2    0    0  0.84148580241E+02  0.34156864062E+02  0.32873172015E+02  0.19656490113E+03  0.17120000000E+03 0.  0.
        998    1    1    2    0    0 -0.36291012669E+02  0.16764817715E+02  0.11083642772E+04  0.11091300500E+04  0.10000000000E+02 0.  1.
</event>
<event>
 5    1  0.1321379E-008  0.3822930E+03  0.7957747E-01  0.3441235E+00
         13   -1    0    0    0    0  0.00000000000E+00  0.00000000000E+00  0.14999999963E+04  0.15000000000E+04  0.10566000000E+00 0.  1.
        994   -1    0    0    0    0 -0.00000000000E+00 -0.00000000000E+00  0.11368683772E-12  0.17120000000E+03  0.17120000000E+03 0.  0.
         13    1    1    2    0    0 -0.91749451119E+01  0.45769580909E+01  0.16103191957E+02  0.19090629074E+02  0.10566000000E+00 0.  1.
        994    1    1    2    0    0  0.12855761246E+02 -0.72308840717E+01  0.37022584707E+01  0.17187409054E+03  0.17120000000E+03 0.  0.
        998    1    1    2    0    0 -0.36808161341E+01  0.26539259808E+01  0.14801945459E+04  0.14802352804E+04  0.10000000000E+02 0.  1.
</event>
<event>
 5    1  0.1321379E-008  0.3688574E+03  0.7957747E-01  0.3501159E+00
         13   -1    0    0    0    0  0.00000000000E+00  0.00000000000E+00  0.14999999963E+04  0.15000000000E+04  0.10566000000E+00 0.  1.
        994   -1    0    0    0    0 -0.00000000000E+00 -0.00000000000E+00  0.11368683772E-12  0.17120000000E+03  0.17120000000E+03 0.  0.
         13    1    1    2    0    0 -0.83907880169E+02 -0.16550365558E+03  0.73432959515E+03  0.75741135313E+03  0.10566000000E+00 0.  1.
        994    1    1    2    0    0  0.76574506966E+02  0.17045119391E+03  0.14303104000E+03  0.29100615634E+03  0.17120000000E+03 0.  0.
        998    1    1    2    0    0  0.73333732027E+01 -0.49475383323E+01  0.62263936112E+03  0.62278249053E+03  0.10000000000E+02 0.  1.
</event>
<event>
 5    1  0.1321379E-008  0.3793501E+03  0.7957747E-01  0.3453993E+00
         13   -1    0    0    0    0  0.00000000000E+00  0.00000000000E+00  0.14999999963E+04  0.15000000000E+04  0.10566000000E+00 0.  1.
        994   -1    0    0    0    0 -0.00000000000E+00 -0.00000000000E+00  0.11368683772E-12  0.17120000000E+03  0.17120000000E+03 0.  0.
         13    1    1    2    0    0 -0.16999291819E+02 -0.96669611489E+01  0.41215541606E+02  0.45619711684E+02  0.10566000000E+00 0.  1.
        994    1    1    2    0    0  0.15897261055E+02 -0.28706209424E+01  0.53363066134E+01  0.17204324904E+03  0.17120000000E+03 0.  0.
        998    1    1    2    0    0  0.11020307638E+01  0.12537582091E+02  0.14534481481E+04  0.14535370393E+04  0.10000000000E+02 0.  1.
</event>
<event>
 5    1  0.1321379E-008  0.3741243E+03  0.7957747E-01  0.3477149E+00
         13   -1    0    0    0    0  0.00000000000E+00  0.00000000000E+00  0.14999999963E+04  0.15000000000E+04  0.10566000000E+00 0. -1.
        994   -1    0    0    0    0 -0.00000000000E+00 -0.00000000000E+00  0.11368683772E-12  0.17120000000E+03  0.17120000000E+03 0.  0.
         13    1    1    2    0    0  0.18412665976E+02 -0.28410199030E+03  0.10358000252E+04  0.10742135126E+04  0.10566000000E+00 0. -1.
        994    1    1    2    0    0 -0.13331256735E+02  0.28043840626E+03  0.34282324502E+03  0.47503751372E+03  0.17120000000E+03 0.  0.
        998    1    1    2    0    0 -0.50814092413E+01  0.36635840380E+01  0.12137672603E+03  0.12194897371E+03  0.10000000000E+02 0.  0.
</event>
<event>
 5    1  0.1321379E-008  0.3823856E+03  0.7957747E-01  0.3440836E+00
         13   -1    0    0    0    0  0.00000000000E+00  0.00000000000E+00  0.14999999963E+04  0.15000000000E+04  0.10566000000E+00 0.  1.
        994   -1    0    0    0    0 -0.00000000000E+00 -0.00000000000E+00  0.11368683772E-12  0.17120000000E+03  0.17120000000E+03 0.  0.
         13    1    1    2    0    0  0.65889570406E+01  0.98475725601E+01  0.22646077039E+02  0.25558658210E+02  0.10566000000E+00 0.  1.
        994    1    1    2    0    0 -0.28072995159E+01 -0.10912295770E+02  0.33549233472E+01  0.17160318948E+03  0.17120000000E+03 0.  0.
        998    1    1    2    0    0 -0.37816575246E+01  0.10647232096E+01  0.14739989959E+04  0.14740381523E+04  0.10000000000E+02 0.  1.
</event>
<event>
 5    1  0.1321379E-008  0.3779880E+03  0.7957747E-01  0.3459966E+00
         13   -1    0    0    0    0  0.00000000000E+00  0.00000000000E+00  0.14999999963E+04  0.15000000000E+04  0.10566000000E+00 0. -1.
        994   -1    0    0    0    0 -0.00000000000E+00 -0.00000000000E+00  0.11368683772E-12  0.17120000000E+03  0.17120000000E+03 0.  0.
         13    1    1    2    0    0 -0.20575901936E+02 -0.14304337908E+02  0.55600362429E+02  0.60986828822E+02  0.10566000000E+00 0. -1.
        994    1    1    2    0    0  0.27487681093E+02  0.17480846692E+02  0.87316533802E+01  0.17449021286E+03  0.17120000000E+03 0.  0.
        998    1    1    2    0    0 -0.69117791572E+01 -0.31765087842E+01  0.14356679805E+04  0.14357229583E+04  0.10000000000E+02 0. -1.
</event>
<event>
 5    1  0.1321379E-008  0.3785668E+03  0.7957747E-01  0.3457423E+00
         13   -1    0    0    0    0  0.00000000000E+00  0.00000000000E+00  0.14999999963E+04  0.15000000000E+04  0.10566000000E+00 0.  1.
        994   -1    0    0    0    0 -0.00000000000E+00 -0.00000000000E+00  0.11368683772E-12  0.17120000000E+03  0.17120000000E+03 0.  0.
         13    1    1    2    0    0  0.67538791894E+01  0.41131506566E+02  0.17924450600E+03  0.18402722574E+03  0.10566000000E+00 0.  1.
        994    1    1    2    0    0 -0.52897957395E+01 -0.21831820000E+02  0.65551175478E+01  0.17279183971E+03  0.17120000000E+03 0.  0.
        998    1    1    2    0    0 -0.14640834499E+01 -0.19299686566E+02  0.13142003727E+04  0.13143809346E+04  0.10000000000E+02 0.  1.
</event>
<event>
 5    1  0.1321379E-008  0.3851636E+03  0.7957747E-01  0.3428979E+00
         13   -1    0    0    0    0  0.00000000000E+00  0.00000000000E+00  0.14999999963E+04  0.15000000000E+04  0.10566000000E+00 0.  1.
        994   -1    0    0    0    0 -0.00000000000E+00 -0.00000000000E+00  0.11368683772E-12  0.17120000000E+03  0.17120000000E+03 0.  0.
         13    1    1    2    0    0  0.74014611602E+01  0.87140499845E+01  0.40504355161E+02  0.42087174358E+02  0.10566000000E+00 0.  1.
        994    1    1    2    0    0 -0.94249556547E+01 -0.12317030183E+02  0.23399867476E+01  0.17191699904E+03  0.17120000000E+03 0.  0.
        998    1    1    2    0    0  0.20234944944E+01  0.36029801988E+01  0.14571556544E+04  0.14571958266E+04  0.10000000000E+02 0.  1.
</event>
<event>
 5    1  0.1321379E-008  0.3761263E+03  0.7957747E-01  0.3468201E+00
         13   -1    0    0    0    0  0.00000000000E+00  0.00000000000E+00  0.14999999963E+04  0.15000000000E+04  0.10566000000E+00 0. -1.
        994   -1    0    0    0    0 -0.00000000000E+00 -0.00000000000E+00  0.11368683772E-12  0.17120000000E+03  0.17120000000E+03 0.  0.
         13    1    1    2    0    0  0.31785783405E+02 -0.22410749484E+02  0.13154716757E+03  0.13717596794E+03  0.10566000000E+00 0. -1.
        994    1    1    2    0    0 -0.18116961232E+02 -0.11268347462E+02  0.76444505313E+01  0.17269359445E+03  0.17120000000E+03 0.  0.
        998    1    1    2    0    0 -0.13668822173E+02  0.33679096946E+02  0.13608083782E+04  0.13613304376E+04  0.10000000000E+02 0. -1.
</event>
<event>
 5    1  0.1321379E-008  0.3816733E+03  0.7957747E-01  0.3443905E+00
         13   -1    0    0    0    0  0.00000000000E+00  0.00000000000E+00  0.14999999963E+04  0.15000000000E+04  0.10566000000E+00 0. -1.
        994   -1    0    0    0    0 -0.00000000000E+00 -0.00000000000E+00  0.11368683772E-12  0.17120000000E+03  0.17120000000E+03 0.  0.
         13    1    1    2    0    0 -0.13352291677E+02  0.17963652491E+02  0.79674609559E+02  0.82758873097E+02  0.10566000000E+00 0. -1.
        994    1    1    2    0    0  0.58311680390E+01  0.13744067663E+01  0.34101912463E+01  0.17133873152E+03  0.17120000000E+03 0.  0.
        998    1    1    2    0    0  0.75211236382E+01 -0.19338059257E+02  0.14169151955E+04  0.14171023954E+04  0.10000000000E+02 0. -1.
</event>
<event>
 5    1  0.1321379E-008  0.3763136E+03  0.7957747E-01  0.3467369E+00
         13   -1    0    0    0    0  0.00000000000E+00  0.00000000000E+00  0.14999999963E+04  0.15000000000E+04  0.10566000000E+00 0. -1.
        994   -1    0    0    0    0 -0.00000000000E+00 -0.00000000000E+00  0.11368683772E-12  0.17120000000E+03  0.17120000000E+03 0.  0.
         13    1    1    2    0    0 -0.56967157665E+01  0.13291747686E+02  0.14916043727E+02  0.20775530116E+02  0.10566000000E+00 0. -1.
        994    1    1    2    0    0  0.76174345642E+01 -0.37403718870E+01  0.62494681958E+01  0.17152408444E+03  0.17120000000E+03 0.  0.
        998    1    1    2    0    0 -0.19207187977E+01 -0.95513757990E+01  0.14788344844E+04  0.14789003854E+04  0.10000000000E+02 0. -1.
</event>
<event>
 5    1  0.1321379E-008  0.3850957E+03  0.7957747E-01  0.3429267E+00
         13   -1    0    0    0    0  0.00000000000E+00  0.00000000000E+00  0.14999999963E+04  0.15000000000E+04  0.10566000000E+00 0. -1.
        994   -1    0    0    0    0 -0.00000000000E+00 -0.00000000000E+00  0.11368683772E-12  0.17120000000E+03  0.17120000000E+03 0.  0.
         13    1    1    2    0    0  0.10636070223E+02 -0.28330480580E+01  0.35640902743E+02  0.37301973988E+02  0.10566000000E+00 0. -1.
        994    1    1    2    0    0 -0.18724144120E+02  0.14401211312E+02  0.34192545820E+01  0.17285577735E+03  0.17120000000E+03 0.  0.
        998    1    1    2    0    0  0.80880738967E+01 -0.11568163254E+02  0.14609398390E+04  0.14610422487E+04  0.10000000000E+02 0. -1.
</event>
<event>
 5    1  0.1321379E-008  0.3833525E+03  0.7957747E-01  0.3436690E+00
         13   -1    0    0    0    0  0.00000000000E+00  0.00000000000E+00  0.14999999963E+04  0.15000000000E+04  0.10566000000E+00 0. -1.
        994   -1    0    0    0    0 -0.00000000000E+00 -0.00000000000E+00  0.11368683772E-12  0.17120000000E+03  0.17120000000E+03 0.  0.
         13    1    1    2    0    0 -0.18148587546E+02  0.11126170421E+02  0.92862328271E+02  0.95271118783E+02  0.10566000000E+00 0. -1.
        994    1    1    2    0    0  0.43711136717E+01 -0.15249818646E+02  0.32828268263E+01  0.17196476545E+03  0.17120000000E+03 0.  0.
        998    1    1    2    0    0  0.13777473874E+02  0.41236482249E+01  0.14038548412E+04  0.14039641158E+04  0.10000000000E+02 0. -1.
</event>
<event>
 5    1  0.1321379E-008  0.3853295E+03  0.7957747E-01  0.3428276E+00
         13   -1    0    0    0    0  0.00000000000E+00  0.00000000000E+00  0.14999999963E+04  0.15000000000E+04  0.10566000000E+00 0. -1.
        994   -1    0    0    0    0 -0.00000000000E+00 -0.00000000000E+00  0.11368683772E-12  0.17120000000E+03  0.17120000000E+03 0.  0.
         13    1    1    2    0    0  0.37329128668E+00 -0.11888394446E+02  0.49117514521E+02  0.50537260172E+02  0.10566000000E+00 0. -1.
        994    1    1    2    0    0  0.23175034287E+01  0.53128669120E+01  0.15770088823E+01  0.17130535407E+03  0.17120000000E+03 0.  0.
        998    1    1    2    0    0 -0.26907947154E+01  0.65755275338E+01  0.14493054729E+04  0.14493573858E+04  0.10000000000E+02 0. -1.
</event>
<event>
 5    1  0.3457450E-008  0.3862315E+03  0.7957747E-01  0.3424466E+00
         13   -1    0    0    0    0  0.00000000000E+00  0.00000000000E+00  0.14999999963E+04  0.15000000000E+04  0.10566000000E+00 0. -1.
        994   -1    0    0    0    0 -0.00000000000E+00 -0.00000000000E+00  0.11368683772E-12  0.17120000000E+03  0.17120000000E+03 0.  0.
         13    1    1    2    0    0 -0.89360521845E+01  0.50593514001E+01  0.52832180648E+02  0.53821004648E+02  0.10566000000E+00 0. -1.
        994    1    1    2    0    0  0.52857210256E+01 -0.30497735245E+01  0.11419340902E+01  0.17131253305E+03  0.17120000000E+03 0.  0.
        998    1    1    2    0    0  0.36503311589E+01 -0.20095778756E+01  0.14460258815E+04  0.14460664623E+04  0.10000000000E+02 0. -1.
</event>
<event>
 5    1  0.1321379E-008  0.3848889E+03  0.7957747E-01  0.3430144E+00
         13   -1    0    0    0    0  0.00000000000E+00  0.00000000000E+00  0.14999999963E+04  0.15000000000E+04  0.10566000000E+00 0. -1.
        994   -1    0    0    0    0 -0.00000000000E+00 -0.00000000000E+00  0.11368683772E-12  0.17120000000E+03  0.17120000000E+03 0.  0.
         13    1    1    2    0    0  0.21748086635E+02 -0.37995729894E+01  0.12804849436E+03  0.12993784706E+03  0.10566000000E+00 0. -1.
        994    1    1    2    0    0 -0.27430800045E+02  0.45126814144E+01  0.42318789942E+01  0.17349398227E+03  0.17120000000E+03 0.  0.
        998    1    1    2    0    0  0.56827134096E+01 -0.71310842494E+00  0.13677196229E+04  0.13677681707E+04  0.10000000000E+02 0. -1.
</event>
<event>
 5    1  0.1321379E-008  0.3773524E+03  0.7957747E-01  0.3462768E+00
         13   -1    0    0    0    0  0.00000000000E+00  0.00000000000E+00  0.14999999963E+04  0.15000000000E+04  0.10566000000E+00 0.  1.
        994   -1    0    0    0    0 -0.00000000000E+00 -0.00000000000E+00  0.11368683772E-12  0.17120000000E+03  0.17120000000E+03 0.  0.
         13    1    1    2    0    0 -0.21708990887E+02  0.52712179582E+01  0.43330786260E+02  0.48750735646E+02  0.10566000000E+00 0.  1.
        994    1    1    2    0    0  0.12437918315E+02 -0.14271232403E+02  0.66851411862E+01  0.17237314466E+03  0.17120000000E+03 0.  0.
        998    1    1    2    0    0  0.92710725723E+01  0.90000144448E+01  0.14499840688E+04  0.14500761197E+04  0.10000000000E+02 0.  1.
</event>
<event>
 5    1  0.1321379E-008  0.3810022E+03  0.7957747E-01  0.3446806E+00
         13   -1    0    0    0    0  0.00000000000E+00  0.00000000000E+00  0.14999999963E+04  0.15000000000E+04  0.10566000000E+00 0. -1.
        994   -1    0    0    0    0 -0.00000000000E+00 -0.00000000000E+00  0.11368683772E-12  0.17120000000E+03  0.17120000000E+03 0.  0.
         13    1    1    2    0    0  0.17530336973E+02 -0.16398179392E+02  0.97043273212E+01  0.25892047709E+02  0.10566000000E+00 0. -1.
        994    1    1    2    0    0 -0.10644898064E+02  0.20137751795E+02  0.18767968695E+02  0.17372541423E+03  0.17120000000E+03 0.  0.
        998    1    1    2    0    0 -0.68854389093E+01 -0.37395724032E+01  0.14715277003E+04  0.14715825381E+04  0.10000000000E+02 0. -1.
</event>
<event>
 5    1  0.1321379E-008  0.3849555E+03  0.7957747E-01  0.3429861E+00
         13   -1    0    0    0    0  0.00000000000E+00  0.00000000000E+00  0.14999999963E+04  0.15000000000E+04  0.10566000000E+00 0. -1.
        994   -1    0    0    0    0 -0.00000000000E+00 -0.00000000000E+00  0.11368683772E-12  0.17120000000E+03  0.17120000000E+03 0.  0.
         13    1    1    2    0    0 -0.20376484038E+01 -0.16833744357E+02  0.87594277062E+02  0.89220488108E+02  0.10566000000E+00 0. -1.
        994    1    1    2    0    0 -0.26652281004E+01  0.10493026081E+02  0.20378244670E+01  0.17155407243E+03  0.17120000000E+03 0.  0.
        998    1    1    2    0    0  0.47028765042E+01  0.63407182753E+01  0.14103678947E+04  0.14104254395E+04  0.10000000000E+02 0. -1.
</event>
<event>
 5    1  0.1321379E-008  0.3851308E+03  0.7957747E-01  0.3429118E+00
         13   -1    0    0    0    0  0.00000000000E+00  0.00000000000E+00  0.14999999963E+04  0.15000000000E+04  0.10566000000E+00 0.  1.
        994   -1    0    0    0    0 -0.00000000000E+00 -0.00000000000E+00  0.11368683772E-12  0.17120000000E+03  0.17120000000E+03 0.  0.
         13    1    1    2    0    0 -0.80347077076E+01 -0.84754883115E+01  0.44106361846E+02  0.45626447916E+02  0.10566000000E+00 0.  1.
        994    1    1    2    0    0  0.26089827013E+01  0.49942536061E+01  0.16695900655E+01  0.17130083739E+03  0.17120000000E+03 0.  0.
        998    1    1    2    0    0  0.54257250062E+01  0.34812347054E+01  0.14542240444E+04  0.14542727147E+04  0.10000000000E+02 0.  1.
</event>
<event>
 5    1  0.1321379E-008  0.3684932E+03  0.7957747E-01  0.3502845E+00
         13   -1    0    0    0    0  0.00000000000E+00  0.00000000000E+00  0.14999999963E+04  0.15000000000E+04  0.10566000000E+00 0.  1.
        994   -1    0    0    0    0 -0.00000000000E+00 -0.00000000000E+00  0.11368683772E-12  0.17120000000E+03  0.17120000000E+03 0.  0.
         13    1    1    2    0    0  0.54171707192E+02 -0.16418470294E+02  0.14911586030E+03  0.15949824759E+03  0.10566000000E+00 0.  1.
        994    1    1    2    0    0 -0.42081883333E+02  0.80592121234E+01  0.16555915698E+02  0.17725511036E+03  0.17120000000E+03 0.  0.
        998    1    1    2    0    0 -0.12089823859E+02  0.83592581710E+01  0.13343282203E+04  0.13344466421E+04  0.10000000000E+02 0.  1.
</event>
<event>
 5    1  0.1321379E-008  0.3838495E+03  0.7957747E-01  0.3434566E+00
         13   -1    0    0    0    0  0.00000000000E+00  0.00000000000E+00  0.14999999963E+04  0.15000000000E+04  0.10566000000E+00 0. -1.
        994   -1    0    0    0    0 -0.00000000000E+00 -0.00000000000E+00  0.11368683772E-12  0.17120000000E+03  0.17120000000E+03 0.  0.
         13    1    1    2    0    0  0.17169472299E+02  0.43728082633E+00  0.68471637084E+02  0.70592905044E+02  0.10566000000E+00 0. -1.
        994    1    1    2    0    0 -0.58788393777E+01 -0.37144169541E+01  0.23620571709E+01  0.17135745376E+03  0.17120000000E+03 0.  0.
        998    1    1    2    0    0 -0.11290632921E+02  0.32771361277E+01  0.14291663020E+04  0.14292496412E+04  0.10000000000E+02 0. -1.
</event>
<event>
 5    1  0.1321379E-008  0.3823737E+03  0.7957747E-01  0.3440887E+00
         13   -1    0    0    0    0  0.00000000000E+00  0.00000000000E+00  0.14999999963E+04  0.15000000000E+04  0.10566000000E+00 0. -1.
        994   -1    0    0    0    0 -0.00000000000E+00 -0.00000000000E+00  0.11368683772E-12  0.17120000000E+03  0.17120000000E+03 0.  0.
         13    1    1    2    0    0 -0.20265926685E+02  0.27072948586E+02  0.15216669277E+03  0.15587933115E+03  0.10566000000E+00 0. -1.
        994    1    1    2    0    0  0.25626459109E+02 -0.47882496978E+02  0.12785076831E+02  0.18006206461E+03  0.17120000000E+03 0.  0.
        998    1    1    2    0    0 -0.53605324240E+01  0.20809548393E+02  0.13350482267E+04  0.13352586042E+04  0.10000000000E+02 0. -1.
</event>
<event>
 5    1  0.1321379E-008  0.3774167E+03  0.7957747E-01  0.3462484E+00
         13   -1    0    0    0    0  0.00000000000E+00  0.00000000000E+00  0.14999999963E+04  0.15000000000E+04  0.10566000000E+00 0.  1.
        994   -1    0    0    0    0 -0.00000000000E+00 -0.00000000000E+00  0.11368683772E-12  0.17120000000E+03  0.17120000000E+03 0.  0.
         13    1    1    2    0    0  0.32182593358E+02  0.40170813702E+00  0.88679288959E+02  0.94339324457E+02  0.10566000000E+00 0.  1.
        994    1    1    2    0    0 -0.31262909752E+02 -0.58705320265E+01  0.88620561229E+01  0.17435540918E+03  0.17120000000E+03 0.  0.
        998    1    1    2    0    0 -0.91968360676E+00  0.54688238895E+01  0.14024586512E+04  0.14025052664E+04  0.10000000000E+02 0.  1.
</event>
<event>
 5    1  0.1321379E-008  0.3787454E+03  0.7957747E-01  0.3456639E+00
         13   -1    0    0    0    0  0.00000000000E+00  0.00000000000E+00  0.14999999963E+04  0.15000000000E+04  0.10566000000E+00 0.  1.
        994   -1    0    0    0    0 -0.00000000000E+00 -0.00000000000E+00  0.11368683772E-12  0.17120000000E+03  0.17120000000E+03 0.  0.
         13    1    1    2    0    0  0.65173598220E+01 -0.13596518486E+02  0.22022629881E+02  0.26689861088E+02  0.10566000000E+00 0.  1.
        994    1    1    2    0    0 -0.11648413383E+02  0.26813711014E+01  0.52475400861E+01  0.17169697715E+03  0.17120000000E+03 0.  0.
        998    1    1    2    0    0  0.51310535605E+01  0.10915147385E+02  0.14727298263E+04  0.14728131618E+04  0.10000000000E+02 0.  1.
</event>
<event>
 5    1  0.1321379E-008  0.3820082E+03  0.7957747E-01  0.3442461E+00
         13   -1    0    0    0    0  0.00000000000E+00  0.00000000000E+00  0.14999999963E+04  0.15000000000E+04  0.10566000000E+00 0.  1.
        994   -1    0    0    0    0 -0.00000000000E+00 -0.00000000000E+00  0.11368683772E-12  0.17120000000E+03  0.17120000000E+03 0.  0.
         13    1    1    2    0    0  0.18657875044E+02  0.19870155986E+02  0.13535998257E+03  0.13807706343E+03  0.10566000000E+00 0.  1.
        994    1    1    2    0    0  0.61416494585E+01 -0.11967553544E+01  0.32528809410E+01  0.17134518761E+03  0.17120000000E+03 0.  0.
        998    1    1    2    0    0 -0.24799524502E+02 -0.18673400632E+02  0.13613871328E+04  0.13617777490E+04  0.10000000000E+02 0.  1.
</event>
<event>
 5    1  0.1321379E-008  0.3701545E+03  0.7957747E-01  0.3495181E+00
         13   -1    0    0    0    0  0.00000000000E+00  0.00000000000E+00  0.14999999963E+04  0.15000000000E+04  0.10566000000E+00 0.  1.
        994   -1    0    0    0    0 -0.00000000000E+00 -0.00000000000E+00  0.11368683772E-12  0.17120000000E+03  0.17120000000E+03 0.  0.
         13    1    1    2    0    0 -0.22299462116E+02 -0.38763283674E+02  0.81226148796E+02  0.92723010004E+02  0.10566000000E+00 0.  1.
        994    1    1    2    0    0  0.25583618386E+02  0.42085990193E+02  0.19554103792E+02  0.17921371341E+03  0.17120000000E+03 0.  0.
        998    1    1    2    0    0 -0.32841562694E+01 -0.33227065184E+01  0.13992197437E+04  0.13992632766E+04  0.10000000000E+02 0.  1.
</event>
<event>
 5    1  0.1321379E-008  0.3717395E+03  0.7957747E-01  0.3487934E+00
         13   -1    0    0    0    0  0.00000000000E+00  0.00000000000E+00  0.14999999963E+04  0.15000000000E+04  0.10566000000E+00 0.  1.
        994   -1    0    0    0    0 -0.00000000000E+00 -0.00000000000E+00  0.11368683772E-12  0.17120000000E+03  0.17120000000E+03 0.  0.
         13    1    1    2    0    0  0.79799224111E+02  0.29893872491E+02  0.48730631541E+03  0.49470093590E+03  0.10566000000E+00 0.  1.
        994    1    1    2    0    0 -0.42459978253E+02  0.66587473681E+01  0.14738305997E+02  0.17712663925E+03  0.17120000000E+03 0.  0.
        998    1    1    2    0    0 -0.37339245858E+02 -0.36552619859E+02  0.99795537487E+03  0.99937242484E+03  0.10000000000E+02 0.  1.
</event>
<event>
 5    1  0.1321379E-008  0.3701445E+03  0.7957747E-01  0.3495227E+00
         13   -1    0    0    0    0  0.00000000000E+00  0.00000000000E+00  0.14999999963E+04  0.15000000000E+04  0.10566000000E+00 0.  1.
        994   -1    0    0    0    0 -0.00000000000E+00 -0.00000000000E+00  0.11368683772E-12  0.17120000000E+03  0.17120000000E+03 0.  0.
         13    1    1    2    0    0  0.21891802470E+02 -0.74166740473E+02  0.37206796530E+03  0.38001912896E+03  0.10566000000E+00 0.  1.
        994    1    1    2    0    0 -0.14203740420E+02 -0.37512559158E+01  0.11770463663E+02  0.17223182626E+03  0.17120000000E+03 0.  0.
        998    1    1    2    0    0 -0.76880620494E+01  0.77917996388E+02  0.11161615673E+04  0.11189490448E+04  0.10000000000E+02 0. -1.
</event>
<event>
 5    1  0.1321379E-008  0.3807414E+03  0.7957747E-01  0.3447937E+00
         13   -1    0    0    0    0  0.00000000000E+00  0.00000000000E+00  0.14999999963E+04  0.15000000000E+04  0.10566000000E+00 0.  1.
        994   -1    0    0    0    0 -0.00000000000E+00 -0.00000000000E+00  0.11368683772E-12  0.17120000000E+03  0.17120000000E+03 0.  0.
         13    1    1    2    0    0 -0.16989811323E+02 -0.26435636897E+01  0.36295090132E+02  0.40162007538E+02  0.10566000000E+00 0.  1.
        994    1    1    2    0    0  0.22475290264E+02  0.12781947728E+02  0.59918739391E+01  0.17324508482E+03  0.17120000000E+03 0.  0.
        998    1    1    2    0    0 -0.54854789417E+01 -0.10138384038E+02  0.14577130322E+04  0.14577929076E+04  0.10000000000E+02 0.  1.
</event>
<event>
 5    1  0.1321379E-008  0.3851300E+03  0.7957747E-01  0.3429121E+00
         13   -1    0    0    0    0  0.00000000000E+00  0.00000000000E+00  0.14999999963E+04  0.15000000000E+04  0.10566000000E+00 0. -1.
        994   -1    0    0    0    0 -0.00000000000E+00 -0.00000000000E+00  0.11368683772E-12  0.17120000000E+03  0.17120000000E+03 0.  0.
         13    1    1    2    0    0  0.66942214130E+01  0.12689273620E+02  0.65351006091E+02  0.66907364516E+02  0.10566000000E+00 0. -1.
        994    1    1    2    0    0 -0.14368410560E+01 -0.11233743287E+02  0.19873356439E+01  0.17158569580E+03  0.17120000000E+03 0.  0.
        998    1    1    2    0    0 -0.52573803571E+01 -0.14555303323E+01  0.14326616545E+04  0.14327069397E+04  0.10000000000E+02 0. -1.
</event>
<event>
 5    1  0.1321379E-008  0.3788952E+03  0.7957747E-01  0.3455983E+00
         13   -1    0    0    0    0  0.00000000000E+00  0.00000000000E+00  0.14999999963E+04  0.15000000000E+04  0.10566000000E+00 0. -1.
        994   -1    0    0    0    0 -0.00000000000E+00 -0.00000000000E+00  0.11368683772E-12  0.17120000000E+03  0.17120000000E+03 0.  0.
         13    1    1    2    0    0 -0.19728817324E+01 -0.69084085717E+02  0.13161018054E+03  0.14865313298E+03  0.10566000000E+00 0. -1.
        994    1    1    2    0    0  0.17881000120E+02  0.74163488932E+02  0.37038146513E+02  0.19105291820E+03  0.17120000000E+03 0.  0.
        998    1    1    2    0    0 -0.15908118388E+02 -0.50794032156E+01  0.13313516692E+04  0.13314939488E+04  0.10000000000E+02 0. -1.
</event>
<event>
 5    1  0.1321379E-008  0.3808751E+03  0.7957747E-01  0.3447357E+00
         13   -1    0    0    0    0  0.00000000000E+00  0.00000000000E+00  0.14999999963E+04  0.15000000000E+04  0.10566000000E+00 0. -1.
        994   -1    0    0    0    0 -0.00000000000E+00 -0.00000000000E+00  0.11368683772E-12  0.17120000000E+03  0.17120000000E+03 0.  0.
         13    1    1    2    0    0 -0.57267720254E+01 -0.13488016875E+02  0.28057538383E+02  0.31653738187E+02  0.10566000000E+00 0. -1.
        994    1    1    2    0    0  0.14241233529E+02 -0.49977956784E+00  0.43692054014E+01  0.17184758499E+03  0.17120000000E+03 0.  0.
        998    1    1    2    0    0 -0.85144615035E+01  0.13987796443E+02  0.14675732525E+04  0.14676986768E+04  0.10000000000E+02 0. -1.
</event>
<event>
 5    1  0.1321379E-008  0.3729692E+03  0.7957747E-01  0.3482355E+00
         13   -1    0    0    0    0  0.00000000000E+00  0.00000000000E+00  0.14999999963E+04  0.15000000000E+04  0.10566000000E+00 0. -1.
        994   -1    0    0    0    0 -0.00000000000E+00 -0.00000000000E+00  0.11368683772E-12  0.17120000000E+03  0.17120000000E+03 0.  0.
         13    1    1    2    0    0  0.52657575993E+02 -0.17206469400E+02  0.23097757797E+03  0.23752796801E+03  0.10566000000E+00 0. -1.
        994    1    1    2    0    0 -0.11754208087E+02 -0.15889602615E+02  0.90634573378E+01  0.17257527963E+03  0.17120000000E+03 0.  0.
        998    1    1    2    0    0 -0.40903367907E+02  0.33096072015E+02  0.12599589610E+04  0.12610967524E+04  0.10000000000E+02 0. -1.
</event>
<event>
 5    1  0.1321379E-008  0.4000947E+03  0.7957747E-01  0.3368072E+00
         13   -1    0    0    0    0  0.00000000000E+00  0.00000000000E+00  0.14999999963E+04  0.15000000000E+04  0.10566000000E+00 0.  1.
        994   -1    0    0    0    0 -0.00000000000E+00 -0.00000000000E+00  0.11368683772E-12  0.17120000000E+03  0.17120000000E+03 0.  0.
         13    1    1    2    0    0  0.37338133043E+02  0.27865470573E+02  0.27060318363E+02  0.53878498711E+02  0.10566000000E+00 0.  1.
        994    1    1    2    0    0 -0.31563508273E+02 -0.51204837990E+02  0.42144686794E+02  0.18628957328E+03  0.17120000000E+03 0.  0.
        998    1    1    2    0    0 -0.57746247698E+01  0.23339367417E+02  0.14307949911E+04  0.14310319280E+04  0.10000000000E+02 0.  1.
</event>
<event>
 5    1  0.1321379E-008  0.3743453E+03  0.7957747E-01  0.3476156E+00
         13   -1    0    0    0    0  0.00000000000E+00  0.00000000000E+00  0.14999999963E+04  0.15000000000E+04  0.10566000000E+00 0. -1.
        994   -1    0    0    0    0 -0.00000000000E+00 -0.00000000000E+00  0.11368683772E-12  0.17120000000E+03  0.17120000000E+03 0.  0.
         13    1    1    2    0    0  0.69701623168E+02 -0.38274209785E+02  0.32555959617E+03  0.33513026307E+03  0.10566000000E+00 0. -1.
        994    1    1    2    0    0 -0.68660791418E+02  0.59698820870E+02  0.35762920101E+02  0.19714634145E+03  0.17120000000E+03 0.  0.
        998    1    1    2    0    0 -0.10408317501E+01 -0.21424611085E+02  0.11386774800E+04  0.11389233955E+04  0.10000000000E+02 0. -1.
</event>
<event>
 5    1  0.1321379E-008  0.3852047E+03  0.7957747E-01  0.3428804E+00
         13   -1    0    0    0    0  0.00000000000E+00  0.00000000000E+00  0.14999999963E+04  0.15000000000E+04  0.10566000000E+00 0.  1.
        994   -1    0    0    0    0 -0.00000000000E+00 -0.00000000000E+00  0.11368683772E-12  0.17120000000E+03  0.17120000000E+03 0.  0.
         13    1    1    2    0    0 -0.13831672149E+02  0.73251859992E+01  0.76661607444E+02  0.78243125732E+02  0.10566000000E+00 0.  1.
        994    1    1    2    0    0  0.11748001668E+02 -0.13932849686E+02  0.26208499305E+01  0.17218724894E+03  0.17120000000E+03 0.  0.
        998    1    1    2    0    0  0.20836704807E+01  0.66076636872E+01  0.14207175389E+04  0.14207696253E+04  0.10000000000E+02 0.  1.
</event>
<event>
 5    1  0.1321379E-008  0.3807438E+03  0.7957747E-01  0.3447926E+00
         13   -1    0    0    0    0  0.00000000000E+00  0.00000000000E+00  0.14999999963E+04  0.15000000000E+04  0.10566000000E+00 0.  1.
        994   -1    0    0    0    0 -0.00000000000E+00 -0.00000000000E+00  0.11368683772E-12  0.17120000000E+03  0.17120000000E+03 0.  0.
         13    1    1    2    0    0 -0.74729249204E+01  0.25838163439E+02  0.89370647805E+02  0.93330483498E+02  0.10566000000E+00 0.  1.
        994    1    1    2    0    0  0.12321309088E+02 -0.26203427622E+02  0.65591383322E+01  0.17375527783E+03  0.17120000000E+03 0.  0.
        998    1    1    2    0    0 -0.48483841679E+01  0.36526418338E+00  0.14040702101E+04  0.14041142387E+04  0.10000000000E+02 0.  1.
</event>
<event>
 5    1  0.1321379E-008  0.3835735E+03  0.7957747E-01  0.3435745E+00
         13   -1    0    0    0    0  0.00000000000E+00  0.00000000000E+00  0.14999999963E+04  0.15000000000E+04  0.10566000000E+00 0. -1.
        994   -1    0    0    0    0 -0.00000000000E+00 -0.00000000000E+00  0.11368683772E-12  0.17120000000E+03  0.17120000000E+03 0.  0.
         13    1    1    2    0    0 -0.89170103456E+01 -0.16205852953E+02  0.74129211438E+02  0.76402185152E+02  0.10566000000E+00 0. -1.
        994    1    1    2    0    0 -0.61753581735E+00  0.96015950086E+01  0.26459213578E+01  0.17149056206E+03  0.17120000000E+03 0.  0.
        998    1    1    2    0    0  0.95345461630E+01  0.66042579445E+01  0.14232248635E+04  0.14233072528E+04  0.10000000000E+02 0. -1.
</event>
<event>
 5    1  0.1321379E-008  0.3841788E+03  0.7957747E-01  0.3433163E+00
         13   -1    0    0    0    0  0.00000000000E+00  0.00000000000E+00  0.14999999963E+04  0.15000000000E+04  0.10566000000E+00 0. -1.
        994   -1    0    0    0    0 -0.00000000000E+00 -0.00000000000E+00  0.11368683772E-12  0.17120000000E+03  0.17120000000E+03 0.  0.
         13    1    1    2    0    0  0.89520932874E+01  0.63173970872E+01  0.29648331137E+02  0.31608292954E+02  0.10566000000E+00 0. -1.
        994    1    1    2    0    0  0.17016699393E+01 -0.44299242647E+01  0.21126646212E+01  0.17127878812E+03  0.17120000000E+03 0.  0.
        998    1    1    2    0    0 -0.10653763227E+02 -0.18874728226E+01  0.14682390005E+04  0.14683129189E+04  0.10000000000E+02 0. -1.
</event>
<event>
 5    1  0.1321379E-008  0.3849282E+03  0.7957747E-01  0.3429977E+00
         13   -1    0    0    0    0  0.00000000000E+00  0.00000000000E+00  0.14999999963E+04  0.15000000000E+04  0.10566000000E+00 0. -1.
        994   -1    0    0    0    0 -0.00000000000E+00 -0.00000000000E+00  0.11368683772E-12  0.17120000000E+03  0.17120000000E+03 0.  0.
         13    1    1    2    0    0  0.76117876945E+01 -0.79959988698E+01  0.35879627712E+02  0.37539767695E+02  0.10566000000E+00 0. -1.
        994    1    1    2    0    0 -0.10622682306E+02  0.43241864244E+01  0.20986199104E+01  0.17159657390E+03  0.17120000000E+03 0.  0.
        998    1    1    2    0    0  0.30108946112E+01  0.36718124454E+01  0.14620217487E+04  0.14620636584E+04  0.10000000000E+02 0. -1.
</event>
<event>
 5    1  0.1321379E-008  0.3836885E+03  0.7957747E-01  0.3435254E+00
         13   -1    0    0    0    0  0.00000000000E+00  0.00000000000E+00  0.14999999963E+04  0.15000000000E+04  0.10566000000E+00 0. -1.
        994   -1    0    0    0    0 -0.00000000000E+00 -0.00000000000E+00  0.11368683772E-12  0.17120000000E+03  0.17120000000E+03 0.  0.
         13    1    1    2    0    0  0.56095383009E+01  0.21379777935E+02  0.10891711460E+03  0.11113735124E+03  0.10566000000E+00 0. -1.
        994    1    1    2    0    0  0.16050993760E+01 -0.11302441559E+02  0.27132018096E+01  0.17160164042E+03  0.17120000000E+03 0.  0.
        998    1    1    2    0    0 -0.72146376769E+01 -0.10077336376E+02  0.13883696799E+04  0.13884610083E+04  0.10000000000E+02 0. -1.
</event>
<event>
 5    1  0.1321379E-008  0.3840437E+03  0.7957747E-01  0.3433738E+00
         13   -1    0    0    0    0  0.00000000000E+00  0.00000000000E+00  0.14999999963E+04  0.15000000000E+04  0.10566000000E+00 0. -1.
        994   -1    0    0    0    0 -0.00000000000E+00 -0.00000000000E+00  0.11368683772E-12  0.17120000000E+03  0.17120000000E+03 0.  0.
         13    1    1    2    0    0 -0.71894447825E+01 -0.14749844704E+02  0.60210704550E+02  0.62406619373E+02  0.10566000000E+00 0. -1.
        994    1    1    2    0    0  0.23624179123E+02  0.11712221195E+02  0.44026813553E+01  0.17327464202E+03  0.17120000000E+03 0.  0.
        998    1    1    2    0    0 -0.16434734341E+02  0.30376235095E+01  0.14353866104E+04  0.14355187386E+04  0.10000000000E+02 0. -1.
</event>
<event>
 5    1  0.1321379E-008  0.3844848E+03  0.7957747E-01  0.3431860E+00
         13   -1    0    0    0    0  0.00000000000E+00  0.00000000000E+00  0.14999999963E+04  0.15000000000E+04  0.10566000000E+00 0. -1.
        994   -1    0    0    0    0 -0.00000000000E+00 -0.00000000000E+00  0.11368683772E-12  0.17120000000E+03  0.17120000000E+03 0.  0.
         13    1    1    2    0    0  0.16096380292E+02 -0.57230591546E+00  0.66561422031E+02  0.68482516451E+02  0.10566000000E+00 0. -1.
        994    1    1    2    0    0 -0.15131853742E+02  0.17219239474E+02  0.36190612528E+01  0.17276577442E+03  0.17120000000E+03 0.  0.
        998    1    1    2    0    0 -0.96452655033E+00 -0.16646933558E+02  0.14298195130E+04  0.14299517091E+04  0.10000000000E+02 0. -1.
</event>
<event>
 5    1  0.1321379E-008  0.3794289E+03  0.7957747E-01  0.3453649E+00
         13   -1    0    0    0    0  0.00000000000E+00  0.00000000000E+00  0.14999999963E+04  0.15000000000E+04  0.10566000000E+00 0.  1.
        994   -1    0    0    0    0 -0.00000000000E+00 -0.00000000000E+00  0.11368683772E-12  0.17120000000E+03  0.17120000000E+03 0.  0.
         13    1    1    2    0    0  0.10627082602E+02 -0.23827173655E+02  0.14639840130E+02  0.29916637045E+02  0.10566000000E+00 0.  1.
        994    1    1    2    0    0  0.17956487492E+01  0.17242172101E+02  0.17101300769E+02  0.17292313709E+03  0.17120000000E+03 0.  0.
        998    1    1    2    0    0 -0.12422731351E+02  0.65850015549E+01  0.14682588554E+04  0.14683602259E+04  0.10000000000E+02 0.  1.
</event>
<event>
 5    1  0.1321379E-008  0.3703490E+03  0.7957747E-01  0.3494289E+00
         13   -1    0    0    0    0  0.00000000000E+00  0.00000000000E+00  0.14999999963E+04  0.15000000000E+04  0.10566000000E+00 0.  1.
        994   -1    0    0    0    0 -0.00000000000E+00 -0.00000000000E+00  0.11368683772E-12  0.17120000000E+03  0.17120000000E+03 0.  0.
         13    1    1    2    0    0  0.71157368655E+02  0.37010499902E+02  0.28059370640E+03  0.29183212203E+03  0.10566000000E+00 0.  1.
        994    1    1    2    0    0 -0.73348148039E+02 -0.37396727753E+02  0.32874299950E+02  0.19279166389E+03  0.17120000000E+03 0.  0.
        998    1    1    2    0    0  0.21907793838E+01  0.38622785152E+00  0.11865319899E+04  0.11865762141E+04  0.10000000000E+02 0.  0.
</event>
<event>
 5    1  0.1321379E-008  0.3732961E+03  0.7957747E-01  0.3480878E+00
         13   -1    0    0    0    0  0.00000000000E+00  0.00000000000E+00  0.14999999963E+04  0.15000000000E+04  0.10566000000E+00 0.  1.
        994   -1    0    0    0    0 -0.00000000000E+00 -0.00000000000E+00  0.11368683772E-12  0.17120000000E+03  0.17120000000E+03 0.  0.
         13    1    1    2    0    0  0.13991150029E+02 -0.75856998801E+02  0.45142288980E+03  0.45796579910E+03  0.10566000000E+00 0.  1.
        994    1    1    2    0    0 -0.32032902121E+02  0.25396634665E+02  0.13291139638E+02  0.17651399453E+03  0.17120000000E+03 0.  0.
        998    1    1    2    0    0  0.18041752093E+02  0.50460364136E+02  0.10352859668E+04  0.10367202064E+04  0.10000000000E+02 0.  1.
</event>
<event>
 5    1  0.1321379E-008  0.3847178E+03  0.7957747E-01  0.3430870E+00
         13   -1    0    0    0    0  0.00000000000E+00  0.00000000000E+00  0.14999999963E+04  0.15000000000E+04  0.10566000000E+00 0. -1.
        994   -1    0    0    0    0 -0.00000000000E+00 -0.00000000000E+00  0.11368683772E-12  0.17120000000E+03  0.17120000000E+03 0.  0.
         13    1    1    2    0    0  0.16960976808E+02 -0.14403501927E+01  0.85467037786E+02  0.87145711627E+02  0.10566000000E+00 0. -1.
        994    1    1    2    0    0 -0.78260443559E+01 -0.25759446398E+02  0.41597470808E+01  0.17335379876E+03  0.17120000000E+03 0.  0.
        998    1    1    2    0    0 -0.91349324516E+01  0.27199796591E+02  0.14103732114E+04  0.14107004896E+04  0.10000000000E+02 0. -1.
</event>
<event>
 5    1  0.1321379E-008  0.3700589E+03  0.7957747E-01  0.3495620E+00
         13   -1    0    0    0    0  0.00000000000E+00  0.00000000000E+00  0.14999999963E+04  0.15000000000E+04  0.10566000000E+00 0. -1.
        994   -1    0    0    0    0 -0.00000000000E+00 -0.00000000000E+00  0.11368683772E-12  0.17120000000E+03  0.17120000000E+03 0.  0.
         13    1    1    2    0    0  0.42029978804E+02 -0.51819566908E+02  0.19987950673E+03  0.21072165291E+03  0.10566000000E+00 0. -1.
        994    1    1    2    0    0 -0.51603398555E+02  0.52092179193E+02  0.28061285995E+02  0.18834378579E+03  0.17120000000E+03 0.  0.
        998    1    1    2    0    0  0.95734197515E+01 -0.27261228536E+00  0.12720592036E+04  0.12721345613E+04  0.10000000000E+02 0. -1.
</event>
<event>
 5    1  0.1321379E-008  0.3811312E+03  0.7957747E-01  0.3446248E+00
         13   -1    0    0    0    0  0.00000000000E+00  0.00000000000E+00  0.14999999963E+04  0.15000000000E+04  0.10566000000E+00 0.  1.
        994   -1    0    0    0    0 -0.00000000000E+00 -0.00000000000E+00  0.11368683772E-12  0.17120000000E+03  0.17120000000E+03 0.  0.
         13    1    1    2    0    0 -0.32636679437E+02 -0.97556128987E+01  0.17932884338E+03  0.18253539399E+03  0.10566000000E+00 0.  1.
        994    1    1    2    0    0  0.60593539468E+01  0.13756917909E+01  0.36917986642E+01  0.17135249539E+03  0.17120000000E+03 0.  0.
        998    1    1    2    0    0  0.26577325490E+02  0.83799211078E+01  0.13169793542E+04  0.13173121106E+04  0.10000000000E+02 0.  1.
</event>
<event>
 5    1  0.1321379E-008  0.3815748E+03  0.7957747E-01  0.3444330E+00
         13   -1    0    0    0    0  0.00000000000E+00  0.00000000000E+00  0.14999999963E+04  0.15000000000E+04  0.10566000000E+00 0.  1.
        994   -1    0    0    0    0 -0.00000000000E+00 -0.00000000000E+00  0.11368683772E-12  0.17120000000E+03  0.17120000000E+03 0.  0.
         13    1    1    2    0    0 -0.31557401540E+02 -0.36145547729E+01  0.15111820944E+03  0.15442039692E+03  0.10566000000E+00 0.  1.
        994    1    1    2    0    0  0.20357763824E+02 -0.17919244247E+02  0.57902650197E+01  0.17343155720E+03  0.17120000000E+03 0.  0.
        998    1    1    2    0    0  0.11199637716E+02  0.21533799020E+02  0.13430915218E+04  0.13433480459E+04  0.10000000000E+02 0.  1.
</event>
<event>
 5    1  0.1321379E-008  0.3815884E+03  0.7957747E-01  0.3444271E+00
         13   -1    0    0    0    0  0.00000000000E+00  0.00000000000E+00  0.14999999963E+04  0.15000000000E+04  0.10566000000E+00 0. -1.
        994   -1    0    0    0    0 -0.00000000000E+00 -0.00000000000E+00  0.11368683772E-12  0.17120000000E+03  0.17120000000E+03 0.  0.
         13    1    1    2    0    0  0.19270679538E+02  0.15031790296E+02  0.87873593055E+02  0.91209063858E+02  0.10566000000E+00 0. -1.
        994    1    1    2    0    0 -0.25870254170E+02  0.58060679189E+01  0.56746997229E+01  0.17333384751E+03  0.17120000000E+03 0.  0.
        998    1    1    2    0    0  0.65995746319E+01 -0.20837858215E+02  0.14064517035E+04  0.14066570886E+04  0.10000000000E+02 0. -1.
</event>
<event>
 5    1  0.1321379E-008  0.3862686E+03  0.7957747E-01  0.3424310E+00
         13   -1    0    0    0    0  0.00000000000E+00  0.00000000000E+00  0.14999999963E+04  0.15000000000E+04  0.10566000000E+00 0.  1.
        994   -1    0    0    0    0 -0.00000000000E+00 -0.00000000000E+00  0.11368683772E-12  0.17120000000E+03  0.17120000000E+03 0.  0.
         13    1    1    2    0    0 -0.10285714789E+02  0.22404731180E+01  0.62496554821E+02  0.63377016158E+02  0.10566000000E+00 0.  1.
        994    1    1    2    0    0 -0.66171173855E+01 -0.20284640215E+01  0.11584902279E+01  0.17134375684E+03  0.17120000000E+03 0.  0.
        998    1    1    2    0    0  0.16902832174E+02 -0.21200909647E+00  0.14363449512E+04  0.14364792270E+04  0.10000000000E+02 0.  1.
</event>
<event>
 5    1  0.1321379E-008  0.3835336E+03  0.7957747E-01  0.3435915E+00
         13   -1    0    0    0    0  0.00000000000E+00  0.00000000000E+00  0.14999999963E+04  0.15000000000E+04  0.10566000000E+00 0. -1.
        994   -1    0    0    0    0 -0.00000000000E+00 -0.00000000000E+00  0.11368683772E-12  0.17120000000E+03  0.17120000000E+03 0.  0.
         13    1    1    2    0    0  0.15392041331E+02  0.60673102715E+00  0.50563138283E+02  0.52857593361E+02  0.10566000000E+00 0. -1.
        994    1    1    2    0    0 -0.62516185545E+01 -0.27155728247E+01  0.25134756358E+01  0.17135406219E+03  0.17120000000E+03 0.  0.
        998    1    1    2    0    0 -0.91404227761E+01  0.21088417976E+01  0.14469233824E+04  0.14469883444E+04  0.10000000000E+02 0. -1.
</event>
<event>
 5    1  0.1321379E-008  0.3845499E+03  0.7957747E-01  0.3431583E+00
         13   -1    0    0    0    0  0.00000000000E+00  0.00000000000E+00  0.14999999963E+04  0.15000000000E+04  0.10566000000E+00 0. -1.
        994   -1    0    0    0    0 -0.00000000000E+00 -0.00000000000E+00  0.11368683772E-12  0.17120000000E+03  0.17120000000E+03 0.  0.
         13    1    1    2    0    0  0.13314335958E+02  0.12187399583E+02  0.94583741773E+02  0.96290703717E+02  0.10566000000E+00 0. -1.
        994    1    1    2    0    0  0.57659657090E+01 -0.82403167871E+01  0.21869543176E+01  0.17150910165E+03  0.17120000000E+03 0.  0.
        998    1    1    2    0    0 -0.19080301667E+02 -0.39470827962E+01  0.14032293002E+04  0.14034001946E+04  0.10000000000E+02 0. -1.
</event>
<event>
 5    1  0.1321379E-008  0.3753796E+03  0.7957747E-01  0.3471527E+00
         13   -1    0    0    0    0  0.00000000000E+00  0.00000000000E+00  0.14999999963E+04  0.15000000000E+04  0.10566000000E+00 0. -1.
        994   -1    0    0    0    0 -0.00000000000E+00 -0.00000000000E+00  0.11368683772E-12  0.17120000000E+03  0.17120000000E+03 0.  0.
         13    1    1    2    0    0  0.52587462648E+01 -0.18476847992E+02  0.25028945214E+02  0.31551665353E+02  0.10566000000E+00 0. -1.
        994    1    1    2    0    0 -0.34425742447E+01  0.24190060507E+02  0.85133017772E+01  0.17314423655E+03  0.17120000000E+03 0.  0.
        998    1    1    2    0    0 -0.18161720201E+01 -0.57132125154E+01  0.14664577493E+04  0.14665040981E+04  0.10000000000E+02 0. -1.
</event>
<event>
 5    1  0.1321379E-008  0.3712792E+03  0.7957747E-01  0.3490032E+00
         13   -1    0    0    0    0  0.00000000000E+00  0.00000000000E+00  0.14999999963E+04  0.15000000000E+04  0.10566000000E+00 0. -1.
        994   -1    0    0    0    0 -0.00000000000E+00 -0.00000000000E+00  0.11368683772E-12  0.17120000000E+03  0.17120000000E+03 0.  0.
         13    1    1    2    0    0 -0.26292304008E+02 -0.27179589375E+02  0.54902679107E+02  0.66665813322E+02  0.10566000000E+00 0. -1.
        994    1    1    2    0    0  0.18366629201E+02  0.37723920826E+02  0.17824519348E+02  0.17716540509E+03  0.17120000000E+03 0.  0.
        998    1    1    2    0    0  0.79256748078E+01 -0.10544331450E+02  0.14272727978E+04  0.14273687816E+04  0.10000000000E+02 0. -1.
</event>
<event>
 5    1  0.1321379E-008  0.3837851E+03  0.7957747E-01  0.3434841E+00
         13   -1    0    0    0    0  0.00000000000E+00  0.00000000000E+00  0.14999999963E+04  0.15000000000E+04  0.10566000000E+00 0. -1.
        994   -1    0    0    0    0 -0.00000000000E+00 -0.00000000000E+00  0.11368683772E-12  0.17120000000E+03  0.17120000000E+03 0.  0.
         13    1    1    2    0    0 -0.41280142833E+01  0.14600445026E+02  0.50513447457E+02  0.52743085185E+02  0.10566000000E+00 0. -1.
        994    1    1    2    0    0  0.47061551642E+01 -0.11043297734E+02  0.27104268359E+01  0.17164174532E+03  0.17120000000E+03 0.  0.
        998    1    1    2    0    0 -0.57814088088E+00 -0.35571472920E+01  0.14467761220E+04  0.14468151695E+04  0.10000000000E+02 0. -1.
</event>
<event>
 5    1  0.1321379E-008  0.3830609E+03  0.7957747E-01  0.3437938E+00
         13   -1    0    0    0    0  0.00000000000E+00  0.00000000000E+00  0.14999999963E+04  0.15000000000E+04  0.10566000000E+00 0. -1.
        994   -1    0    0    0    0 -0.00000000000E+00 -0.00000000000E+00  0.11368683772E-12  0.17120000000E+03  0.17120000000E+03 0.  0.
         13    1    1    2    0    0 -0.19604136446E+02 -0.87557695130E+01  0.93077497112E+02  0.95521815824E+02  0.10566000000E+00 0. -1.
        994    1    1    2    0    0  0.64642249451E+01 -0.34546055642E+01  0.27737572464E+01  0.17137927014E+03  0.17120000000E+03 0.  0.
        998    1    1    2    0    0  0.13139911500E+02  0.12210375077E+02  0.14041487419E+04  0.14042989140E+04  0.10000000000E+02 0. -1.
</event>
<event>
 5    1  0.1321379E-008  0.3790442E+03  0.7957747E-01  0.3455331E+00
         13   -1    0    0    0    0  0.00000000000E+00  0.00000000000E+00  0.14999999963E+04  0.15000000000E+04  0.10566000000E+00 0. -1.
        994   -1    0    0    0    0 -0.00000000000E+00 -0.00000000000E+00  0.11368683772E-12  0.17120000000E+03  0.17120000000E+03 0.  0.
         13    1    1    2    0    0  0.16353076793E+02  0.10814371782E+01  0.28580490792E+02  0.32946141578E+02  0.10566000000E+00 0. -1.
        994    1    1    2    0    0  0.61359794107E+01 -0.71690322774E+01  0.49150957926E+01  0.17153029888E+03  0.17120000000E+03 0.  0.
        998    1    1    2    0    0 -0.22489056203E+02  0.60875950991E+01  0.14665044097E+04  0.14667235595E+04  0.10000000000E+02 0. -1.
</event>
<event>
 5    1  0.1321379E-008  0.3846328E+03  0.7957747E-01  0.3431231E+00
         13   -1    0    0    0    0  0.00000000000E+00  0.00000000000E+00  0.14999999963E+04  0.15000000000E+04  0.10566000000E+00 0. -1.
        994   -1    0    0    0    0 -0.00000000000E+00 -0.00000000000E+00  0.11368683772E-12  0.17120000000E+03  0.17120000000E+03 0.  0.
         13    1    1    2    0    0  0.23883641627E+01  0.10192602567E+02  0.31279205118E+02  0.32984742947E+02  0.10566000000E+00 0. -1.
        994    1    1    2    0    0  0.13575253673E+02  0.45847148774E+00  0.24202515713E+01  0.17175504454E+03  0.17120000000E+03 0.  0.
        998    1    1    2    0    0 -0.15963617836E+02 -0.10651074054E+02  0.14663005396E+04  0.14664602125E+04  0.10000000000E+02 0. -1.
</event>
<event>
 5    1  0.1321379E-008  0.3910560E+03  0.7957747E-01  0.3404387E+00
         13   -1    0    0    0    0  0.00000000000E+00  0.00000000000E+00  0.14999999963E+04  0.15000000000E+04  0.10566000000E+00 0.  1.
        994   -1    0    0    0    0 -0.00000000000E+00 -0.00000000000E+00  0.11368683772E-12  0.17120000000E+03  0.17120000000E+03 0.  0.
         13    1    1    2    0    0 -0.29673785388E+02 -0.92343038624E+02  0.19268977867E+03  0.21572466778E+03  0.10566000000E+00 0.  1.
        994    1    1    2    0    0  0.92452748828E+02  0.48774402945E+02  0.65116862014E+02  0.21089357237E+03  0.17120000000E+03 0.  0.
        998    1    1    2    0    0 -0.62778963440E+02  0.43568635679E+02  0.12421933556E+04  0.12445817598E+04  0.10000000000E+02 0.  1.
</event>
<event>
 5    1  0.1321379E-008  0.3821208E+03  0.7957747E-01  0.3441976E+00
         13   -1    0    0    0    0  0.00000000000E+00  0.00000000000E+00  0.14999999963E+04  0.15000000000E+04  0.10566000000E+00 0. -1.
        994   -1    0    0    0    0 -0.00000000000E+00 -0.00000000000E+00  0.11368683772E-12  0.17120000000E+03  0.17120000000E+03 0.  0.
         13    1    1    2    0    0  0.22142158414E+02  0.36701221094E+02  0.24702114806E+03  0.25071241206E+03  0.10566000000E+00 0. -1.
        994    1    1    2    0    0 -0.25261000490E+02 -0.37437196994E+02  0.98671139989E+01  0.17733150257E+03  0.17120000000E+03 0.  0.
        998    1    1    2    0    0  0.31188420765E+01  0.73597589948E+00  0.12431117342E+04  0.12431560854E+04  0.10000000000E+02 0.  0.
</event>
<event>
 5    1  0.1321379E-008  0.3718887E+03  0.7957747E-01  0.3487256E+00
         13   -1    0    0    0    0  0.00000000000E+00  0.00000000000E+00  0.14999999963E+04  0.15000000000E+04  0.10566000000E+00 0. -1.
        994   -1    0    0    0    0 -0.00000000000E+00 -0.00000000000E+00  0.11368683772E-12  0.17120000000E+03  0.17120000000E+03 0.  0.
         13    1    1    2    0    0  0.10116737524E+02  0.59991286553E+00  0.23231577475E+01  0.10397908421E+02  0.10566000000E+00 0. -1.
        994    1    1    2    0    0 -0.83856596636E+01  0.36901233862E+00  0.85272708642E+01  0.17161762674E+03  0.17120000000E+03 0.  0.
        998    1    1    2    0    0 -0.17310778606E+01 -0.96892520415E+00  0.14891495677E+04  0.14891844648E+04  0.10000000000E+02 0.  0.
</event>
<event>
 5    1  0.1321379E-008  0.3824044E+03  0.7957747E-01  0.3440756E+00
         13   -1    0    0    0    0  0.00000000000E+00  0.00000000000E+00  0.14999999963E+04  0.15000000000E+04  0.10566000000E+00 0. -1.
        994   -1    0    0    0    0 -0.00000000000E+00 -0.00000000000E+00  0.11368683772E-12  0.17120000000E+03  0.17120000000E+03 0.  0.
         13    1    1    2    0    0 -0.15800291933E+02  0.19420723194E+01  0.44107698323E+02  0.46892654920E+02  0.10566000000E+00 0. -1.
        994    1    1    2    0    0 -0.22973121994E+01 -0.26526477031E+02  0.52791065007E+01  0.17333851445E+03  0.17120000000E+03 0.  0.
        998    1    1    2    0    0  0.18097604133E+02  0.24584404711E+02  0.14506131915E+04  0.14509688306E+04  0.10000000000E+02 0. -1.
</event>
<event>
 5    1  0.1321379E-008  0.3824987E+03  0.7957747E-01  0.3440350E+00
         13   -1    0    0    0    0  0.00000000000E+00  0.00000000000E+00  0.14999999963E+04  0.15000000000E+04  0.10566000000E+00 0. -1.
        994   -1    0    0    0    0 -0.00000000000E+00 -0.00000000000E+00  0.11368683772E-12  0.17120000000E+03  0.17120000000E+03 0.  0.
         13    1    1    2    0    0 -0.32344710154E+01  0.25633925078E+02  0.10880732251E+03  0.11183293126E+03  0.10566000000E+00 0. -1.
        994    1    1    2    0    0  0.32579034493E+01 -0.24584423745E+02  0.49188315065E+01  0.17305676158E+03  0.17120000000E+03 0.  0.
        998    1    1    2    0    0 -0.23432433894E-01 -0.10495013330E+01  0.13862738423E+04  0.13863103072E+04  0.10000000000E+02 0.  0.
</event>
<event>
 5    1  0.1321379E-008  0.3758536E+03  0.7957747E-01  0.3469414E+00
         13   -1    0    0    0    0  0.00000000000E+00  0.00000000000E+00  0.14999999963E+04  0.15000000000E+04  0.10566000000E+00 0.  1.
        994   -1    0    0    0    0 -0.00000000000E+00 -0.00000000000E+00  0.11368683772E-12  0.17120000000E+03  0.17120000000E+03 0.  0.
         13    1    1    2    0    0  0.16192627145E+02 -0.61846707885E+02  0.28694181447E+03  0.29397760545E+03  0.10566000000E+00 0.  1.
        994    1    1    2    0    0 -0.25061601089E+02  0.48848464760E+02  0.16526979778E+02  0.18054594268E+03  0.17120000000E+03 0.  0.
        998    1    1    2    0    0  0.88689739436E+01  0.12998243125E+02  0.11965312020E+04  0.11966764519E+04  0.10000000000E+02 0.  0.
</event>
<event>
 5    1  0.1321379E-008  0.3800059E+03  0.7957747E-01  0.3451133E+00
         13   -1    0    0    0    0  0.00000000000E+00  0.00000000000E+00  0.14999999963E+04  0.15000000000E+04  0.10566000000E+00 0. -1.
        994   -1    0    0    0    0 -0.00000000000E+00 -0.00000000000E+00  0.11368683772E-12  0.17120000000E+03  0.17120000000E+03 0.  0.
         13    1    1    2    0    0 -0.51339049088E+02  0.55513261057E+01  0.29838003395E+03  0.30281540748E+03  0.10566000000E+00 0. -1.
        994    1    1    2    0    0  0.45102735745E+02  0.36764974140E+02  0.15533037692E+02  0.18148453200E+03  0.17120000000E+03 0.  0.
        998    1    1    2    0    0  0.62363133430E+01 -0.42316300246E+02  0.11860869246E+04  0.11869000605E+04  0.10000000000E+02 0. -1.
</event>
<event>
 5    1  0.1321379E-008  0.3833350E+03  0.7957747E-01  0.3436764E+00
         13   -1    0    0    0    0  0.00000000000E+00  0.00000000000E+00  0.14999999963E+04  0.15000000000E+04  0.10566000000E+00 0.  1.
        994   -1    0    0    0    0 -0.00000000000E+00 -0.00000000000E+00  0.11368683772E-12  0.17120000000E+03  0.17120000000E+03 0.  0.
         13    1    1    2    0    0 -0.14495522212E+02 -0.10853126421E+01  0.41194403792E+02  0.43683957416E+02  0.10566000000E+00 0.  1.
        994    1    1    2    0    0  0.15297957580E+02  0.53418905393E+01  0.33276635453E+01  0.17199731581E+03  0.17120000000E+03 0.  0.
        998    1    1    2    0    0 -0.80243536831E+00 -0.42565778973E+01  0.14554779289E+04  0.14555187268E+04  0.10000000000E+02 0.  1.
</event>
<event>
 5    1  0.1321379E-008  0.3696061E+03  0.7957747E-01  0.3497703E+00
         13   -1    0    0    0    0  0.00000000000E+00  0.00000000000E+00  0.14999999963E+04  0.15000000000E+04  0.10566000000E+00 0.  1.
        994   -1    0    0    0    0 -0.00000000000E+00 -0.00000000000E+00  0.11368683772E-12  0.17120000000E+03  0.17120000000E+03 0.  0.
         13    1    1    2    0    0 -0.81698628508E+02  0.32650598291E+02  0.33836914725E+03  0.34962039192E+03  0.10566000000E+00 0.  1.
        994    1    1    2    0    0  0.59335899283E+02 -0.63481811107E+02  0.36092977598E+02  0.19535309651E+03  0.17120000000E+03 0.  0.
        998    1    1    2    0    0  0.22362729225E+02  0.30831212816E+02  0.11255378714E+04  0.11262265116E+04  0.10000000000E+02 0.  1.
</event>
<event>
 5    1  0.1321379E-008  0.3924545E+03  0.7957747E-01  0.3398659E+00
         13   -1    0    0    0    0  0.00000000000E+00  0.00000000000E+00  0.14999999963E+04  0.15000000000E+04  0.10566000000E+00 0.  1.
        994   -1    0    0    0    0 -0.00000000000E+00 -0.00000000000E+00  0.11368683772E-12  0.17120000000E+03  0.17120000000E+03 0.  0.
         13    1    1    2    0    0  0.95450460551E+02  0.72234603450E+01  0.17133845657E+03  0.19626473616E+03  0.10566000000E+00 0.  1.
        994    1    1    2    0    0 -0.87182944627E+02 -0.37129992433E+02  0.58328677623E+02  0.20418417374E+03  0.17120000000E+03 0.  0.
        998    1    1    2    0    0 -0.82675159250E+01  0.29906532088E+02  0.12703328621E+04  0.12707510901E+04  0.10000000000E+02 0.  1.
</event>
<event>
 5    1  0.1321379E-008  0.4206552E+03  0.7957747E-01  0.3291234E+00
         13   -1    0    0    0    0  0.00000000000E+00  0.00000000000E+00  0.14999999963E+04  0.15000000000E+04  0.10566000000E+00 0.  1.
        994   -1    0    0    0    0 -0.00000000000E+00 -0.00000000000E+00  0.11368683772E-12  0.17120000000E+03  0.17120000000E+03 0.  0.
         13    1    1    2    0    0 -0.68734620509E+02 -0.21515954637E+02  0.46983509587E+02  0.85993288678E+02  0.10566000000E+00 0.  1.
        994    1    1    2    0    0  0.76482164994E+02  0.34156022313E+02  0.71482102476E+02  0.20355659261E+03  0.17120000000E+03 0.  0.
        998    1    1    2    0    0 -0.77475444849E+01 -0.12640067677E+02  0.13815343842E+04  0.13816501187E+04  0.10000000000E+02 0.  1.
</event>
<event>
 5    1  0.1321379E-008  0.3759106E+03  0.7957747E-01  0.3469160E+00
         13   -1    0    0    0    0  0.00000000000E+00  0.00000000000E+00  0.14999999963E+04  0.15000000000E+04  0.10566000000E+00 0.  1.
        994   -1    0    0    0    0 -0.00000000000E+00 -0.00000000000E+00  0.11368683772E-12  0.17120000000E+03  0.17120000000E+03 0.  0.
         13    1    1    2    0    0  0.41456062357E+02 -0.11492883036E+03  0.70554609256E+03  0.71604646570E+03  0.10566000000E+00 0.  1.
        994    1    1    2    0    0 -0.97356288858E+02  0.96961658173E+02  0.73139539225E+02  0.23138418774E+03  0.17120000000E+03 0.  0.
        998    1    1    2    0    0  0.55900226501E+02  0.17967172184E+02  0.72131436450E+03  0.72376934657E+03  0.10000000000E+02 0.  1.
</event>
<event>
 5    1  0.1321379E-008  0.3767243E+03  0.7957747E-01  0.3465547E+00
         13   -1    0    0    0    0  0.00000000000E+00  0.00000000000E+00  0.14999999963E+04  0.15000000000E+04  0.10566000000E+00 0.  1.
        994   -1    0    0    0    0 -0.00000000000E+00 -0.00000000000E+00  0.11368683772E-12  0.17120000000E+03  0.17120000000E+03 0.  0.
         13    1    1    2    0    0 -0.42614567928E+02 -0.41466240263E+02  0.24911231278E+03  0.25611014432E+03  0.10566000000E+00 0.  1.
        994    1    1    2    0    0  0.33971639664E+02  0.54456594584E+02  0.19847500960E+02  0.18391018539E+03  0.17120000000E+03 0.  0.
        998    1    1    2    0    0  0.86429282640E+01 -0.12990354321E+02  0.12310401825E+04  0.12311796703E+04  0.10000000000E+02 0.  1.
</event>
<event>
 5    1  0.1321379E-008  0.3859590E+03  0.7957747E-01  0.3425615E+00
         13   -1    0    0    0    0  0.00000000000E+00  0.00000000000E+00  0.14999999963E+04  0.15000000000E+04  0.10566000000E+00 0. -1.
        994   -1    0    0    0    0 -0.00000000000E+00 -0.00000000000E+00  0.11368683772E-12  0.17120000000E+03  0.17120000000E+03 0.  0.
         13    1    1    2    0    0  0.14602617784E+02 -0.99293281247E+01  0.10670223722E+03  0.10815362498E+03  0.10566000000E+00 0. -1.
        994    1    1    2    0    0 -0.27427655950E+02  0.27311480917E+02  0.60819738409E+01  0.17562637532E+03  0.17120000000E+03 0.  0.
        998    1    1    2    0    0  0.12825038166E+02 -0.17382152792E+02  0.13872157852E+04  0.13874199997E+04  0.10000000000E+02 0. -1.
</event>
<event>
 5    1  0.1321379E-008  0.3795844E+03  0.7957747E-01  0.3452970E+00
         13   -1    0    0    0    0  0.00000000000E+00  0.00000000000E+00  0.14999999963E+04  0.15000000000E+04  0.10566000000E+00 0. -1.
        994   -1    0    0    0    0 -0.00000000000E+00 -0.00000000000E+00  0.11368683772E-12  0.17120000000E+03  0.17120000000E+03 0.  0.
         13    1    1    2    0    0  0.25567005280E+02 -0.27705735719E+02  0.14132149904E+03  0.14626365511E+03  0.10566000000E+00 0. -1.
        994    1    1    2    0    0 -0.30486150838E+02  0.33815211584E+02  0.11313527368E+02  0.17751143577E+03  0.17120000000E+03 0.  0.
        998    1    1    2    0    0  0.49191455572E+01 -0.61094758650E+01  0.13473649699E+04  0.13474249091E+04  0.10000000000E+02 0. -1.
</event>
<event>
 5    1  0.1321379E-008  0.3712651E+03  0.7957747E-01  0.3490097E+00
         13   -1    0    0    0    0  0.00000000000E+00  0.00000000000E+00  0.14999999963E+04  0.15000000000E+04  0.10566000000E+00 0. -1.
        994   -1    0    0    0    0 -0.00000000000E+00 -0.00000000000E+00  0.11368683772E-12  0.17120000000E+03  0.17120000000E+03 0.  0.
         13    1    1    2    0    0  0.84841629538E+02 -0.39746297365E+02  0.37939357957E+03  0.39079069799E+03  0.10566000000E+00 0. -1.
        994    1    1    2    0    0 -0.79723358384E+02  0.47155959298E+02  0.38751507561E+02  0.19847069735E+03  0.17120000000E+03 0.  0.
        998    1    1    2    0    0 -0.51182711533E+01 -0.74096619334E+01  0.10818549091E+04  0.10819386047E+04  0.10000000000E+02 0. -1.
</event>
<event>
 5    1  0.1321379E-008  0.3771371E+03  0.7957747E-01  0.3463720E+00
         13   -1    0    0    0    0  0.00000000000E+00  0.00000000000E+00  0.14999999963E+04  0.15000000000E+04  0.10566000000E+00 0. -1.
        994   -1    0    0    0    0 -0.00000000000E+00 -0.00000000000E+00  0.11368683772E-12  0.17120000000E+03  0.17120000000E+03 0.  0.
         13    1    1    2    0    0  0.93307855802E+02 -0.63814125866E+02  0.60098516416E+03  0.61152414288E+03  0.10566000000E+00 0. -1.
        994    1    1    2    0    0 -0.88728660305E+02  0.84387388293E+02  0.57988044696E+02  0.21832558208E+03  0.17120000000E+03 0.  0.
        998    1    1    2    0    0 -0.45791954978E+01 -0.20573262427E+02  0.84102678742E+03  0.84135027505E+03  0.10000000000E+02 0.  1.
</event>
<event>
 5    1  0.1321379E-008  0.3855368E+03  0.7957747E-01  0.3427399E+00
         13   -1    0    0    0    0  0.00000000000E+00  0.00000000000E+00  0.14999999963E+04  0.15000000000E+04  0.10566000000E+00 0.  1.
        994   -1    0    0    0    0 -0.00000000000E+00 -0.00000000000E+00  0.11368683772E-12  0.17120000000E+03  0.17120000000E+03 0.  0.
         13    1    1    2    0    0  0.10677841279E+02  0.80912224434E+01  0.63510488818E+02  0.64908223893E+02  0.10566000000E+00 0.  1.
        994    1    1    2    0    0 -0.10458200469E+02 -0.10927001792E+02  0.21152734403E+01  0.17187986417E+03  0.17120000000E+03 0.  0.
        998    1    1    2    0    0 -0.21964080974E+00  0.28357793486E+01  0.14343742340E+04  0.14344119119E+04  0.10000000000E+02 0.  1.
</event>
<event>
 5    1  0.1321379E-008  0.3996512E+03  0.7957747E-01  0.3369816E+00
         13   -1    0    0    0    0  0.00000000000E+00  0.00000000000E+00  0.14999999963E+04  0.15000000000E+04  0.10566000000E+00 0.  1.
        994   -1    0    0    0    0 -0.00000000000E+00 -0.00000000000E+00  0.11368683772E-12  0.17120000000E+03  0.17120000000E+03 0.  0.
         13    1    1    2    0    0 -0.12721431385E+03  0.58242946770E+02  0.27713211866E+03  0.31044797447E+03  0.10566000000E+00 0.  1.
        994    1    1    2    0    0  0.12897251940E+03 -0.47760163970E+02  0.10609945197E+03  0.24388824845E+03  0.17120000000E+03 0.  0.
        998    1    1    2    0    0 -0.17582055445E+01 -0.10482782800E+02  0.11167684257E+04  0.11168637771E+04  0.10000000000E+02 0.  1.
</event>
<event>
 5    1  0.1321379E-008  0.3710408E+03  0.7957747E-01  0.3491121E+00
         13   -1    0    0    0    0  0.00000000000E+00  0.00000000000E+00  0.14999999963E+04  0.15000000000E+04  0.10566000000E+00 0.  1.
        994   -1    0    0    0    0 -0.00000000000E+00 -0.00000000000E+00  0.11368683772E-12  0.17120000000E+03  0.17120000000E+03 0.  0.
         13    1    1    2    0    0  0.10816642418E+03  0.49369113877E+02  0.61776076279E+03  0.62909908276E+03  0.10566000000E+00 0.  1.
        994    1    1    2    0    0 -0.72925991882E+02 -0.77778912690E+02  0.48973443036E+02  0.20754661566E+03  0.17120000000E+03 0.  0.
        998    1    1    2    0    0 -0.35240432296E+02  0.28409798812E+02  0.83326579046E+03  0.83455430158E+03  0.10000000000E+02 0.  1.
</event>
<event>
 5    1  0.1321379E-008  0.3846556E+03  0.7957747E-01  0.3431134E+00
         13   -1    0    0    0    0  0.00000000000E+00  0.00000000000E+00  0.14999999963E+04  0.15000000000E+04  0.10566000000E+00 0.  1.
        994   -1    0    0    0    0 -0.00000000000E+00 -0.00000000000E+00  0.11368683772E-12  0.17120000000E+03  0.17120000000E+03 0.  0.
         13    1    1    2    0    0  0.15891142482E+02  0.15638293643E+01  0.72566987066E+02  0.74303113983E+02  0.10566000000E+00 0.  1.
        994    1    1    2    0    0 -0.58269156329E+01 -0.42003805470E+01  0.19711247471E+01  0.17136196041E+03  0.17120000000E+03 0.  0.
        998    1    1    2    0    0 -0.10064226849E+02  0.26365511827E+01  0.14254618845E+04  0.14255349256E+04  0.10000000000E+02 0.  1.
</event>
<event>
 5    1  0.1321379E-008  0.3834537E+03  0.7957747E-01  0.3436257E+00
         13   -1    0    0    0    0  0.00000000000E+00  0.00000000000E+00  0.14999999963E+04  0.15000000000E+04  0.10566000000E+00 0.  1.
        994   -1    0    0    0    0 -0.00000000000E+00 -0.00000000000E+00  0.11368683772E-12  0.17120000000E+03  0.17120000000E+03 0.  0.
         13    1    1    2    0    0  0.16127315024E+02 -0.11547136998E+02  0.75362586196E+02  0.77929180831E+02  0.10566000000E+00 0.  1.
        994    1    1    2    0    0 -0.23512740127E+02  0.12229553105E+02  0.47248829441E+01  0.17330370866E+03  0.17120000000E+03 0.  0.
        998    1    1    2    0    0  0.73854251028E+01 -0.68241610726E+00  0.14199125271E+04  0.14199671105E+04  0.10000000000E+02 0.  1.
</event>
<event>
 5    1  0.1321379E-008  0.3752302E+03  0.7957747E-01  0.3472194E+00
         13   -1    0    0    0    0  0.00000000000E+00  0.00000000000E+00  0.14999999963E+04  0.15000000000E+04  0.10566000000E+00 0. -1.
        994   -1    0    0    0    0 -0.00000000000E+00 -0.00000000000E+00  0.11368683772E-12  0.17120000000E+03  0.17120000000E+03 0.  0.
         13    1    1    2    0    0  0.13568076976E+02  0.68462080847E+01  0.14859514494E+02  0.21255107927E+02  0.10566000000E+00 0. -1.
        994    1    1    2    0    0 -0.54462424911E+01 -0.47744498676E+01  0.67387605337E+01  0.17148559071E+03  0.17120000000E+03 0.  0.
        998    1    1    2    0    0 -0.81218344852E+01 -0.20717582172E+01  0.14784017213E+04  0.14784593014E+04  0.10000000000E+02 0. -1.
</event>
<event>
 5    1  0.1321379E-008  0.3846006E+03  0.7957747E-01  0.3431368E+00
         13   -1    0    0    0    0  0.00000000000E+00  0.00000000000E+00  0.14999999963E+04  0.15000000000E+04  0.10566000000E+00 0.  1.
        994   -1    0    0    0    0 -0.00000000000E+00 -0.00000000000E+00  0.11368683772E-12  0.17120000000E+03  0.17120000000E+03 0.  0.
         13    1    1    2    0    0 -0.38935010888E+01 -0.13232419313E+02  0.52627602172E+02  0.54405256603E+02  0.10566000000E+00 0.  1.
        994    1    1    2    0    0  0.84929078206E+00  0.62599518900E+01  0.19599911914E+01  0.17132772647E+03  0.17120000000E+03 0.  0.
        998    1    1    2    0    0  0.30442103068E+01  0.69724674230E+01  0.14454124029E+04  0.14454670169E+04  0.10000000000E+02 0.  1.
</event>
<event>
 5    1  0.1321379E-008  0.3806881E+03  0.7957747E-01  0.3448168E+00
         13   -1    0    0    0    0  0.00000000000E+00  0.00000000000E+00  0.14999999963E+04  0.15000000000E+04  0.10566000000E+00 0.  1.
        994   -1    0    0    0    0 -0.00000000000E+00 -0.00000000000E+00  0.11368683772E-12  0.17120000000E+03  0.17120000000E+03 0.  0.
         13    1    1    2    0    0 -0.98100485827E+01 -0.19049686678E+02  0.56036312787E+02  0.59993392391E+02  0.10566000000E+00 0.  1.
        994    1    1    2    0    0  0.93969771681E+01  0.26216044564E+02  0.63773270757E+01  0.17356755017E+03  0.17120000000E+03 0.  0.
        998    1    1    2    0    0  0.41307141456E+00 -0.71663578865E+01  0.14375863564E+04  0.14376390574E+04  0.10000000000E+02 0.  1.
</event>
<event>
 5    1  0.1321379E-008  0.3855428E+03  0.7957747E-01  0.3427373E+00
         13   -1    0    0    0    0  0.00000000000E+00  0.00000000000E+00  0.14999999963E+04  0.15000000000E+04  0.10566000000E+00 0.  1.
        994   -1    0    0    0    0 -0.00000000000E+00 -0.00000000000E+00  0.11368683772E-12  0.17120000000E+03  0.17120000000E+03 0.  0.
         13    1    1    2    0    0  0.11598580758E+02 -0.17179694987E+01  0.48690769306E+02  0.50082738288E+02  0.10566000000E+00 0.  1.
        994    1    1    2    0    0 -0.13864774770E+02  0.81468926631E+01  0.22103163717E+01  0.17196781483E+03  0.17120000000E+03 0.  0.
        998    1    1    2    0    0  0.22661940120E+01 -0.64289231644E+01  0.14490989106E+04  0.14491494469E+04  0.10000000000E+02 0.  1.
</event>
<event>
 5    1  0.1321379E-008  0.3843888E+03  0.7957747E-01  0.3432269E+00
         13   -1    0    0    0    0  0.00000000000E+00  0.00000000000E+00  0.14999999963E+04  0.15000000000E+04  0.10566000000E+00 0.  1.
        994   -1    0    0    0    0 -0.00000000000E+00 -0.00000000000E+00  0.11368683772E-12  0.17120000000E+03  0.17120000000E+03 0.  0.
         13    1    1    2    0    0  0.52719488725E+01  0.89311891649E+01  0.27879856391E+02  0.29746548392E+02  0.10566000000E+00 0.  1.
        994    1    1    2    0    0 -0.11780038973E+02  0.45327794546E+01  0.24590606421E+01  0.17168227162E+03  0.17120000000E+03 0.  0.
        998    1    1    2    0    0  0.65080901009E+01 -0.13463968619E+02  0.14696610792E+04  0.14697711800E+04  0.10000000000E+02 0.  1.
</event>
<event>
 5    1  0.1321379E-008  0.3795803E+03  0.7957747E-01  0.3452988E+00
         13   -1    0    0    0    0  0.00000000000E+00  0.00000000000E+00  0.14999999963E+04  0.15000000000E+04  0.10566000000E+00 0. -1.
        994   -1    0    0    0    0 -0.00000000000E+00 -0.00000000000E+00  0.11368683772E-12  0.17120000000E+03  0.17120000000E+03 0.  0.
         13    1    1    2    0    0 -0.21550037102E+02  0.95207239510E+01  0.64555836377E+02  0.68720560665E+02  0.10566000000E+00 0. -1.
        994    1    1    2    0    0  0.45824366798E+01 -0.52411737687E+01  0.45074280268E+01  0.17140077461E+03  0.17120000000E+03 0.  0.
        998    1    1    2    0    0  0.16967600422E+02 -0.42795501824E+01  0.14309367319E+04  0.14310786647E+04  0.10000000000E+02 0. -1.
</event>
<event>
 5    1  0.1321379E-008  0.3772220E+03  0.7957747E-01  0.3463344E+00
         13   -1    0    0    0    0  0.00000000000E+00  0.00000000000E+00  0.14999999963E+04  0.15000000000E+04  0.10566000000E+00 0.  1.
        994   -1    0    0    0    0 -0.00000000000E+00 -0.00000000000E+00  0.11368683772E-12  0.17120000000E+03  0.17120000000E+03 0.  0.
         13    1    1    2    0    0  0.79597952135E+01  0.63628136219E+01  0.68013016438E+01  0.12252044936E+02  0.10566000000E+00 0.  1.
        994    1    1    2    0    0 -0.76883740965E+01 -0.58032889055E+01  0.58552084021E+01  0.17157072222E+03  0.17120000000E+03 0.  0.
        998    1    1    2    0    0 -0.27142111698E+00 -0.55952471646E+00  0.14873434862E+04  0.14873772328E+04  0.10000000000E+02 0.  1.
</event>
<event>
 5    1  0.1321379E-008  0.3780736E+03  0.7957747E-01  0.3459589E+00
         13   -1    0    0    0    0  0.00000000000E+00  0.00000000000E+00  0.14999999963E+04  0.15000000000E+04  0.10566000000E+00 0.  1.
        994   -1    0    0    0    0 -0.00000000000E+00 -0.00000000000E+00  0.11368683772E-12  0.17120000000E+03  0.17120000000E+03 0.  0.
         13    1    1    2    0    0  0.42172175959E+02  0.19195385702E+02  0.17830319298E+03  0.18422539198E+03  0.10566000000E+00 0.  1.
        994    1    1    2    0    0 -0.45416895520E+02 -0.26002594755E+02  0.14379032035E+02  0.17959684266E+03  0.17120000000E+03 0.  0.
        998    1    1    2    0    0  0.32447195601E+01  0.68072090534E+01  0.13073177713E+04  0.13073777654E+04  0.10000000000E+02 0.  1.
</event>
<event>
 5    1  0.1321379E-008  0.3814329E+03  0.7957747E-01  0.3444943E+00
         13   -1    0    0    0    0  0.00000000000E+00  0.00000000000E+00  0.14999999963E+04  0.15000000000E+04  0.10566000000E+00 0.  1.
        994   -1    0    0    0    0 -0.00000000000E+00 -0.00000000000E+00  0.11368683772E-12  0.17120000000E+03  0.17120000000E+03 0.  0.
         13    1    1    2    0    0  0.11070889794E+02  0.23321009354E+02  0.12052739047E+02  0.28490590740E+02  0.10566000000E+00 0.  1.
        994    1    1    2    0    0  0.11589222515E+02 -0.30664330285E+02  0.21040853305E+02  0.17557553570E+03  0.17120000000E+03 0.  0.
        998    1    1    2    0    0 -0.22660112309E+02  0.73433209307E+01  0.14669064039E+04  0.14671338736E+04  0.10000000000E+02 0.  1.
</event>
<event>
 5    1  0.1321379E-008  0.3819989E+03  0.7957747E-01  0.3442501E+00
         13   -1    0    0    0    0  0.00000000000E+00  0.00000000000E+00  0.14999999963E+04  0.15000000000E+04  0.10566000000E+00 0.  1.
        994   -1    0    0    0    0 -0.00000000000E+00 -0.00000000000E+00  0.11368683772E-12  0.17120000000E+03  0.17120000000E+03 0.  0.
         13    1    1    2    0    0 -0.21674567564E+02  0.16086199436E+02  0.12711933543E+03  0.12995341202E+03  0.10566000000E+00 0.  1.
        994    1    1    2    0    0  0.57615071207E+01  0.44495483641E+01  0.33034979917E+01  0.17138654132E+03  0.17120000000E+03 0.  0.
        998    1    1    2    0    0  0.15913060443E+02 -0.20535747800E+02  0.13695771629E+04  0.13698600467E+04  0.10000000000E+02 0.  1.
</event>
<event>
 5    1  0.1321379E-008  0.3843882E+03  0.7957747E-01  0.3432271E+00
         13   -1    0    0    0    0  0.00000000000E+00  0.00000000000E+00  0.14999999963E+04  0.15000000000E+04  0.10566000000E+00 0. -1.
        994   -1    0    0    0    0 -0.00000000000E+00 -0.00000000000E+00  0.11368683772E-12  0.17120000000E+03  0.17120000000E+03 0.  0.
         13    1    1    2    0    0 -0.19847392520E+02  0.65891895610E+01  0.10522277694E+03  0.10728084806E+03  0.10566000000E+00 0. -1.
        994    1    1    2    0    0  0.21036279095E+02 -0.81833579039E+01  0.36148538371E+01  0.17271942437E+03  0.17120000000E+03 0.  0.
        998    1    1    2    0    0 -0.11888865747E+01  0.15941683429E+01  0.13911623655E+04  0.13911997276E+04  0.10000000000E+02 0.  0.
</event>
<event>
 5    1  0.1321379E-008  0.3853610E+03  0.7957747E-01  0.3428143E+00
         13   -1    0    0    0    0  0.00000000000E+00  0.00000000000E+00  0.14999999963E+04  0.15000000000E+04  0.10566000000E+00 0. -1.
        994   -1    0    0    0    0 -0.00000000000E+00 -0.00000000000E+00  0.11368683772E-12  0.17120000000E+03  0.17120000000E+03 0.  0.
         13    1    1    2    0    0 -0.69766400315E+01 -0.17702796047E+02  0.11425845682E+03  0.11583207074E+03  0.10566000000E+00 0. -1.
        994    1    1    2    0    0  0.10776544822E+02  0.19844596946E+02  0.31278736598E+01  0.17271122008E+03  0.17120000000E+03 0.  0.
        998    1    1    2    0    0 -0.37999047900E+01 -0.21418008989E+01  0.13826136658E+04  0.13826567092E+04  0.10000000000E+02 0. -1.
</event>
<event>
 5    1  0.1321379E-008  0.3704797E+03  0.7957747E-01  0.3493689E+00
         13   -1    0    0    0    0  0.00000000000E+00  0.00000000000E+00  0.14999999963E+04  0.15000000000E+04  0.10566000000E+00 0.  1.
        994   -1    0    0    0    0 -0.00000000000E+00 -0.00000000000E+00  0.11368683772E-12  0.17120000000E+03  0.17120000000E+03 0.  0.
         13    1    1    2    0    0  0.10431502189E+03  0.15102131978E+02  0.53654359064E+03  0.54679862290E+03  0.10566000000E+00 0.  1.
        994    1    1    2    0    0 -0.49398804161E+02 -0.28771554411E+02  0.22726224796E+02  0.18191746890E+03  0.17120000000E+03 0.  0.
        998    1    1    2    0    0 -0.54916217733E+02  0.13669422433E+02  0.94073018084E+03  0.94248390820E+03  0.10000000000E+02 0.  1.
</event>
<event>
 5    1  0.1321379E-008  0.3855997E+03  0.7957747E-01  0.3427133E+00
         13   -1    0    0    0    0  0.00000000000E+00  0.00000000000E+00  0.14999999963E+04  0.15000000000E+04  0.10566000000E+00 0.  1.
        994   -1    0    0    0    0 -0.00000000000E+00 -0.00000000000E+00  0.11368683772E-12  0.17120000000E+03  0.17120000000E+03 0.  0.
         13    1    1    2    0    0 -0.14494235903E+01  0.13981101406E+02  0.73295376145E+02  0.74631061587E+02  0.10566000000E+00 0.  1.
        994    1    1    2    0    0  0.30602245371E+01 -0.11365361441E+02  0.17875189555E+01  0.17161343665E+03  0.17120000000E+03 0.  0.
        998    1    1    2    0    0 -0.16108009467E+01 -0.26157399646E+01  0.14249171012E+04  0.14249555018E+04  0.10000000000E+02 0.  1.
</event>
<event>
 5    1  0.1321379E-008  0.3847514E+03  0.7957747E-01  0.3430727E+00
         13   -1    0    0    0    0  0.00000000000E+00  0.00000000000E+00  0.14999999963E+04  0.15000000000E+04  0.10566000000E+00 0. -1.
        994   -1    0    0    0    0 -0.00000000000E+00 -0.00000000000E+00  0.11368683772E-12  0.17120000000E+03  0.17120000000E+03 0.  0.
         13    1    1    2    0    0  0.14666701461E+02 -0.59255620056E+01  0.70419839858E+02  0.72174714593E+02  0.10566000000E+00 0. -1.
        994    1    1    2    0    0 -0.11106718087E+02  0.49917430744E+01  0.22417904927E+01  0.17164714478E+03  0.17120000000E+03 0.  0.
        998    1    1    2    0    0 -0.35599833740E+01  0.93381893120E+00  0.14273383659E+04  0.14273781406E+04  0.10000000000E+02 0. -1.
</event>
<event>
 5    1  0.1321379E-008  0.3804829E+03  0.7957747E-01  0.3449059E+00
         13   -1    0    0    0    0  0.00000000000E+00  0.00000000000E+00  0.14999999963E+04  0.15000000000E+04  0.10566000000E+00 0.  1.
        994   -1    0    0    0    0 -0.00000000000E+00 -0.00000000000E+00  0.11368683772E-12  0.17120000000E+03  0.17120000000E+03 0.  0.
         13    1    1    2    0    0  0.18678991010E+02  0.48035029294E+01  0.48311096717E+02  0.52018761765E+02  0.10566000000E+00 0.  1.
        994    1    1    2    0    0 -0.27748578884E+01  0.31615963689E+01  0.39486492423E+01  0.17129719017E+03  0.17120000000E+03 0.  0.
        998    1    1    2    0    0 -0.15904133122E+02 -0.79650992983E+01  0.14477402503E+04  0.14478840481E+04  0.10000000000E+02 0.  1.
</event>
<event>
 5    1  0.1321379E-008  0.3800972E+03  0.7957747E-01  0.3450735E+00
         13   -1    0    0    0    0  0.00000000000E+00  0.00000000000E+00  0.14999999963E+04  0.15000000000E+04  0.10566000000E+00 0.  1.
        994   -1    0    0    0    0 -0.00000000000E+00 -0.00000000000E+00  0.11368683772E-12  0.17120000000E+03  0.17120000000E+03 0.  0.
         13    1    1    2    0    0 -0.14254257268E+02 -0.23370491067E+02  0.11648207962E+03  0.11965554621E+03  0.10566000000E+00 0.  1.
        994    1    1    2    0    0  0.39754623142E+01 -0.33647385660E+02  0.79298562373E+01  0.17470052513E+03  0.17120000000E+03 0.  0.
        998    1    1    2    0    0  0.10278794954E+02  0.57017876727E+02  0.13755880604E+04  0.13768439287E+04  0.10000000000E+02 0.  1.
</event>
<event>
 5    1  0.1321379E-008  0.3775316E+03  0.7957747E-01  0.3461977E+00
         13   -1    0    0    0    0  0.00000000000E+00  0.00000000000E+00  0.14999999963E+04  0.15000000000E+04  0.10566000000E+00 0.  1.
        994   -1    0    0    0    0 -0.00000000000E+00 -0.00000000000E+00  0.11368683772E-12  0.17120000000E+03  0.17120000000E+03 0.  0.
         13    1    1    2    0    0  0.74726147650E+01 -0.12911282209E+02  0.18366169127E+02  0.23661540781E+02  0.10566000000E+00 0.  1.
        994    1    1    2    0    0  0.56909029231E+01  0.15090746767E+02  0.62615618220E+01  0.17207197381E+03  0.17120000000E+03 0.  0.
        998    1    1    2    0    0 -0.13163517688E+02 -0.21794645585E+01  0.14753722653E+04  0.14754664854E+04  0.10000000000E+02 0.  1.
</event>
<event>
 5    1  0.2441300E-008  0.3863748E+03  0.7957747E-01  0.3423862E+00
         13   -1    0    0    0    0  0.00000000000E+00  0.00000000000E+00  0.14999999963E+04  0.15000000000E+04  0.10566000000E+00 0.  1.
        994   -1    0    0    0    0 -0.00000000000E+00 -0.00000000000E+00  0.11368683772E-12  0.17120000000E+03  0.17120000000E+03 0.  0.
         13    1    1    2    0    0  0.39348119407E+01 -0.93237400875E+01  0.51893990721E+02  0.52871658866E+02  0.10566000000E+00 0.  1.
        994    1    1    2    0    0 -0.74104644776E+01  0.12916378870E+02  0.16754441508E+01  0.17185457498E+03  0.17120000000E+03 0.  0.
        998    1    1    2    0    0  0.34756525369E+01 -0.35926387828E+01  0.14464305614E+04  0.14464737662E+04  0.10000000000E+02 0.  1.
</event>
<event>
 5    1  0.1321379E-008  0.3228745E+03  0.7957747E-01  0.3745139E+00
         13   -1    0    0    0    0  0.00000000000E+00  0.00000000000E+00  0.14999999963E+04  0.15000000000E+04  0.10566000000E+00 0.  1.
        994   -1    0    0    0    0 -0.00000000000E+00 -0.00000000000E+00  0.11368683772E-12  0.17120000000E+03  0.17120000000E+03 0.  0.
         13    1    1    2    0    0  0.19924053493E+03 -0.97915739748E+02  0.78409364677E+03  0.81491541948E+03  0.10566000000E+00 0.  1.
        994    1    1    2    0    0 -0.21066117436E+03  0.37548964828E+02  0.20660997382E+03  0.34319845050E+03  0.17120000000E+03 0.  0.
        998    1    1    2    0    0  0.11420639431E+02  0.60366774920E+02  0.50929637570E+03  0.51308613002E+03  0.10000000000E+02 0.  1.
</event>
<event>
 5    1  0.1321379E-008  0.3811038E+03  0.7957747E-01  0.3446366E+00
         13   -1    0    0    0    0  0.00000000000E+00  0.00000000000E+00  0.14999999963E+04  0.15000000000E+04  0.10566000000E+00 0. -1.
        994   -1    0    0    0    0 -0.00000000000E+00 -0.00000000000E+00  0.11368683772E-12  0.17120000000E+03  0.17120000000E+03 0.  0.
         13    1    1    2    0    0 -0.48371618148E+01 -0.13251333998E+02  0.26145981022E+02  0.29708912380E+02  0.10566000000E+00 0. -1.
        994    1    1    2    0    0 -0.89000344512E-01  0.13875890235E+02  0.42185636445E+01  0.17181322571E+03  0.17120000000E+03 0.  0.
        998    1    1    2    0    0  0.49261621594E+01 -0.62455623697E+00  0.14696354516E+04  0.14696778619E+04  0.10000000000E+02 0. -1.
</event>
<event>
 5    1  0.1321379E-008  0.3812917E+03  0.7957747E-01  0.3445553E+00
         13   -1    0    0    0    0  0.00000000000E+00  0.00000000000E+00  0.14999999963E+04  0.15000000000E+04  0.10566000000E+00 0. -1.
        994   -1    0    0    0    0 -0.00000000000E+00 -0.00000000000E+00  0.11368683772E-12  0.17120000000E+03  0.17120000000E+03 0.  0.
         13    1    1    2    0    0  0.30236861434E+01  0.12633595789E+02  0.22869239262E+02  0.26301400893E+02  0.10566000000E+00 0. -1.
        994    1    1    2    0    0 -0.15994247776E+02 -0.50075667728E+01  0.44180995576E+01  0.17207513269E+03  0.17120000000E+03 0.  0.
        998    1    1    2    0    0  0.12970561633E+02 -0.76260290158E+01  0.14727126575E+04  0.14728234664E+04  0.10000000000E+02 0. -1.
</event>
<event>
 5    1  0.1321379E-008  0.3843445E+03  0.7957747E-01  0.3432457E+00
         13   -1    0    0    0    0  0.00000000000E+00  0.00000000000E+00  0.14999999963E+04  0.15000000000E+04  0.10566000000E+00 0.  1.
        994   -1    0    0    0    0 -0.00000000000E+00 -0.00000000000E+00  0.11368683772E-12  0.17120000000E+03  0.17120000000E+03 0.  0.
         13    1    1    2    0    0 -0.83769862642E+01 -0.55388808859E+01  0.24913832498E+02  0.26861930573E+02  0.10566000000E+00 0.  1.
        994    1    1    2    0    0  0.90810335251E+01  0.53367758859E+01  0.23216570139E+01  0.17153943115E+03  0.17120000000E+03 0.  0.
        998    1    1    2    0    0 -0.70404726094E+00  0.20210499999E+00  0.14727645068E+04  0.14727986383E+04  0.10000000000E+02 0.  1.
</event>
<event>
 5    1  0.1321379E-008  0.3831645E+03  0.7957747E-01  0.3437494E+00
         13   -1    0    0    0    0  0.00000000000E+00  0.00000000000E+00  0.14999999963E+04  0.15000000000E+04  0.10566000000E+00 0. -1.
        994   -1    0    0    0    0 -0.00000000000E+00 -0.00000000000E+00  0.11368683772E-12  0.17120000000E+03  0.17120000000E+03 0.  0.
         13    1    1    2    0    0 -0.17187758999E+02 -0.16039872286E+02  0.12287818296E+03  0.12510697652E+03  0.10566000000E+00 0. -1.
        994    1    1    2    0    0 -0.10231210208E+01 -0.39339786744E+01  0.25988630673E+01  0.17126796856E+03  0.17120000000E+03 0.  0.
        998    1    1    2    0    0  0.18210880020E+02  0.19973850960E+02  0.13745229503E+04  0.13748250549E+04  0.10000000000E+02 0. -1.
</event>
<event>
 5    1  0.1321379E-008  0.3809987E+03  0.7957747E-01  0.3446822E+00
         13   -1    0    0    0    0  0.00000000000E+00  0.00000000000E+00  0.14999999963E+04  0.15000000000E+04  0.10566000000E+00 0. -1.
        994   -1    0    0    0    0 -0.00000000000E+00 -0.00000000000E+00  0.11368683772E-12  0.17120000000E+03  0.17120000000E+03 0.  0.
         13    1    1    2    0    0  0.83786575812E+01  0.20138649645E+02  0.60428240906E+02  0.64244459492E+02  0.10566000000E+00 0. -1.
        994    1    1    2    0    0 -0.29975467178E+02 -0.18419667491E+02  0.77651703867E+01  0.17495013762E+03  0.17120000000E+03 0.  0.
        998    1    1    2    0    0  0.21596809596E+02 -0.17189821532E+01  0.14318065850E+04  0.14320054029E+04  0.10000000000E+02 0. -1.
</event>
<event>
 5    1  0.1321379E-008  0.3775712E+03  0.7957747E-01  0.3461803E+00
         13   -1    0    0    0    0  0.00000000000E+00  0.00000000000E+00  0.14999999963E+04  0.15000000000E+04  0.10566000000E+00 0.  1.
        994   -1    0    0    0    0 -0.00000000000E+00 -0.00000000000E+00  0.11368683772E-12  0.17120000000E+03  0.17120000000E+03 0.  0.
         13    1    1    2    0    0  0.15120250644E+02  0.11302129148E+02  0.31945222173E+02  0.37106178549E+02  0.10566000000E+00 0.  1.
        994    1    1    2    0    0  0.41845770466E+00 -0.52993926367E+01  0.54594906153E+01  0.17136949760E+03  0.17120000000E+03 0.  0.
        998    1    1    2    0    0 -0.15538708349E+02 -0.60027365109E+01  0.14625952835E+04  0.14627243239E+04  0.10000000000E+02 0.  1.
</event>
<event>
 5    1  0.1321379E-008  0.3805679E+03  0.7957747E-01  0.3448690E+00
         13   -1    0    0    0    0  0.00000000000E+00  0.00000000000E+00  0.14999999963E+04  0.15000000000E+04  0.10566000000E+00 0. -1.
        994   -1    0    0    0    0 -0.00000000000E+00 -0.00000000000E+00  0.11368683772E-12  0.17120000000E+03  0.17120000000E+03 0.  0.
         13    1    1    2    0    0  0.26273091797E+02  0.31086417084E+02  0.19277673404E+03  0.19702670131E+03  0.10566000000E+00 0. -1.
        994    1    1    2    0    0 -0.22441460139E+02 -0.30456080387E+02  0.86369412584E+01  0.17554266923E+03  0.17120000000E+03 0.  0.
        998    1    1    2    0    0 -0.38316316583E+01 -0.63033669774E+00  0.12985863210E+04  0.12986306295E+04  0.10000000000E+02 0. -1.
</event>
<event>
 5    1  0.1321379E-008  0.3758728E+03  0.7957747E-01  0.3469329E+00
         13   -1    0    0    0    0  0.00000000000E+00  0.00000000000E+00  0.14999999963E+04  0.15000000000E+04  0.10566000000E+00 0.  1.
        994   -1    0    0    0    0 -0.00000000000E+00 -0.00000000000E+00  0.11368683772E-12  0.17120000000E+03  0.17120000000E+03 0.  0.
         13    1    1    2    0    0  0.19441296032E+02  0.35162039124E+02  0.12037026911E+03  0.12689895917E+03  0.10566000000E+00 0.  1.
        994    1    1    2    0    0 -0.94970935803E+02  0.63189005363E+01  0.37581811546E+02  0.19945234947E+03  0.17120000000E+03 0.  0.
        998    1    1    2    0    0  0.75529639771E+02 -0.41480939660E+02  0.13420479156E+04  0.13448486914E+04  0.10000000000E+02 0.  1.
</event>
<event>
 5    1  0.1321379E-008  0.3845641E+03  0.7957747E-01  0.3431523E+00
         13   -1    0    0    0    0  0.00000000000E+00  0.00000000000E+00  0.14999999963E+04  0.15000000000E+04  0.10566000000E+00 0.  1.
        994   -1    0    0    0    0 -0.00000000000E+00 -0.00000000000E+00  0.11368683772E-12  0.17120000000E+03  0.17120000000E+03 0.  0.
         13    1    1    2    0    0  0.14410350868E+02  0.82027872940E+01  0.76704936859E+02  0.78476763657E+02  0.10566000000E+00 0.  1.
        994    1    1    2    0    0 -0.30883616324E+01 -0.63012109740E+01  0.20089014830E+01  0.17135553368E+03  0.17120000000E+03 0.  0.
        998    1    1    2    0    0 -0.11321989236E+02 -0.19015763200E+01  0.14212861579E+04  0.14213677027E+04  0.10000000000E+02 0.  1.
</event>
<event>
 5    1  0.1321379E-008  0.3796017E+03  0.7957747E-01  0.3452895E+00
         13   -1    0    0    0    0  0.00000000000E+00  0.00000000000E+00  0.14999999963E+04  0.15000000000E+04  0.10566000000E+00 0. -1.
        994   -1    0    0    0    0 -0.00000000000E+00 -0.00000000000E+00  0.11368683772E-12  0.17120000000E+03  0.17120000000E+03 0.  0.
         13    1    1    2    0    0 -0.10050716792E+03  0.46102373631E+01  0.32917674199E+03  0.34420965083E+03  0.10566000000E+00 0. -1.
        994    1    1    2    0    0  0.48254575655E+02 -0.20653645460E+02  0.26145166813E+02  0.18096432491E+03  0.17120000000E+03 0.  0.
        998    1    1    2    0    0  0.52252592262E+02  0.16043408097E+02  0.11446780875E+04  0.11460260243E+04  0.10000000000E+02 0. -1.
</event>
<event>
 5    1  0.1321379E-008  0.3800518E+03  0.7957747E-01  0.3450933E+00
         13   -1    0    0    0    0  0.00000000000E+00  0.00000000000E+00  0.14999999963E+04  0.15000000000E+04  0.10566000000E+00 0. -1.
        994   -1    0    0    0    0 -0.00000000000E+00 -0.00000000000E+00  0.11368683772E-12  0.17120000000E+03  0.17120000000E+03 0.  0.
         13    1    1    2    0    0 -0.29815688253E+02  0.10651225735E+02  0.11662852717E+03  0.12084969338E+03  0.10566000000E+00 0. -1.
        994    1    1    2    0    0  0.23234145015E+02 -0.94888857013E+01  0.62150476464E+01  0.17314136208E+03  0.17120000000E+03 0.  0.
        998    1    1    2    0    0  0.65815432385E+01 -0.11623400341E+01  0.13771564215E+04  0.13772089445E+04  0.10000000000E+02 0. -1.
</event>
<event>
 5    1  0.1321379E-008  0.3779226E+03  0.7957747E-01  0.3460254E+00
         13   -1    0    0    0    0  0.00000000000E+00  0.00000000000E+00  0.14999999963E+04  0.15000000000E+04  0.10566000000E+00 0. -1.
        994   -1    0    0    0    0 -0.00000000000E+00 -0.00000000000E+00  0.11368683772E-12  0.17120000000E+03  0.17120000000E+03 0.  0.
         13    1    1    2    0    0  0.37305952911E+02 -0.32807452877E+02  0.26801414053E+03  0.27257962832E+03  0.10566000000E+00 0. -1.
        994    1    1    2    0    0 -0.24453362329E+02 -0.73569280406E+01  0.73835759310E+01  0.17325140263E+03  0.17120000000E+03 0.  0.
        998    1    1    2    0    0 -0.12852590582E+02  0.40164380918E+02  0.12246022798E+04  0.12253689691E+04  0.10000000000E+02 0. -1.
</event>
<event>
 5    1  0.1321379E-008  0.3724077E+03  0.7957747E-01  0.3484898E+00
         13   -1    0    0    0    0  0.00000000000E+00  0.00000000000E+00  0.14999999963E+04  0.15000000000E+04  0.10566000000E+00 0. -1.
        994   -1    0    0    0    0 -0.00000000000E+00 -0.00000000000E+00  0.11368683772E-12  0.17120000000E+03  0.17120000000E+03 0.  0.
         13    1    1    2    0    0  0.49759106232E+02 -0.46865205270E+01  0.17048050600E+03  0.17765569571E+03  0.10566000000E+00 0. -1.
        994    1    1    2    0    0 -0.86873332316E+01  0.13110317619E+01  0.82807097587E+01  0.17162516924E+03  0.17120000000E+03 0.  0.
        998    1    1    2    0    0 -0.41071773001E+02  0.33754887651E+01  0.13212387805E+04  0.13219191350E+04  0.10000000000E+02 0. -1.
</event>
<event>
 5    1  0.1321379E-008  0.3838713E+03  0.7957747E-01  0.3434473E+00
         13   -1    0    0    0    0  0.00000000000E+00  0.00000000000E+00  0.14999999963E+04  0.15000000000E+04  0.10566000000E+00 0.  1.
        994   -1    0    0    0    0 -0.00000000000E+00 -0.00000000000E+00  0.11368683772E-12  0.17120000000E+03  0.17120000000E+03 0.  0.
         13    1    1    2    0    0 -0.13771869005E+03 -0.27660343864E+02  0.35760862158E+03  0.38420758661E+03  0.10566000000E+00 0.  1.
        994    1    1    2    0    0  0.16798175794E+03 -0.51344955969E+02  0.14289257387E+03  0.28386951786E+03  0.17120000000E+03 0.  0.
        998    1    1    2    0    0 -0.30263067887E+02  0.79005299833E+02  0.99949880083E+03  0.10031228955E+04  0.10000000000E+02 0.  1.
</event>
<event>
 5    1  0.1321379E-008  0.3812321E+03  0.7957747E-01  0.3445811E+00
         13   -1    0    0    0    0  0.00000000000E+00  0.00000000000E+00  0.14999999963E+04  0.15000000000E+04  0.10566000000E+00 0. -1.
        994   -1    0    0    0    0 -0.00000000000E+00 -0.00000000000E+00  0.11368683772E-12  0.17120000000E+03  0.17120000000E+03 0.  0.
         13    1    1    2    0    0  0.20142031028E+02  0.15118842936E+02  0.10324031630E+03  0.10626784508E+03  0.10566000000E+00 0. -1.
        994    1    1    2    0    0  0.22370676745E+01  0.13774354405E+02  0.41610779255E+01  0.17181819427E+03  0.17120000000E+03 0.  0.
        998    1    1    2    0    0 -0.22379098702E+02 -0.28893197341E+02  0.13925986021E+04  0.13931139607E+04  0.10000000000E+02 0. -1.
</event>
<event>
 5    1  0.1321379E-008  0.3860116E+03  0.7957747E-01  0.3425393E+00
         13   -1    0    0    0    0  0.00000000000E+00  0.00000000000E+00  0.14999999963E+04  0.15000000000E+04  0.10566000000E+00 0. -1.
        994   -1    0    0    0    0 -0.00000000000E+00 -0.00000000000E+00  0.11368683772E-12  0.17120000000E+03  0.17120000000E+03 0.  0.
         13    1    1    2    0    0 -0.47058754757E+01  0.89308050464E+01  0.47443144078E+02  0.48505336065E+02  0.10566000000E+00 0. -1.
        994    1    1    2    0    0  0.50839672828E+01  0.15445606249E+01  0.12212794828E+01  0.17128678850E+03  0.17120000000E+03 0.  0.
        998    1    1    2    0    0 -0.37809180713E+00 -0.10475365671E+02  0.14513355727E+04  0.14514078754E+04  0.10000000000E+02 0. -1.
</event>
<event>
 5    1  0.1321379E-008  0.3802654E+03  0.7957747E-01  0.3450004E+00
         13   -1    0    0    0    0  0.00000000000E+00  0.00000000000E+00  0.14999999963E+04  0.15000000000E+04  0.10566000000E+00 0. -1.
        994   -1    0    0    0    0 -0.00000000000E+00 -0.00000000000E+00  0.11368683772E-12  0.17120000000E+03  0.17120000000E+03 0.  0.
         13    1    1    2    0    0  0.41073521955E+01 -0.98675218383E+01  0.12674223971E+02  0.16579669677E+02  0.10566000000E+00 0. -1.
        994    1    1    2    0    0 -0.94783105110E+01 -0.23707070014E+00  0.42995445819E+01  0.17151624021E+03  0.17120000000E+03 0.  0.
        998    1    1    2    0    0  0.53709583156E+01  0.10104592538E+02  0.14830262277E+04  0.14831040901E+04  0.10000000000E+02 0. -1.
</event>
<event>
 5    1  0.1321379E-008  0.3840584E+03  0.7957747E-01  0.3433675E+00
         13   -1    0    0    0    0  0.00000000000E+00  0.00000000000E+00  0.14999999963E+04  0.15000000000E+04  0.10566000000E+00 0. -1.
        994   -1    0    0    0    0 -0.00000000000E+00 -0.00000000000E+00  0.11368683772E-12  0.17120000000E+03  0.17120000000E+03 0.  0.
         13    1    1    2    0    0 -0.17009788177E+02  0.14976281659E+02  0.11978295171E+03  0.12190811536E+03  0.10566000000E+00 0. -1.
        994    1    1    2    0    0  0.15142651605E+02 -0.75933253425E+01  0.30455138320E+01  0.17206299324E+03  0.17120000000E+03 0.  0.
        998    1    1    2    0    0  0.18671365715E+01 -0.73829563168E+01  0.13771715307E+04  0.13772288914E+04  0.10000000000E+02 0. -1.
</event>
<event>
 5    1  0.1321379E-008  0.3817571E+03  0.7957747E-01  0.3443543E+00
         13   -1    0    0    0    0  0.00000000000E+00  0.00000000000E+00  0.14999999963E+04  0.15000000000E+04  0.10566000000E+00 0. -1.
        994   -1    0    0    0    0 -0.00000000000E+00 -0.00000000000E+00  0.11368683772E-12  0.17120000000E+03  0.17120000000E+03 0.  0.
         13    1    1    2    0    0 -0.15338931878E+02  0.28503833493E+02  0.17827304729E+03  0.18118786358E+03  0.10566000000E+00 0. -1.
        994    1    1    2    0    0  0.62412389766E+00 -0.58355565745E+01  0.33632797166E+01  0.17133357786E+03  0.17120000000E+03 0.  0.
        998    1    1    2    0    0  0.14714807980E+02 -0.22668276918E+02  0.13183636693E+04  0.13186785586E+04  0.10000000000E+02 0. -1.
</event>
<event>
 5    1  0.1321379E-008  0.3704232E+03  0.7957747E-01  0.3493948E+00
         13   -1    0    0    0    0  0.00000000000E+00  0.00000000000E+00  0.14999999963E+04  0.15000000000E+04  0.10566000000E+00 0.  1.
        994   -1    0    0    0    0 -0.00000000000E+00 -0.00000000000E+00  0.11368683772E-12  0.17120000000E+03  0.17120000000E+03 0.  0.
         13    1    1    2    0    0  0.21557760296E+00  0.24328990160E+02  0.29082091975E+02  0.37917350561E+02  0.10566000000E+00 0.  1.
        994    1    1    2    0    0  0.49084122118E+01 -0.15644265857E+02  0.99767690944E+01  0.17227249196E+03  0.17120000000E+03 0.  0.
        998    1    1    2    0    0 -0.51239898147E+01 -0.86847243037E+01  0.14609411352E+04  0.14610101575E+04  0.10000000000E+02 0.  1.
</event>
<event>
 5    1  0.1321379E-008  0.3840637E+03  0.7957747E-01  0.3433653E+00
         13   -1    0    0    0    0  0.00000000000E+00  0.00000000000E+00  0.14999999963E+04  0.15000000000E+04  0.10566000000E+00 0. -1.
        994   -1    0    0    0    0 -0.00000000000E+00 -0.00000000000E+00  0.11368683772E-12  0.17120000000E+03  0.17120000000E+03 0.  0.
         13    1    1    2    0    0 -0.12564699627E+02 -0.20545285891E+02  0.14270771255E+03  0.14472554313E+03  0.10566000000E+00 0. -1.
        994    1    1    2    0    0  0.86914285669E+01  0.72047815990E+01  0.25162190882E+01  0.17159027119E+03  0.17120000000E+03 0.  0.
        998    1    1    2    0    0  0.38732710604E+01  0.13340504291E+02  0.13547760646E+04  0.13548841857E+04  0.10000000000E+02 0. -1.
</event>
<event>
 5    1  0.1321379E-008  0.3789589E+03  0.7957747E-01  0.3455704E+00
         13   -1    0    0    0    0  0.00000000000E+00  0.00000000000E+00  0.14999999963E+04  0.15000000000E+04  0.10566000000E+00 0.  1.
        994   -1    0    0    0    0 -0.00000000000E+00 -0.00000000000E+00  0.11368683772E-12  0.17120000000E+03  0.17120000000E+03 0.  0.
         13    1    1    2    0    0  0.20877990823E+02 -0.70438921408E+01  0.47609383752E+02  0.52461142788E+02  0.10566000000E+00 0.  1.
        994    1    1    2    0    0 -0.32073252965E+02 -0.73327054907E+00  0.81198591412E+01  0.17436915826E+03  0.17120000000E+03 0.  0.
        998    1    1    2    0    0  0.11195262141E+02  0.77771626898E+01  0.14442707534E+04  0.14443696989E+04  0.10000000000E+02 0.  1.
</event>
<event>
 5    1  0.1321379E-008  0.3725682E+03  0.7957747E-01  0.3484171E+00
         13   -1    0    0    0    0  0.00000000000E+00  0.00000000000E+00  0.14999999963E+04  0.15000000000E+04  0.10566000000E+00 0.  1.
        994   -1    0    0    0    0 -0.00000000000E+00 -0.00000000000E+00  0.11368683772E-12  0.17120000000E+03  0.17120000000E+03 0.  0.
         13    1    1    2    0    0 -0.11710200941E+02  0.11082112754E+02  0.12411336743E+02  0.20346854129E+02  0.10566000000E+00 0.  1.
        994    1    1    2    0    0  0.31777850874E+02 -0.56501891205E+01  0.11511643491E+02  0.17459586014E+03  0.17120000000E+03 0.  0.
        998    1    1    2    0    0 -0.20067649933E+02 -0.54319236336E+01  0.14760770160E+04  0.14762572857E+04  0.10000000000E+02 0.  1.
</event>
<event>
 5    1  0.1321379E-008  0.3703176E+03  0.7957747E-01  0.3494433E+00
         13   -1    0    0    0    0  0.00000000000E+00  0.00000000000E+00  0.14999999963E+04  0.15000000000E+04  0.10566000000E+00 0.  1.
        994   -1    0    0    0    0 -0.00000000000E+00 -0.00000000000E+00  0.11368683772E-12  0.17120000000E+03  0.17120000000E+03 0.  0.
         13    1    1    2    0    0 -0.48469354047E+01 -0.10502965937E+02  0.81924720351E+00  0.11596870539E+02  0.10566000000E+00 0.  1.
        994    1    1    2    0    0  0.57957771076E+01  0.12215419438E+02  0.11746878987E+02  0.17213435645E+03  0.17120000000E+03 0.  0.
        998    1    1    2    0    0 -0.94884170287E+00 -0.17124535010E+01  0.14874338701E+04  0.14874687730E+04  0.10000000000E+02 0.  1.
</event>
<event>
 5    1  0.1321379E-008  0.3862376E+03  0.7957747E-01  0.3424440E+00
         13   -1    0    0    0    0  0.00000000000E+00  0.00000000000E+00  0.14999999963E+04  0.15000000000E+04  0.10566000000E+00 0.  1.
        994   -1    0    0    0    0 -0.00000000000E+00 -0.00000000000E+00  0.11368683772E-12  0.17120000000E+03  0.17120000000E+03 0.  0.
         13    1    1    2    0    0  0.94477089362E+01 -0.57415655683E+01  0.60013144593E+02  0.61023056849E+02  0.10566000000E+00 0.  1.
        994    1    1    2    0    0 -0.68330407544E+01  0.74144872989E+01  0.13499871677E+01  0.17150197530E+03  0.17120000000E+03 0.  0.
        998    1    1    2    0    0 -0.26146681818E+01 -0.16729217306E+01  0.14386368645E+04  0.14386749678E+04  0.10000000000E+02 0.  1.
</event>
<event>
 5    1  0.1321379E-008  0.3744737E+03  0.7957747E-01  0.3475580E+00
         13   -1    0    0    0    0  0.00000000000E+00  0.00000000000E+00  0.14999999963E+04  0.15000000000E+04  0.10566000000E+00 0.  1.
        994   -1    0    0    0    0 -0.00000000000E+00 -0.00000000000E+00  0.11368683772E-12  0.17120000000E+03  0.17120000000E+03 0.  0.
         13    1    1    2    0    0  0.17919019618E+02  0.22626991392E+02  0.58690182985E+02  0.65403522431E+02  0.10566000000E+00 0.  1.
        994    1    1    2    0    0 -0.38859731519E+01 -0.11522028510E+02  0.74528978677E+01  0.17179302551E+03  0.17120000000E+03 0.  0.
        998    1    1    2    0    0 -0.14033046467E+02 -0.11104962882E+02  0.14338569154E+04  0.14340034521E+04  0.10000000000E+02 0.  1.
</event>
<event>
 5    1  0.1321379E-008  0.3703876E+03  0.7957747E-01  0.3494111E+00
         13   -1    0    0    0    0  0.00000000000E+00  0.00000000000E+00  0.14999999963E+04  0.15000000000E+04  0.10566000000E+00 0. -1.
        994   -1    0    0    0    0 -0.00000000000E+00 -0.00000000000E+00  0.11368683772E-12  0.17120000000E+03  0.17120000000E+03 0.  0.
         13    1    1    2    0    0 -0.47161247376E+02  0.87629365496E+01  0.10197172351E+03  0.11269079763E+03  0.10566000000E+00 0. -1.
        994    1    1    2    0    0  0.15994163567E+02 -0.41674865530E+02  0.18152170079E+02  0.17785260460E+03  0.17120000000E+03 0.  0.
        998    1    1    2    0    0  0.31167083809E+02  0.32911928981E+02  0.13798761027E+04  0.13806565978E+04  0.10000000000E+02 0. -1.
</event>
<event>
 5    1  0.1321379E-008  0.3852932E+03  0.7957747E-01  0.3428430E+00
         13   -1    0    0    0    0  0.00000000000E+00  0.00000000000E+00  0.14999999963E+04  0.15000000000E+04  0.10566000000E+00 0.  1.
        994   -1    0    0    0    0 -0.00000000000E+00 -0.00000000000E+00  0.11368683772E-12  0.17120000000E+03  0.17120000000E+03 0.  0.
         13    1    1    2    0    0  0.77397159469E+01  0.12802823739E+02  0.75798192540E+02  0.77260550445E+02  0.10566000000E+00 0.  1.
        994    1    1    2    0    0  0.13411258346E+00 -0.11170671082E+02  0.18948055881E+01  0.17157456737E+03  0.17120000000E+03 0.  0.
        998    1    1    2    0    0 -0.78738285303E+01 -0.16321526569E+01  0.14223069982E+04  0.14223648822E+04  0.10000000000E+02 0.  1.
</event>
<event>
 5    1  0.1321379E-008  0.3833661E+03  0.7957747E-01  0.3436631E+00
         13   -1    0    0    0    0  0.00000000000E+00  0.00000000000E+00  0.14999999963E+04  0.15000000000E+04  0.10566000000E+00 0.  1.
        994   -1    0    0    0    0 -0.00000000000E+00 -0.00000000000E+00  0.11368683772E-12  0.17120000000E+03  0.17120000000E+03 0.  0.
         13    1    1    2    0    0  0.15114179892E+02 -0.10911181634E+02  0.77899833564E+02  0.80099235651E+02  0.10566000000E+00 0.  1.
        994    1    1    2    0    0  0.44232112083E+01 -0.28118499013E+01  0.25343387860E+01  0.17129896138E+03  0.17120000000E+03 0.  0.
        998    1    1    2    0    0 -0.19537391100E+02  0.13723031535E+02  0.14195658239E+04  0.14198018030E+04  0.10000000000E+02 0.  1.
</event>
<event>
 5    1  0.1321379E-008  0.3836553E+03  0.7957747E-01  0.3435395E+00
         13   -1    0    0    0    0  0.00000000000E+00  0.00000000000E+00  0.14999999963E+04  0.15000000000E+04  0.10566000000E+00 0.  1.
        994   -1    0    0    0    0 -0.00000000000E+00 -0.00000000000E+00  0.11368683772E-12  0.17120000000E+03  0.17120000000E+03 0.  0.
         13    1    1    2    0    0 -0.18756517354E+02  0.64211308316E-01  0.71020512505E+02  0.73455669807E+02  0.10566000000E+00 0.  1.
        994    1    1    2    0    0  0.24221159520E+02  0.10567796874E+02  0.46092754917E+01  0.17328885804E+03  0.17120000000E+03 0.  0.
        998    1    1    2    0    0 -0.54646421657E+01 -0.10632008182E+02  0.14243702083E+04  0.14244554722E+04  0.10000000000E+02 0.  1.
</event>
<event>
 5    1  0.1321379E-008  0.3816904E+03  0.7957747E-01  0.3443831E+00
         13   -1    0    0    0    0  0.00000000000E+00  0.00000000000E+00  0.14999999963E+04  0.15000000000E+04  0.10566000000E+00 0. -1.
        994   -1    0    0    0    0 -0.00000000000E+00 -0.00000000000E+00  0.11368683772E-12  0.17120000000E+03  0.17120000000E+03 0.  0.
         13    1    1    2    0    0  0.22699512867E+02 -0.17333606857E+02  0.13311719791E+03  0.13614669057E+03  0.10566000000E+00 0. -1.
        994    1    1    2    0    0 -0.93647990092E+00  0.79083732804E+01  0.34931293212E+01  0.17142071437E+03  0.17120000000E+03 0.  0.
        998    1    1    2    0    0 -0.21763032966E+02  0.94252335770E+01  0.13633896690E+04  0.13636325951E+04  0.10000000000E+02 0. -1.
</event>
<event>
 5    1  0.1321379E-008  0.3937270E+03  0.7957747E-01  0.3393483E+00
         13   -1    0    0    0    0  0.00000000000E+00  0.00000000000E+00  0.14999999963E+04  0.15000000000E+04  0.10566000000E+00 0.  1.
        994   -1    0    0    0    0 -0.00000000000E+00 -0.00000000000E+00  0.11368683772E-12  0.17120000000E+03  0.17120000000E+03 0.  0.
         13    1    1    2    0    0 -0.45393765332E+02  0.39618160626E+02  0.74281115334E+02  0.95644591283E+02  0.10566000000E+00 0.  1.
        994    1    1    2    0    0 -0.47186113265E+02 -0.58199034600E+02  0.45845176613E+02  0.19241849478E+03  0.17120000000E+03 0.  0.
        998    1    1    2    0    0  0.92579878597E+02  0.18580873974E+02  0.13798737043E+04  0.13831369139E+04  0.10000000000E+02 0.  1.
</event>
<event>
 5    1  0.1321379E-008  0.3724671E+03  0.7957747E-01  0.3484629E+00
         13   -1    0    0    0    0  0.00000000000E+00  0.00000000000E+00  0.14999999963E+04  0.15000000000E+04  0.10566000000E+00 0. -1.
        994   -1    0    0    0    0 -0.00000000000E+00 -0.00000000000E+00  0.11368683772E-12  0.17120000000E+03  0.17120000000E+03 0.  0.
         13    1    1    2    0    0 -0.16564367593E+02 -0.40480803487E+02  0.97790282145E+02  0.10712620674E+03  0.10566000000E+00 0. -1.
        994    1    1    2    0    0  0.56653496560E+02  0.55469894774E+02  0.29856226007E+02  0.19101665406E+03  0.17120000000E+03 0.  0.
        998    1    1    2    0    0 -0.40089128967E+02 -0.14989091287E+02  0.13723534881E+04  0.13730571392E+04  0.10000000000E+02 0. -1.
</event>
<event>
 5    1  0.1321379E-008  0.3854332E+03  0.7957747E-01  0.3427837E+00
         13   -1    0    0    0    0  0.00000000000E+00  0.00000000000E+00  0.14999999963E+04  0.15000000000E+04  0.10566000000E+00 0. -1.
        994   -1    0    0    0    0 -0.00000000000E+00 -0.00000000000E+00  0.11368683772E-12  0.17120000000E+03  0.17120000000E+03 0.  0.
         13    1    1    2    0    0 -0.11334109622E+02  0.80493140279E+01  0.70224023418E+02  0.71586857218E+02  0.10566000000E+00 0. -1.
        994    1    1    2    0    0  0.96317667075E+01  0.33528171587E+01  0.17568803241E+01  0.17151250375E+03  0.17120000000E+03 0.  0.
        998    1    1    2    0    0  0.17023429141E+01 -0.11402131187E+02  0.14280190925E+04  0.14281006390E+04  0.10000000000E+02 0. -1.
</event>
<event>
 5    1  0.1321379E-008  0.3806897E+03  0.7957747E-01  0.3448161E+00
         13   -1    0    0    0    0  0.00000000000E+00  0.00000000000E+00  0.14999999963E+04  0.15000000000E+04  0.10566000000E+00 0. -1.
        994   -1    0    0    0    0 -0.00000000000E+00 -0.00000000000E+00  0.11368683772E-12  0.17120000000E+03  0.17120000000E+03 0.  0.
         13    1    1    2    0    0  0.31955663625E+02 -0.63557060473E+01  0.19465076412E+03  0.19735878642E+03  0.10566000000E+00 0. -1.
        994    1    1    2    0    0  0.16231988861E+02 -0.28992499852E+02  0.74765029856E+01  0.17455480689E+03  0.17120000000E+03 0.  0.
        998    1    1    2    0    0 -0.48187652487E+02  0.35348205899E+02  0.12978727292E+04  0.12992864067E+04  0.10000000000E+02 0. -1.
</event>
<event>
 5    1  0.1321379E-008  0.3771566E+03  0.7957747E-01  0.3463634E+00
         13   -1    0    0    0    0  0.00000000000E+00  0.00000000000E+00  0.14999999963E+04  0.15000000000E+04  0.10566000000E+00 0.  1.
        994   -1    0    0    0    0 -0.00000000000E+00 -0.00000000000E+00  0.11368683772E-12  0.17120000000E+03  0.17120000000E+03 0.  0.
         13    1    1    2    0    0  0.53448048301E+02  0.60160015521E+02  0.21526948917E+03  0.22981924521E+03  0.10566000000E+00 0.  1.
        994    1    1    2    0    0 -0.52353556329E+02 -0.18498388415E+02  0.25914475411E+02  0.18183532459E+03  0.17120000000E+03 0.  0.
        998    1    1    2    0    0 -0.10944919721E+01 -0.41661627106E+02  0.12588160317E+04  0.12595454302E+04  0.10000000000E+02 0.  1.
</event>
<event>
 5    1  0.1321379E-008  0.3722431E+03  0.7957747E-01  0.3485645E+00
         13   -1    0    0    0    0  0.00000000000E+00  0.00000000000E+00  0.14999999963E+04  0.15000000000E+04  0.10566000000E+00 0.  1.
        994   -1    0    0    0    0 -0.00000000000E+00 -0.00000000000E+00  0.11368683772E-12  0.17120000000E+03  0.17120000000E+03 0.  0.
         13    1    1    2    0    0  0.39411829172E+02  0.43050292254E+02  0.12547081828E+03  0.13838192564E+03  0.10566000000E+00 0.  1.
        994    1    1    2    0    0 -0.40281712838E+02 -0.42494745837E+02  0.24310458440E+02  0.18256192977E+03  0.17120000000E+03 0.  0.
        998    1    1    2    0    0  0.86988366572E+00 -0.55554641677E+00  0.13502187196E+04  0.13502561446E+04  0.10000000000E+02 0.  0.
</event>
<event>
 5    1  0.1321379E-008  0.3830538E+03  0.7957747E-01  0.3437968E+00
         13   -1    0    0    0    0  0.00000000000E+00  0.00000000000E+00  0.14999999963E+04  0.15000000000E+04  0.10566000000E+00 0.  1.
        994   -1    0    0    0    0 -0.00000000000E+00 -0.00000000000E+00  0.11368683772E-12  0.17120000000E+03  0.17120000000E+03 0.  0.
         13    1    1    2    0    0 -0.28304497461E+02 -0.12540115384E+01  0.14206593430E+03  0.14486358402E+03  0.10566000000E+00 0.  1.
        994    1    1    2    0    0  0.28006051064E+02 -0.90960561742E+01  0.54743821135E+01  0.17380013232E+03  0.17120000000E+03 0.  0.
        998    1    1    2    0    0  0.29844639687E+00  0.10350067713E+02  0.13524596799E+04  0.13525362837E+04  0.10000000000E+02 0.  1.
</event>
<event>
 5    1  0.1321379E-008  0.3826414E+03  0.7957747E-01  0.3439737E+00
         13   -1    0    0    0    0  0.00000000000E+00  0.00000000000E+00  0.14999999963E+04  0.15000000000E+04  0.10566000000E+00 0.  1.
        994   -1    0    0    0    0 -0.00000000000E+00 -0.00000000000E+00  0.11368683772E-12  0.17120000000E+03  0.17120000000E+03 0.  0.
         13    1    1    2    0    0  0.12213550458E+02 -0.21666155744E+02  0.11308660640E+03  0.11578939861E+03  0.10566000000E+00 0.  1.
        994    1    1    2    0    0 -0.42395493743E+01  0.92333868003E+01  0.31478535272E+01  0.17153010871E+03  0.17120000000E+03 0.  0.
        998    1    1    2    0    0 -0.79740010833E+01  0.12432768944E+02  0.13837655363E+04  0.13838804927E+04  0.10000000000E+02 0.  0.
</event>
<event>
 5    1  0.1321379E-008  0.3764170E+03  0.7957747E-01  0.3466910E+00
         13   -1    0    0    0    0  0.00000000000E+00  0.00000000000E+00  0.14999999963E+04  0.15000000000E+04  0.10566000000E+00 0. -1.
        994   -1    0    0    0    0 -0.00000000000E+00 -0.00000000000E+00  0.11368683772E-12  0.17120000000E+03  0.17120000000E+03 0.  0.
         13    1    1    2    0    0 -0.27712216924E+02  0.62502490176E+01  0.63375946842E+02  0.69451813380E+02  0.10566000000E+00 0. -1.
        994    1    1    2    0    0  0.19036904387E+02 -0.41142936081E+02  0.12937323211E+02  0.17757240565E+03  0.17120000000E+03 0.  0.
        998    1    1    2    0    0  0.86753125372E+01  0.34892687063E+02  0.14236867262E+04  0.14241757810E+04  0.10000000000E+02 0. -1.
</event>
<event>
 5    1  0.1321379E-008  0.3739782E+03  0.7957747E-01  0.3477805E+00
         13   -1    0    0    0    0  0.00000000000E+00  0.00000000000E+00  0.14999999963E+04  0.15000000000E+04  0.10566000000E+00 0.  1.
        994   -1    0    0    0    0 -0.00000000000E+00 -0.00000000000E+00  0.11368683772E-12  0.17120000000E+03  0.17120000000E+03 0.  0.
         13    1    1    2    0    0  0.47058190304E+02  0.15020223058E+02  0.15593889159E+03  0.16357576058E+03  0.10566000000E+00 0.  1.
        994    1    1    2    0    0 -0.42556901185E+02 -0.70599563806E+01  0.13578599874E+02  0.17707272855E+03  0.17120000000E+03 0.  0.
        998    1    1    2    0    0 -0.45012891194E+01 -0.79602666777E+01  0.13304825048E+04  0.13305515109E+04  0.10000000000E+02 0.  1.
</event>
<event>
 5    1  0.1321379E-008  0.3814032E+03  0.7957747E-01  0.3445072E+00
         13   -1    0    0    0    0  0.00000000000E+00  0.00000000000E+00  0.14999999963E+04  0.15000000000E+04  0.10566000000E+00 0. -1.
        994   -1    0    0    0    0 -0.00000000000E+00 -0.00000000000E+00  0.11368683772E-12  0.17120000000E+03  0.17120000000E+03 0.  0.
         13    1    1    2    0    0 -0.22242502517E+02  0.23294049951E+02  0.17468052002E+03  0.17762498957E+03  0.10566000000E+00 0. -1.
        994    1    1    2    0    0  0.51691867668E+01  0.58058152616E+01  0.36276178595E+01  0.17141478231E+03  0.17120000000E+03 0.  0.
        998    1    1    2    0    0  0.17073315750E+02 -0.29099865212E+02  0.13216918584E+04  0.13221602281E+04  0.10000000000E+02 0. -1.
</event>
<event>
 5    1  0.1321379E-008  0.3825357E+03  0.7957747E-01  0.3440191E+00
         13   -1    0    0    0    0  0.00000000000E+00  0.00000000000E+00  0.14999999963E+04  0.15000000000E+04  0.10566000000E+00 0. -1.
        994   -1    0    0    0    0 -0.00000000000E+00 -0.00000000000E+00  0.11368683772E-12  0.17120000000E+03  0.17120000000E+03 0.  0.
         13    1    1    2    0    0  0.11353026444E+02  0.13571402749E+02  0.52209144068E+02  0.55126038043E+02  0.10566000000E+00 0. -1.
        994    1    1    2    0    0 -0.19286139561E+02 -0.81272292670E+01  0.43119680714E+01  0.17252837478E+03  0.17120000000E+03 0.  0.
        998    1    1    2    0    0  0.79331131168E+01 -0.54441734818E+01  0.14434788841E+04  0.14435455872E+04  0.10000000000E+02 0. -1.
</event>
<event>
 5    1  0.1321379E-008  0.3752525E+03  0.7957747E-01  0.3472094E+00
         13   -1    0    0    0    0  0.00000000000E+00  0.00000000000E+00  0.14999999963E+04  0.15000000000E+04  0.10566000000E+00 0. -1.
        994   -1    0    0    0    0 -0.00000000000E+00 -0.00000000000E+00  0.11368683772E-12  0.17120000000E+03  0.17120000000E+03 0.  0.
         13    1    1    2    0    0 -0.23581126846E+02 -0.20181283204E+01  0.39786342980E+02  0.46293699755E+02  0.10566000000E+00 0. -1.
        994    1    1    2    0    0  0.18431392350E+02  0.71170887565E+01  0.78760670699E+01  0.17251620680E+03  0.17120000000E+03 0.  0.
        998    1    1    2    0    0  0.51497344961E+01 -0.50989604360E+01  0.14523375862E+04  0.14523900934E+04  0.10000000000E+02 0. -1.
</event>
<event>
 5    1  0.1321379E-008  0.3733301E+03  0.7957747E-01  0.3480725E+00
         13   -1    0    0    0    0  0.00000000000E+00  0.00000000000E+00  0.14999999963E+04  0.15000000000E+04  0.10566000000E+00 0.  1.
        994   -1    0    0    0    0 -0.00000000000E+00 -0.00000000000E+00  0.11368683772E-12  0.17120000000E+03  0.17120000000E+03 0.  0.
         13    1    1    2    0    0 -0.39511145218E+02 -0.53913356674E+02  0.19086114287E+03  0.20222702007E+03  0.10566000000E+00 0.  1.
        994    1    1    2    0    0  0.31145443056E+02  0.12622855705E+03  0.67727601593E+02  0.22538889781E+03  0.17120000000E+03 0.  0.
        998    1    1    2    0    0  0.83657021624E+01 -0.72315200372E+02  0.12414112518E+04  0.12435840821E+04  0.10000000000E+02 0.  1.
</event>
<event>
 5    1  0.1321379E-008  0.3686838E+03  0.7957747E-01  0.3501962E+00
         13   -1    0    0    0    0  0.00000000000E+00  0.00000000000E+00  0.14999999963E+04  0.15000000000E+04  0.10566000000E+00 0.  1.
        994   -1    0    0    0    0 -0.00000000000E+00 -0.00000000000E+00  0.11368683772E-12  0.17120000000E+03  0.17120000000E+03 0.  0.
         13    1    1    2    0    0  0.28867928947E+01  0.57212195125E+02  0.16243566660E+03  0.17224089466E+03  0.10566000000E+00 0.  1.
        994    1    1    2    0    0  0.32369999454E+02 -0.35442931752E+02  0.18004507426E+02  0.17871099732E+03  0.17120000000E+03 0.  0.
        998    1    1    2    0    0 -0.35256792349E+02 -0.21769263373E+02  0.13195598222E+04  0.13202481080E+04  0.10000000000E+02 0.  1.
</event>
<event>
 5    1  0.1321379E-008  0.3809681E+03  0.7957747E-01  0.3446954E+00
         13   -1    0    0    0    0  0.00000000000E+00  0.00000000000E+00  0.14999999963E+04  0.15000000000E+04  0.10566000000E+00 0. -1.
        994   -1    0    0    0    0 -0.00000000000E+00 -0.00000000000E+00  0.11368683772E-12  0.17120000000E+03  0.17120000000E+03 0.  0.
         13    1    1    2    0    0 -0.66388742697E+01 -0.11581235152E+03  0.37238411186E+03  0.39003398999E+03  0.10566000000E+00 0. -1.
        994    1    1    2    0    0 -0.59693962698E+02  0.85262953040E+02  0.57402154916E+02  0.20841686048E+03  0.17120000000E+03 0.  0.
        998    1    1    2    0    0  0.66332836967E+02  0.30549398476E+02  0.10702137295E+04  0.10727491495E+04  0.10000000000E+02 0. -1.
</event>
<event>
 5    1  0.1321379E-008  0.3757581E+03  0.7957747E-01  0.3469839E+00
         13   -1    0    0    0    0  0.00000000000E+00  0.00000000000E+00  0.14999999963E+04  0.15000000000E+04  0.10566000000E+00 0.  1.
        994   -1    0    0    0    0 -0.00000000000E+00 -0.00000000000E+00  0.11368683772E-12  0.17120000000E+03  0.17120000000E+03 0.  0.
         13    1    1    2    0    0 -0.38093852877E+01 -0.16030475752E+03  0.88614068418E+03  0.90053175959E+03  0.10566000000E+00 0.  1.
        994    1    1    2    0    0  0.10881584208E+02  0.15119130420E+03  0.88663582677E+02  0.24525066816E+03  0.17120000000E+03 0.  0.
        998    1    1    2    0    0 -0.70721989207E+01  0.91134533219E+01  0.52519572942E+03  0.52541757225E+03  0.10000000000E+02 0. -1.
</event>
<event>
 5    1  0.1321379E-008  0.3887131E+03  0.7957747E-01  0.3414075E+00
         13   -1    0    0    0    0  0.00000000000E+00  0.00000000000E+00  0.14999999963E+04  0.15000000000E+04  0.10566000000E+00 0. -1.
        994   -1    0    0    0    0 -0.00000000000E+00 -0.00000000000E+00  0.11368683772E-12  0.17120000000E+03  0.17120000000E+03 0.  0.
         13    1    1    2    0    0  0.56942585145E+02 -0.11547886584E+02  0.71473419482E+02  0.92110110976E+02  0.10566000000E+00 0. -1.
        994    1    1    2    0    0 -0.46077068852E+02  0.62140615797E+01  0.29334920211E+02  0.17981014537E+03  0.17120000000E+03 0.  0.
        998    1    1    2    0    0 -0.10865516293E+02  0.53338250042E+01  0.13991916566E+04  0.13992797437E+04  0.10000000000E+02 0. -1.
</event>
<event>
 5    1  0.1321379E-008  0.3982187E+03  0.7957747E-01  0.3375474E+00
         13   -1    0    0    0    0  0.00000000000E+00  0.00000000000E+00  0.14999999963E+04  0.15000000000E+04  0.10566000000E+00 0. -1.
        994   -1    0    0    0    0 -0.00000000000E+00 -0.00000000000E+00  0.11368683772E-12  0.17120000000E+03  0.17120000000E+03 0.  0.
         13    1    1    2    0    0  0.13890244593E+03  0.29595980553E+02  0.29081648861E+03  0.32364185879E+03  0.10566000000E+00 0. -1.
        994    1    1    2    0    0 -0.13176653694E+03 -0.50527239499E+02  0.10915940105E+03  0.24726632813E+03  0.17120000000E+03 0.  0.
        998    1    1    2    0    0 -0.71359089859E+01  0.20931258946E+02  0.11000241066E+04  0.11002918131E+04  0.10000000000E+02 0. -1.
</event>
<event>
 5    1  0.1321379E-008  0.3859129E+03  0.7957747E-01  0.3425810E+00
         13   -1    0    0    0    0  0.00000000000E+00  0.00000000000E+00  0.14999999963E+04  0.15000000000E+04  0.10566000000E+00 0.  1.
        994   -1    0    0    0    0 -0.00000000000E+00 -0.00000000000E+00  0.11368683772E-12  0.17120000000E+03  0.17120000000E+03 0.  0.
         13    1    1    2    0    0  0.11167591667E+02  0.32604557311E+01  0.69916703105E+02  0.70878079914E+02  0.10566000000E+00 0.  1.
        994    1    1    2    0    0  0.11526573472E+02  0.15113695322E+02  0.23630886505E+01  0.17226813365E+03  0.17120000000E+03 0.  0.
        998    1    1    2    0    0 -0.22694165139E+02 -0.18374151053E+02  0.14277202045E+04  0.14280537864E+04  0.10000000000E+02 0.  1.
</event>
<event>
 5    1  0.1321379E-008  0.3853942E+03  0.7957747E-01  0.3428002E+00
         13   -1    0    0    0    0  0.00000000000E+00  0.00000000000E+00  0.14999999963E+04  0.15000000000E+04  0.10566000000E+00 0. -1.
        994   -1    0    0    0    0 -0.00000000000E+00 -0.00000000000E+00  0.11368683772E-12  0.17120000000E+03  0.17120000000E+03 0.  0.
         13    1    1    2    0    0  0.16324161649E+02  0.36529467914E+01  0.99144187995E+02  0.10054552924E+03  0.10566000000E+00 0. -1.
        994    1    1    2    0    0 -0.84367175254E+01 -0.46028369624E+01  0.17379791281E+01  0.17147835106E+03  0.17120000000E+03 0.  0.
        998    1    1    2    0    0 -0.78874441241E+01  0.94989017101E+00  0.13991178292E+04  0.13991761197E+04  0.10000000000E+02 0. -1.
</event>
<event>
 5    1  0.1321379E-008  0.3842675E+03  0.7957747E-01  0.3432785E+00
         13   -1    0    0    0    0  0.00000000000E+00  0.00000000000E+00  0.14999999963E+04  0.15000000000E+04  0.10566000000E+00 0. -1.
        994   -1    0    0    0    0 -0.00000000000E+00 -0.00000000000E+00  0.11368683772E-12  0.17120000000E+03  0.17120000000E+03 0.  0.
         13    1    1    2    0    0 -0.61583508921E+00  0.13434559723E+02  0.45269474488E+02  0.47225026546E+02  0.10566000000E+00 0. -1.
        994    1    1    2    0    0 -0.37142323067E+01 -0.77468899839E+01  0.22375954055E+01  0.17143003430E+03  0.17120000000E+03 0.  0.
        998    1    1    2    0    0  0.43300673959E+01 -0.56876697386E+01  0.14524929264E+04  0.14525449392E+04  0.10000000000E+02 0. -1.
</event>
<event>
 5    1  0.1321379E-008  0.3842669E+03  0.7957747E-01  0.3432787E+00
         13   -1    0    0    0    0  0.00000000000E+00  0.00000000000E+00  0.14999999963E+04  0.15000000000E+04  0.10566000000E+00 0.  1.
        994   -1    0    0    0    0 -0.00000000000E+00 -0.00000000000E+00  0.11368683772E-12  0.17120000000E+03  0.17120000000E+03 0.  0.
         13    1    1    2    0    0 -0.98040875275E+01 -0.16357646764E+02  0.93832425818E+02  0.95750864428E+02  0.10566000000E+00 0.  1.
        994    1    1    2    0    0  0.82831721832E+01  0.38037908925E+01  0.22684749496E+01  0.17145747503E+03  0.17120000000E+03 0.  0.
        998    1    1    2    0    0  0.15209153442E+01  0.12553855872E+02  0.14038990955E+04  0.14039916605E+04  0.10000000000E+02 0.  1.
</event>
<event>
 5    1  0.1321379E-008  0.3854248E+03  0.7957747E-01  0.3427872E+00
         13   -1    0    0    0    0  0.00000000000E+00  0.00000000000E+00  0.14999999963E+04  0.15000000000E+04  0.10566000000E+00 0. -1.
        994   -1    0    0    0    0 -0.00000000000E+00 -0.00000000000E+00  0.11368683772E-12  0.17120000000E+03  0.17120000000E+03 0.  0.
         13    1    1    2    0    0  0.10835641160E+02 -0.98248593277E+01  0.71603494180E+02  0.73082217556E+02  0.10566000000E+00 0. -1.
        994    1    1    2    0    0 -0.13553208647E+02  0.11121655481E+02  0.24294926594E+01  0.17211253040E+03  0.17120000000E+03 0.  0.
        998    1    1    2    0    0  0.27175674865E+01 -0.12967961537E+01  0.14259670094E+04  0.14260052520E+04  0.10000000000E+02 0. -1.
</event>
<event>
 5    1  0.1321379E-008  0.3844983E+03  0.7957747E-01  0.3431803E+00
         13   -1    0    0    0    0  0.00000000000E+00  0.00000000000E+00  0.14999999963E+04  0.15000000000E+04  0.10566000000E+00 0.  1.
        994   -1    0    0    0    0 -0.00000000000E+00 -0.00000000000E+00  0.11368683772E-12  0.17120000000E+03  0.17120000000E+03 0.  0.
         13    1    1    2    0    0  0.65155463906E+01 -0.19864342523E+02  0.10937387866E+03  0.11135394446E+03  0.10566000000E+00 0.  1.
        994    1    1    2    0    0 -0.40969564973E+01  0.20623475027E+02  0.33370814694E+01  0.17251866243E+03  0.17120000000E+03 0.  0.
        998    1    1    2    0    0 -0.24185898933E+01 -0.75913250458E+00  0.13872890361E+04  0.13873273931E+04  0.10000000000E+02 0.  1.
</event>
<event>
 5    1  0.1321379E-008  0.3840214E+03  0.7957747E-01  0.3433833E+00
         13   -1    0    0    0    0  0.00000000000E+00  0.00000000000E+00  0.14999999963E+04  0.15000000000E+04  0.10566000000E+00 0.  1.
        994   -1    0    0    0    0 -0.00000000000E+00 -0.00000000000E+00  0.11368683772E-12  0.17120000000E+03  0.17120000000E+03 0.  0.
         13    1    1    2    0    0  0.13648461493E+02  0.18630262961E+02  0.12365555921E+03  0.12579378239E+03  0.10566000000E+00 0.  1.
        994    1    1    2    0    0 -0.17103280521E+02 -0.76834050417E+01  0.32774811442E+01  0.17225486582E+03  0.17120000000E+03 0.  0.
        998    1    1    2    0    0  0.34548190277E+01 -0.10946857919E+02  0.13730669559E+04  0.13731513518E+04  0.10000000000E+02 0.  1.
</event>
<event>
 5    1  0.1321379E-008  0.3796560E+03  0.7957747E-01  0.3452658E+00
         13   -1    0    0    0    0  0.00000000000E+00  0.00000000000E+00  0.14999999963E+04  0.15000000000E+04  0.10566000000E+00 0. -1.
        994   -1    0    0    0    0 -0.00000000000E+00 -0.00000000000E+00  0.11368683772E-12  0.17120000000E+03  0.17120000000E+03 0.  0.
         13    1    1    2    0    0  0.13483136033E+02  0.15664391601E+02  0.47951719724E+02  0.52216345239E+02  0.10566000000E+00 0. -1.
        994    1    1    2    0    0 -0.75458242033E+01 -0.11474630460E+02  0.49383533971E+01  0.17182093569E+03  0.17120000000E+03 0.  0.
        998    1    1    2    0    0 -0.59373118295E+01 -0.41897611408E+01  0.14471099232E+04  0.14471627191E+04  0.10000000000E+02 0. -1.
</event>
<event>
 5    1  0.1321379E-008  0.3688517E+03  0.7957747E-01  0.3501185E+00
         13   -1    0    0    0    0  0.00000000000E+00  0.00000000000E+00  0.14999999963E+04  0.15000000000E+04  0.10566000000E+00 0.  1.
        994   -1    0    0    0    0 -0.00000000000E+00 -0.00000000000E+00  0.11368683772E-12  0.17120000000E+03  0.17120000000E+03 0.  0.
         13    1    1    2    0    0 -0.11045888422E+02 -0.38011221390E+02  0.84623483270E+02  0.93423817560E+02  0.10566000000E+00 0.  1.
        994    1    1    2    0    0  0.79137013153E+01 -0.94304464957E+01  0.10396796592E+02  0.17195666131E+03  0.17120000000E+03 0.  0.
        998    1    1    2    0    0  0.31321871067E+01  0.47441667886E+02  0.14049797164E+04  0.14058195211E+04  0.10000000000E+02 0.  1.
</event>
<event>
 5    1  0.1321379E-008  0.3847246E+03  0.7957747E-01  0.3430841E+00
         13   -1    0    0    0    0  0.00000000000E+00  0.00000000000E+00  0.14999999963E+04  0.15000000000E+04  0.10566000000E+00 0. -1.
        994   -1    0    0    0    0 -0.00000000000E+00 -0.00000000000E+00  0.11368683772E-12  0.17120000000E+03  0.17120000000E+03 0.  0.
         13    1    1    2    0    0 -0.12269330309E+02 -0.68124976757E+01  0.54478726425E+02  0.56257349633E+02  0.10566000000E+00 0. -1.
        994    1    1    2    0    0  0.13602770981E+02  0.20660499067E+01  0.23903034363E+01  0.17176861614E+03  0.17120000000E+03 0.  0.
        998    1    1    2    0    0 -0.13334406724E+01  0.47464477690E+01  0.14431309664E+04  0.14431740342E+04  0.10000000000E+02 0. -1.
</event>
<event>
 5    1  0.1321379E-008  0.3723311E+03  0.7957747E-01  0.3485246E+00
         13   -1    0    0    0    0  0.00000000000E+00  0.00000000000E+00  0.14999999963E+04  0.15000000000E+04  0.10566000000E+00 0. -1.
        994   -1    0    0    0    0 -0.00000000000E+00 -0.00000000000E+00  0.11368683772E-12  0.17120000000E+03  0.17120000000E+03 0.  0.
         13    1    1    2    0    0 -0.48553212425E+02  0.20837648202E+02  0.10927223902E+03  0.12137567880E+03  0.10566000000E+00 0. -1.
        994    1    1    2    0    0  0.35992209750E+02 -0.93520082436E+01  0.17066918896E+02  0.17602164339E+03  0.17120000000E+03 0.  0.
        998    1    1    2    0    0  0.12561002675E+02 -0.11485639959E+02  0.13736608384E+04  0.13738026778E+04  0.10000000000E+02 0. -1.
</event>
<event>
 5    1  0.1321379E-008  0.3722382E+03  0.7957747E-01  0.3485667E+00
         13   -1    0    0    0    0  0.00000000000E+00  0.00000000000E+00  0.14999999963E+04  0.15000000000E+04  0.10566000000E+00 0. -1.
        994   -1    0    0    0    0 -0.00000000000E+00 -0.00000000000E+00  0.11368683772E-12  0.17120000000E+03  0.17120000000E+03 0.  0.
         13    1    1    2    0    0  0.27221090133E+02  0.36436882616E+02  0.13471407234E+03  0.14218483257E+03  0.10566000000E+00 0. -1.
        994    1    1    2    0    0  0.11353103513E+00 -0.13520984951E+02  0.87314317731E+01  0.17195495871E+03  0.17120000000E+03 0.  0.
        998    1    1    2    0    0 -0.27334621168E+02 -0.22915897665E+02  0.13565544922E+04  0.13570602087E+04  0.10000000000E+02 0. -1.
</event>
<event>
 5    1  0.1321379E-008  0.3732636E+03  0.7957747E-01  0.3481025E+00
         13   -1    0    0    0    0  0.00000000000E+00  0.00000000000E+00  0.14999999963E+04  0.15000000000E+04  0.10566000000E+00 0. -1.
        994   -1    0    0    0    0 -0.00000000000E+00 -0.00000000000E+00  0.11368683772E-12  0.17120000000E+03  0.17120000000E+03 0.  0.
         13    1    1    2    0    0  0.76463871285E+02  0.19022428781E+02  0.31969901155E+03  0.32926591922E+03  0.10566000000E+00 0. -1.
        994    1    1    2    0    0 -0.77609109593E+02 -0.14429853574E+02  0.29189147577E+02  0.19076907743E+03  0.17120000000E+03 0.  0.
        998    1    1    2    0    0  0.11452383082E+01 -0.45925752074E+01  0.11511118372E+04  0.11511650034E+04  0.10000000000E+02 0. -1.
</event>
<event>
 5    1  0.1321379E-008  0.3848823E+03  0.7957747E-01  0.3430172E+00
         13   -1    0    0    0    0  0.00000000000E+00  0.00000000000E+00  0.14999999963E+04  0.15000000000E+04  0.10566000000E+00 0. -1.
        994   -1    0    0    0    0 -0.00000000000E+00 -0.00000000000E+00  0.11368683772E-12  0.17120000000E+03  0.17120000000E+03 0.  0.
         13    1    1    2    0    0  0.62563013896E+02  0.10029483275E+03  0.28424823608E+03  0.30784777905E+03  0.10566000000E+00 0. -1.
        994    1    1    2    0    0 -0.76054352983E+02 -0.94052608503E+02  0.75258571874E+02  0.22271832079E+03  0.17120000000E+03 0.  0.
        998    1    1    2    0    0  0.13491339087E+02 -0.62422242519E+01  0.11404931883E+04  0.11406339002E+04  0.10000000000E+02 0. -1.
</event>
<event>
 5    1  0.1321379E-008  0.3802136E+03  0.7957747E-01  0.3450229E+00
         13   -1    0    0    0    0  0.00000000000E+00  0.00000000000E+00  0.14999999963E+04  0.15000000000E+04  0.10566000000E+00 0. -1.
        994   -1    0    0    0    0 -0.00000000000E+00 -0.00000000000E+00  0.11368683772E-12  0.17120000000E+03  0.17120000000E+03 0.  0.
         13    1    1    2    0    0 -0.22377715367E+02  0.14903987528E+02  0.83613640374E+02  0.87830194181E+02  0.10566000000E+00 0. -1.
        994    1    1    2    0    0  0.16642982071E+02 -0.26253013532E+02  0.72597789921E+01  0.17415037744E+03  0.17120000000E+03 0.  0.
        998    1    1    2    0    0  0.57347332953E+01  0.11349026005E+02  0.14091265769E+04  0.14092194284E+04  0.10000000000E+02 0. -1.
</event>
<event>
 5    1  0.1321379E-008  0.3758114E+03  0.7957747E-01  0.3469602E+00
         13   -1    0    0    0    0  0.00000000000E+00  0.00000000000E+00  0.14999999963E+04  0.15000000000E+04  0.10566000000E+00 0. -1.
        994   -1    0    0    0    0 -0.00000000000E+00 -0.00000000000E+00  0.11368683772E-12  0.17120000000E+03  0.17120000000E+03 0.  0.
         13    1    1    2    0    0  0.20522789637E+02 -0.70751270427E+02  0.32224175771E+03  0.33055512208E+03  0.10566000000E+00 0. -1.
        994    1    1    2    0    0 -0.40114002188E+02  0.71617368887E+02  0.29458150049E+02  0.19213381613E+03  0.17120000000E+03 0.  0.
        998    1    1    2    0    0  0.19591212551E+02 -0.86609845985E+00  0.11483000885E+04  0.11485110618E+04  0.10000000000E+02 0. -1.
</event>
<event>
 5    1  0.1321379E-008  0.3749114E+03  0.7957747E-01  0.3473619E+00
         13   -1    0    0    0    0  0.00000000000E+00  0.00000000000E+00  0.14999999963E+04  0.15000000000E+04  0.10566000000E+00 0. -1.
        994   -1    0    0    0    0 -0.00000000000E+00 -0.00000000000E+00  0.11368683772E-12  0.17120000000E+03  0.17120000000E+03 0.  0.
         13    1    1    2    0    0  0.67828903035E+01 -0.13173988254E+02  0.13405142102E+02  0.19981755833E+02  0.10566000000E+00 0. -1.
        994    1    1    2    0    0  0.39355633040E+01  0.12208992984E+02  0.72839018439E+01  0.17183434870E+03  0.17120000000E+03 0.  0.
        998    1    1    2    0    0 -0.10718453608E+02  0.96499527018E+00  0.14793109523E+04  0.14793838955E+04  0.10000000000E+02 0. -1.
</event>
<event>
 5    1  0.1321379E-008  0.3744341E+03  0.7957747E-01  0.3475758E+00
         13   -1    0    0    0    0  0.00000000000E+00  0.00000000000E+00  0.14999999963E+04  0.15000000000E+04  0.10566000000E+00 0.  1.
        994   -1    0    0    0    0 -0.00000000000E+00 -0.00000000000E+00  0.11368683772E-12  0.17120000000E+03  0.17120000000E+03 0.  0.
         13    1    1    2    0    0 -0.13533253737E+01 -0.19127472345E+02  0.24895289796E+02  0.31424167545E+02  0.10566000000E+00 0.  1.
        994    1    1    2    0    0  0.40235447093E+01 -0.11089476899E+02  0.74437168433E+01  0.17176732614E+03  0.17120000000E+03 0.  0.
        998    1    1    2    0    0 -0.26702193356E+01  0.30216949244E+02  0.14676609896E+04  0.14680085063E+04  0.10000000000E+02 0.  1.
</event>
<event>
 5    1  0.1321379E-008  0.3853527E+03  0.7957747E-01  0.3428178E+00
         13   -1    0    0    0    0  0.00000000000E+00  0.00000000000E+00  0.14999999963E+04  0.15000000000E+04  0.10566000000E+00 0.  1.
        994   -1    0    0    0    0 -0.00000000000E+00 -0.00000000000E+00  0.11368683772E-12  0.17120000000E+03  0.17120000000E+03 0.  0.
         13    1    1    2    0    0 -0.46445399045E+01  0.15435142735E+02  0.87590790131E+02  0.89061625081E+02  0.10566000000E+00 0.  1.
        994    1    1    2    0    0 -0.12193747173E+01 -0.14363358535E+02  0.21379852711E+01  0.17181910233E+03  0.17120000000E+03 0.  0.
        998    1    1    2    0    0  0.58639146218E+01 -0.10717842003E+01  0.14102712209E+04  0.14103192726E+04  0.10000000000E+02 0.  1.
</event>
<event>
 5    1  0.1321379E-008  0.3802469E+03  0.7957747E-01  0.3450084E+00
         13   -1    0    0    0    0  0.00000000000E+00  0.00000000000E+00  0.14999999963E+04  0.15000000000E+04  0.10566000000E+00 0.  1.
        994   -1    0    0    0    0 -0.00000000000E+00 -0.00000000000E+00  0.11368683772E-12  0.17120000000E+03  0.17120000000E+03 0.  0.
         13    1    1    2    0    0  0.20036136430E+02  0.36868242943E+02  0.45280216672E+02  0.61733485943E+02  0.10566000000E+00 0.  1.
        994    1    1    2    0    0 -0.24820231799E+02 -0.39943708892E+02  0.24527235092E+02  0.17922770168E+03  0.17120000000E+03 0.  0.
        998    1    1    2    0    0  0.47840953690E+01  0.30754659498E+01  0.14301925445E+04  0.14302388124E+04  0.10000000000E+02 0.  1.
</event>
<event>
 5    1  0.1321379E-008  0.3829752E+03  0.7957747E-01  0.3438305E+00
         13   -1    0    0    0    0  0.00000000000E+00  0.00000000000E+00  0.14999999963E+04  0.15000000000E+04  0.10566000000E+00 0.  1.
        994   -1    0    0    0    0 -0.00000000000E+00 -0.00000000000E+00  0.11368683772E-12  0.17120000000E+03  0.17120000000E+03 0.  0.
         13    1    1    2    0    0 -0.22261354354E+02 -0.60724493635E+00  0.88509098376E+02  0.91267783491E+02  0.10566000000E+00 0.  1.
        994    1    1    2    0    0  0.22644613084E+02  0.53654919606E+01  0.44336304055E+01  0.17283131685E+03  0.17120000000E+03 0.  0.
        998    1    1    2    0    0 -0.38325873066E+00 -0.47582470243E+01  0.14070572675E+04  0.14071008997E+04  0.10000000000E+02 0.  1.
</event>
<event>
 5    1  0.1321379E-008  0.4464269E+03  0.7957747E-01  0.3204731E+00
         13   -1    0    0    0    0  0.00000000000E+00  0.00000000000E+00  0.14999999963E+04  0.15000000000E+04  0.10566000000E+00 0. -1.
        994   -1    0    0    0    0 -0.00000000000E+00 -0.00000000000E+00  0.11368683772E-12  0.17120000000E+03  0.17120000000E+03 0.  0.
         13    1    1    2    0    0 -0.20397809205E+02 -0.12170914945E+03  0.10829421135E+03  0.16418536797E+03  0.10566000000E+00 0. -1.
        994    1    1    2    0    0 -0.96105870772E+01  0.11519922895E+03  0.12825283808E+03  0.24314904114E+03  0.17120000000E+03 0.  0.
        998    1    1    2    0    0  0.30008396282E+02  0.65099205021E+01  0.12634529469E+04  0.12638655909E+04  0.10000000000E+02 0. -1.
</event>
<event>
 5    1  0.1321379E-008  0.3784608E+03  0.7957747E-01  0.3457888E+00
         13   -1    0    0    0    0  0.00000000000E+00  0.00000000000E+00  0.14999999963E+04  0.15000000000E+04  0.10566000000E+00 0. -1.
        994   -1    0    0    0    0 -0.00000000000E+00 -0.00000000000E+00  0.11368683772E-12  0.17120000000E+03  0.17120000000E+03 0.  0.
         13    1    1    2    0    0  0.63676315254E+01 -0.81940412011E+01  0.87970731122E+01  0.13604730862E+02  0.10566000000E+00 0. -1.
        994    1    1    2    0    0 -0.10617521345E+02 -0.19176466908E+01  0.53033892936E+01  0.17162160431E+03  0.17120000000E+03 0.  0.
        998    1    1    2    0    0  0.42498898198E+01  0.10111687892E+02  0.14858995339E+04  0.14859736648E+04  0.10000000000E+02 0. -1.
</event>
<event>
 5    1  0.1321379E-008  0.3174277E+03  0.7957747E-01  0.3778955E+00
         13   -1    0    0    0    0  0.00000000000E+00  0.00000000000E+00  0.14999999963E+04  0.15000000000E+04  0.10566000000E+00 0. -1.
        994   -1    0    0    0    0 -0.00000000000E+00 -0.00000000000E+00  0.11368683772E-12  0.17120000000E+03  0.17120000000E+03 0.  0.
         13    1    1    2    0    0  0.13978291285E+03 -0.63642464679E+02  0.91923865415E+03  0.93198140566E+03  0.10566000000E+00 0. -1.
        994    1    1    2    0    0 -0.84367696063E+02  0.15690979973E+02  0.42840194868E+02  0.19623668691E+03  0.17120000000E+03 0.  0.
        998    1    1    2    0    0 -0.55415216790E+02  0.47951484706E+02  0.53792114726E+03  0.54298190744E+03  0.10000000000E+02 0.  1.
</event>
<event>
 5    1  0.1321379E-008  0.3850050E+03  0.7957747E-01  0.3429651E+00
         13   -1    0    0    0    0  0.00000000000E+00  0.00000000000E+00  0.14999999963E+04  0.15000000000E+04  0.10566000000E+00 0. -1.
        994   -1    0    0    0    0 -0.00000000000E+00 -0.00000000000E+00  0.11368683772E-12  0.17120000000E+03  0.17120000000E+03 0.  0.
         13    1    1    2    0    0  0.78523304127E+01 -0.13851496093E+02  0.79487633512E+02  0.81066750782E+02  0.10566000000E+00 0. -1.
        994    1    1    2    0    0 -0.12220005483E+01  0.79918068392E+01  0.18426448614E+01  0.17140069312E+03  0.17120000000E+03 0.  0.
        998    1    1    2    0    0 -0.66303298645E+01  0.58596892540E+01  0.14186697179E+04  0.14187325561E+04  0.10000000000E+02 0. -1.
</event>
<event>
 5    1  0.1321379E-008  0.3855292E+03  0.7957747E-01  0.3427431E+00
         13   -1    0    0    0    0  0.00000000000E+00  0.00000000000E+00  0.14999999963E+04  0.15000000000E+04  0.10566000000E+00 0.  1.
        994   -1    0    0    0    0 -0.00000000000E+00 -0.00000000000E+00  0.11368683772E-12  0.17120000000E+03  0.17120000000E+03 0.  0.
         13    1    1    2    0    0 -0.12033987118E+02 -0.65115034691E+01  0.66689920443E+02  0.68079168445E+02  0.10566000000E+00 0.  1.
        994    1    1    2    0    0  0.10522185062E+02  0.91055642382E+01  0.20035816954E+01  0.17177625569E+03  0.17120000000E+03 0.  0.
        998    1    1    2    0    0  0.15118020560E+01 -0.25940607691E+01  0.14313064941E+04  0.14313445759E+04  0.10000000000E+02 0.  1.
</event>
<event>
 5    1  0.1321379E-008  0.3805402E+03  0.7957747E-01  0.3448810E+00
         13   -1    0    0    0    0  0.00000000000E+00  0.00000000000E+00  0.14999999963E+04  0.15000000000E+04  0.10566000000E+00 0.  1.
        994   -1    0    0    0    0 -0.00000000000E+00 -0.00000000000E+00  0.11368683772E-12  0.17120000000E+03  0.17120000000E+03 0.  0.
         13    1    1    2    0    0  0.43095478311E+02 -0.89300689674E+01  0.19181617179E+03  0.19680046064E+03  0.10566000000E+00 0.  1.
        994    1    1    2    0    0 -0.64791017731E+02 -0.41064230983E+01  0.18055478297E+02  0.18398418135E+03  0.17120000000E+03 0.  0.
        998    1    1    2    0    0  0.21695539420E+02  0.13036492066E+02  0.12901283462E+04  0.12904153580E+04  0.10000000000E+02 0.  1.
</event>
<event>
 5    1  0.1321379E-008  0.2793127E+03  0.7957747E-01  0.4055756E+00
         13   -1    0    0    0    0  0.00000000000E+00  0.00000000000E+00  0.14999999963E+04  0.15000000000E+04  0.10566000000E+00 0.  1.
        994   -1    0    0    0    0 -0.00000000000E+00 -0.00000000000E+00  0.11368683772E-12  0.17120000000E+03  0.17120000000E+03 0.  0.
         13    1    1    2    0    0  0.10085284377E+03  0.11626281024E+03  0.57658629663E+03  0.59677475296E+03  0.10566000000E+00 0.  1.
        994    1    1    2    0    0 -0.99391151848E+02 -0.79041468636E+02  0.76249754586E+02  0.22638378896E+03  0.17120000000E+03 0.  0.
        998    1    1    2    0    0 -0.14616919200E+01 -0.37221341601E+02  0.84716394506E+03  0.84804145808E+03  0.10000000000E+02 0.  1.
</event>
<event>
 5    1  0.1321379E-008  0.3847891E+03  0.7957747E-01  0.3430567E+00
         13   -1    0    0    0    0  0.00000000000E+00  0.00000000000E+00  0.14999999963E+04  0.15000000000E+04  0.10566000000E+00 0. -1.
        994   -1    0    0    0    0 -0.00000000000E+00 -0.00000000000E+00  0.11368683772E-12  0.17120000000E+03  0.17120000000E+03 0.  0.
         13    1    1    2    0    0  0.29188298824E+00  0.13391312450E+02  0.47307305618E+02  0.49167110690E+02  0.10566000000E+00 0. -1.
        994    1    1    2    0    0 -0.34774831839E+02 -0.25625074335E+02  0.78997471424E+01  0.17674212675E+03  0.17120000000E+03 0.  0.
        998    1    1    2    0    0  0.34482948850E+02  0.12233761885E+02  0.14447929435E+04  0.14452907626E+04  0.10000000000E+02 0. -1.
</event>
<event>
 5    1  0.1321379E-008  0.3773661E+03  0.7957747E-01  0.3462708E+00
         13   -1    0    0    0    0  0.00000000000E+00  0.00000000000E+00  0.14999999963E+04  0.15000000000E+04  0.10566000000E+00 0. -1.
        994   -1    0    0    0    0 -0.00000000000E+00 -0.00000000000E+00  0.11368683772E-12  0.17120000000E+03  0.17120000000E+03 0.  0.
         13    1    1    2    0    0 -0.97289952241E+02  0.25176154095E+02  0.29828219983E+03  0.31475618412E+03  0.10566000000E+00 0. -1.
        994    1    1    2    0    0  0.83546511616E+02 -0.79483903249E+00  0.40388129908E+02  0.19473390154E+03  0.17120000000E+03 0.  0.
        998    1    1    2    0    0  0.13743440625E+02 -0.24381315063E+02  0.11613296665E+04  0.11617099143E+04  0.10000000000E+02 0. -1.
</event>
<event>
 5    1  0.1321379E-008  0.3838462E+03  0.7957747E-01  0.3434581E+00
         13   -1    0    0    0    0  0.00000000000E+00  0.00000000000E+00  0.14999999963E+04  0.15000000000E+04  0.10566000000E+00 0. -1.
        994   -1    0    0    0    0 -0.00000000000E+00 -0.00000000000E+00  0.11368683772E-12  0.17120000000E+03  0.17120000000E+03 0.  0.
         13    1    1    2    0    0  0.67322177724E+01  0.11041007580E+02  0.35877950905E+02  0.38137450488E+02  0.10566000000E+00 0. -1.
        994    1    1    2    0    0  0.24792854253E+01 -0.23094524179E+02  0.39870097703E+01  0.17281446742E+03  0.17120000000E+03 0.  0.
        998    1    1    2    0    0 -0.92115031977E+01  0.12053516599E+02  0.14601350356E+04  0.14602480821E+04  0.10000000000E+02 0. -1.
</event>
<event>
 5    1  0.1321379E-008  0.3705686E+03  0.7957747E-01  0.3493282E+00
         13   -1    0    0    0    0  0.00000000000E+00  0.00000000000E+00  0.14999999963E+04  0.15000000000E+04  0.10566000000E+00 0. -1.
        994   -1    0    0    0    0 -0.00000000000E+00 -0.00000000000E+00  0.11368683772E-12  0.17120000000E+03  0.17120000000E+03 0.  0.
         13    1    1    2    0    0 -0.19819797491E+02 -0.92585546707E+01  0.22493579143E+02  0.31377021430E+02  0.10566000000E+00 0. -1.
        994    1    1    2    0    0  0.20024335246E+02  0.10487597640E+02  0.10737406232E+02  0.17301935036E+03  0.17120000000E+03 0.  0.
        998    1    1    2    0    0 -0.20453775517E+00 -0.12290429696E+01  0.14667690109E+04  0.14668036282E+04  0.10000000000E+02 0. -1.
</event>
<event>
 5    1  0.1321379E-008  0.3800861E+03  0.7957747E-01  0.3450784E+00
         13   -1    0    0    0    0  0.00000000000E+00  0.00000000000E+00  0.14999999963E+04  0.15000000000E+04  0.10566000000E+00 0. -1.
        994   -1    0    0    0    0 -0.00000000000E+00 -0.00000000000E+00  0.11368683772E-12  0.17120000000E+03  0.17120000000E+03 0.  0.
         13    1    1    2    0    0  0.22380633167E-01 -0.11455805085E+02  0.14368392318E+02  0.18376556611E+02  0.10566000000E+00 0. -1.
        994    1    1    2    0    0 -0.11759758201E+02  0.57346381075E+01  0.46619693243E+01  0.17176248701E+03  0.17120000000E+03 0.  0.
        998    1    1    2    0    0  0.11737377568E+02  0.57211669776E+01  0.14809696346E+04  0.14810609564E+04  0.10000000000E+02 0. -1.
</event>
<event>
 5    1  0.1321379E-008  0.3843852E+03  0.7957747E-01  0.3432284E+00
         13   -1    0    0    0    0  0.00000000000E+00  0.00000000000E+00  0.14999999963E+04  0.15000000000E+04  0.10566000000E+00 0.  1.
        994   -1    0    0    0    0 -0.00000000000E+00 -0.00000000000E+00  0.11368683772E-12  0.17120000000E+03  0.17120000000E+03 0.  0.
         13    1    1    2    0    0  0.14719154092E+02  0.52914224627E+01  0.62511632616E+02  0.64438870453E+02  0.10566000000E+00 0.  1.
        994    1    1    2    0    0 -0.13874168689E+02  0.47275364253E+01  0.26439620240E+01  0.17184665459E+03  0.17120000000E+03 0.  0.
        998    1    1    2    0    0 -0.84498540276E+00 -0.10018958888E+02  0.14348444016E+04  0.14349144750E+04  0.10000000000E+02 0.  1.
</event>
<event>
 5    1  0.1321379E-008  0.3826116E+03  0.7957747E-01  0.3439865E+00
         13   -1    0    0    0    0  0.00000000000E+00  0.00000000000E+00  0.14999999963E+04  0.15000000000E+04  0.10566000000E+00 0. -1.
        994   -1    0    0    0    0 -0.00000000000E+00 -0.00000000000E+00  0.11368683772E-12  0.17120000000E+03  0.17120000000E+03 0.  0.
         13    1    1    2    0    0 -0.11497782574E+02 -0.18402573547E+01  0.22545692761E+02  0.25375282804E+02  0.10566000000E+00 0. -1.
        994    1    1    2    0    0  0.13894370512E+02  0.29172574245E+01  0.34889468383E+01  0.17182309703E+03  0.17120000000E+03 0.  0.
        998    1    1    2    0    0 -0.23965879376E+01 -0.10770000698E+01  0.14739653567E+04  0.14740016202E+04  0.10000000000E+02 0. -1.
</event>
<event>
 5    1  0.1321379E-008  0.3854730E+03  0.7957747E-01  0.3427668E+00
         13   -1    0    0    0    0  0.00000000000E+00  0.00000000000E+00  0.14999999963E+04  0.15000000000E+04  0.10566000000E+00 0. -1.
        994   -1    0    0    0    0 -0.00000000000E+00 -0.00000000000E+00  0.11368683772E-12  0.17120000000E+03  0.17120000000E+03 0.  0.
         13    1    1    2    0    0 -0.71068306306E+01  0.83188939539E+01  0.41572066218E+02  0.42987892387E+02  0.10566000000E+00 0. -1.
        994    1    1    2    0    0  0.25804650345E+02  0.34767438733E+01  0.36248136172E+01  0.17320665981E+03  0.17120000000E+03 0.  0.
        998    1    1    2    0    0 -0.18697819714E+02 -0.11795637827E+02  0.14548031164E+04  0.14550054478E+04  0.10000000000E+02 0. -1.
</event>
<event>
 5    1  0.1321379E-008  0.3827140E+03  0.7957747E-01  0.3439426E+00
         13   -1    0    0    0    0  0.00000000000E+00  0.00000000000E+00  0.14999999963E+04  0.15000000000E+04  0.10566000000E+00 0.  1.
        994   -1    0    0    0    0 -0.00000000000E+00 -0.00000000000E+00  0.11368683772E-12  0.17120000000E+03  0.17120000000E+03 0.  0.
         13    1    1    2    0    0 -0.43612944597E+02 -0.25469077376E+02  0.29908034774E+03  0.30331473490E+03  0.10566000000E+00 0.  1.
        994    1    1    2    0    0  0.62869123718E+02  0.31836434844E+02  0.19401032473E+02  0.18615027629E+03  0.17120000000E+03 0.  0.
        998    1    1    2    0    0 -0.19256179122E+02 -0.63673574680E+01  0.11815186161E+04  0.11817349888E+04  0.10000000000E+02 0.  1.
</event>
<event>
 5    1  0.1321379E-008  0.3697389E+03  0.7957747E-01  0.3497092E+00
         13   -1    0    0    0    0  0.00000000000E+00  0.00000000000E+00  0.14999999963E+04  0.15000000000E+04  0.10566000000E+00 0. -1.
        994   -1    0    0    0    0 -0.00000000000E+00 -0.00000000000E+00  0.11368683772E-12  0.17120000000E+03  0.17120000000E+03 0.  0.
         13    1    1    2    0    0  0.19926140792E+02 -0.10218111211E+03  0.41960671267E+03  0.43232838820E+03  0.10566000000E+00 0. -1.
        994    1    1    2    0    0 -0.28119851558E+02  0.96507702178E+02  0.45235639719E+02  0.20361769504E+03  0.17120000000E+03 0.  0.
        998    1    1    2    0    0  0.81937107660E+01  0.56734099322E+01  0.10351576439E+04  0.10352539168E+04  0.10000000000E+02 0. -1.
</event>
<event>
 5    1  0.1321379E-008  0.3858055E+03  0.7957747E-01  0.3426263E+00
         13   -1    0    0    0    0  0.00000000000E+00  0.00000000000E+00  0.14999999963E+04  0.15000000000E+04  0.10566000000E+00 0.  1.
        994   -1    0    0    0    0 -0.00000000000E+00 -0.00000000000E+00  0.11368683772E-12  0.17120000000E+03  0.17120000000E+03 0.  0.
         13    1    1    2    0    0 -0.10365868908E+02 -0.10113750834E+02  0.84930451477E+02  0.86156438797E+02  0.10566000000E+00 0.  1.
        994    1    1    2    0    0  0.67790948955E+01  0.86109430008E+01  0.16248156237E+01  0.17155810821E+03  0.17120000000E+03 0.  0.
        998    1    1    2    0    0  0.35867740121E+01  0.15028078329E+01  0.14134447292E+04  0.14134854530E+04  0.10000000000E+02 0.  1.
</event>
<event>
 5    1  0.1321379E-008  0.3786127E+03  0.7957747E-01  0.3457222E+00
         13   -1    0    0    0    0  0.00000000000E+00  0.00000000000E+00  0.14999999963E+04  0.15000000000E+04  0.10566000000E+00 0.  1.
        994   -1    0    0    0    0 -0.00000000000E+00 -0.00000000000E+00  0.11368683772E-12  0.17120000000E+03  0.17120000000E+03 0.  0.
         13    1    1    2    0    0 -0.13167647892E+02  0.52593209083E+02  0.27682542470E+03  0.28208466729E+03  0.10566000000E+00 0.  1.
        994    1    1    2    0    0  0.21688756007E+02 -0.37741515371E+02  0.11225012045E+02  0.17700357345E+03  0.17120000000E+03 0.  0.
        998    1    1    2    0    0 -0.85211081148E+01 -0.14851693711E+02  0.12119495595E+04  0.12121117593E+04  0.10000000000E+02 0.  1.
</event>
<event>
 5    1  0.1321379E-008  0.3727398E+03  0.7957747E-01  0.3483393E+00
         13   -1    0    0    0    0  0.00000000000E+00  0.00000000000E+00  0.14999999963E+04  0.15000000000E+04  0.10566000000E+00 0. -1.
        994   -1    0    0    0    0 -0.00000000000E+00 -0.00000000000E+00  0.11368683772E-12  0.17120000000E+03  0.17120000000E+03 0.  0.
         13    1    1    2    0    0  0.30365121921E+02  0.79810772262E+01  0.56709114920E+02  0.64820313961E+02  0.10566000000E+00 0. -1.
        994    1    1    2    0    0 -0.36113473566E+02 -0.10080767955E+02  0.12674601549E+02  0.17571536751E+03  0.17120000000E+03 0.  0.
        998    1    1    2    0    0  0.57483516448E+01  0.20996907287E+01  0.14306162798E+04  0.14306643185E+04  0.10000000000E+02 0. -1.
</event>
<event>
 5    1  0.1321379E-008  0.3793963E+03  0.7957747E-01  0.3453792E+00
         13   -1    0    0    0    0  0.00000000000E+00  0.00000000000E+00  0.14999999963E+04  0.15000000000E+04  0.10566000000E+00 0.  1.
        994   -1    0    0    0    0 -0.00000000000E+00 -0.00000000000E+00  0.11368683772E-12  0.17120000000E+03  0.17120000000E+03 0.  0.
         13    1    1    2    0    0 -0.36415838134E+02 -0.25731358939E+02  0.23308525076E+03  0.23731194952E+03  0.10566000000E+00 0.  1.
        994    1    1    2    0    0  0.78854751107E+01  0.23465070800E+02  0.64935202179E+01  0.17310227055E+03  0.17120000000E+03 0.  0.
        998    1    1    2    0    0  0.28530363024E+02  0.22662881392E+01  0.12604212253E+04  0.12607857799E+04  0.10000000000E+02 0.  1.
</event>
<event>
 5    1  0.1321379E-008  0.3836746E+03  0.7957747E-01  0.3435313E+00
         13   -1    0    0    0    0  0.00000000000E+00  0.00000000000E+00  0.14999999963E+04  0.15000000000E+04  0.10566000000E+00 0. -1.
        994   -1    0    0    0    0 -0.00000000000E+00 -0.00000000000E+00  0.11368683772E-12  0.17120000000E+03  0.17120000000E+03 0.  0.
         13    1    1    2    0    0  0.10191942600E+03  0.17246527245E+03  0.94257898782E+03  0.96363219074E+03  0.10566000000E+00 0. -1.
        994    1    1    2    0    0 -0.11642573712E+03 -0.19469833878E+03  0.19646812564E+03  0.34550189549E+03  0.17120000000E+03 0.  0.
        998    1    1    2    0    0  0.14506311124E+02  0.22233066330E+02  0.36095288282E+03  0.36206591377E+03  0.10000000000E+02 0. -1.
</event>
<event>
 5    1  0.1321379E-008  0.3774724E+03  0.7957747E-01  0.3462239E+00
         13   -1    0    0    0    0  0.00000000000E+00  0.00000000000E+00  0.14999999963E+04  0.15000000000E+04  0.10566000000E+00 0.  1.
        994   -1    0    0    0    0 -0.00000000000E+00 -0.00000000000E+00  0.11368683772E-12  0.17120000000E+03  0.17120000000E+03 0.  0.
         13    1    1    2    0    0 -0.12651599292E+02 -0.52143329256E+02  0.28616304236E+03  0.29114994028E+03  0.10566000000E+00 0.  1.
        994    1    1    2    0    0 -0.93283061550E+01  0.23964051513E+02  0.76470251049E+01  0.17328938240E+03  0.17120000000E+03 0.  0.
        998    1    1    2    0    0  0.21979905447E+02  0.28179277743E+02  0.12061899288E+04  0.12067606773E+04  0.10000000000E+02 0.  1.
</event>
<event>
 5    1  0.1321379E-008  0.3811002E+03  0.7957747E-01  0.3446382E+00
         13   -1    0    0    0    0  0.00000000000E+00  0.00000000000E+00  0.14999999963E+04  0.15000000000E+04  0.10566000000E+00 0. -1.
        994   -1    0    0    0    0 -0.00000000000E+00 -0.00000000000E+00  0.11368683772E-12  0.17120000000E+03  0.17120000000E+03 0.  0.
         13    1    1    2    0    0  0.19905396596E+01 -0.29285294307E+02  0.11576026432E+03  0.11942378603E+03  0.10566000000E+00 0. -1.
        994    1    1    2    0    0 -0.13333417561E+02  0.21909087977E+02  0.57728701333E+01  0.17320668056E+03  0.17120000000E+03 0.  0.
        998    1    1    2    0    0  0.11342877901E+02  0.73762063304E+01  0.13784668618E+04  0.13785695334E+04  0.10000000000E+02 0. -1.
</event>
<event>
 5    1  0.1321379E-008  0.3857730E+03  0.7957747E-01  0.3426401E+00
         13   -1    0    0    0    0  0.00000000000E+00  0.00000000000E+00  0.14999999963E+04  0.15000000000E+04  0.10566000000E+00 0.  1.
        994   -1    0    0    0    0 -0.00000000000E+00 -0.00000000000E+00  0.11368683772E-12  0.17120000000E+03  0.17120000000E+03 0.  0.
         13    1    1    2    0    0 -0.58759322242E+01 -0.11036388807E+02  0.71862547451E+02  0.72942205530E+02  0.10566000000E+00 0.  1.
        994    1    1    2    0    0  0.85414573915E+01 -0.13482638575E+02  0.20829556157E+01  0.17195498464E+03  0.17120000000E+03 0.  0.
        998    1    1    2    0    0 -0.26655251672E+01  0.24519027382E+02  0.14260544932E+04  0.14263028098E+04  0.10000000000E+02 0.  1.
</event>
<event>
 5    1  0.1321379E-008  0.3710088E+03  0.7957747E-01  0.3491268E+00
         13   -1    0    0    0    0  0.00000000000E+00  0.00000000000E+00  0.14999999963E+04  0.15000000000E+04  0.10566000000E+00 0.  1.
        994   -1    0    0    0    0 -0.00000000000E+00 -0.00000000000E+00  0.11368683772E-12  0.17120000000E+03  0.17120000000E+03 0.  0.
         13    1    1    2    0    0  0.54271386713E+02 -0.11007767479E+01  0.12623648678E+03  0.13741272461E+03  0.10566000000E+00 0.  1.
        994    1    1    2    0    0 -0.31282336840E+02 -0.32135593492E+02  0.18563010365E+02  0.17794748192E+03  0.17120000000E+03 0.  0.
        998    1    1    2    0    0 -0.22989049872E+02  0.33236370239E+02  0.13552004991E+04  0.13558397935E+04  0.10000000000E+02 0.  1.
</event>
<event>
 5    1  0.1321379E-008  0.3778832E+03  0.7957747E-01  0.3460428E+00
         13   -1    0    0    0    0  0.00000000000E+00  0.00000000000E+00  0.14999999963E+04  0.15000000000E+04  0.10566000000E+00 0.  1.
        994   -1    0    0    0    0 -0.00000000000E+00 -0.00000000000E+00  0.11368683772E-12  0.17120000000E+03  0.17120000000E+03 0.  0.
         13    1    1    2    0    0  0.28333801359E+02  0.11360769948E+02  0.82528441500E+02  0.87993330507E+02  0.10566000000E+00 0.  1.
        994    1    1    2    0    0 -0.31055751567E+02 -0.11177598814E+02  0.88817259260E+01  0.17457870281E+03  0.17120000000E+03 0.  0.
        998    1    1    2    0    0  0.27219502078E+01 -0.18317113446E+00  0.14085898289E+04  0.14086279667E+04  0.10000000000E+02 0.  0.
</event>
<event>
 5    1  0.1321379E-008  0.3782920E+03  0.7957747E-01  0.3458629E+00
         13   -1    0    0    0    0  0.00000000000E+00  0.00000000000E+00  0.14999999963E+04  0.15000000000E+04  0.10566000000E+00 0.  1.
        994   -1    0    0    0    0 -0.00000000000E+00 -0.00000000000E+00  0.11368683772E-12  0.17120000000E+03  0.17120000000E+03 0.  0.
         13    1    1    2    0    0 -0.10337138782E+02 -0.20355939036E+02  0.50542838916E+02  0.55459989379E+02  0.10566000000E+00 0.  1.
        994    1    1    2    0    0  0.13755545265E+02  0.77565598923E+01  0.58366356502E+01  0.17202582818E+03  0.17120000000E+03 0.  0.
        998    1    1    2    0    0 -0.34184064832E+01  0.12599379143E+02  0.14436205217E+04  0.14437141824E+04  0.10000000000E+02 0.  1.
</event>
<event>
 5    1  0.1321379E-008  0.3751012E+03  0.7957747E-01  0.3472770E+00
         13   -1    0    0    0    0  0.00000000000E+00  0.00000000000E+00  0.14999999963E+04  0.15000000000E+04  0.10566000000E+00 0. -1.
        994   -1    0    0    0    0 -0.00000000000E+00 -0.00000000000E+00  0.11368683772E-12  0.17120000000E+03  0.17120000000E+03 0.  0.
         13    1    1    2    0    0  0.17263252768E+02  0.69682268213E+01  0.22786385073E+02  0.29424591584E+02  0.10566000000E+00 0. -1.
        994    1    1    2    0    0 -0.17796867525E+02 -0.16381773204E+02  0.86174818912E+01  0.17311496752E+03  0.17120000000E+03 0.  0.
        998    1    1    2    0    0  0.53361475673E+00  0.94135463822E+01  0.14685961293E+04  0.14686604409E+04  0.10000000000E+02 0. -1.
</event>
<event>
 5    1  0.1321379E-008  0.3847618E+03  0.7957747E-01  0.3430683E+00
         13   -1    0    0    0    0  0.00000000000E+00  0.00000000000E+00  0.14999999963E+04  0.15000000000E+04  0.10566000000E+00 0.  1.
        994   -1    0    0    0    0 -0.00000000000E+00 -0.00000000000E+00  0.11368683772E-12  0.17120000000E+03  0.17120000000E+03 0.  0.
         13    1    1    2    0    0  0.90490324917E+01  0.15747909439E+02  0.88154814692E+02  0.90006467313E+02  0.10566000000E+00 0.  1.
        994    1    1    2    0    0 -0.12220270756E+02 -0.17361069174E+02  0.32333317316E+01  0.17254169402E+03  0.17120000000E+03 0.  0.
        998    1    1    2    0    0  0.31712382643E+01  0.16131597346E+01  0.14086118499E+04  0.14086518387E+04  0.10000000000E+02 0.  1.
</event>
<event>
 5    1  0.1321379E-008  0.3714236E+03  0.7957747E-01  0.3489374E+00
         13   -1    0    0    0    0  0.00000000000E+00  0.00000000000E+00  0.14999999963E+04  0.15000000000E+04  0.10566000000E+00 0.  1.
        994   -1    0    0    0    0 -0.00000000000E+00 -0.00000000000E+00  0.11368683772E-12  0.17120000000E+03  0.17120000000E+03 0.  0.
         13    1    1    2    0    0 -0.66697738960E+02 -0.54052339616E+01  0.19721991802E+03  0.20826308401E+03  0.10566000000E+00 0.  1.
        994    1    1    2    0    0  0.90302958847E+02  0.18635874684E+02  0.38373943850E+02  0.19820171485E+03  0.17120000000E+03 0.  0.
        998    1    1    2    0    0 -0.23605219887E+02 -0.13230640723E+02  0.12644061344E+04  0.12647352011E+04  0.10000000000E+02 0.  1.
</event>
<event>
 5    1  0.1321379E-008  0.3844258E+03  0.7957747E-01  0.3432111E+00
         13   -1    0    0    0    0  0.00000000000E+00  0.00000000000E+00  0.14999999963E+04  0.15000000000E+04  0.10566000000E+00 0.  1.
        994   -1    0    0    0    0 -0.00000000000E+00 -0.00000000000E+00  0.11368683772E-12  0.17120000000E+03  0.17120000000E+03 0.  0.
         13    1    1    2    0    0 -0.15556036723E+02 -0.67453551849E+01  0.67474324801E+02  0.69572162296E+02  0.10566000000E+00 0.  1.
        994    1    1    2    0    0  0.32765686165E+02 -0.32328627155E+01  0.54953720903E+01  0.17442385360E+03  0.17120000000E+03 0.  0.
        998    1    1    2    0    0 -0.17209649443E+02  0.99782179004E+01  0.14270302994E+04  0.14272039841E+04  0.10000000000E+02 0.  1.
</event>
<event>
 5    1  0.1321379E-008  0.3829224E+03  0.7957747E-01  0.3438532E+00
         13   -1    0    0    0    0  0.00000000000E+00  0.00000000000E+00  0.14999999963E+04  0.15000000000E+04  0.10566000000E+00 0. -1.
        994   -1    0    0    0    0 -0.00000000000E+00 -0.00000000000E+00  0.11368683772E-12  0.17120000000E+03  0.17120000000E+03 0.  0.
         13    1    1    2    0    0  0.14517240287E+02 -0.17141281363E+02  0.92200007020E+02  0.94896924348E+02  0.10566000000E+00 0. -1.
        994    1    1    2    0    0 -0.24871960049E+01  0.20404664480E+02  0.40654188459E+01  0.17247754667E+03  0.17120000000E+03 0.  0.
        998    1    1    2    0    0 -0.12030044282E+02 -0.32633831164E+01  0.14037345704E+04  0.14038255290E+04  0.10000000000E+02 0. -1.
</event>
<event>
 5    1  0.1321379E-008  0.2833159E+03  0.7957747E-01  0.4022833E+00
         13   -1    0    0    0    0  0.00000000000E+00  0.00000000000E+00  0.14999999963E+04  0.15000000000E+04  0.10566000000E+00 0. -1.
        994   -1    0    0    0    0 -0.00000000000E+00 -0.00000000000E+00  0.11368683772E-12  0.17120000000E+03  0.17120000000E+03 0.  0.
         13    1    1    2    0    0 -0.78900931690E+02 -0.16192537991E+03  0.59740161014E+03  0.62396624960E+03  0.10566000000E+00 0. -1.
        994    1    1    2    0    0  0.68502950699E+02  0.11079861154E+03  0.90476314289E+02  0.23337606994E+03  0.17120000000E+03 0.  0.
        998    1    1    2    0    0  0.10397980990E+02  0.51126768365E+02  0.81212207185E+03  0.81385768046E+03  0.10000000000E+02 0. -1.
</event>
<event>
 5    1  0.1321379E-008  0.3849580E+03  0.7957747E-01  0.3429850E+00
         13   -1    0    0    0    0  0.00000000000E+00  0.00000000000E+00  0.14999999963E+04  0.15000000000E+04  0.10566000000E+00 0.  1.
        994   -1    0    0    0    0 -0.00000000000E+00 -0.00000000000E+00  0.11368683772E-12  0.17120000000E+03  0.17120000000E+03 0.  0.
         13    1    1    2    0    0 -0.12567130251E+02  0.20612901467E+01  0.48744905078E+02  0.50381133522E+02  0.10566000000E+00 0.  1.
        994    1    1    2    0    0  0.91588775683E+01 -0.35062845870E+01  0.19674042384E+01  0.17149195243E+03  0.17120000000E+03 0.  0.
        998    1    1    2    0    0  0.34082526831E+01  0.14449944403E+01  0.14492876870E+04  0.14493269140E+04  0.10000000000E+02 0.  1.
</event>
<event>
 5    1  0.1321379E-008  0.3811918E+03  0.7957747E-01  0.3445985E+00
         13   -1    0    0    0    0  0.00000000000E+00  0.00000000000E+00  0.14999999963E+04  0.15000000000E+04  0.10566000000E+00 0. -1.
        994   -1    0    0    0    0 -0.00000000000E+00 -0.00000000000E+00  0.11368683772E-12  0.17120000000E+03  0.17120000000E+03 0.  0.
         13    1    1    2    0    0  0.17668887373E+02  0.61268146571E+01  0.45480743322E+02  0.49175569300E+02  0.10566000000E+00 0. -1.
        994    1    1    2    0    0 -0.32817472376E+02  0.10064939297E+02  0.74661516546E+01  0.17476691025E+03  0.17120000000E+03 0.  0.
        998    1    1    2    0    0  0.15148585003E+02 -0.16191753954E+02  0.14470531013E+04  0.14472575205E+04  0.10000000000E+02 0. -1.
</event>
<event>
 5    1  0.1321379E-008  0.3829441E+03  0.7957747E-01  0.3438439E+00
         13   -1    0    0    0    0  0.00000000000E+00  0.00000000000E+00  0.14999999963E+04  0.15000000000E+04  0.10566000000E+00 0. -1.
        994   -1    0    0    0    0 -0.00000000000E+00 -0.00000000000E+00  0.11368683772E-12  0.17120000000E+03  0.17120000000E+03 0.  0.
         13    1    1    2    0    0 -0.22245428882E+02 -0.25233760599E+02  0.18358731620E+03  0.18664382019E+03  0.10566000000E+00 0. -1.
        994    1    1    2    0    0  0.27463630924E+02  0.25129221584E+02  0.72556392210E+01  0.17535054349E+03  0.17120000000E+03 0.  0.
        998    1    1    2    0    0 -0.52182020421E+01  0.10453901494E+00  0.13091570409E+04  0.13092056363E+04  0.10000000000E+02 0.  1.
</event>
<event>
 5    1  0.1321379E-008  0.3853161E+03  0.7957747E-01  0.3428333E+00
         13   -1    0    0    0    0  0.00000000000E+00  0.00000000000E+00  0.14999999963E+04  0.15000000000E+04  0.10566000000E+00 0. -1.
        994   -1    0    0    0    0 -0.00000000000E+00 -0.00000000000E+00  0.11368683772E-12  0.17120000000E+03  0.17120000000E+03 0.  0.
         13    1    1    2    0    0 -0.14800708508E+02 -0.22497296399E+01  0.73160204568E+02  0.74676294447E+02  0.10566000000E+00 0. -1.
        994    1    1    2    0    0  0.16225352365E+02 -0.11990726942E+01  0.23433726251E+01  0.17198729962E+03  0.17120000000E+03 0.  0.
        998    1    1    2    0    0 -0.14246438579E+01  0.34488023341E+01  0.14244964191E+04  0.14245364059E+04  0.10000000000E+02 0. -1.
</event>
<event>
 5    1  0.1321379E-008  0.3776533E+03  0.7957747E-01  0.3461441E+00
         13   -1    0    0    0    0  0.00000000000E+00  0.00000000000E+00  0.14999999963E+04  0.15000000000E+04  0.10566000000E+00 0.  1.
        994   -1    0    0    0    0 -0.00000000000E+00 -0.00000000000E+00  0.11368683772E-12  0.17120000000E+03  0.17120000000E+03 0.  0.
         13    1    1    2    0    0  0.16942894303E+01  0.24160670382E+02  0.52100626601E+02  0.57455157003E+02  0.10566000000E+00 0.  1.
        994    1    1    2    0    0  0.79675913534E+00 -0.21149923173E+02  0.68331189958E+01  0.17263859821E+03  0.17120000000E+03 0.  0.
        998    1    1    2    0    0 -0.24910485656E+01 -0.30107472087E+01  0.14410662507E+04  0.14411062448E+04  0.10000000000E+02 0.  1.
</event>
<event>
 5    1  0.1321379E-008  0.3719246E+03  0.7957747E-01  0.3487092E+00
         13   -1    0    0    0    0  0.00000000000E+00  0.00000000000E+00  0.14999999963E+04  0.15000000000E+04  0.10566000000E+00 0.  1.
        994   -1    0    0    0    0 -0.00000000000E+00 -0.00000000000E+00  0.11368683772E-12  0.17120000000E+03  0.17120000000E+03 0.  0.
         13    1    1    2    0    0 -0.25272130552E+02  0.64953746683E+01  0.37228701590E+02  0.45462708463E+02  0.10566000000E+00 0.  1.
        994    1    1    2    0    0  0.29805641997E+02  0.21006881947E+02  0.12847527737E+02  0.17551115165E+03  0.17120000000E+03 0.  0.
        998    1    1    2    0    0 -0.45335114453E+01 -0.27502256615E+02  0.14499237670E+04  0.14502261399E+04  0.10000000000E+02 0.  1.
</event>
<event>
 5    1  0.1321379E-008  0.3819975E+03  0.7957747E-01  0.3442507E+00
         13   -1    0    0    0    0  0.00000000000E+00  0.00000000000E+00  0.14999999963E+04  0.15000000000E+04  0.10566000000E+00 0. -1.
        994   -1    0    0    0    0 -0.00000000000E+00 -0.00000000000E+00  0.11368683772E-12  0.17120000000E+03  0.17120000000E+03 0.  0.
         13    1    1    2    0    0 -0.10933311489E+02 -0.72945120226E+01  0.26231835394E+02  0.29340544609E+02  0.10566000000E+00 0. -1.
        994    1    1    2    0    0  0.12536057073E+02  0.17326040086E+01  0.36602317078E+01  0.17170612086E+03  0.17120000000E+03 0.  0.
        998    1    1    2    0    0 -0.16027455843E+01  0.55619080140E+01  0.14701079292E+04  0.14701533345E+04  0.10000000000E+02 0. -1.
</event>
<event>
 5    1  0.1321379E-008  0.3055313E+03  0.7957747E-01  0.3857305E+00
         13   -1    0    0    0    0  0.00000000000E+00  0.00000000000E+00  0.14999999963E+04  0.15000000000E+04  0.10566000000E+00 0. -1.
        994   -1    0    0    0    0 -0.00000000000E+00 -0.00000000000E+00  0.11368683772E-12  0.17120000000E+03  0.17120000000E+03 0.  0.
         13    1    1    2    0    0 -0.14924333377E+03 -0.87836650577E+02  0.73294864377E+03  0.75312852517E+03  0.10566000000E+00 0. -1.
        994    1    1    2    0    0  0.11220365630E+03  0.11256002483E+03  0.10785451742E+03  0.25729643721E+03  0.17120000000E+03 0.  0.
        998    1    1    2    0    0  0.37039677479E+02 -0.24723374249E+02  0.65919683509E+03  0.66077503762E+03  0.10000000000E+02 0. -1.
</event>
<event>
 5    1  0.1321379E-008  0.3857992E+03  0.7957747E-01  0.3426290E+00
         13   -1    0    0    0    0  0.00000000000E+00  0.00000000000E+00  0.14999999963E+04  0.15000000000E+04  0.10566000000E+00 0. -1.
        994   -1    0    0    0    0 -0.00000000000E+00 -0.00000000000E+00  0.11368683772E-12  0.17120000000E+03  0.17120000000E+03 0.  0.
         13    1    1    2    0    0  0.12714225703E+02  0.28908770173E+01  0.72218564330E+02  0.73386244644E+02  0.10566000000E+00 0. -1.
        994    1    1    2    0    0 -0.46615355252E+01  0.40058777066E+01  0.13578057653E+01  0.17131567531E+03  0.17120000000E+03 0.  0.
        998    1    1    2    0    0 -0.80526901777E+01 -0.68967547238E+01  0.14264236262E+04  0.14264980800E+04  0.10000000000E+02 0. -1.
</event>
<event>
 5    1  0.1321379E-008  0.3688547E+03  0.7957747E-01  0.3501171E+00
         13   -1    0    0    0    0  0.00000000000E+00  0.00000000000E+00  0.14999999963E+04  0.15000000000E+04  0.10566000000E+00 0.  1.
        994   -1    0    0    0    0 -0.00000000000E+00 -0.00000000000E+00  0.11368683772E-12  0.17120000000E+03  0.17120000000E+03 0.  0.
         13    1    1    2    0    0 -0.57456030538E+02  0.13306157837E+03  0.58467725416E+03  0.60237370609E+03  0.10566000000E+00 0.  1.
        994    1    1    2    0    0  0.62532476992E+02 -0.13369846375E+03  0.89798798661E+02  0.24322593227E+03  0.17120000000E+03 0.  0.
        998    1    1    2    0    0 -0.50764464546E+01  0.63688538016E+00  0.82552394345E+03  0.82560036164E+03  0.10000000000E+02 0.  0.
</event>
<event>
 5    1  0.1321379E-008  0.3725134E+03  0.7957747E-01  0.3484419E+00
         13   -1    0    0    0    0  0.00000000000E+00  0.00000000000E+00  0.14999999963E+04  0.15000000000E+04  0.10566000000E+00 0.  1.
        994   -1    0    0    0    0 -0.00000000000E+00 -0.00000000000E+00  0.11368683772E-12  0.17120000000E+03  0.17120000000E+03 0.  0.
         13    1    1    2    0    0 -0.14524326977E+03  0.56776017072E+02  0.60033228232E+03  0.62025638561E+03  0.10566000000E+00 0.  1.
        994    1    1    2    0    0  0.18375329866E+03 -0.35578906144E+02  0.13958409920E+03  0.28952425474E+03  0.17120000000E+03 0.  0.
        998    1    1    2    0    0 -0.38510028892E+02 -0.21197110928E+02  0.76008361475E+03  0.76141935965E+03  0.10000000000E+02 0.  1.
</event>
<event>
 5    1  0.1321379E-008  0.3845410E+03  0.7957747E-01  0.3431621E+00
         13   -1    0    0    0    0  0.00000000000E+00  0.00000000000E+00  0.14999999963E+04  0.15000000000E+04  0.10566000000E+00 0. -1.
        994   -1    0    0    0    0 -0.00000000000E+00 -0.00000000000E+00  0.11368683772E-12  0.17120000000E+03  0.17120000000E+03 0.  0.
         13    1    1    2    0    0  0.64501837023E+01  0.19196538670E+02  0.99960282314E+02  0.10199108378E+03  0.10566000000E+00 0. -1.
        994    1    1    2    0    0 -0.10284604008E+02 -0.24129095480E+02  0.41274205893E+01  0.17324682372E+03  0.17120000000E+03 0.  0.
        998    1    1    2    0    0  0.38344203061E+01  0.49325568100E+01  0.13959122934E+04  0.13959620925E+04  0.10000000000E+02 0. -1.
</event>
<event>
 5    1  0.1321379E-008  0.3791552E+03  0.7957747E-01  0.3454845E+00
         13   -1    0    0    0    0  0.00000000000E+00  0.00000000000E+00  0.14999999963E+04  0.15000000000E+04  0.10566000000E+00 0.  1.
        994   -1    0    0    0    0 -0.00000000000E+00 -0.00000000000E+00  0.11368683772E-12  0.17120000000E+03  0.17120000000E+03 0.  0.
         13    1    1    2    0    0 -0.18213646481E+03  0.26369681247E+01  0.81922904347E+03  0.83923589189E+03  0.10566000000E+00 0.  1.
        994    1    1    2    0    0  0.21702458069E+03 -0.54902814628E+02  0.19657764882E+03  0.34360762462E+03  0.17120000000E+03 0.  0.
        998    1    1    2    0    0 -0.34888115885E+02  0.52265846503E+02  0.48419330399E+03  0.48835648349E+03  0.10000000000E+02 0.  1.
</event>
<event>
 5    1  0.1321379E-008  0.3843753E+03  0.7957747E-01  0.3432326E+00
         13   -1    0    0    0    0  0.00000000000E+00  0.00000000000E+00  0.14999999963E+04  0.15000000000E+04  0.10566000000E+00 0. -1.
        994   -1    0    0    0    0 -0.00000000000E+00 -0.00000000000E+00  0.11368683772E-12  0.17120000000E+03  0.17120000000E+03 0.  0.
         13    1    1    2    0    0 -0.10397292353E+02  0.68318092323E+01  0.40493184540E+02  0.42361379391E+02  0.10566000000E+00 0. -1.
        994    1    1    2    0    0  0.57464017647E+00 -0.46946932757E+01  0.20143281180E+01  0.17127716682E+03  0.17120000000E+03 0.  0.
        998    1    1    2    0    0  0.98226521762E+01 -0.21371159566E+01  0.14574924836E+04  0.14575614538E+04  0.10000000000E+02 0. -1.
</event>
<event>
 5    1  0.1321379E-008  0.3802362E+03  0.7957747E-01  0.3450131E+00
         13   -1    0    0    0    0  0.00000000000E+00  0.00000000000E+00  0.14999999963E+04  0.15000000000E+04  0.10566000000E+00 0. -1.
        994   -1    0    0    0    0 -0.00000000000E+00 -0.00000000000E+00  0.11368683772E-12  0.17120000000E+03  0.17120000000E+03 0.  0.
         13    1    1    2    0    0 -0.55987583757E+01  0.19610461323E+02  0.49051771688E+02  0.53122535316E+02  0.10566000000E+00 0. -1.
        994    1    1    2    0    0  0.67775992914E+00 -0.20722658313E+02  0.54512334470E+01  0.17253707970E+03  0.17120000000E+03 0.  0.
        998    1    1    2    0    0  0.49209984465E+01  0.11121969900E+01  0.14454969911E+04  0.14455403850E+04  0.10000000000E+02 0. -1.
</event>
<event>
 5    1  0.1321379E-008  0.3806449E+03  0.7957747E-01  0.3448355E+00
         13   -1    0    0    0    0  0.00000000000E+00  0.00000000000E+00  0.14999999963E+04  0.15000000000E+04  0.10566000000E+00 0.  1.
        994   -1    0    0    0    0 -0.00000000000E+00 -0.00000000000E+00  0.11368683772E-12  0.17120000000E+03  0.17120000000E+03 0.  0.
         13    1    1    2    0    0 -0.89668257275E+01  0.73533104736E+01  0.15589866381E+02  0.19430137322E+02  0.10566000000E+00 0.  1.
        994    1    1    2    0    0  0.12181273141E+02 -0.15787204540E+02  0.51354495885E+01  0.17243384843E+03  0.17120000000E+03 0.  0.
        998    1    1    2    0    0 -0.32144474133E+01  0.84338940661E+01  0.14792746803E+04  0.14793360142E+04  0.10000000000E+02 0.  1.
</event>
<event>
 5    1  0.1321379E-008  0.3858669E+03  0.7957747E-01  0.3426004E+00
         13   -1    0    0    0    0  0.00000000000E+00  0.00000000000E+00  0.14999999963E+04  0.15000000000E+04  0.10566000000E+00 0.  1.
        994   -1    0    0    0    0 -0.00000000000E+00 -0.00000000000E+00  0.11368683772E-12  0.17120000000E+03  0.17120000000E+03 0.  0.
         13    1    1    2    0    0  0.62693633759E+01  0.93821942288E+01  0.50085546954E+02  0.51341052418E+02  0.10566000000E+00 0.  1.
        994    1    1    2    0    0 -0.45210454385E+01 -0.18781340984E+02  0.24251257729E+01  0.17230351086E+03  0.17120000000E+03 0.  0.
        998    1    1    2    0    0 -0.17483179374E+01  0.93991467555E+01  0.14474893236E+04  0.14475554367E+04  0.10000000000E+02 0.  1.
</event>
<event>
 5    1  0.1321379E-008  0.3795667E+03  0.7957747E-01  0.3453047E+00
         13   -1    0    0    0    0  0.00000000000E+00  0.00000000000E+00  0.14999999963E+04  0.15000000000E+04  0.10566000000E+00 0. -1.
        994   -1    0    0    0    0 -0.00000000000E+00 -0.00000000000E+00  0.11368683772E-12  0.17120000000E+03  0.17120000000E+03 0.  0.
         13    1    1    2    0    0 -0.67962234598E+01  0.22827427772E+03  0.11066579610E+04  0.11299766317E+04  0.10566000000E+00 0. -1.
        994    1    1    2    0    0 -0.24406912851E+01 -0.22342389331E+03  0.19517518567E+03  0.34253027046E+03  0.17120000000E+03 0.  0.
        998    1    1    2    0    0  0.92369147449E+01 -0.48503844052E+01  0.19816684965E+03  0.19869309782E+03  0.10000000000E+02 0.  0.
</event>
<event>
 5    1  0.1321379E-008  0.3828886E+03  0.7957747E-01  0.3438676E+00
         13   -1    0    0    0    0  0.00000000000E+00  0.00000000000E+00  0.14999999963E+04  0.15000000000E+04  0.10566000000E+00 0.  1.
        994   -1    0    0    0    0 -0.00000000000E+00 -0.00000000000E+00  0.11368683772E-12  0.17120000000E+03  0.17120000000E+03 0.  0.
         13    1    1    2    0    0 -0.11233550549E+02  0.23317403524E+02  0.14125598484E+03  0.14360765433E+03  0.10566000000E+00 0.  1.
        994    1    1    2    0    0 -0.42422807084E+01 -0.59072901659E+00  0.27427990093E+01  0.17127553489E+03  0.17120000000E+03 0.  0.
        998    1    1    2    0    0  0.15475831258E+02 -0.22726674507E+02  0.13560012124E+04  0.13563168108E+04  0.10000000000E+02 0.  1.
</event>
<event>
 5    1  0.1321379E-008  0.3832343E+03  0.7957747E-01  0.3437196E+00
         13   -1    0    0    0    0  0.00000000000E+00  0.00000000000E+00  0.14999999963E+04  0.15000000000E+04  0.10566000000E+00 0.  1.
        994   -1    0    0    0    0 -0.00000000000E+00 -0.00000000000E+00  0.11368683772E-12  0.17120000000E+03  0.17120000000E+03 0.  0.
         13    1    1    2    0    0  0.93491336692E+01  0.60720732625E+01  0.24224312764E+02  0.26666549589E+02  0.10566000000E+00 0.  1.
        994    1    1    2    0    0 -0.41271025419E+01 -0.29593783498E+00  0.25659673999E+01  0.17126921715E+03  0.17120000000E+03 0.  0.
        998    1    1    2    0    0 -0.52220311273E+01 -0.57761354275E+01  0.14732097161E+04  0.14732642333E+04  0.10000000000E+02 0.  1.
</event>
<event>
 5    1  0.1321379E-008  0.3819788E+03  0.7957747E-01  0.3442587E+00
         13   -1    0    0    0    0  0.00000000000E+00  0.00000000000E+00  0.14999999963E+04  0.15000000000E+04  0.10566000000E+00 0.  1.
        994   -1    0    0    0    0 -0.00000000000E+00 -0.00000000000E+00  0.11368683772E-12  0.17120000000E+03  0.17120000000E+03 0.  0.
         13    1    1    2    0    0 -0.47446739891E+01 -0.93972031213E+01  0.16263632278E+02  0.19373596896E+02  0.10566000000E+00 0.  1.
        994    1    1    2    0    0  0.83534564563E+00  0.10923869625E+02  0.35363273056E+01  0.17158663800E+03  0.17120000000E+03 0.  0.
        998    1    1    2    0    0  0.39093283435E+01 -0.15266665040E+01  0.14802000367E+04  0.14802397651E+04  0.10000000000E+02 0.  1.
</event>
<event>
 5    1  0.1321379E-008  0.3804208E+03  0.7957747E-01  0.3449328E+00
         13   -1    0    0    0    0  0.00000000000E+00  0.00000000000E+00  0.14999999963E+04  0.15000000000E+04  0.10566000000E+00 0. -1.
        994   -1    0    0    0    0 -0.00000000000E+00 -0.00000000000E+00  0.11368683772E-12  0.17120000000E+03  0.17120000000E+03 0.  0.
         13    1    1    2    0    0  0.22531310074E+02 -0.22643045872E+02  0.12772555285E+03  0.13165939190E+03  0.10566000000E+00 0. -1.
        994    1    1    2    0    0 -0.57267983979E+01  0.23352170852E+02  0.58531835544E+01  0.17297924691E+03  0.17120000000E+03 0.  0.
        998    1    1    2    0    0 -0.16804511676E+02 -0.70912498031E+00  0.13664212599E+04  0.13665613612E+04  0.10000000000E+02 0. -1.
</event>
<event>
 5    1  0.1321379E-008  0.4577262E+03  0.7957747E-01  0.3169786E+00
         13   -1    0    0    0    0  0.00000000000E+00  0.00000000000E+00  0.14999999963E+04  0.15000000000E+04  0.10566000000E+00 0. -1.
        994   -1    0    0    0    0 -0.00000000000E+00 -0.00000000000E+00  0.11368683772E-12  0.17120000000E+03  0.17120000000E+03 0.  0.
         13    1    1    2    0    0 -0.24846630304E+02  0.69395867890E+02  0.24377823562E+02  0.77636531113E+02  0.10566000000E+00 0. -1.
        994    1    1    2    0    0 -0.10545213158E+03  0.27478817209E+00  0.12915901999E+03  0.23898058500E+03  0.17120000000E+03 0.  0.
        998    1    1    2    0    0  0.13029876188E+03 -0.69670656062E+02  0.13464631527E+04  0.13545828839E+04  0.10000000000E+02 0. -1.
</event>
<event>
 5    1  0.1321379E-008  0.3832252E+03  0.7957747E-01  0.3437234E+00
         13   -1    0    0    0    0  0.00000000000E+00  0.00000000000E+00  0.14999999963E+04  0.15000000000E+04  0.10566000000E+00 0.  1.
        994   -1    0    0    0    0 -0.00000000000E+00 -0.00000000000E+00  0.11368683772E-12  0.17120000000E+03  0.17120000000E+03 0.  0.
         13    1    1    2    0    0  0.13455735111E+02 -0.45227618216E+01  0.38059559291E+02  0.40620849318E+02  0.10566000000E+00 0.  1.
        994    1    1    2    0    0 -0.18126588372E+02  0.10474983417E+01  0.36050636261E+01  0.17219787148E+03  0.17120000000E+03 0.  0.
        998    1    1    2    0    0  0.46708532611E+01  0.34752634799E+01  0.14583353734E+04  0.14583812792E+04  0.10000000000E+02 0.  1.
</event>
<event>
 5    1  0.1321379E-008  0.3834324E+03  0.7957747E-01  0.3436348E+00
         13   -1    0    0    0    0  0.00000000000E+00  0.00000000000E+00  0.14999999963E+04  0.15000000000E+04  0.10566000000E+00 0.  1.
        994   -1    0    0    0    0 -0.00000000000E+00 -0.00000000000E+00  0.11368683772E-12  0.17120000000E+03  0.17120000000E+03 0.  0.
         13    1    1    2    0    0 -0.10419902345E+02 -0.15969981247E+01  0.22018061705E+02  0.24411697466E+02  0.10566000000E+00 0.  1.
        994    1    1    2    0    0  0.86616703643E+01  0.98048095192E+01  0.29763609527E+01  0.17172494737E+03  0.17120000000E+03 0.  0.
        998    1    1    2    0    0  0.17582319808E+01 -0.82078113944E+01  0.14750055736E+04  0.14750633552E+04  0.10000000000E+02 0.  1.
</event>
<event>
 5    1  0.1321379E-008  0.3822772E+03  0.7957747E-01  0.3441303E+00
         13   -1    0    0    0    0  0.00000000000E+00  0.00000000000E+00  0.14999999963E+04  0.15000000000E+04  0.10566000000E+00 0. -1.
        994   -1    0    0    0    0 -0.00000000000E+00 -0.00000000000E+00  0.11368683772E-12  0.17120000000E+03  0.17120000000E+03 0.  0.
         13    1    1    2    0    0 -0.36481232634E+00  0.31618377965E+02  0.18457566515E+03  0.18726463158E+03  0.10566000000E+00 0. -1.
        994    1    1    2    0    0 -0.57826549241E-03 -0.61254491528E+01  0.31125165479E+01  0.17133782095E+03  0.17120000000E+03 0.  0.
        998    1    1    2    0    0  0.36539059184E+00 -0.25492928812E+02  0.13123118146E+04  0.13125975475E+04  0.10000000000E+02 0. -1.
</event>
<event>
 5    1  0.1321379E-008  0.3748456E+03  0.7957747E-01  0.3473914E+00
         13   -1    0    0    0    0  0.00000000000E+00  0.00000000000E+00  0.14999999963E+04  0.15000000000E+04  0.10566000000E+00 0.  1.
        994   -1    0    0    0    0 -0.00000000000E+00 -0.00000000000E+00  0.11368683772E-12  0.17120000000E+03  0.17120000000E+03 0.  0.
         13    1    1    2    0    0  0.57454670553E+02  0.73321341738E+02  0.26726158091E+03  0.28302971949E+03  0.10566000000E+00 0.  1.
        994    1    1    2    0    0 -0.57716401922E+02 -0.65759520184E+02  0.41277989051E+02  0.19664386572E+03  0.17120000000E+03 0.  0.
        998    1    1    2    0    0  0.26173136980E+00 -0.75618215541E+01  0.11914604263E+04  0.11915264148E+04  0.10000000000E+02 0.  0.
</event>
<event>
 5    1  0.1321379E-008  0.3838252E+03  0.7957747E-01  0.3434670E+00
         13   -1    0    0    0    0  0.00000000000E+00  0.00000000000E+00  0.14999999963E+04  0.15000000000E+04  0.10566000000E+00 0. -1.
        994   -1    0    0    0    0 -0.00000000000E+00 -0.00000000000E+00  0.11368683772E-12  0.17120000000E+03  0.17120000000E+03 0.  0.
         13    1    1    2    0    0 -0.18135659968E+02  0.10870178735E+02  0.75381564925E+02  0.78290832432E+02  0.10566000000E+00 0. -1.
        994    1    1    2    0    0  0.60170083980E+02 -0.24115235925E+02  0.16211836637E+02  0.18377771153E+03  0.17120000000E+03 0.  0.
        998    1    1    2    0    0 -0.42034424012E+02  0.13245057189E+02  0.14084065947E+04  0.14091314560E+04  0.10000000000E+02 0. -1.
</event>
<event>
 5    1  0.1321379E-008  0.3778329E+03  0.7957747E-01  0.3460649E+00
         13   -1    0    0    0    0  0.00000000000E+00  0.00000000000E+00  0.14999999963E+04  0.15000000000E+04  0.10566000000E+00 0. -1.
        994   -1    0    0    0    0 -0.00000000000E+00 -0.00000000000E+00  0.11368683772E-12  0.17120000000E+03  0.17120000000E+03 0.  0.
         13    1    1    2    0    0  0.93946058442E+02 -0.67679647092E+02  0.68781343961E+03  0.69749102890E+03  0.10566000000E+00 0. -1.
        994    1    1    2    0    0 -0.87927908211E+02  0.72828084823E+02  0.50458837917E+02  0.21187444703E+03  0.17120000000E+03 0.  0.
        998    1    1    2    0    0 -0.60181502309E+01 -0.51484377306E+01  0.76172771875E+03  0.76183452407E+03  0.10000000000E+02 0.  0.
</event>
<event>
 5    1  0.1321379E-008  0.3802581E+03  0.7957747E-01  0.3450035E+00
         13   -1    0    0    0    0  0.00000000000E+00  0.00000000000E+00  0.14999999963E+04  0.15000000000E+04  0.10566000000E+00 0.  1.
        994   -1    0    0    0    0 -0.00000000000E+00 -0.00000000000E+00  0.11368683772E-12  0.17120000000E+03  0.17120000000E+03 0.  0.
         13    1    1    2    0    0  0.31070472428E+02  0.72144032843E+01  0.12908046950E+03  0.13296315521E+03  0.10566000000E+00 0.  1.
        994    1    1    2    0    0 -0.12292052907E+02 -0.11911296108E+02  0.49820665392E+01  0.17212563588E+03  0.17120000000E+03 0.  0.
        998    1    1    2    0    0 -0.18778419521E+02  0.46968928237E+01  0.13659374602E+04  0.13661112089E+04  0.10000000000E+02 0.  1.
</event>
<event>
 5    1  0.1321379E-008  0.3764035E+03  0.7957747E-01  0.3466970E+00
         13   -1    0    0    0    0  0.00000000000E+00  0.00000000000E+00  0.14999999963E+04  0.15000000000E+04  0.10566000000E+00 0. -1.
        994   -1    0    0    0    0 -0.00000000000E+00 -0.00000000000E+00  0.11368683772E-12  0.17120000000E+03  0.17120000000E+03 0.  0.
         13    1    1    2    0    0  0.54308481190E+02  0.93845366352E+01  0.24965596131E+03  0.25566695297E+03  0.10566000000E+00 0. -1.
        994    1    1    2    0    0 -0.28950568254E+02 -0.35503513267E+02  0.13093043896E+02  0.17770622571E+03  0.17120000000E+03 0.  0.
        998    1    1    2    0    0 -0.25357912936E+02  0.26118976632E+02  0.12372509911E+04  0.12378268213E+04  0.10000000000E+02 0. -1.
</event>
<event>
 5    1  0.1321379E-008  0.3835311E+03  0.7957747E-01  0.3435926E+00
         13   -1    0    0    0    0  0.00000000000E+00  0.00000000000E+00  0.14999999963E+04  0.15000000000E+04  0.10566000000E+00 0. -1.
        994   -1    0    0    0    0 -0.00000000000E+00 -0.00000000000E+00  0.11368683772E-12  0.17120000000E+03  0.17120000000E+03 0.  0.
         13    1    1    2    0    0  0.66837100506E+01  0.13520357543E+02  0.45334904418E+02  0.47777994628E+02  0.10566000000E+00 0. -1.
        994    1    1    2    0    0 -0.11581514102E+02 -0.17190332636E+02  0.37821474286E+01  0.17249169152E+03  0.17120000000E+03 0.  0.
        998    1    1    2    0    0  0.48978040517E+01  0.36699750932E+01  0.14508829444E+04  0.14509303138E+04  0.10000000000E+02 0. -1.
</event>
<event>
 5    1  0.1321379E-008  0.3860543E+03  0.7957747E-01  0.3425213E+00
         13   -1    0    0    0    0  0.00000000000E+00  0.00000000000E+00  0.14999999963E+04  0.15000000000E+04  0.10566000000E+00 0. -1.
        994   -1    0    0    0    0 -0.00000000000E+00 -0.00000000000E+00  0.11368683772E-12  0.17120000000E+03  0.17120000000E+03 0.  0.
         13    1    1    2    0    0  0.75848416422E+01  0.93385576174E+01  0.68307981525E+02  0.69359426073E+02  0.10566000000E+00 0. -1.
        994    1    1    2    0    0 -0.47883317103E+01 -0.12131228983E+01  0.11875658000E+01  0.17127536338E+03  0.17120000000E+03 0.  0.
        998    1    1    2    0    0 -0.27965099319E+01 -0.81254347191E+01  0.14305044490E+04  0.14305652105E+04  0.10000000000E+02 0. -1.
</event>
<event>
 5    1  0.1321379E-008  0.3716294E+03  0.7957747E-01  0.3488436E+00
         13   -1    0    0    0    0  0.00000000000E+00  0.00000000000E+00  0.14999999963E+04  0.15000000000E+04  0.10566000000E+00 0.  1.
        994   -1    0    0    0    0 -0.00000000000E+00 -0.00000000000E+00  0.11368683772E-12  0.17120000000E+03  0.17120000000E+03 0.  0.
         13    1    1    2    0    0  0.71534914632E+02  0.12651511114E+03  0.59269496049E+03  0.61025457369E+03  0.10566000000E+00 0.  1.
        994    1    1    2    0    0 -0.62187335076E+02 -0.11426630178E+03  0.73939582054E+02  0.22737755861E+03  0.17120000000E+03 0.  0.
        998    1    1    2    0    0 -0.93475795555E+01 -0.12248809358E+02  0.83336545374E+03  0.83356786770E+03  0.10000000000E+02 0.  1.
</event>
<event>
 5    1  0.1321379E-008  0.4232033E+03  0.7957747E-01  0.3282223E+00
         13   -1    0    0    0    0  0.00000000000E+00  0.00000000000E+00  0.14999999963E+04  0.15000000000E+04  0.10566000000E+00 0. -1.
        994   -1    0    0    0    0 -0.00000000000E+00 -0.00000000000E+00  0.11368683772E-12  0.17120000000E+03  0.17120000000E+03 0.  0.
         13    1    1    2    0    0 -0.14682308690E+02  0.21806160947E+02 -0.95877943497E+01  0.27982419628E+02  0.10566000000E+00 0. -1.
        994    1    1    2    0    0  0.16175844151E+02 -0.21912363082E+02  0.45674135957E+02  0.17926900537E+03  0.17120000000E+03 0.  0.
        998    1    1    2    0    0 -0.14935354614E+01  0.10620213501E+00  0.14639136547E+04  0.14639485750E+04  0.10000000000E+02 0. -1.
</event>
<event>
 5    1  0.1321379E-008  0.3768886E+03  0.7957747E-01  0.3464819E+00
         13   -1    0    0    0    0  0.00000000000E+00  0.00000000000E+00  0.14999999963E+04  0.15000000000E+04  0.10566000000E+00 0.  1.
        994   -1    0    0    0    0 -0.00000000000E+00 -0.00000000000E+00  0.11368683772E-12  0.17120000000E+03  0.17120000000E+03 0.  0.
         13    1    1    2    0    0  0.72942608648E+01  0.19193120601E+02  0.37064115340E+02  0.42371475428E+02  0.10566000000E+00 0.  1.
        994    1    1    2    0    0  0.11920893457E+02  0.54082784765E+01  0.62910629432E+01  0.17181494303E+03  0.17120000000E+03 0.  0.
        998    1    1    2    0    0 -0.19215154322E+02 -0.24601399078E+02  0.14566448180E+04  0.14570135815E+04  0.10000000000E+02 0.  1.
</event>
<event>
 5    1  0.1321379E-008  0.3787970E+03  0.7957747E-01  0.3456413E+00
         13   -1    0    0    0    0  0.00000000000E+00  0.00000000000E+00  0.14999999963E+04  0.15000000000E+04  0.10566000000E+00 0.  1.
        994   -1    0    0    0    0 -0.00000000000E+00 -0.00000000000E+00  0.11368683772E-12  0.17120000000E+03  0.17120000000E+03 0.  0.
         13    1    1    2    0    0  0.14022386813E+02 -0.35373151441E+02  0.13663183398E+03  0.14183143656E+03  0.10566000000E+00 0.  1.
        994    1    1    2    0    0 -0.18842150075E+02  0.35983035917E+02  0.10298814820E+02  0.17625354204E+03  0.17120000000E+03 0.  0.
        998    1    1    2    0    0  0.48197632615E+01 -0.60988447633E+00  0.13530693475E+04  0.13531150214E+04  0.10000000000E+02 0.  1.
</event>
<event>
 5    1  0.1321379E-008  0.3802111E+03  0.7957747E-01  0.3450240E+00
         13   -1    0    0    0    0  0.00000000000E+00  0.00000000000E+00  0.14999999963E+04  0.15000000000E+04  0.10566000000E+00 0.  1.
        994   -1    0    0    0    0 -0.00000000000E+00 -0.00000000000E+00  0.11368683772E-12  0.17120000000E+03  0.17120000000E+03 0.  0.
         13    1    1    2    0    0 -0.14869412175E+02 -0.68385853865E+00  0.26084915128E+02  0.30033332187E+02  0.10566000000E+00 0.  1.
        994    1    1    2    0    0  0.77931792744E+01 -0.99653994341E+00  0.42328766581E+01  0.17143244728E+03  0.17120000000E+03 0.  0.
        998    1    1    2    0    0  0.70762329005E+01  0.16803984821E+01  0.14696822045E+04  0.14697342205E+04  0.10000000000E+02 0.  1.
</event>
<event>
 5    1  0.1321379E-008  0.3849505E+03  0.7957747E-01  0.3429882E+00
         13   -1    0    0    0    0  0.00000000000E+00  0.00000000000E+00  0.14999999963E+04  0.15000000000E+04  0.10566000000E+00 0. -1.
        994   -1    0    0    0    0 -0.00000000000E+00 -0.00000000000E+00  0.11368683772E-12  0.17120000000E+03  0.17120000000E+03 0.  0.
         13    1    1    2    0    0 -0.20677687064E+01 -0.19266641024E+02  0.10713164039E+03  0.10887000808E+03  0.10566000000E+00 0. -1.
        994    1    1    2    0    0  0.12171709510E+01  0.19436493359E+02  0.29031502184E+01  0.17232854395E+03  0.17120000000E+03 0.  0.
        998    1    1    2    0    0  0.85059775542E+00 -0.16985233485E+00  0.13899652057E+04  0.13900014480E+04  0.10000000000E+02 0. -1.
</event>
<event>
 5    1  0.1321379E-008  0.3686394E+03  0.7957747E-01  0.3502167E+00
         13   -1    0    0    0    0  0.00000000000E+00  0.00000000000E+00  0.14999999963E+04  0.15000000000E+04  0.10566000000E+00 0.  1.
        994   -1    0    0    0    0 -0.00000000000E+00 -0.00000000000E+00  0.11368683772E-12  0.17120000000E+03  0.17120000000E+03 0.  0.
         13    1    1    2    0    0 -0.53821629205E+02  0.41121839988E+02  0.27052994599E+03  0.27888032619E+03  0.10566000000E+00 0.  1.
        994    1    1    2    0    0  0.15247770327E+02  0.23375321780E+01  0.10809049464E+02  0.17223308076E+03  0.17120000000E+03 0.  0.
        998    1    1    2    0    0  0.38573858878E+02 -0.43459372166E+02  0.12186610008E+04  0.12200865930E+04  0.10000000000E+02 0.  1.
</event>
<event>
 5    1  0.1321379E-008  0.3813506E+03  0.7957747E-01  0.3445299E+00
         13   -1    0    0    0    0  0.00000000000E+00  0.00000000000E+00  0.14999999963E+04  0.15000000000E+04  0.10566000000E+00 0.  1.
        994   -1    0    0    0    0 -0.00000000000E+00 -0.00000000000E+00  0.11368683772E-12  0.17120000000E+03  0.17120000000E+03 0.  0.
         13    1    1    2    0    0  0.13200101200E+02 -0.24904416851E+02  0.11002290467E+03  0.11357606863E+03  0.10566000000E+00 0.  1.
        994    1    1    2    0    0 -0.15584614919E+02  0.17821329756E+02  0.53204780417E+01  0.17291103927E+03  0.17120000000E+03 0.  0.
        998    1    1    2    0    0  0.23845137198E+01  0.70830870946E+01  0.13846566136E+04  0.13847128921E+04  0.10000000000E+02 0.  1.
</event>
<event>
 5    1  0.1321379E-008  0.3763707E+03  0.7957747E-01  0.3467115E+00
         13   -1    0    0    0    0  0.00000000000E+00  0.00000000000E+00  0.14999999963E+04  0.15000000000E+04  0.10566000000E+00 0.  1.
        994   -1    0    0    0    0 -0.00000000000E+00 -0.00000000000E+00  0.11368683772E-12  0.17120000000E+03  0.17120000000E+03 0.  0.
         13    1    1    2    0    0  0.34012718178E+02 -0.36303040059E+00  0.34261858565E+02  0.48279218151E+02  0.10566000000E+00 0.  1.
        994    1    1    2    0    0 -0.29179373480E+02 -0.13604183718E+01  0.17405131952E+02  0.17454416402E+03  0.17120000000E+03 0.  0.
        998    1    1    2    0    0 -0.48333446981E+01  0.17234487724E+01  0.14483330058E+04  0.14483766178E+04  0.10000000000E+02 0.  1.
</event>
<event>
 5    1  0.1321379E-008  0.3858423E+03  0.7957747E-01  0.3426108E+00
         13   -1    0    0    0    0  0.00000000000E+00  0.00000000000E+00  0.14999999963E+04  0.15000000000E+04  0.10566000000E+00 0. -1.
        994   -1    0    0    0    0 -0.00000000000E+00 -0.00000000000E+00  0.11368683772E-12  0.17120000000E+03  0.17120000000E+03 0.  0.
         13    1    1    2    0    0 -0.10346449051E+02  0.72780364211E+01  0.65176513327E+02  0.66392830001E+02  0.10566000000E+00 0. -1.
        994    1    1    2    0    0  0.15710110694E+01 -0.18043251785E+02  0.22891155515E+01  0.17217057548E+03  0.17120000000E+03 0.  0.
        998    1    1    2    0    0  0.87754379821E+01  0.10765215364E+02  0.14325343674E+04  0.14326365945E+04  0.10000000000E+02 0. -1.
</event>
<event>
 5    1  0.1321379E-008  0.3736754E+03  0.7957747E-01  0.3479168E+00
         13   -1    0    0    0    0  0.00000000000E+00  0.00000000000E+00  0.14999999963E+04  0.15000000000E+04  0.10566000000E+00 0. -1.
        994   -1    0    0    0    0 -0.00000000000E+00 -0.00000000000E+00  0.11368683772E-12  0.17120000000E+03  0.17120000000E+03 0.  0.
         13    1    1    2    0    0  0.26902185896E+02  0.18551541868E+02  0.39552291559E+02  0.51305772027E+02  0.10566000000E+00 0. -1.
        994    1    1    2    0    0  0.55195585400E+01  0.12025694408E+02  0.13515875931E+02  0.17224169575E+03  0.17120000000E+03 0.  0.
        998    1    1    2    0    0 -0.32421744436E+02 -0.30577236277E+02  0.14469318288E+04  0.14476525322E+04  0.10000000000E+02 0. -1.
</event>
<event>
 5    1  0.1321379E-008  0.3721732E+03  0.7957747E-01  0.3485962E+00
         13   -1    0    0    0    0  0.00000000000E+00  0.00000000000E+00  0.14999999963E+04  0.15000000000E+04  0.10566000000E+00 0.  1.
        994   -1    0    0    0    0 -0.00000000000E+00 -0.00000000000E+00  0.11368683772E-12  0.17120000000E+03  0.17120000000E+03 0.  0.
         13    1    1    2    0    0  0.29586180820E+02 -0.21547187486E+02  0.77740495086E+02  0.85925660453E+02  0.10566000000E+00 0.  1.
        994    1    1    2    0    0 -0.23407706346E+02  0.17157295343E+02  0.11033689941E+02  0.17399274644E+03  0.17120000000E+03 0.  0.
        998    1    1    2    0    0 -0.61784744744E+01  0.43898921429E+01  0.14112258113E+04  0.14112815931E+04  0.10000000000E+02 0.  1.
</event>
<event>
 5    1  0.1321379E-008  0.3759889E+03  0.7957747E-01  0.3468812E+00
         13   -1    0    0    0    0  0.00000000000E+00  0.00000000000E+00  0.14999999963E+04  0.15000000000E+04  0.10566000000E+00 0. -1.
        994   -1    0    0    0    0 -0.00000000000E+00 -0.00000000000E+00  0.11368683772E-12  0.17120000000E+03  0.17120000000E+03 0.  0.
         13    1    1    2    0    0  0.95313166121E+02 -0.61539770810E+02  0.58494921475E+03  0.59585009695E+03  0.10566000000E+00 0. -1.
        994    1    1    2    0    0 -0.10963456310E+03  0.47683670559E+02  0.56245902035E+02  0.21625566203E+03  0.17120000000E+03 0.  0.
        998    1    1    2    0    0  0.14321396977E+02  0.13856100250E+02  0.85880487949E+03  0.85909424103E+03  0.10000000000E+02 0. -1.
</event>
<event>
 5    1  0.1321379E-008  0.3849436E+03  0.7957747E-01  0.3429911E+00
         13   -1    0    0    0    0  0.00000000000E+00  0.00000000000E+00  0.14999999963E+04  0.15000000000E+04  0.10566000000E+00 0. -1.
        994   -1    0    0    0    0 -0.00000000000E+00 -0.00000000000E+00  0.11368683772E-12  0.17120000000E+03  0.17120000000E+03 0.  0.
         13    1    1    2    0    0 -0.89988515553E+01  0.12849903136E+02  0.74729571593E+02  0.76358492484E+02  0.10566000000E+00 0. -1.
        994    1    1    2    0    0  0.40455816468E+01 -0.84245867478E+01  0.19454739308E+01  0.17146593032E+03  0.17120000000E+03 0.  0.
        998    1    1    2    0    0  0.49532699085E+01 -0.44253163886E+01  0.14233249508E+04  0.14233755772E+04  0.10000000000E+02 0. -1.
</event>
<event>
 5    1  0.1321379E-008  0.3845723E+03  0.7957747E-01  0.3431488E+00
         13   -1    0    0    0    0  0.00000000000E+00  0.00000000000E+00  0.14999999963E+04  0.15000000000E+04  0.10566000000E+00 0. -1.
        994   -1    0    0    0    0 -0.00000000000E+00 -0.00000000000E+00  0.11368683772E-12  0.17120000000E+03  0.17120000000E+03 0.  0.
         13    1    1    2    0    0  0.10979927648E+02  0.15480686713E+02  0.97915534611E+02  0.99738024616E+02  0.10566000000E+00 0. -1.
        994    1    1    2    0    0 -0.96554202156E+01 -0.73536878571E+01  0.23278818325E+01  0.17164545697E+03  0.17120000000E+03 0.  0.
        998    1    1    2    0    0 -0.13245074328E+01 -0.81269988562E+01  0.13997565798E+04  0.13998165184E+04  0.10000000000E+02 0. -1.
</event>
<event>
 5    1  0.1321379E-008  0.3849407E+03  0.7957747E-01  0.3429924E+00
         13   -1    0    0    0    0  0.00000000000E+00  0.00000000000E+00  0.14999999963E+04  0.15000000000E+04  0.10566000000E+00 0. -1.
        994   -1    0    0    0    0 -0.00000000000E+00 -0.00000000000E+00  0.11368683772E-12  0.17120000000E+03  0.17120000000E+03 0.  0.
         13    1    1    2    0    0  0.74807449850E+01  0.15979402457E+02  0.84468533132E+02  0.86291639815E+02  0.10566000000E+00 0. -1.
        994    1    1    2    0    0 -0.30021150589E+02 -0.15654110878E+02  0.54392711355E+01  0.17460053362E+03  0.17120000000E+03 0.  0.
        998    1    1    2    0    0  0.22540405604E+02 -0.32529157854E+00  0.14100921920E+04  0.14103078266E+04  0.10000000000E+02 0. -1.
</event>
<event>
 5    1  0.1321379E-008  0.3801813E+03  0.7957747E-01  0.3450370E+00
         13   -1    0    0    0    0  0.00000000000E+00  0.00000000000E+00  0.14999999963E+04  0.15000000000E+04  0.10566000000E+00 0.  1.
        994   -1    0    0    0    0 -0.00000000000E+00 -0.00000000000E+00  0.11368683772E-12  0.17120000000E+03  0.17120000000E+03 0.  0.
         13    1    1    2    0    0 -0.49166828699E+01 -0.23205545295E+02  0.67203258555E+02  0.71266824170E+02  0.10566000000E+00 0.  1.
        994    1    1    2    0    0  0.29261454851E+01  0.18099892366E+02  0.51655719296E+01  0.17225647031E+03  0.17120000000E+03 0.  0.
        998    1    1    2    0    0  0.19905373847E+01  0.51056529288E+01  0.14276311658E+04  0.14276767055E+04  0.10000000000E+02 0.  1.
</event>
<event>
 5    1  0.1321379E-008  0.3789818E+03  0.7957747E-01  0.3455604E+00
         13   -1    0    0    0    0  0.00000000000E+00  0.00000000000E+00  0.14999999963E+04  0.15000000000E+04  0.10566000000E+00 0.  1.
        994   -1    0    0    0    0 -0.00000000000E+00 -0.00000000000E+00  0.11368683772E-12  0.17120000000E+03  0.17120000000E+03 0.  0.
         13    1    1    2    0    0 -0.38337267250E+02 -0.13679517053E+02  0.23839034005E+03  0.24184052729E+03  0.10566000000E+00 0.  1.
        994    1    1    2    0    0 -0.43911699384E+01 -0.24540620676E+02  0.67355401528E+01  0.17313674347E+03  0.17120000000E+03 0.  0.
        998    1    1    2    0    0  0.42728437189E+02  0.38220137729E+02  0.12548741161E+04  0.12562227292E+04  0.10000000000E+02 0.  1.
</event>
<event>
 5    1  0.1321379E-008  0.3834584E+03  0.7957747E-01  0.3436237E+00
         13   -1    0    0    0    0  0.00000000000E+00  0.00000000000E+00  0.14999999963E+04  0.15000000000E+04  0.10566000000E+00 0.  1.
        994   -1    0    0    0    0 -0.00000000000E+00 -0.00000000000E+00  0.11368683772E-12  0.17120000000E+03  0.17120000000E+03 0.  0.
         13    1    1    2    0    0 -0.43480531493E+01 -0.11688558278E+02  0.31316429373E+02  0.33708424370E+02  0.10566000000E+00 0.  1.
        994    1    1    2    0    0 -0.35657285759E+01  0.13735266410E+02  0.30633230780E+01  0.17181442289E+03  0.17120000000E+03 0.  0.
        998    1    1    2    0    0  0.79137817252E+01 -0.20467081320E+01  0.14656202438E+04  0.14656771527E+04  0.10000000000E+02 0.  1.
</event>
<event>
 5    1  0.1321379E-008  0.3736141E+03  0.7957747E-01  0.3479444E+00
         13   -1    0    0    0    0  0.00000000000E+00  0.00000000000E+00  0.14999999963E+04  0.15000000000E+04  0.10566000000E+00 0. -1.
        994   -1    0    0    0    0 -0.00000000000E+00 -0.00000000000E+00  0.11368683772E-12  0.17120000000E+03  0.17120000000E+03 0.  0.
         13    1    1    2    0    0  0.38311102107E+02  0.11168707131E+02  0.11514556679E+03  0.12186465147E+03  0.10566000000E+00 0. -1.
        994    1    1    2    0    0 -0.21249238194E+01 -0.51849358690E+01  0.74993922850E+01  0.17145576615E+03  0.17120000000E+03 0.  0.
        998    1    1    2    0    0 -0.36186178288E+02 -0.59837712619E+01  0.13773550372E+04  0.13778795824E+04  0.10000000000E+02 0. -1.
</event>
<event>
 5    1  0.1321379E-008  0.3840745E+03  0.7957747E-01  0.3433607E+00
         13   -1    0    0    0    0  0.00000000000E+00  0.00000000000E+00  0.14999999963E+04  0.15000000000E+04  0.10566000000E+00 0. -1.
        994   -1    0    0    0    0 -0.00000000000E+00 -0.00000000000E+00  0.11368683772E-12  0.17120000000E+03  0.17120000000E+03 0.  0.
         13    1    1    2    0    0  0.12046501678E+02 -0.66545224301E+01  0.43598695088E+02  0.45719342175E+02  0.10566000000E+00 0. -1.
        994    1    1    2    0    0 -0.11319260825E+02  0.10988002760E+02  0.29116174671E+01  0.17194993279E+03  0.17120000000E+03 0.  0.
        998    1    1    2    0    0 -0.72724085291E+00 -0.43334803295E+01  0.14534896837E+04  0.14535307250E+04  0.10000000000E+02 0. -1.
</event>
<event>
 5    1  0.1321379E-008  0.3686453E+03  0.7957747E-01  0.3502140E+00
         13   -1    0    0    0    0  0.00000000000E+00  0.00000000000E+00  0.14999999963E+04  0.15000000000E+04  0.10566000000E+00 0.  1.
        994   -1    0    0    0    0 -0.00000000000E+00 -0.00000000000E+00  0.11368683772E-12  0.17120000000E+03  0.17120000000E+03 0.  0.
         13    1    1    2    0    0  0.49763574280E+02 -0.37668472246E+02  0.20679033537E+03  0.21600365990E+03  0.10566000000E+00 0.  1.
        994    1    1    2    0    0 -0.95441813456E+02 -0.71667136289E+02  0.61235033189E+02  0.21749594817E+03  0.17120000000E+03 0.  0.
        998    1    1    2    0    0  0.45678239176E+02  0.10933560854E+03  0.12319746277E+04  0.12377003919E+04  0.10000000000E+02 0.  1.
</event>
<event>
 5    1  0.1321379E-008  0.3833122E+03  0.7957747E-01  0.3436862E+00
         13   -1    0    0    0    0  0.00000000000E+00  0.00000000000E+00  0.14999999963E+04  0.15000000000E+04  0.10566000000E+00 0.  1.
        994   -1    0    0    0    0 -0.00000000000E+00 -0.00000000000E+00  0.11368683772E-12  0.17120000000E+03  0.17120000000E+03 0.  0.
         13    1    1    2    0    0 -0.20322231810E+01 -0.20489671219E+02  0.83673502927E+02  0.86169732586E+02  0.10566000000E+00 0.  1.
        994    1    1    2    0    0 -0.34522242156E+01  0.16426040748E+02  0.34025986619E+01  0.17205449818E+03  0.17120000000E+03 0.  0.
        998    1    1    2    0    0  0.54844473966E+01  0.40636304708E+01  0.14129238947E+04  0.14129757692E+04  0.10000000000E+02 0.  1.
</event>
<event>
 5    1  0.1321379E-008  0.3852331E+03  0.7957747E-01  0.3428684E+00
         13   -1    0    0    0    0  0.00000000000E+00  0.00000000000E+00  0.14999999963E+04  0.15000000000E+04  0.10566000000E+00 0. -1.
        994   -1    0    0    0    0 -0.00000000000E+00 -0.00000000000E+00  0.11368683772E-12  0.17120000000E+03  0.17120000000E+03 0.  0.
         13    1    1    2    0    0  0.48521417096E+01 -0.90702928361E+01  0.32631161561E+02  0.34214285908E+02  0.10566000000E+00 0. -1.
        994    1    1    2    0    0 -0.17074803822E+02  0.14745174706E+02  0.31887975193E+01  0.17270951778E+03  0.17120000000E+03 0.  0.
        998    1    1    2    0    0  0.12222662112E+02 -0.56748818700E+01  0.14641800372E+04  0.14642761963E+04  0.10000000000E+02 0. -1.
</event>
<event>
 5    1  0.1321379E-008  0.3788572E+03  0.7957747E-01  0.3456149E+00
         13   -1    0    0    0    0  0.00000000000E+00  0.00000000000E+00  0.14999999963E+04  0.15000000000E+04  0.10566000000E+00 0. -1.
        994   -1    0    0    0    0 -0.00000000000E+00 -0.00000000000E+00  0.11368683772E-12  0.17120000000E+03  0.17120000000E+03 0.  0.
         13    1    1    2    0    0  0.34228693051E+02 -0.34238486575E+02  0.20924735133E+03  0.21477509770E+03  0.10566000000E+00 0. -1.
        994    1    1    2    0    0 -0.34398829240E+02  0.38757839016E+02  0.13775743218E+02  0.17940083790E+03  0.17120000000E+03 0.  0.
        998    1    1    2    0    0  0.17013618945E+00 -0.45193524418E+01  0.12769769017E+04  0.12770240644E+04  0.10000000000E+02 0. -1.
</event>
<event>
 5    1  0.1477432E-008  0.3860662E+03  0.7957747E-01  0.3425163E+00
         13   -1    0    0    0    0  0.00000000000E+00  0.00000000000E+00  0.14999999963E+04  0.15000000000E+04  0.10566000000E+00 0.  1.
        994   -1    0    0    0    0 -0.00000000000E+00 -0.00000000000E+00  0.11368683772E-12  0.17120000000E+03  0.17120000000E+03 0.  0.
         13    1    1    2    0    0  0.10173120960E+02  0.50563684384E+01  0.60331430050E+02  0.61391789905E+02  0.10566000000E+00 0.  1.
        994    1    1    2    0    0 -0.59581755453E+01 -0.29867995475E-01  0.12180536182E+01  0.17130798114E+03  0.17120000000E+03 0.  0.
        998    1    1    2    0    0 -0.42149454145E+01 -0.50265004429E+01  0.14384505126E+04  0.14385002290E+04  0.10000000000E+02 0.  1.
</event>
<event>
 5    1  0.1321379E-008  0.3780579E+03  0.7957747E-01  0.3459659E+00
         13   -1    0    0    0    0  0.00000000000E+00  0.00000000000E+00  0.14999999963E+04  0.15000000000E+04  0.10566000000E+00 0.  1.
        994   -1    0    0    0    0 -0.00000000000E+00 -0.00000000000E+00  0.11368683772E-12  0.17120000000E+03  0.17120000000E+03 0.  0.
         13    1    1    2    0    0 -0.27506933394E+02  0.18153015772E+02  0.97746952371E+02  0.10315348384E+03  0.10566000000E+00 0.  1.
        994    1    1    2    0    0  0.31803005764E+02 -0.13816964801E+02  0.91726790009E+01  0.17491688807E+03  0.17120000000E+03 0.  0.
        998    1    1    2    0    0 -0.42960723699E+01 -0.43360509706E+01  0.13930803649E+04  0.13931296281E+04  0.10000000000E+02 0.  1.
</event>
<event>
 5    1  0.1321379E-008  0.3828551E+03  0.7957747E-01  0.3438820E+00
         13   -1    0    0    0    0  0.00000000000E+00  0.00000000000E+00  0.14999999963E+04  0.15000000000E+04  0.10566000000E+00 0.  1.
        994   -1    0    0    0    0 -0.00000000000E+00 -0.00000000000E+00  0.11368683772E-12  0.17120000000E+03  0.17120000000E+03 0.  0.
         13    1    1    2    0    0 -0.25533686096E+02  0.97285688540E+01  0.14827342996E+03  0.15077014086E+03  0.10566000000E+00 0.  1.
        994    1    1    2    0    0  0.71589648308E+01  0.12751313717E+00  0.28685975466E+01  0.17137367327E+03  0.17120000000E+03 0.  0.
        998    1    1    2    0    0  0.18374721266E+02 -0.98560819912E+01  0.13488579688E+04  0.13490561859E+04  0.10000000000E+02 0.  1.
</event>
<event>
 5    1  0.1321379E-008  0.3843602E+03  0.7957747E-01  0.3432390E+00
         13   -1    0    0    0    0  0.00000000000E+00  0.00000000000E+00  0.14999999963E+04  0.15000000000E+04  0.10566000000E+00 0.  1.
        994   -1    0    0    0    0 -0.00000000000E+00 -0.00000000000E+00  0.11368683772E-12  0.17120000000E+03  0.17120000000E+03 0.  0.
         13    1    1    2    0    0 -0.54669241939E+01 -0.10763705405E+02  0.34436571001E+02  0.36491549714E+02  0.10566000000E+00 0.  1.
        994    1    1    2    0    0  0.14588673396E+02  0.20362454234E+02  0.40186581103E+01  0.17306949051E+03  0.17120000000E+03 0.  0.
        998    1    1    2    0    0 -0.91217492026E+01 -0.95987488290E+01  0.14615447672E+04  0.14616389598E+04  0.10000000000E+02 0.  1.
</event>
<event>
 5    1  0.1321379E-008  0.3792929E+03  0.7957747E-01  0.3454243E+00
         13   -1    0    0    0    0  0.00000000000E+00  0.00000000000E+00  0.14999999963E+04  0.15000000000E+04  0.10566000000E+00 0. -1.
        994   -1    0    0    0    0 -0.00000000000E+00 -0.00000000000E+00  0.11368683772E-12  0.17120000000E+03  0.17120000000E+03 0.  0.
         13    1    1    2    0    0  0.33317367071E+02  0.22921632740E+01  0.13248407279E+03  0.13662848044E+03  0.10566000000E+00 0. -1.
        994    1    1    2    0    0 -0.59021603539E+01 -0.10599471650E+02  0.49838598343E+01  0.17170166905E+03  0.17120000000E+03 0.  0.
        998    1    1    2    0    0 -0.27415206717E+02  0.83073083763E+01  0.13625320637E+04  0.13628698505E+04  0.10000000000E+02 0. -1.
</event>
<event>
 5    1  0.1321379E-008  0.3831420E+03  0.7957747E-01  0.3437590E+00
         13   -1    0    0    0    0  0.00000000000E+00  0.00000000000E+00  0.14999999963E+04  0.15000000000E+04  0.10566000000E+00 0.  1.
        994   -1    0    0    0    0 -0.00000000000E+00 -0.00000000000E+00  0.11368683772E-12  0.17120000000E+03  0.17120000000E+03 0.  0.
         13    1    1    2    0    0  0.10591806754E+02 -0.10089888693E+02  0.40564642141E+02  0.43121845743E+02  0.10566000000E+00 0.  1.
        994    1    1    2    0    0 -0.79257572384E+01  0.10355918116E+02  0.31182712437E+01  0.17172427401E+03  0.17120000000E+03 0.  0.
        998    1    1    2    0    0 -0.26660495155E+01 -0.26602942336E+00  0.14563170829E+04  0.14563538802E+04  0.10000000000E+02 0.  1.
</event>
<event>
 5    1  0.1321379E-008  0.3834124E+03  0.7957747E-01  0.3436433E+00
         13   -1    0    0    0    0  0.00000000000E+00  0.00000000000E+00  0.14999999963E+04  0.15000000000E+04  0.10566000000E+00 0.  1.
        994   -1    0    0    0    0 -0.00000000000E+00 -0.00000000000E+00  0.11368683772E-12  0.17120000000E+03  0.17120000000E+03 0.  0.
         13    1    1    2    0    0  0.23549512246E+02 -0.33929988120E+01  0.13439577643E+03  0.13648563241E+03  0.10566000000E+00 0.  1.
        994    1    1    2    0    0  0.45275952930E+01  0.40633268899E+01  0.25427596859E+01  0.17132692541E+03  0.17120000000E+03 0.  0.
        998    1    1    2    0    0 -0.28077107538E+02 -0.67032807796E+00  0.13630614602E+04  0.13633874422E+04  0.10000000000E+02 0.  1.
</event>
<event>
 5    1  0.1321379E-008  0.3693380E+03  0.7957747E-01  0.3498939E+00
         13   -1    0    0    0    0  0.00000000000E+00  0.00000000000E+00  0.14999999963E+04  0.15000000000E+04  0.10566000000E+00 0. -1.
        994   -1    0    0    0    0 -0.00000000000E+00 -0.00000000000E+00  0.11368683772E-12  0.17120000000E+03  0.17120000000E+03 0.  0.
         13    1    1    2    0    0  0.42022280872E+02  0.49010907609E+00  0.76360766398E+02  0.87161287884E+02  0.10566000000E+00 0. -1.
        994    1    1    2    0    0 -0.40079731176E+02  0.19518854536E+01  0.16226395032E+02  0.17658689250E+03  0.17120000000E+03 0.  0.
        998    1    1    2    0    0 -0.19425496967E+01 -0.24419945297E+01  0.14074128348E+04  0.14074518196E+04  0.10000000000E+02 0. -1.
</event>
<event>
 5    1  0.1321379E-008  0.3825129E+03  0.7957747E-01  0.3440289E+00
         13   -1    0    0    0    0  0.00000000000E+00  0.00000000000E+00  0.14999999963E+04  0.15000000000E+04  0.10566000000E+00 0. -1.
        994   -1    0    0    0    0 -0.00000000000E+00 -0.00000000000E+00  0.11368683772E-12  0.17120000000E+03  0.17120000000E+03 0.  0.
         13    1    1    2    0    0  0.55322183563E+01  0.23091401100E+02  0.94780626562E+02  0.97709756833E+02  0.10566000000E+00 0. -1.
        994    1    1    2    0    0  0.41780284455E+01 -0.20888158931E+02  0.43758670689E+01  0.17257566259E+03  0.17120000000E+03 0.  0.
        998    1    1    2    0    0 -0.97102468019E+01 -0.22032421688E+01  0.14008435026E+04  0.14009145806E+04  0.10000000000E+02 0. -1.
</event>
<event>
 5    1  0.1321379E-008  0.3836330E+03  0.7957747E-01  0.3435490E+00
         13   -1    0    0    0    0  0.00000000000E+00  0.00000000000E+00  0.14999999963E+04  0.15000000000E+04  0.10566000000E+00 0.  1.
        994   -1    0    0    0    0 -0.00000000000E+00 -0.00000000000E+00  0.11368683772E-12  0.17120000000E+03  0.17120000000E+03 0.  0.
         13    1    1    2    0    0 -0.25703246603E+02  0.80326184462E+01  0.15483448379E+03  0.15715886351E+03  0.10566000000E+00 0.  1.
        994    1    1    2    0    0  0.15759109623E+02 -0.76276126470E+01  0.33235453264E+01  0.17212500099E+03  0.17120000000E+03 0.  0.
        998    1    1    2    0    0  0.99441369809E+01 -0.40500579921E+00  0.13418419672E+04  0.13419161355E+04  0.10000000000E+02 0.  1.
</event>
<event>
 5    1  0.1321379E-008  0.3715584E+03  0.7957747E-01  0.3488759E+00
         13   -1    0    0    0    0  0.00000000000E+00  0.00000000000E+00  0.14999999963E+04  0.15000000000E+04  0.10566000000E+00 0. -1.
        994   -1    0    0    0    0 -0.00000000000E+00 -0.00000000000E+00  0.11368683772E-12  0.17120000000E+03  0.17120000000E+03 0.  0.
         13    1    1    2    0    0  0.57589722593E+02  0.13337201178E+03  0.60300322777E+03  0.62025605481E+03  0.10566000000E+00 0. -1.
        994    1    1    2    0    0 -0.85928148430E+02 -0.10487403403E+03  0.79508850319E+02  0.23240763108E+03  0.17120000000E+03 0.  0.
        998    1    1    2    0    0  0.28338425837E+02 -0.28497977752E+02  0.81748791819E+03  0.81853631410E+03  0.10000000000E+02 0. -1.
</event>
<event>
 5    1  0.1321379E-008  0.3856715E+03  0.7957747E-01  0.3426829E+00
         13   -1    0    0    0    0  0.00000000000E+00  0.00000000000E+00  0.14999999963E+04  0.15000000000E+04  0.10566000000E+00 0.  1.
        994   -1    0    0    0    0 -0.00000000000E+00 -0.00000000000E+00  0.11368683772E-12  0.17120000000E+03  0.17120000000E+03 0.  0.
         13    1    1    2    0    0 -0.10480450998E+02 -0.10687756372E+02  0.84709605891E+02  0.86022069747E+02  0.10566000000E+00 0.  1.
        994    1    1    2    0    0  0.11741869746E+02  0.67498301220E+01  0.18992740752E+01  0.17174538991E+03  0.17120000000E+03 0.  0.
        998    1    1    2    0    0 -0.12614187482E+01  0.39379262504E+01  0.14133911163E+04  0.14134325403E+04  0.10000000000E+02 0.  1.
</event>
<event>
 5    1  0.1321379E-008  0.3739970E+03  0.7957747E-01  0.3477721E+00
         13   -1    0    0    0    0  0.00000000000E+00  0.00000000000E+00  0.14999999963E+04  0.15000000000E+04  0.10566000000E+00 0.  1.
        994   -1    0    0    0    0 -0.00000000000E+00 -0.00000000000E+00  0.11368683772E-12  0.17120000000E+03  0.17120000000E+03 0.  0.
         13    1    1    2    0    0 -0.27593750269E+02  0.28682141020E-01  0.48099615116E+02  0.55452682666E+02  0.10566000000E+00 0.  1.
        994    1    1    2    0    0  0.31603015491E+02  0.53239069473E+00  0.10609724369E+02  0.17441628444E+03  0.17120000000E+03 0.  0.
        998    1    1    2    0    0 -0.40092652222E+01 -0.56107283575E+00  0.14412906568E+04  0.14413310329E+04  0.10000000000E+02 0.  1.
</event>
<event>
 5    1  0.1321379E-008  0.3803774E+03  0.7957747E-01  0.3449517E+00
         13   -1    0    0    0    0  0.00000000000E+00  0.00000000000E+00  0.14999999963E+04  0.15000000000E+04  0.10566000000E+00 0. -1.
        994   -1    0    0    0    0 -0.00000000000E+00 -0.00000000000E+00  0.11368683772E-12  0.17120000000E+03  0.17120000000E+03 0.  0.
         13    1    1    2    0    0  0.14316740044E+02  0.11704168139E+01  0.24313032273E+02  0.28239575481E+02  0.10566000000E+00 0. -1.
        994    1    1    2    0    0 -0.13774923982E+02  0.15216014936E+01  0.45842743211E+01  0.17182118430E+03  0.17120000000E+03 0.  0.
        998    1    1    2    0    0 -0.54181606159E+00 -0.26920183074E+01  0.14711026897E+04  0.14711392402E+04  0.10000000000E+02 0. -1.
</event>
<event>
 5    1  0.1321379E-008  0.3896986E+03  0.7957747E-01  0.3409986E+00
         13   -1    0    0    0    0  0.00000000000E+00  0.00000000000E+00  0.14999999963E+04  0.15000000000E+04  0.10566000000E+00 0. -1.
        994   -1    0    0    0    0 -0.00000000000E+00 -0.00000000000E+00  0.11368683772E-12  0.17120000000E+03  0.17120000000E+03 0.  0.
         13    1    1    2    0    0 -0.87923254496E+01  0.26130486560E+02  0.81190908132E+01  0.28740878802E+02  0.10566000000E+00 0. -1.
        994    1    1    2    0    0  0.95534354744E+01 -0.24850799290E+02  0.24428036096E+02  0.17497142424E+03  0.17120000000E+03 0.  0.
        998    1    1    2    0    0 -0.76111002480E+00 -0.12796872697E+01  0.14674528694E+04  0.14674876970E+04  0.10000000000E+02 0. -1.
</event>
<event>
 5    1  0.1321379E-008  0.3805161E+03  0.7957747E-01  0.3448914E+00
         13   -1    0    0    0    0  0.00000000000E+00  0.00000000000E+00  0.14999999963E+04  0.15000000000E+04  0.10566000000E+00 0.  1.
        994   -1    0    0    0    0 -0.00000000000E+00 -0.00000000000E+00  0.11368683772E-12  0.17120000000E+03  0.17120000000E+03 0.  0.
         13    1    1    2    0    0  0.91520219862E+01 -0.97943066807E+01  0.21350613912E+02  0.25210073944E+02  0.10566000000E+00 0.  1.
        994    1    1    2    0    0 -0.10233989160E+02  0.92120496138E+01  0.45058144032E+01  0.17181192844E+03  0.17120000000E+03 0.  0.
        998    1    1    2    0    0  0.10819671742E+01  0.58225706682E+00  0.14741435680E+04  0.14741779976E+04  0.10000000000E+02 0.  1.
</event>
<event>
 5    1  0.1321379E-008  0.4094086E+03  0.7957747E-01  0.3332320E+00
         13   -1    0    0    0    0  0.00000000000E+00  0.00000000000E+00  0.14999999963E+04  0.15000000000E+04  0.10566000000E+00 0. -1.
        994   -1    0    0    0    0 -0.00000000000E+00 -0.00000000000E+00  0.11368683772E-12  0.17120000000E+03  0.17120000000E+03 0.  0.
         13    1    1    2    0    0  0.58919067673E+02  0.49757635917E+02  0.80353185482E+02  0.11137290716E+03  0.10566000000E+00 0. -1.
        994    1    1    2    0    0 -0.54197806474E+02 -0.12218205697E+02  0.46201550521E+02  0.18582440649E+03  0.17120000000E+03 0.  0.
        998    1    1    2    0    0 -0.47212611991E+01 -0.37539430221E+02  0.13734452603E+04  0.13740026864E+04  0.10000000000E+02 0. -1.
</event>
<event>
 5    1  0.1321379E-008  0.3830582E+03  0.7957747E-01  0.3437949E+00
         13   -1    0    0    0    0  0.00000000000E+00  0.00000000000E+00  0.14999999963E+04  0.15000000000E+04  0.10566000000E+00 0. -1.
        994   -1    0    0    0    0 -0.00000000000E+00 -0.00000000000E+00  0.11368683772E-12  0.17120000000E+03  0.17120000000E+03 0.  0.
         13    1    1    2    0    0 -0.25299128683E+02  0.11199767666E+02  0.13588893938E+03  0.13867694732E+03  0.10566000000E+00 0. -1.
        994    1    1    2    0    0  0.23196739065E+02 -0.14332140530E+02  0.50617462664E+01  0.17343171633E+03  0.17120000000E+03 0.  0.
        998    1    1    2    0    0  0.21023896181E+01  0.31323728645E+01  0.13590493106E+04  0.13590913363E+04  0.10000000000E+02 0. -1.
</event>
<event>
 5    1  0.1321379E-008  0.3816411E+03  0.7957747E-01  0.3444044E+00
         13   -1    0    0    0    0  0.00000000000E+00  0.00000000000E+00  0.14999999963E+04  0.15000000000E+04  0.10566000000E+00 0. -1.
        994   -1    0    0    0    0 -0.00000000000E+00 -0.00000000000E+00  0.11368683772E-12  0.17120000000E+03  0.17120000000E+03 0.  0.
         13    1    1    2    0    0  0.28042010687E+01  0.35629616168E+02  0.17144201334E+03  0.17512769111E+03  0.10566000000E+00 0. -1.
        994    1    1    2    0    0 -0.10454811214E+02 -0.35613543555E+02  0.79010287166E+01  0.17535533587E+03  0.17120000000E+03 0.  0.
        998    1    1    2    0    0  0.76506101450E+01 -0.16072612981E-01  0.13206569542E+04  0.13207169730E+04  0.10000000000E+02 0. -1.
</event>
<event>
 5    1  0.1321379E-008  0.3812714E+03  0.7957747E-01  0.3445641E+00
         13   -1    0    0    0    0  0.00000000000E+00  0.00000000000E+00  0.14999999963E+04  0.15000000000E+04  0.10566000000E+00 0.  1.
        994   -1    0    0    0    0 -0.00000000000E+00 -0.00000000000E+00  0.11368683772E-12  0.17120000000E+03  0.17120000000E+03 0.  0.
         13    1    1    2    0    0  0.16351932965E+02  0.18493753321E+02  0.83250729045E+02  0.86833747323E+02  0.10566000000E+00 0.  1.
        994    1    1    2    0    0 -0.14866450775E+02 -0.16116773594E+02  0.50947767792E+01  0.17267356051E+03  0.17120000000E+03 0.  0.
        998    1    1    2    0    0 -0.14854821905E+01 -0.23769797269E+01  0.14116544905E+04  0.14116926922E+04  0.10000000000E+02 0.  1.
</event>
<event>
 5    1  0.1321379E-008  0.3845366E+03  0.7957747E-01  0.3431640E+00
         13   -1    0    0    0    0  0.00000000000E+00  0.00000000000E+00  0.14999999963E+04  0.15000000000E+04  0.10566000000E+00 0. -1.
        994   -1    0    0    0    0 -0.00000000000E+00 -0.00000000000E+00  0.11368683772E-12  0.17120000000E+03  0.17120000000E+03 0.  0.
         13    1    1    2    0    0 -0.34760518965E+01 -0.12469786218E+02  0.44631211158E+02  0.46470793823E+02  0.10566000000E+00 0. -1.
        994    1    1    2    0    0 -0.11026693595E+00  0.95850501117E+01  0.21630632039E+01  0.17148178967E+03  0.17120000000E+03 0.  0.
        998    1    1    2    0    0  0.35863188324E+01  0.28847361060E+01  0.14532057219E+04  0.14532474165E+04  0.10000000000E+02 0. -1.
</event>
<event>
 5    1  0.1321379E-008  0.3769995E+03  0.7957747E-01  0.3464328E+00
         13   -1    0    0    0    0  0.00000000000E+00  0.00000000000E+00  0.14999999963E+04  0.15000000000E+04  0.10566000000E+00 0.  1.
        994   -1    0    0    0    0 -0.00000000000E+00 -0.00000000000E+00  0.11368683772E-12  0.17120000000E+03  0.17120000000E+03 0.  0.
         13    1    1    2    0    0  0.19444355475E+03 -0.85590754541E+02  0.12519212104E+04  0.12698192003E+04  0.10566000000E+00 0.  1.
        994    1    1    2    0    0 -0.18489251164E+03  0.85854372923E+02  0.15657732343E+03  0.30883994629E+03  0.17120000000E+03 0.  0.
        998    1    1    2    0    0 -0.95510431047E+01 -0.26361838239E+00  0.91501462406E+02  0.92540853365E+02  0.10000000000E+02 0. -1.
</event>
<event>
 5    1  0.1321379E-008  0.3779526E+03  0.7957747E-01  0.3460122E+00
         13   -1    0    0    0    0  0.00000000000E+00  0.00000000000E+00  0.14999999963E+04  0.15000000000E+04  0.10566000000E+00 0.  1.
        994   -1    0    0    0    0 -0.00000000000E+00 -0.00000000000E+00  0.11368683772E-12  0.17120000000E+03  0.17120000000E+03 0.  0.
         13    1    1    2    0    0  0.28049224580E+02 -0.33518095470E+02  0.16503372351E+03  0.17072305874E+03  0.10566000000E+00 0.  1.
        994    1    1    2    0    0 -0.22925510475E+02  0.36717718502E+02  0.11502826629E+02  0.17696193066E+03  0.17120000000E+03 0.  0.
        998    1    1    2    0    0 -0.51237141049E+01 -0.31996230328E+01  0.13234634461E+04  0.13235150106E+04  0.10000000000E+02 0.  1.
</event>
<event>
 5    1  0.1321379E-008  0.3847702E+03  0.7957747E-01  0.3430647E+00
         13   -1    0    0    0    0  0.00000000000E+00  0.00000000000E+00  0.14999999963E+04  0.15000000000E+04  0.10566000000E+00 0.  1.
        994   -1    0    0    0    0 -0.00000000000E+00 -0.00000000000E+00  0.11368683772E-12  0.17120000000E+03  0.17120000000E+03 0.  0.
         13    1    1    2    0    0  0.90515030742E+01 -0.14734654292E+02  0.78110474418E+02  0.80001856996E+02  0.10566000000E+00 0.  1.
        994    1    1    2    0    0 -0.16787788053E+02  0.19178764778E+02  0.38852639892E+01  0.17313055803E+03  0.17120000000E+03 0.  0.
        998    1    1    2    0    0  0.77362849785E+01 -0.44441104865E+01  0.14180042579E+04  0.14180675850E+04  0.10000000000E+02 0.  1.
</event>
<event>
 5    1  0.1321379E-008  0.3842725E+03  0.7957747E-01  0.3432763E+00
         13   -1    0    0    0    0  0.00000000000E+00  0.00000000000E+00  0.14999999963E+04  0.15000000000E+04  0.10566000000E+00 0.  1.
        994   -1    0    0    0    0 -0.00000000000E+00 -0.00000000000E+00  0.11368683772E-12  0.17120000000E+03  0.17120000000E+03 0.  0.
         13    1    1    2    0    0  0.10708210512E+02 -0.17253616702E+02  0.11518436245E+03  0.11696068390E+03  0.10566000000E+00 0.  1.
        994    1    1    2    0    0 -0.81788371231E+01 -0.63581381393E+01  0.23455996761E+01  0.17152918450E+03  0.17120000000E+03 0.  0.
        998    1    1    2    0    0 -0.25293733887E+01  0.23611754841E+02  0.13824700341E+04  0.13827101316E+04  0.10000000000E+02 0.  1.
</event>
<event>
 5    1  0.1321379E-008  0.3857146E+03  0.7957747E-01  0.3426647E+00
         13   -1    0    0    0    0  0.00000000000E+00  0.00000000000E+00  0.14999999963E+04  0.15000000000E+04  0.10566000000E+00 0. -1.
        994   -1    0    0    0    0 -0.00000000000E+00 -0.00000000000E+00  0.11368683772E-12  0.17120000000E+03  0.17120000000E+03 0.  0.
         13    1    1    2    0    0 -0.10140396316E+02 -0.54067364185E+01  0.49532670792E+02  0.50848373386E+02  0.10566000000E+00 0. -1.
        994    1    1    2    0    0  0.11429355381E+02  0.12693908058E+02  0.22336370618E+01  0.17206450709E+03  0.17120000000E+03 0.  0.
        998    1    1    2    0    0 -0.12889590643E+01 -0.72871716398E+01  0.14482336884E+04  0.14482871195E+04  0.10000000000E+02 0. -1.
</event>
<event>
 5    1  0.1321379E-008  0.3838837E+03  0.7957747E-01  0.3434420E+00
         13   -1    0    0    0    0  0.00000000000E+00  0.00000000000E+00  0.14999999963E+04  0.15000000000E+04  0.10566000000E+00 0.  1.
        994   -1    0    0    0    0 -0.00000000000E+00 -0.00000000000E+00  0.11368683772E-12  0.17120000000E+03  0.17120000000E+03 0.  0.
         13    1    1    2    0    0 -0.10089206477E+02 -0.17388323908E+02  0.90026638193E+02  0.92243984324E+02  0.10566000000E+00 0.  1.
        994    1    1    2    0    0  0.69253900561E+01  0.14553325142E+02  0.30431921718E+01  0.17198389843E+03  0.17120000000E+03 0.  0.
        998    1    1    2    0    0  0.31638164205E+01  0.28349987661E+01  0.14069301659E+04  0.14069721172E+04  0.10000000000E+02 0.  1.
</event>
<event>
 5    1  0.1321379E-008  0.3695603E+03  0.7957747E-01  0.3497914E+00
         13   -1    0    0    0    0  0.00000000000E+00  0.00000000000E+00  0.14999999963E+04  0.15000000000E+04  0.10566000000E+00 0.  1.
        994   -1    0    0    0    0 -0.00000000000E+00 -0.00000000000E+00  0.11368683772E-12  0.17120000000E+03  0.17120000000E+03 0.  0.
         13    1    1    2    0    0 -0.37135106871E+02  0.48810968461E+02  0.30900576668E+03  0.31503349316E+03  0.10566000000E+00 0.  1.
        994    1    1    2    0    0 -0.24063679844E+02  0.18196376648E+02  0.12657384957E+02  0.17429807287E+03  0.17120000000E+03 0.  0.
        998    1    1    2    0    0  0.61198786715E+02 -0.67007345109E+02  0.11783368446E+04  0.11818684340E+04  0.10000000000E+02 0.  1.
</event>
<event>
 5    1  0.1321379E-008  0.3855201E+03  0.7957747E-01  0.3427470E+00
         13   -1    0    0    0    0  0.00000000000E+00  0.00000000000E+00  0.14999999963E+04  0.15000000000E+04  0.10566000000E+00 0. -1.
        994   -1    0    0    0    0 -0.00000000000E+00 -0.00000000000E+00  0.11368683772E-12  0.17120000000E+03  0.17120000000E+03 0.  0.
         13    1    1    2    0    0  0.10574959277E+03 -0.14941861674E+03  0.94919209037E+03  0.96668223062E+03  0.10566000000E+00 0. -1.
        994    1    1    2    0    0 -0.11941401310E+03  0.18166309422E+03  0.17599666905E+03  0.32794123535E+03  0.17120000000E+03 0.  0.
        998    1    1    2    0    0  0.13664420331E+02 -0.32244477483E+02  0.37481123685E+03  0.37657653403E+03  0.10000000000E+02 0. -1.
</event>
<event>
 5    1  0.1321379E-008  0.3836699E+03  0.7957747E-01  0.3435333E+00
         13   -1    0    0    0    0  0.00000000000E+00  0.00000000000E+00  0.14999999963E+04  0.15000000000E+04  0.10566000000E+00 0.  1.
        994   -1    0    0    0    0 -0.00000000000E+00 -0.00000000000E+00  0.11368683772E-12  0.17120000000E+03  0.17120000000E+03 0.  0.
         13    1    1    2    0    0 -0.21436348944E+02  0.89248104902E+01  0.12006468321E+03  0.12228944606E+03  0.10566000000E+00 0.  1.
        994    1    1    2    0    0  0.74525728426E+01 -0.10537968360E+02  0.28423805622E+01  0.17170937291E+03  0.17120000000E+03 0.  0.
        998    1    1    2    0    0  0.13983776101E+02  0.16131578696E+01  0.13770929325E+04  0.13772011810E+04  0.10000000000E+02 0.  1.
</event>
<event>
 5    1  0.1321379E-008  0.3813860E+03  0.7957747E-01  0.3445146E+00
         13   -1    0    0    0    0  0.00000000000E+00  0.00000000000E+00  0.14999999963E+04  0.15000000000E+04  0.10566000000E+00 0.  1.
        994   -1    0    0    0    0 -0.00000000000E+00 -0.00000000000E+00  0.11368683772E-12  0.17120000000E+03  0.17120000000E+03 0.  0.
         13    1    1    2    0    0  0.97519666290E+01  0.12350278685E+02  0.39998908736E+02  0.42983183931E+02  0.10566000000E+00 0.  1.
        994    1    1    2    0    0  0.84557667341E+01  0.28037883812E+02  0.62942615919E+01  0.17380069231E+03  0.17120000000E+03 0.  0.
        998    1    1    2    0    0 -0.18207733363E+02 -0.40388162497E+02  0.14537068260E+04  0.14544161238E+04  0.10000000000E+02 0.  1.
</event>
<event>
 5    1  0.1321379E-008  0.3814798E+03  0.7957747E-01  0.3444741E+00
         13   -1    0    0    0    0  0.00000000000E+00  0.00000000000E+00  0.14999999963E+04  0.15000000000E+04  0.10566000000E+00 0.  1.
        994   -1    0    0    0    0 -0.00000000000E+00 -0.00000000000E+00  0.11368683772E-12  0.17120000000E+03  0.17120000000E+03 0.  0.
         13    1    1    2    0    0 -0.11192780053E+02  0.12882081391E+01  0.17577628952E+02  0.20878745392E+02  0.10566000000E+00 0.  1.
        994    1    1    2    0    0  0.42135017584E+01  0.10212047438E+02  0.37941224452E+01  0.17159800370E+03  0.17120000000E+03 0.  0.
        998    1    1    2    0    0  0.69792782950E+01 -0.11500255577E+02  0.14786282449E+04  0.14787232509E+04  0.10000000000E+02 0.  1.
</event>
<event>
 5    1  0.1321379E-008  0.3684224E+03  0.7957747E-01  0.3503173E+00
         13   -1    0    0    0    0  0.00000000000E+00  0.00000000000E+00  0.14999999963E+04  0.15000000000E+04  0.10566000000E+00 0.  1.
        994   -1    0    0    0    0 -0.00000000000E+00 -0.00000000000E+00  0.11368683772E-12  0.17120000000E+03  0.17120000000E+03 0.  0.
         13    1    1    2    0    0  0.52562096997E+01  0.35774842045E+02  0.71762437718E+02  0.80357486864E+02  0.10566000000E+00 0.  1.
        994    1    1    2    0    0 -0.69409637361E+01  0.29111245112E+02  0.13216115246E+02  0.17429786938E+03  0.17120000000E+03 0.  0.
        998    1    1    2    0    0  0.16847540364E+01 -0.64886087157E+02  0.14150214433E+04  0.14165446438E+04  0.10000000000E+02 0.  1.
</event>
<event>
 5    1  0.1321379E-008  0.3755950E+03  0.7957747E-01  0.3470566E+00
         13   -1    0    0    0    0  0.00000000000E+00  0.00000000000E+00  0.14999999963E+04  0.15000000000E+04  0.10566000000E+00 0.  1.
        994   -1    0    0    0    0 -0.00000000000E+00 -0.00000000000E+00  0.11368683772E-12  0.17120000000E+03  0.17120000000E+03 0.  0.
         13    1    1    2    0    0 -0.23593595063E+00 -0.35192294744E+02  0.40837873952E+02  0.53910076870E+02  0.10566000000E+00 0.  1.
        994    1    1    2    0    0 -0.24590133765E+02  0.67487871493E+01  0.16250429800E+02  0.17384975489E+03  0.17120000000E+03 0.  0.
        998    1    1    2    0    0  0.24826069716E+02  0.28443507595E+02  0.14429116925E+04  0.14434401682E+04  0.10000000000E+02 0.  1.
</event>
<event>
 5    1  0.1321379E-008  0.2878422E+03  0.7957747E-01  0.3986830E+00
         13   -1    0    0    0    0  0.00000000000E+00  0.00000000000E+00  0.14999999963E+04  0.15000000000E+04  0.10566000000E+00 0. -1.
        994   -1    0    0    0    0 -0.00000000000E+00 -0.00000000000E+00  0.11368683772E-12  0.17120000000E+03  0.17120000000E+03 0.  0.
         13    1    1    2    0    0  0.53809005490E+02 -0.11159295373E+03  0.73357705197E+03  0.74396485046E+03  0.10566000000E+00 0. -1.
        994    1    1    2    0    0  0.20543817405E+02  0.52749970637E+02  0.27756196102E+02  0.18244027587E+03  0.17120000000E+03 0.  0.
        998    1    1    2    0    0 -0.74352822895E+02  0.58842983089E+02  0.73866674821E+03  0.74479487367E+03  0.10000000000E+02 0. -1.
</event>
<event>
 5    1  0.1321379E-008  0.3856421E+03  0.7957747E-01  0.3426954E+00
         13   -1    0    0    0    0  0.00000000000E+00  0.00000000000E+00  0.14999999963E+04  0.15000000000E+04  0.10566000000E+00 0. -1.
        994   -1    0    0    0    0 -0.00000000000E+00 -0.00000000000E+00  0.11368683772E-12  0.17120000000E+03  0.17120000000E+03 0.  0.
         13    1    1    2    0    0 -0.70303350575E+01  0.10162947287E+02  0.60634809007E+02  0.61881356933E+02  0.10566000000E+00 0. -1.
        994    1    1    2    0    0  0.51678800959E+01 -0.39434656029E+00  0.13998567698E+01  0.17128415599E+03  0.17120000000E+03 0.  0.
        998    1    1    2    0    0  0.18624549616E+01 -0.97686007269E+01  0.14379653305E+04  0.14380344871E+04  0.10000000000E+02 0. -1.
</event>
<event>
 5    1  0.1321379E-008  0.3777196E+03  0.7957747E-01  0.3461148E+00
         13   -1    0    0    0    0  0.00000000000E+00  0.00000000000E+00  0.14999999963E+04  0.15000000000E+04  0.10566000000E+00 0. -1.
        994   -1    0    0    0    0 -0.00000000000E+00 -0.00000000000E+00  0.11368683772E-12  0.17120000000E+03  0.17120000000E+03 0.  0.
         13    1    1    2    0    0 -0.13211214971E+02 -0.52807008636E+01  0.16633623052E+02  0.21888594804E+02  0.10566000000E+00 0. -1.
        994    1    1    2    0    0  0.14459163768E+02  0.54097248951E+01  0.60919161903E+01  0.17200256970E+03  0.17120000000E+03 0.  0.
        998    1    1    2    0    0 -0.12479487968E+01 -0.12902403151E+00  0.14772744570E+04  0.14773088355E+04  0.10000000000E+02 0. -1.
</event>
<event>
 5    1  0.1321379E-008  0.3815310E+03  0.7957747E-01  0.3444519E+00
         13   -1    0    0    0    0  0.00000000000E+00  0.00000000000E+00  0.14999999963E+04  0.15000000000E+04  0.10566000000E+00 0.  1.
        994   -1    0    0    0    0 -0.00000000000E+00 -0.00000000000E+00  0.11368683772E-12  0.17120000000E+03  0.17120000000E+03 0.  0.
         13    1    1    2    0    0  0.19473554350E+02  0.65857967124E+00  0.55025385346E+02  0.58373429253E+02  0.10566000000E+00 0.  1.
        994    1    1    2    0    0 -0.13704760307E+02 -0.25211369199E+01  0.40084228208E+01  0.17181293327E+03  0.17120000000E+03 0.  0.
        998    1    1    2    0    0 -0.57687940433E+01  0.18625572487E+01  0.14409661881E+04  0.14410136375E+04  0.10000000000E+02 0.  1.
</event>
<event>
 5    1  0.1321379E-008  0.3859692E+03  0.7957747E-01  0.3425572E+00
         13   -1    0    0    0    0  0.00000000000E+00  0.00000000000E+00  0.14999999963E+04  0.15000000000E+04  0.10566000000E+00 0. -1.
        994   -1    0    0    0    0 -0.00000000000E+00 -0.00000000000E+00  0.11368683772E-12  0.17120000000E+03  0.17120000000E+03 0.  0.
         13    1    1    2    0    0  0.12799666637E+02  0.36350663245E+01  0.75570102685E+02  0.76732631632E+02  0.10566000000E+00 0. -1.
        994    1    1    2    0    0 -0.12585426802E+02 -0.12895600769E+01  0.16746015786E+01  0.17167498427E+03  0.17120000000E+03 0.  0.
        998    1    1    2    0    0 -0.21423983537E+00 -0.23455062476E+01  0.14227552920E+04  0.14227923841E+04  0.10000000000E+02 0. -1.
</event>
<event>
 5    1  0.1321379E-008  0.3793864E+03  0.7957747E-01  0.3453835E+00
         13   -1    0    0    0    0  0.00000000000E+00  0.00000000000E+00  0.14999999963E+04  0.15000000000E+04  0.10566000000E+00 0. -1.
        994   -1    0    0    0    0 -0.00000000000E+00 -0.00000000000E+00  0.11368683772E-12  0.17120000000E+03  0.17120000000E+03 0.  0.
         13    1    1    2    0    0 -0.11055929060E+02 -0.19462901185E+02  0.54869416058E+02  0.59259615865E+02  0.10566000000E+00 0. -1.
        994    1    1    2    0    0  0.15524427855E+01  0.14965898485E+02  0.52019191874E+01  0.17193861742E+03  0.17120000000E+03 0.  0.
        998    1    1    2    0    0  0.95034862749E+01  0.44970027003E+01  0.14399286610E+04  0.14400017667E+04  0.10000000000E+02 0. -1.
</event>
<event>
 5    1  0.1321379E-008  0.3737376E+03  0.7957747E-01  0.3478888E+00
         13   -1    0    0    0    0  0.00000000000E+00  0.00000000000E+00  0.14999999963E+04  0.15000000000E+04  0.10566000000E+00 0. -1.
        994   -1    0    0    0    0 -0.00000000000E+00 -0.00000000000E+00  0.11368683772E-12  0.17120000000E+03  0.17120000000E+03 0.  0.
         13    1    1    2    0    0 -0.30472815787E+02  0.68471078637E+01  0.65490629579E+02  0.72556937055E+02  0.10566000000E+00 0. -1.
        994    1    1    2    0    0  0.85711460433E+01 -0.18500397388E+02  0.87489202948E+01  0.17263172609E+03  0.17120000000E+03 0.  0.
        998    1    1    2    0    0  0.21901669744E+02  0.11653289524E+02  0.14257604464E+04  0.14260113369E+04  0.10000000000E+02 0. -1.
</event>
<event>
 5    1  0.1321379E-008  0.3818760E+03  0.7957747E-01  0.3443030E+00
         13   -1    0    0    0    0  0.00000000000E+00  0.00000000000E+00  0.14999999963E+04  0.15000000000E+04  0.10566000000E+00 0. -1.
        994   -1    0    0    0    0 -0.00000000000E+00 -0.00000000000E+00  0.11368683772E-12  0.17120000000E+03  0.17120000000E+03 0.  0.
         13    1    1    2    0    0 -0.99064570416E+01  0.25712585643E+02  0.10127773660E+03  0.10495935426E+03  0.10566000000E+00 0. -1.
        994    1    1    2    0    0  0.20702861572E+02 -0.38846100384E+02  0.96534437910E+01  0.17703179649E+03  0.17120000000E+03 0.  0.
        998    1    1    2    0    0 -0.10796404531E+02  0.13133514741E+02  0.13890688159E+04  0.13892088492E+04  0.10000000000E+02 0. -1.
</event>
<event>
 5    1  0.1321379E-008  0.3552844E+03  0.7957747E-01  0.3566381E+00
         13   -1    0    0    0    0  0.00000000000E+00  0.00000000000E+00  0.14999999963E+04  0.15000000000E+04  0.10566000000E+00 0. -1.
        994   -1    0    0    0    0 -0.00000000000E+00 -0.00000000000E+00  0.11368683772E-12  0.17120000000E+03  0.17120000000E+03 0.  0.
         13    1    1    2    0    0 -0.13014818219E+02 -0.19907796761E+03  0.10972509790E+04  0.11152403977E+04  0.10566000000E+00 0. -1.
        994    1    1    2    0    0  0.90558672692E+01  0.17794268091E+03  0.12447149424E+03  0.27667345246E+03  0.17120000000E+03 0.  0.
        998    1    1    2    0    0  0.39589509500E+01  0.21135286700E+02  0.27827752306E+03  0.27928614982E+03  0.10000000000E+02 0. -1.
</event>
<event>
 5    1  0.1321379E-008  0.3815282E+03  0.7957747E-01  0.3444531E+00
         13   -1    0    0    0    0  0.00000000000E+00  0.00000000000E+00  0.14999999963E+04  0.15000000000E+04  0.10566000000E+00 0.  1.
        994   -1    0    0    0    0 -0.00000000000E+00 -0.00000000000E+00  0.11368683772E-12  0.17120000000E+03  0.17120000000E+03 0.  0.
         13    1    1    2    0    0  0.17415189926E+02  0.10427848149E+02  0.58199440960E+02  0.61637772098E+02  0.10566000000E+00 0.  1.
        994    1    1    2    0    0 -0.18473072845E+02 -0.89378521921E+01  0.47657073546E+01  0.17249142468E+03  0.17120000000E+03 0.  0.
        998    1    1    2    0    0  0.10578829190E+01 -0.14899959567E+01  0.14370348480E+04  0.14370708032E+04  0.10000000000E+02 0.  1.
</event>
<event>
 5    1  0.1321379E-008  0.3825059E+03  0.7957747E-01  0.3440319E+00
         13   -1    0    0    0    0  0.00000000000E+00  0.00000000000E+00  0.14999999963E+04  0.15000000000E+04  0.10566000000E+00 0. -1.
        994   -1    0    0    0    0 -0.00000000000E+00 -0.00000000000E+00  0.11368683772E-12  0.17120000000E+03  0.17120000000E+03 0.  0.
         13    1    1    2    0    0 -0.11919971323E+02 -0.19942910041E+02  0.94535998540E+02  0.97349224759E+02  0.10566000000E+00 0. -1.
        994    1    1    2    0    0  0.11875754726E+02  0.66201903228E+01  0.34866216300E+01  0.17177443640E+03  0.17120000000E+03 0.  0.
        998    1    1    2    0    0  0.44216596456E-01  0.13322719718E+02  0.14019773761E+04  0.14020763388E+04  0.10000000000E+02 0. -1.
</event>
<event>
 5    1  0.1321379E-008  0.3780682E+03  0.7957747E-01  0.3459613E+00
         13   -1    0    0    0    0  0.00000000000E+00  0.00000000000E+00  0.14999999963E+04  0.15000000000E+04  0.10566000000E+00 0.  1.
        994   -1    0    0    0    0 -0.00000000000E+00 -0.00000000000E+00  0.11368683772E-12  0.17120000000E+03  0.17120000000E+03 0.  0.
         13    1    1    2    0    0  0.18444548120E+02 -0.56878924615E+02  0.30519112303E+03  0.31099364328E+03  0.10566000000E+00 0.  1.
        994    1    1    2    0    0 -0.26315881399E+02  0.43877675679E+02  0.13969809602E+02  0.17922715089E+03  0.17120000000E+03 0.  0.
        998    1    1    2    0    0  0.78713332796E+01  0.13001248936E+02  0.11808390636E+04  0.11809792058E+04  0.10000000000E+02 0.  1.
</event>
<event>
 5    1  0.1321379E-008  0.3857057E+03  0.7957747E-01  0.3426685E+00
         13   -1    0    0    0    0  0.00000000000E+00  0.00000000000E+00  0.14999999963E+04  0.15000000000E+04  0.10566000000E+00 0.  1.
        994   -1    0    0    0    0 -0.00000000000E+00 -0.00000000000E+00  0.11368683772E-12  0.17120000000E+03  0.17120000000E+03 0.  0.
         13    1    1    2    0    0 -0.11921593895E+02 -0.80344382555E+01  0.83154047008E+02  0.84387696360E+02  0.10566000000E+00 0.  1.
        994    1    1    2    0    0  0.26260071981E+01  0.80504393808E+01  0.15154889914E+01  0.17141599165E+03  0.17120000000E+03 0.  0.
        998    1    1    2    0    0  0.92955866969E+01 -0.16001125291E-01  0.14153304603E+04  0.14153963120E+04  0.10000000000E+02 0.  1.
</event>
<event>
 5    1  0.1321379E-008  0.3860874E+03  0.7957747E-01  0.3425073E+00
         13   -1    0    0    0    0  0.00000000000E+00  0.00000000000E+00  0.14999999963E+04  0.15000000000E+04  0.10566000000E+00 0. -1.
        994   -1    0    0    0    0 -0.00000000000E+00 -0.00000000000E+00  0.11368683772E-12  0.17120000000E+03  0.17120000000E+03 0.  0.
         13    1    1    2    0    0  0.12193377643E+02 -0.51125645623E+01  0.77135246843E+02  0.78260298008E+02  0.10566000000E+00 0. -1.
        994    1    1    2    0    0 -0.11703826096E+02  0.10426574673E+02  0.18967820610E+01  0.17192652729E+03  0.17120000000E+03 0.  0.
        998    1    1    2    0    0 -0.48955154756E+00 -0.53140101109E+01  0.14209679674E+04  0.14210131747E+04  0.10000000000E+02 0. -1.
</event>
<event>
 5    1  0.1321379E-008  0.3773684E+03  0.7957747E-01  0.3462698E+00
         13   -1    0    0    0    0  0.00000000000E+00  0.00000000000E+00  0.14999999963E+04  0.15000000000E+04  0.10566000000E+00 0.  1.
        994   -1    0    0    0    0 -0.00000000000E+00 -0.00000000000E+00  0.11368683772E-12  0.17120000000E+03  0.17120000000E+03 0.  0.
         13    1    1    2    0    0  0.11183307368E+01  0.37444561859E+02  0.12810183618E+03  0.13346699020E+03  0.10566000000E+00 0.  1.
        994    1    1    2    0    0 -0.35439231273E+01 -0.19719755658E+02  0.68223689946E+01  0.17250337061E+03  0.17120000000E+03 0.  0.
        998    1    1    2    0    0  0.24255923905E+01 -0.17724806201E+02  0.13650757911E+04  0.13652296392E+04  0.10000000000E+02 0.  1.
</event>
<event>
 5    1  0.1321379E-008  0.3769709E+03  0.7957747E-01  0.3464455E+00
         13   -1    0    0    0    0  0.00000000000E+00  0.00000000000E+00  0.14999999963E+04  0.15000000000E+04  0.10566000000E+00 0. -1.
        994   -1    0    0    0    0 -0.00000000000E+00 -0.00000000000E+00  0.11368683772E-12  0.17120000000E+03  0.17120000000E+03 0.  0.
         13    1    1    2    0    0 -0.25457417953E+02  0.53809746849E+02  0.10962501087E+03  0.12474463178E+03  0.10566000000E+00 0. -1.
        994    1    1    2    0    0  0.25820952586E+02 -0.48608340532E+02  0.25611086660E+02  0.18164487365E+03  0.17120000000E+03 0.  0.
        998    1    1    2    0    0 -0.36353463250E+00 -0.52014063170E+01  0.13647638987E+04  0.13648104946E+04  0.10000000000E+02 0. -1.
</event>
<event>
 5    1  0.1321379E-008  0.3828619E+03  0.7957747E-01  0.3438791E+00
         13   -1    0    0    0    0  0.00000000000E+00  0.00000000000E+00  0.14999999963E+04  0.15000000000E+04  0.10566000000E+00 0. -1.
        994   -1    0    0    0    0 -0.00000000000E+00 -0.00000000000E+00  0.11368683772E-12  0.17120000000E+03  0.17120000000E+03 0.  0.
         13    1    1    2    0    0  0.47284064956E+01  0.15619950479E+02  0.46918344090E+02  0.49675777369E+02  0.10566000000E+00 0. -1.
        994    1    1    2    0    0 -0.55195768432E+01 -0.17958743450E+02  0.38652214274E+01  0.17227118776E+03  0.17120000000E+03 0.  0.
        998    1    1    2    0    0  0.79117034753E+00  0.23387929710E+01  0.14492164308E+04  0.14492530349E+04  0.10000000000E+02 0. -1.
</event>
<event>
 5    1  0.1321379E-008  0.3728849E+03  0.7957747E-01  0.3482737E+00
         13   -1    0    0    0    0  0.00000000000E+00  0.00000000000E+00  0.14999999963E+04  0.15000000000E+04  0.10566000000E+00 0.  1.
        994   -1    0    0    0    0 -0.00000000000E+00 -0.00000000000E+00  0.11368683772E-12  0.17120000000E+03  0.17120000000E+03 0.  0.
         13    1    1    2    0    0  0.26802790675E+02  0.24019833819E+02  0.52773769271E+02  0.63878195746E+02  0.10566000000E+00 0.  1.
        994    1    1    2    0    0  0.22545884921E+02  0.77063272042E+00  0.14271755306E+02  0.17326867519E+03  0.17120000000E+03 0.  0.
        998    1    1    2    0    0 -0.49348675597E+02 -0.24790466540E+02  0.14329544717E+04  0.14340531291E+04  0.10000000000E+02 0.  1.
</event>
<event>
 5    1  0.1321379E-008  0.3743779E+03  0.7957747E-01  0.3476010E+00
         13   -1    0    0    0    0  0.00000000000E+00  0.00000000000E+00  0.14999999963E+04  0.15000000000E+04  0.10566000000E+00 0. -1.
        994   -1    0    0    0    0 -0.00000000000E+00 -0.00000000000E+00  0.11368683772E-12  0.17120000000E+03  0.17120000000E+03 0.  0.
         13    1    1    2    0    0  0.23351820027E+02 -0.25749933148E+02  0.81534514152E+02  0.88635516119E+02  0.10566000000E+00 0. -1.
        994    1    1    2    0    0 -0.10833159635E+02  0.29289519293E+02  0.10327705158E+02  0.17433110675E+03  0.17120000000E+03 0.  0.
        998    1    1    2    0    0 -0.12518660392E+02 -0.35395861450E+01  0.14081377770E+04  0.14082333771E+04  0.10000000000E+02 0. -1.
</event>
<event>
 5    1  0.1321379E-008  0.3851532E+03  0.7957747E-01  0.3429023E+00
         13   -1    0    0    0    0  0.00000000000E+00  0.00000000000E+00  0.14999999963E+04  0.15000000000E+04  0.10566000000E+00 0.  1.
        994   -1    0    0    0    0 -0.00000000000E+00 -0.00000000000E+00  0.11368683772E-12  0.17120000000E+03  0.17120000000E+03 0.  0.
         13    1    1    2    0    0  0.97949079055E+01  0.15335738382E+02  0.10645234375E+03  0.10799647099E+03  0.10566000000E+00 0.  1.
        994    1    1    2    0    0 -0.92466025766E+01 -0.81989353817E+01  0.20562359749E+01  0.17165777089E+03  0.17120000000E+03 0.  0.
        998    1    1    2    0    0 -0.54830532888E+00 -0.71368030003E+01  0.13914914166E+04  0.13915457581E+04  0.10000000000E+02 0.  1.
</event>
<event>
 5    1  0.1321379E-008  0.3786192E+03  0.7957747E-01  0.3457193E+00
         13   -1    0    0    0    0  0.00000000000E+00  0.00000000000E+00  0.14999999963E+04  0.15000000000E+04  0.10566000000E+00 0. -1.
        994   -1    0    0    0    0 -0.00000000000E+00 -0.00000000000E+00  0.11368683772E-12  0.17120000000E+03  0.17120000000E+03 0.  0.
         13    1    1    2    0    0 -0.29201083807E+02  0.62831493581E+01  0.76047822800E+02  0.81703511418E+02  0.10566000000E+00 0. -1.
        994    1    1    2    0    0  0.53812672146E+02 -0.36461581684E+02  0.19154765163E+02  0.18412385954E+03  0.17120000000E+03 0.  0.
        998    1    1    2    0    0 -0.24611588339E+02  0.30178432326E+02  0.14047974083E+04  0.14053726290E+04  0.10000000000E+02 0. -1.
</event>
<event>
 5    1  0.1321379E-008  0.3820671E+03  0.7957747E-01  0.3442207E+00
         13   -1    0    0    0    0  0.00000000000E+00  0.00000000000E+00  0.14999999963E+04  0.15000000000E+04  0.10566000000E+00 0.  1.
        994   -1    0    0    0    0 -0.00000000000E+00 -0.00000000000E+00  0.11368683772E-12  0.17120000000E+03  0.17120000000E+03 0.  0.
         13    1    1    2    0    0  0.82463829235E+01 -0.12194842163E+02  0.33166153287E+02  0.36286662765E+02  0.10566000000E+00 0.  1.
        994    1    1    2    0    0 -0.12412400370E+02  0.11257836241E+02  0.40261873171E+01  0.17206526885E+03  0.17120000000E+03 0.  0.
        998    1    1    2    0    0  0.41660174463E+01  0.93700592261E+00  0.14628076557E+04  0.14628480684E+04  0.10000000000E+02 0.  1.
</event>
<event>
 5    1  0.1321379E-008  0.3852579E+03  0.7957747E-01  0.3428579E+00
         13   -1    0    0    0    0  0.00000000000E+00  0.00000000000E+00  0.14999999963E+04  0.15000000000E+04  0.10566000000E+00 0.  1.
        994   -1    0    0    0    0 -0.00000000000E+00 -0.00000000000E+00  0.11368683772E-12  0.17120000000E+03  0.17120000000E+03 0.  0.
         13    1    1    2    0    0  0.90167100975E+01 -0.54286675946E+01  0.37185868310E+02  0.38646752241E+02  0.10566000000E+00 0.  1.
        994    1    1    2    0    0 -0.62689721879E+01 -0.27282253993E+00  0.16315310393E+01  0.17132272569E+03  0.17120000000E+03 0.  0.
        998    1    1    2    0    0 -0.27477379096E+01  0.57014901345E+01  0.14611825969E+04  0.14612305221E+04  0.10000000000E+02 0.  1.
</event>
<event>
 5    1  0.1321379E-008  0.3838786E+03  0.7957747E-01  0.3434442E+00
         13   -1    0    0    0    0  0.00000000000E+00  0.00000000000E+00  0.14999999963E+04  0.15000000000E+04  0.10566000000E+00 0. -1.
        994   -1    0    0    0    0 -0.00000000000E+00 -0.00000000000E+00  0.11368683772E-12  0.17120000000E+03  0.17120000000E+03 0.  0.
         13    1    1    2    0    0  0.15839129386E+02 -0.13160159674E+02  0.98273586362E+02  0.10040805129E+03  0.10566000000E+00 0. -1.
        994    1    1    2    0    0 -0.10922922140E+02  0.28248467304E+01  0.26081851232E+01  0.17159117873E+03  0.17120000000E+03 0.  0.
        998    1    1    2    0    0 -0.49162072457E+01  0.10335312944E+02  0.13991182248E+04  0.13992007700E+04  0.10000000000E+02 0. -1.
</event>
<event>
 5    1  0.1321379E-008  0.3837710E+03  0.7957747E-01  0.3434901E+00
         13   -1    0    0    0    0  0.00000000000E+00  0.00000000000E+00  0.14999999963E+04  0.15000000000E+04  0.10566000000E+00 0. -1.
        994   -1    0    0    0    0 -0.00000000000E+00 -0.00000000000E+00  0.11368683772E-12  0.17120000000E+03  0.17120000000E+03 0.  0.
         13    1    1    2    0    0  0.18156971440E+01  0.13568057590E+02  0.46376306559E+02  0.48354543913E+02  0.10566000000E+00 0. -1.
        994    1    1    2    0    0 -0.59031937648E+01  0.16576452464E+02  0.32645556047E+01  0.17213286669E+03  0.17120000000E+03 0.  0.
        998    1    1    2    0    0  0.40874966208E+01 -0.30144510054E+02  0.14503591341E+04  0.14507125894E+04  0.10000000000E+02 0. -1.
</event>
<event>
 5    1  0.1321379E-008  0.3696697E+03  0.7957747E-01  0.3497410E+00
         13   -1    0    0    0    0  0.00000000000E+00  0.00000000000E+00  0.14999999963E+04  0.15000000000E+04  0.10566000000E+00 0.  1.
        994   -1    0    0    0    0 -0.00000000000E+00 -0.00000000000E+00  0.11368683772E-12  0.17120000000E+03  0.17120000000E+03 0.  0.
         13    1    1    2    0    0 -0.18529366187E+02 -0.46732797815E+02  0.12131990530E+03  0.13132335051E+03  0.10566000000E+00 0.  1.
        994    1    1    2    0    0  0.27910402567E+01  0.51763856943E+02  0.18802348247E+02  0.17986176662E+03  0.17120000000E+03 0.  0.
        998    1    1    2    0    0  0.15738325930E+02 -0.50310591280E+01  0.13598777427E+04  0.13600148829E+04  0.10000000000E+02 0.  1.
</event>
<event>
 5    1  0.1321379E-008  0.3817866E+03  0.7957747E-01  0.3443416E+00
         13   -1    0    0    0    0  0.00000000000E+00  0.00000000000E+00  0.14999999963E+04  0.15000000000E+04  0.10566000000E+00 0.  1.
        994   -1    0    0    0    0 -0.00000000000E+00 -0.00000000000E+00  0.11368683772E-12  0.17120000000E+03  0.17120000000E+03 0.  0.
         13    1    1    2    0    0 -0.30304608106E+02 -0.19476476786E+02  0.21714515835E+03  0.22011300138E+03  0.10566000000E+00 0.  1.
        994    1    1    2    0    0  0.14763313069E+02 -0.18299211776E+01  0.39697753704E+01  0.17189096294E+03  0.17120000000E+03 0.  0.
        998    1    1    2    0    0  0.15541295037E+02  0.21306397964E+02  0.12788850626E+04  0.12791960357E+04  0.10000000000E+02 0.  1.
</event>
<event>
 5    1  0.1321379E-008  0.3817873E+03  0.7957747E-01  0.3443413E+00
         13   -1    0    0    0    0  0.00000000000E+00  0.00000000000E+00  0.14999999963E+04  0.15000000000E+04  0.10566000000E+00 0. -1.
        994   -1    0    0    0    0 -0.00000000000E+00 -0.00000000000E+00  0.11368683772E-12  0.17120000000E+03  0.17120000000E+03 0.  0.
         13    1    1    2    0    0 -0.29093005832E+03  0.12290953602E+03  0.84351561614E+03  0.90070286927E+03  0.10566000000E+00 0. -1.
        994    1    1    2    0    0  0.29429629965E+03 -0.14042694483E+03  0.54903742586E+03  0.66112145164E+03  0.17120000000E+03 0.  0.
        998    1    1    2    0    0 -0.33662413264E+01  0.17517408810E+02  0.10744695428E+03  0.10937567909E+03  0.10000000000E+02 0.  1.
</event>
<event>
 5    1  0.1321379E-008  0.3785132E+03  0.7957747E-01  0.3457658E+00
         13   -1    0    0    0    0  0.00000000000E+00  0.00000000000E+00  0.14999999963E+04  0.15000000000E+04  0.10566000000E+00 0. -1.
        994   -1    0    0    0    0 -0.00000000000E+00 -0.00000000000E+00  0.11368683772E-12  0.17120000000E+03  0.17120000000E+03 0.  0.
         13    1    1    2    0    0 -0.40972024089E+02  0.64265348621E+02  0.30658966339E+03  0.31592083606E+03  0.10566000000E+00 0. -1.
        994    1    1    2    0    0  0.68139092833E+02  0.82841132526E+02  0.58245145431E+02  0.21025585884E+03  0.17120000000E+03 0.  0.
        998    1    1    2    0    0 -0.27167068745E+02 -0.14710648115E+03  0.11351651875E+04  0.11450233051E+04  0.10000000000E+02 0. -1.
</event>
<event>
 5    1  0.1321379E-008  0.3827619E+03  0.7957747E-01  0.3439220E+00
         13   -1    0    0    0    0  0.00000000000E+00  0.00000000000E+00  0.14999999963E+04  0.15000000000E+04  0.10566000000E+00 0. -1.
        994   -1    0    0    0    0 -0.00000000000E+00 -0.00000000000E+00  0.11368683772E-12  0.17120000000E+03  0.17120000000E+03 0.  0.
         13    1    1    2    0    0  0.75876053097E+01 -0.10254627256E+02  0.27845971474E+02  0.30629045461E+02  0.10566000000E+00 0. -1.
        994    1    1    2    0    0 -0.75570734768E+01  0.15804931883E+02  0.37627418342E+01  0.17213513139E+03  0.17120000000E+03 0.  0.
        998    1    1    2    0    0 -0.30531832848E-01 -0.55503046271E+01  0.14683912830E+04  0.14684358232E+04  0.10000000000E+02 0. -1.
</event>
<event>
 5    1  0.1321379E-008  0.3843127E+03  0.7957747E-01  0.3432592E+00
         13   -1    0    0    0    0  0.00000000000E+00  0.00000000000E+00  0.14999999963E+04  0.15000000000E+04  0.10566000000E+00 0. -1.
        994   -1    0    0    0    0 -0.00000000000E+00 -0.00000000000E+00  0.11368683772E-12  0.17120000000E+03  0.17120000000E+03 0.  0.
         13    1    1    2    0    0 -0.14775452183E+01 -0.20559749458E+02  0.10308409425E+03  0.10512482147E+03  0.10566000000E+00 0. -1.
        994    1    1    2    0    0  0.13491748017E+02  0.17951858251E+02  0.36356659207E+01  0.17270481912E+03  0.17120000000E+03 0.  0.
        998    1    1    2    0    0 -0.12014202799E+02  0.26078912073E+01  0.13932802361E+04  0.13933703594E+04  0.10000000000E+02 0. -1.
</event>
<event>
 5    1  0.1321379E-008  0.3856700E+03  0.7957747E-01  0.3426835E+00
         13   -1    0    0    0    0  0.00000000000E+00  0.00000000000E+00  0.14999999963E+04  0.15000000000E+04  0.10566000000E+00 0. -1.
        994   -1    0    0    0    0 -0.00000000000E+00 -0.00000000000E+00  0.11368683772E-12  0.17120000000E+03  0.17120000000E+03 0.  0.
         13    1    1    2    0    0 -0.11231447951E+02 -0.87428682337E+01  0.82318049573E+02  0.83539545232E+02  0.10566000000E+00 0. -1.
        994    1    1    2    0    0  0.63031345624E+00  0.49920427537E+01  0.13809278879E+01  0.17127949307E+03  0.17120000000E+03 0.  0.
        998    1    1    2    0    0  0.10601134495E+02  0.37508254800E+01  0.14163010188E+04  0.14163809617E+04  0.10000000000E+02 0. -1.
</event>
<event>
 5    1  0.1321379E-008  0.3731909E+03  0.7957747E-01  0.3481353E+00
         13   -1    0    0    0    0  0.00000000000E+00  0.00000000000E+00  0.14999999963E+04  0.15000000000E+04  0.10566000000E+00 0.  1.
        994   -1    0    0    0    0 -0.00000000000E+00 -0.00000000000E+00  0.11368683772E-12  0.17120000000E+03  0.17120000000E+03 0.  0.
         13    1    1    2    0    0  0.10608858242E+02  0.15618223531E+02  0.19767249554E+02  0.27335546426E+02  0.10566000000E+00 0.  1.
        994    1    1    2    0    0 -0.12417153353E+02 -0.17636976823E+02  0.92034851348E+01  0.17279870598E+03  0.17120000000E+03 0.  0.
        998    1    1    2    0    0  0.18082951114E+01  0.20187532915E+01  0.14710292616E+04  0.14710657476E+04  0.10000000000E+02 0.  1.
</event>
<event>
 5    1  0.1321379E-008  0.3817706E+03  0.7957747E-01  0.3443485E+00
         13   -1    0    0    0    0  0.00000000000E+00  0.00000000000E+00  0.14999999963E+04  0.15000000000E+04  0.10566000000E+00 0. -1.
        994   -1    0    0    0    0 -0.00000000000E+00 -0.00000000000E+00  0.11368683772E-12  0.17120000000E+03  0.17120000000E+03 0.  0.
         13    1    1    2    0    0 -0.26895042090E+01  0.26718560881E+02  0.11460920602E+03  0.11771319466E+03  0.10566000000E+00 0. -1.
        994    1    1    2    0    0  0.70903488628E+00 -0.98497062262E+01  0.35661980367E+01  0.17152165231E+03  0.17120000000E+03 0.  0.
        998    1    1    2    0    0  0.19804693227E+01 -0.16868854655E+02  0.13818245922E+04  0.13819651530E+04  0.10000000000E+02 0. -1.
</event>
<event>
 5    1  0.1321379E-008  0.3855259E+03  0.7957747E-01  0.3427445E+00
         13   -1    0    0    0    0  0.00000000000E+00  0.00000000000E+00  0.14999999963E+04  0.15000000000E+04  0.10566000000E+00 0. -1.
        994   -1    0    0    0    0 -0.00000000000E+00 -0.00000000000E+00  0.11368683772E-12  0.17120000000E+03  0.17120000000E+03 0.  0.
         13    1    1    2    0    0 -0.11487490549E+01 -0.99354376364E+01  0.38076427761E+02  0.39368236695E+02  0.10566000000E+00 0. -1.
        994    1    1    2    0    0 -0.46849376868E+01  0.44308102137E-01  0.14413442028E+01  0.17127016108E+03  0.17120000000E+03 0.  0.
        998    1    1    2    0    0  0.58336867417E+01  0.98911295343E+01  0.14604822243E+04  0.14605616022E+04  0.10000000000E+02 0. -1.
</event>
<event>
 5    1  0.1321379E-008  0.3826051E+03  0.7957747E-01  0.3439893E+00
         13   -1    0    0    0    0  0.00000000000E+00  0.00000000000E+00  0.14999999963E+04  0.15000000000E+04  0.10566000000E+00 0. -1.
        994   -1    0    0    0    0 -0.00000000000E+00 -0.00000000000E+00  0.11368683772E-12  0.17120000000E+03  0.17120000000E+03 0.  0.
         13    1    1    2    0    0  0.50649807633E+01  0.13427816632E+02  0.36089903453E+02  0.38838802568E+02  0.10566000000E+00 0. -1.
        994    1    1    2    0    0 -0.20148418025E+01 -0.50206535113E+01  0.29208460960E+01  0.17131035547E+03  0.17120000000E+03 0.  0.
        998    1    1    2    0    0 -0.30501389608E+01 -0.84071631210E+01  0.14609892467E+04  0.14610508420E+04  0.10000000000E+02 0. -1.
</event>
<event>
 5    1  0.1321379E-008  0.3715693E+03  0.7957747E-01  0.3488710E+00
         13   -1    0    0    0    0  0.00000000000E+00  0.00000000000E+00  0.14999999963E+04  0.15000000000E+04  0.10566000000E+00 0.  1.
        994   -1    0    0    0    0 -0.00000000000E+00 -0.00000000000E+00  0.11368683772E-12  0.17120000000E+03  0.17120000000E+03 0.  0.
         13    1    1    2    0    0 -0.17901077173E+02  0.60076313020E+01  0.17174727944E+02  0.25524941563E+02  0.10566000000E+00 0.  1.
        994    1    1    2    0    0  0.18372018782E+02 -0.83074949974E+01  0.98504908379E+01  0.17266446570E+03  0.17120000000E+03 0.  0.
        998    1    1    2    0    0 -0.47094160901E+00  0.22998636954E+01  0.14729747775E+04  0.14730105927E+04  0.10000000000E+02 0.  1.
</event>
<event>
 5    1  0.1321379E-008  0.3804259E+03  0.7957747E-01  0.3449306E+00
         13   -1    0    0    0    0  0.00000000000E+00  0.00000000000E+00  0.14999999963E+04  0.15000000000E+04  0.10566000000E+00 0. -1.
        994   -1    0    0    0    0 -0.00000000000E+00 -0.00000000000E+00  0.11368683772E-12  0.17120000000E+03  0.17120000000E+03 0.  0.
         13    1    1    2    0    0  0.13672415747E+01 -0.13287746354E+02  0.20585409974E+02  0.24539841494E+02  0.10566000000E+00 0. -1.
        994    1    1    2    0    0 -0.31308239877E+01  0.19009649601E+02  0.51583183032E+01  0.17235781701E+03  0.17120000000E+03 0.  0.
        998    1    1    2    0    0  0.17635824130E+01 -0.57219032462E+01  0.14742562680E+04  0.14743023415E+04  0.10000000000E+02 0. -1.
</event>
<event>
 5    1  0.1321379E-008  0.3845553E+03  0.7957747E-01  0.3431561E+00
         13   -1    0    0    0    0  0.00000000000E+00  0.00000000000E+00  0.14999999963E+04  0.15000000000E+04  0.10566000000E+00 0. -1.
        994   -1    0    0    0    0 -0.00000000000E+00 -0.00000000000E+00  0.11368683772E-12  0.17120000000E+03  0.17120000000E+03 0.  0.
         13    1    1    2    0    0 -0.16225203553E+02  0.86489110238E+01  0.87833109216E+02  0.89736988644E+02  0.10566000000E+00 0. -1.
        994    1    1    2    0    0  0.14393844217E+02 -0.93775920498E+01  0.28236617246E+01  0.17208293073E+03  0.17120000000E+03 0.  0.
        998    1    1    2    0    0  0.18313593364E+01  0.72868102603E+00  0.14093432253E+04  0.14093800806E+04  0.10000000000E+02 0. -1.
</event>
<event>
 5    1  0.1321379E-008  0.3801350E+03  0.7957747E-01  0.3450571E+00
         13   -1    0    0    0    0  0.00000000000E+00  0.00000000000E+00  0.14999999963E+04  0.15000000000E+04  0.10566000000E+00 0.  1.
        994   -1    0    0    0    0 -0.00000000000E+00 -0.00000000000E+00  0.11368683772E-12  0.17120000000E+03  0.17120000000E+03 0.  0.
         13    1    1    2    0    0 -0.36046769717E+02 -0.25220718643E+02  0.21162040395E+03  0.21614499945E+03  0.10566000000E+00 0.  1.
        994    1    1    2    0    0  0.24254015159E+02  0.35950635418E+02  0.10374960480E+02  0.17691180075E+03  0.17120000000E+03 0.  0.
        998    1    1    2    0    0  0.11792754557E+02 -0.10729916774E+02  0.12780046319E+04  0.12781431998E+04  0.10000000000E+02 0.  1.
</event>
<event>
 5    1  0.1321379E-008  0.3838668E+03  0.7957747E-01  0.3434492E+00
         13   -1    0    0    0    0  0.00000000000E+00  0.00000000000E+00  0.14999999963E+04  0.15000000000E+04  0.10566000000E+00 0. -1.
        994   -1    0    0    0    0 -0.00000000000E+00 -0.00000000000E+00  0.11368683772E-12  0.17120000000E+03  0.17120000000E+03 0.  0.
         13    1    1    2    0    0  0.17958545084E+02 -0.52005452254E+01  0.79728091139E+02  0.81890992746E+02  0.10566000000E+00 0. -1.
        994    1    1    2    0    0 -0.11431581709E+02 -0.32599297515E+00  0.26255988466E+01  0.17160163490E+03  0.17120000000E+03 0.  0.
        998    1    1    2    0    0 -0.65269633750E+01  0.55265382006E+01  0.14176463063E+04  0.14177073724E+04  0.10000000000E+02 0. -1.
</event>
<event>
 5    1  0.1321379E-008  0.3815319E+03  0.7957747E-01  0.3444515E+00
         13   -1    0    0    0    0  0.00000000000E+00  0.00000000000E+00  0.14999999963E+04  0.15000000000E+04  0.10566000000E+00 0.  1.
        994   -1    0    0    0    0 -0.00000000000E+00 -0.00000000000E+00  0.11368683772E-12  0.17120000000E+03  0.17120000000E+03 0.  0.
         13    1    1    2    0    0 -0.82899972340E+01  0.17053241983E+02  0.51294486150E+02  0.54687042247E+02  0.10566000000E+00 0.  1.
        994    1    1    2    0    0  0.61687333027E+01 -0.15999771509E+02  0.43404871927E+01  0.17211137611E+03  0.17120000000E+03 0.  0.
        998    1    1    2    0    0  0.21212639313E+01 -0.10534704738E+01  0.14443650229E+04  0.14444015816E+04  0.10000000000E+02 0.  1.
</event>
<event>
 5    1  0.1321379E-008  0.3762649E+03  0.7957747E-01  0.3467585E+00
         13   -1    0    0    0    0  0.00000000000E+00  0.00000000000E+00  0.14999999963E+04  0.15000000000E+04  0.10566000000E+00 0.  1.
        994   -1    0    0    0    0 -0.00000000000E+00 -0.00000000000E+00  0.11368683772E-12  0.17120000000E+03  0.17120000000E+03 0.  0.
         13    1    1    2    0    0  0.10262811276E+02  0.16400780314E+02  0.66953082454E+01  0.20473133779E+02  0.10566000000E+00 0.  1.
        994    1    1    2    0    0 -0.10552456659E+02 -0.14484080694E+02  0.15439297206E+02  0.17282637193E+03  0.17120000000E+03 0.  0.
        998    1    1    2    0    0  0.28964538337E+00 -0.19166996196E+01  0.14778653908E+04  0.14779004943E+04  0.10000000000E+02 0.  1.
</event>
<event>
 5    1  0.1321379E-008  0.3757221E+03  0.7957747E-01  0.3469999E+00
         13   -1    0    0    0    0  0.00000000000E+00  0.00000000000E+00  0.14999999963E+04  0.15000000000E+04  0.10566000000E+00 0.  1.
        994   -1    0    0    0    0 -0.00000000000E+00 -0.00000000000E+00  0.11368683772E-12  0.17120000000E+03  0.17120000000E+03 0.  0.
         13    1    1    2    0    0  0.95306696613E+02  0.16516525031E+02  0.34667531168E+03  0.35991658049E+03  0.10566000000E+00 0.  1.
        994    1    1    2    0    0 -0.43342109831E+02 -0.42329860873E+02  0.27209968891E+02  0.18363054760E+03  0.17120000000E+03 0.  0.
        998    1    1    2    0    0 -0.51964586782E+02  0.25813335842E+02  0.11261147157E+04  0.11276528719E+04  0.10000000000E+02 0.  1.
</event>
<event>
 5    1  0.1321379E-008  0.3712905E+03  0.7957747E-01  0.3489981E+00
         13   -1    0    0    0    0  0.00000000000E+00  0.00000000000E+00  0.14999999963E+04  0.15000000000E+04  0.10566000000E+00 0.  1.
        994   -1    0    0    0    0 -0.00000000000E+00 -0.00000000000E+00  0.11368683772E-12  0.17120000000E+03  0.17120000000E+03 0.  0.
         13    1    1    2    0    0 -0.45561674687E+02 -0.91241122964E+01  0.11331503283E+03  0.12247213338E+03  0.10566000000E+00 0.  1.
        994    1    1    2    0    0  0.45244125676E+02  0.18200309968E+02  0.16827771848E+02  0.17880407181E+03  0.17120000000E+03 0.  0.
        998    1    1    2    0    0  0.31754901039E+00 -0.90761976717E+01  0.13698571916E+04  0.13699237948E+04  0.10000000000E+02 0.  1.
</event>
<event>
 5    1  0.1321379E-008  0.3819119E+03  0.7957747E-01  0.3442876E+00
         13   -1    0    0    0    0  0.00000000000E+00  0.00000000000E+00  0.14999999963E+04  0.15000000000E+04  0.10566000000E+00 0. -1.
        994   -1    0    0    0    0 -0.00000000000E+00 -0.00000000000E+00  0.11368683772E-12  0.17120000000E+03  0.17120000000E+03 0.  0.
         13    1    1    2    0    0 -0.14363951963E+02 -0.21782218187E+02  0.99938873582E+02  0.10328880753E+03  0.10566000000E+00 0. -1.
        994    1    1    2    0    0  0.14888784141E+02  0.22242785973E+02  0.55546760237E+01  0.17336871646E+03  0.17120000000E+03 0.  0.
        998    1    1    2    0    0 -0.52483217741E+00 -0.46056778585E+00  0.13945064467E+04  0.13945424760E+04  0.10000000000E+02 0. -1.
</event>
<event>
 5    1  0.1321379E-008  0.3825471E+03  0.7957747E-01  0.3440142E+00
         13   -1    0    0    0    0  0.00000000000E+00  0.00000000000E+00  0.14999999963E+04  0.15000000000E+04  0.10566000000E+00 0. -1.
        994   -1    0    0    0    0 -0.00000000000E+00 -0.00000000000E+00  0.11368683772E-12  0.17120000000E+03  0.17120000000E+03 0.  0.
         13    1    1    2    0    0 -0.89086138636E+01 -0.26026885265E+02  0.14964182853E+03  0.15214943367E+03  0.10566000000E+00 0. -1.
        994    1    1    2    0    0 -0.55415229179E+01  0.17657231126E+01  0.29649992815E+01  0.17132442171E+03  0.17120000000E+03 0.  0.
        998    1    1    2    0    0  0.14450136781E+02  0.24261162153E+02  0.13473931685E+04  0.13477261446E+04  0.10000000000E+02 0. -1.
</event>
<event>
 5    1  0.1321379E-008  0.3825963E+03  0.7957747E-01  0.3439931E+00
         13   -1    0    0    0    0  0.00000000000E+00  0.00000000000E+00  0.14999999963E+04  0.15000000000E+04  0.10566000000E+00 0.  1.
        994   -1    0    0    0    0 -0.00000000000E+00 -0.00000000000E+00  0.11368683772E-12  0.17120000000E+03  0.17120000000E+03 0.  0.
         13    1    1    2    0    0 -0.78384582190E+01  0.10303171480E+02  0.29250847704E+02  0.31987810572E+02  0.10566000000E+00 0.  1.
        994    1    1    2    0    0  0.48862020726E+01  0.40686259776E+00  0.29079445024E+01  0.17129488215E+03  0.17120000000E+03 0.  0.
        998    1    1    2    0    0  0.29522561463E+01 -0.10710034078E+02  0.14678412041E+04  0.14679173073E+04  0.10000000000E+02 0.  1.
</event>
<event>
 5    1  0.1321379E-008  0.3838118E+03  0.7957747E-01  0.3434727E+00
         13   -1    0    0    0    0  0.00000000000E+00  0.00000000000E+00  0.14999999963E+04  0.15000000000E+04  0.10566000000E+00 0. -1.
        994   -1    0    0    0    0 -0.00000000000E+00 -0.00000000000E+00  0.11368683772E-12  0.17120000000E+03  0.17120000000E+03 0.  0.
         13    1    1    2    0    0 -0.95393346350E+01 -0.81898633693E+01  0.34118109059E+02  0.36361095928E+02  0.10566000000E+00 0. -1.
        994    1    1    2    0    0  0.12865643078E+02  0.73684293503E+01  0.29472389804E+01  0.17186606629E+03  0.17120000000E+03 0.  0.
        998    1    1    2    0    0 -0.33263084433E+01  0.82143401898E+00  0.14629346482E+04  0.14629728378E+04  0.10000000000E+02 0. -1.
</event>
<event>
 5    1  0.1321379E-008  0.3858321E+03  0.7957747E-01  0.3426151E+00
         13   -1    0    0    0    0  0.00000000000E+00  0.00000000000E+00  0.14999999963E+04  0.15000000000E+04  0.10566000000E+00 0. -1.
        994   -1    0    0    0    0 -0.00000000000E+00 -0.00000000000E+00  0.11368683772E-12  0.17120000000E+03  0.17120000000E+03 0.  0.
         13    1    1    2    0    0 -0.11184492486E+02  0.47015022324E+01  0.58994409030E+02  0.60229132952E+02  0.10566000000E+00 0. -1.
        994    1    1    2    0    0  0.13603723970E+02 -0.11472867628E+01  0.18290879727E+01  0.17175320415E+03  0.17120000000E+03 0.  0.
        998    1    1    2    0    0 -0.24192314839E+01 -0.35542154696E+01  0.14391764993E+04  0.14392176629E+04  0.10000000000E+02 0. -1.
</event>
<event>
 5    1  0.1321379E-008  0.3831451E+03  0.7957747E-01  0.3437577E+00
         13   -1    0    0    0    0  0.00000000000E+00  0.00000000000E+00  0.14999999963E+04  0.15000000000E+04  0.10566000000E+00 0.  1.
        994   -1    0    0    0    0 -0.00000000000E+00 -0.00000000000E+00  0.11368683772E-12  0.17120000000E+03  0.17120000000E+03 0.  0.
         13    1    1    2    0    0 -0.73102973855E+01 -0.79282723899E+01  0.21260601899E+02  0.23839511490E+02  0.10566000000E+00 0.  1.
        994    1    1    2    0    0  0.26511868912E+02 -0.26366452288E+01  0.49059110095E+01  0.17333014468E+03  0.17120000000E+03 0.  0.
        998    1    1    2    0    0 -0.19201571527E+02  0.10564917619E+02  0.14738334834E+04  0.14740303438E+04  0.10000000000E+02 0.  1.
</event>
<event>
 5    1  0.1321379E-008  0.3810328E+03  0.7957747E-01  0.3446674E+00
         13   -1    0    0    0    0  0.00000000000E+00  0.00000000000E+00  0.14999999963E+04  0.15000000000E+04  0.10566000000E+00 0. -1.
        994   -1    0    0    0    0 -0.00000000000E+00 -0.00000000000E+00  0.11368683772E-12  0.17120000000E+03  0.17120000000E+03 0.  0.
         13    1    1    2    0    0  0.31378663055E+01  0.23878291813E+02  0.81649099563E+02  0.85126997176E+02  0.10566000000E+00 0. -1.
        994    1    1    2    0    0  0.37403733743E+01 -0.90726189466E+01  0.39335908071E+01  0.17152613779E+03  0.17120000000E+03 0.  0.
        998    1    1    2    0    0 -0.68782396797E+01 -0.14805672866E+02  0.14144173059E+04  0.14145468650E+04  0.10000000000E+02 0. -1.
</event>
<event>
 5    1  0.1321379E-008  0.3843912E+03  0.7957747E-01  0.3432258E+00
         13   -1    0    0    0    0  0.00000000000E+00  0.00000000000E+00  0.14999999963E+04  0.15000000000E+04  0.10566000000E+00 0.  1.
        994   -1    0    0    0    0 -0.00000000000E+00 -0.00000000000E+00  0.11368683772E-12  0.17120000000E+03  0.17120000000E+03 0.  0.
         13    1    1    2    0    0  0.61741858859E+01  0.22184328973E+02  0.12924168526E+03  0.13127714727E+03  0.10566000000E+00 0.  1.
        994    1    1    2    0    0 -0.22357200057E+01 -0.21379411297E+02  0.34568076196E+01  0.17257887238E+03  0.17120000000E+03 0.  0.
        998    1    1    2    0    0 -0.39384658802E+01 -0.80491767604E+00  0.13673015034E+04  0.13673439804E+04  0.10000000000E+02 0.  1.
</event>
<event>
 5    1  0.2662013E-008  0.3863930E+03  0.7957747E-01  0.3423786E+00
         13   -1    0    0    0    0  0.00000000000E+00  0.00000000000E+00  0.14999999963E+04  0.15000000000E+04  0.10566000000E+00 0. -1.
        994   -1    0    0    0    0 -0.00000000000E+00 -0.00000000000E+00  0.11368683772E-12  0.17120000000E+03  0.17120000000E+03 0.  0.
         13    1    1    2    0    0 -0.10762561595E+02  0.70951646265E+00  0.61870539580E+02  0.62803749710E+02  0.10566000000E+00 0. -1.
        994    1    1    2    0    0  0.93047472019E+01 -0.54892572819E+01  0.13223121211E+01  0.17154561718E+03  0.17120000000E+03 0.  0.
        998    1    1    2    0    0  0.14578143932E+01  0.47797408193E+01  0.14368071446E+04  0.14368506331E+04  0.10000000000E+02 0. -1.
</event>
<event>
 5    1  0.1321379E-008  0.3834280E+03  0.7957747E-01  0.3436367E+00
         13   -1    0    0    0    0  0.00000000000E+00  0.00000000000E+00  0.14999999963E+04  0.15000000000E+04  0.10566000000E+00 0.  1.
        994   -1    0    0    0    0 -0.00000000000E+00 -0.00000000000E+00  0.11368683772E-12  0.17120000000E+03  0.17120000000E+03 0.  0.
         13    1    1    2    0    0 -0.18136564557E+02 -0.12279372309E+02  0.10477589507E+03  0.10704072734E+03  0.10566000000E+00 0.  1.
        994    1    1    2    0    0  0.14542669589E+01  0.67313406658E+01  0.25694098304E+01  0.17135771855E+03  0.17120000000E+03 0.  0.
        998    1    1    2    0    0  0.16682297599E+02  0.55480316435E+01  0.13926546914E+04  0.13928015541E+04  0.10000000000E+02 0.  1.
</event>
<event>
 5    1  0.1321379E-008  0.3841675E+03  0.7957747E-01  0.3433211E+00
         13   -1    0    0    0    0  0.00000000000E+00  0.00000000000E+00  0.14999999963E+04  0.15000000000E+04  0.10566000000E+00 0. -1.
        994   -1    0    0    0    0 -0.00000000000E+00 -0.00000000000E+00  0.11368683772E-12  0.17120000000E+03  0.17120000000E+03 0.  0.
         13    1    1    2    0    0 -0.12425866713E+02  0.19922767973E+02  0.12769427365E+03  0.12983511672E+03  0.10566000000E+00 0. -1.
        994    1    1    2    0    0  0.15299910056E+02 -0.15157436652E+02  0.35750545780E+01  0.17258637301E+03  0.17120000000E+03 0.  0.
        998    1    1    2    0    0 -0.28740433434E+01 -0.47653313205E+01  0.13687306681E+04  0.13687785103E+04  0.10000000000E+02 0. -1.
</event>
<event>
 5    1  0.1411389E-008  0.3858166E+03  0.7957747E-01  0.3426216E+00
         13   -1    0    0    0    0  0.00000000000E+00  0.00000000000E+00  0.14999999963E+04  0.15000000000E+04  0.10566000000E+00 0. -1.
        994   -1    0    0    0    0 -0.00000000000E+00 -0.00000000000E+00  0.11368683772E-12  0.17120000000E+03  0.17120000000E+03 0.  0.
         13    1    1    2    0    0  0.11240723993E+02  0.60159999728E+01  0.67152491503E+02  0.68352135377E+02  0.10566000000E+00 0. -1.
        994    1    1    2    0    0 -0.66560457658E+01 -0.45368302830E+01  0.14381080061E+01  0.17139543147E+03  0.17120000000E+03 0.  0.
        998    1    1    2    0    0 -0.45846782268E+01 -0.14791696898E+01  0.14314093968E+04  0.14314524332E+04  0.10000000000E+02 0. -1.
</event>
<event>
 5    1  0.1321379E-008  0.3794965E+03  0.7957747E-01  0.3453354E+00
         13   -1    0    0    0    0  0.00000000000E+00  0.00000000000E+00  0.14999999963E+04  0.15000000000E+04  0.10566000000E+00 0.  1.
        994   -1    0    0    0    0 -0.00000000000E+00 -0.00000000000E+00  0.11368683772E-12  0.17120000000E+03  0.17120000000E+03 0.  0.
         13    1    1    2    0    0 -0.13075980811E+02  0.29641688430E+02  0.11228469218E+03  0.11686519682E+03  0.10566000000E+00 0.  1.
        994    1    1    2    0    0  0.15146894019E+02 -0.25054799455E+02  0.72630694865E+01  0.17383717540E+03  0.17120000000E+03 0.  0.
        998    1    1    2    0    0 -0.20709132081E+01 -0.45868889750E+01  0.13804522346E+04  0.13804976278E+04  0.10000000000E+02 0.  1.
</event>
<event>
 5    1  0.1321379E-008  0.2756054E+03  0.7957747E-01  0.4087199E+00
         13   -1    0    0    0    0  0.00000000000E+00  0.00000000000E+00  0.14999999963E+04  0.15000000000E+04  0.10566000000E+00 0.  1.
        994   -1    0    0    0    0 -0.00000000000E+00 -0.00000000000E+00  0.11368683772E-12  0.17120000000E+03  0.17120000000E+03 0.  0.
         13    1    1    2    0    0  0.19519549125E+03 -0.36695702982E+02  0.48416803448E+03  0.52332260719E+03  0.10566000000E+00 0.  1.
        994    1    1    2    0    0 -0.15533622303E+03  0.42994248322E+02  0.14540807124E+03  0.27646119937E+03  0.17120000000E+03 0.  0.
        998    1    1    2    0    0 -0.39859268225E+02 -0.62985453402E+01  0.87042389056E+03  0.87141619345E+03  0.10000000000E+02 0.  1.
</event>
<event>
 5    1  0.1321379E-008  0.3858667E+03  0.7957747E-01  0.3426005E+00
         13   -1    0    0    0    0  0.00000000000E+00  0.00000000000E+00  0.14999999963E+04  0.15000000000E+04  0.10566000000E+00 0. -1.
        994   -1    0    0    0    0 -0.00000000000E+00 -0.00000000000E+00  0.11368683772E-12  0.17120000000E+03  0.17120000000E+03 0.  0.
         13    1    1    2    0    0  0.22360927295E+01 -0.13030961891E+02  0.73593468024E+02  0.74771757893E+02  0.10566000000E+00 0. -1.
        994    1    1    2    0    0 -0.23619988151E+01  0.82971597708E+01  0.14445451033E+01  0.17142330241E+03  0.17120000000E+03 0.  0.
        998    1    1    2    0    0  0.12590608556E+00  0.47338021204E+01  0.14249619832E+04  0.14250049397E+04  0.10000000000E+02 0. -1.
</event>
<event>
 5    1  0.1321379E-008  0.3691783E+03  0.7957747E-01  0.3499676E+00
         13   -1    0    0    0    0  0.00000000000E+00  0.00000000000E+00  0.14999999963E+04  0.15000000000E+04  0.10566000000E+00 0.  1.
        994   -1    0    0    0    0 -0.00000000000E+00 -0.00000000000E+00  0.11368683772E-12  0.17120000000E+03  0.17120000000E+03 0.  0.
         13    1    1    2    0    0 -0.42841189167E+01 -0.96755955098E+01  0.14219180785E+01  0.10677258001E+02  0.10566000000E+00 0.  1.
        994    1    1    2    0    0 -0.22006013248E+02 -0.69269475801E+01  0.11546952203E+02  0.17313295275E+03  0.17120000000E+03 0.  0.
        998    1    1    2    0    0  0.26290132164E+02  0.16602543090E+02  0.14870311260E+04  0.14873897893E+04  0.10000000000E+02 0.  1.
</event>
<event>
 5    1  0.1321379E-008  0.3734201E+03  0.7957747E-01  0.3480319E+00
         13   -1    0    0    0    0  0.00000000000E+00  0.00000000000E+00  0.14999999963E+04  0.15000000000E+04  0.10566000000E+00 0. -1.
        994   -1    0    0    0    0 -0.00000000000E+00 -0.00000000000E+00  0.11368683772E-12  0.17120000000E+03  0.17120000000E+03 0.  0.
         13    1    1    2    0    0 -0.38796086197E+02 -0.24009113017E+02  0.14029810331E+03  0.14753014189E+03  0.10566000000E+00 0. -1.
        994    1    1    2    0    0  0.37130817440E+02 -0.18074903959E+02  0.13342777672E+02  0.17661503184E+03  0.17120000000E+03 0.  0.
        998    1    1    2    0    0  0.16652687570E+01  0.42084016977E+02  0.13463591153E+04  0.13470548263E+04  0.10000000000E+02 0. -1.
</event>
<event>
 5    1  0.1321379E-008  0.3805278E+03  0.7957747E-01  0.3448863E+00
         13   -1    0    0    0    0  0.00000000000E+00  0.00000000000E+00  0.14999999963E+04  0.15000000000E+04  0.10566000000E+00 0.  1.
        994   -1    0    0    0    0 -0.00000000000E+00 -0.00000000000E+00  0.11368683772E-12  0.17120000000E+03  0.17120000000E+03 0.  0.
         13    1    1    2    0    0  0.18561995046E+02 -0.45017941253E+01  0.36845936768E+02  0.41502385844E+02  0.10566000000E+00 0.  1.
        994    1    1    2    0    0 -0.70628838013E+02  0.28637057802E+02  0.23500119422E+02  0.18886558567E+03  0.17120000000E+03 0.  0.
        998    1    1    2    0    0  0.52066842967E+02 -0.24135263677E+02  0.14396539401E+04  0.14408320285E+04  0.10000000000E+02 0.  1.
</event>
<event>
 5    1  0.1321379E-008  0.3850027E+03  0.7957747E-01  0.3429661E+00
         13   -1    0    0    0    0  0.00000000000E+00  0.00000000000E+00  0.14999999963E+04  0.15000000000E+04  0.10566000000E+00 0.  1.
        994   -1    0    0    0    0 -0.00000000000E+00 -0.00000000000E+00  0.11368683772E-12  0.17120000000E+03  0.17120000000E+03 0.  0.
         13    1    1    2    0    0  0.50241213633E+01  0.14011073961E+02  0.66444098576E+02  0.68090978761E+02  0.10566000000E+00 0.  1.
        994    1    1    2    0    0 -0.31092794787E+01 -0.13231203126E+02  0.22365392437E+01  0.17175323712E+03  0.17120000000E+03 0.  0.
        998    1    1    2    0    0 -0.19148418847E+01 -0.77987083508E+00  0.14313193585E+04  0.14313557841E+04  0.10000000000E+02 0.  1.
</event>
<event>
 5    1  0.1321379E-008  0.3810866E+03  0.7957747E-01  0.3446441E+00
         13   -1    0    0    0    0  0.00000000000E+00  0.00000000000E+00  0.14999999963E+04  0.15000000000E+04  0.10566000000E+00 0.  1.
        994   -1    0    0    0    0 -0.00000000000E+00 -0.00000000000E+00  0.11368683772E-12  0.17120000000E+03  0.17120000000E+03 0.  0.
         13    1    1    2    0    0 -0.14594827281E+02 -0.16433314874E+02  0.65732800889E+02  0.69309992771E+02  0.10566000000E+00 0.  1.
        994    1    1    2    0    0  0.27704850836E+02 -0.37751639610E+01  0.61941951134E+01  0.17357885435E+03  0.17120000000E+03 0.  0.
        998    1    1    2    0    0 -0.13110023555E+02  0.20208478835E+02  0.14280730003E+04  0.14283111529E+04  0.10000000000E+02 0.  1.
</event>
<event>
 5    1  0.1321379E-008  0.4077950E+03  0.7957747E-01  0.3338398E+00
         13   -1    0    0    0    0  0.00000000000E+00  0.00000000000E+00  0.14999999963E+04  0.15000000000E+04  0.10566000000E+00 0.  1.
        994   -1    0    0    0    0 -0.00000000000E+00 -0.00000000000E+00  0.11368683772E-12  0.17120000000E+03  0.17120000000E+03 0.  0.
         13    1    1    2    0    0 -0.67931506191E+02  0.15411952380E+02  0.69032033011E+02  0.98069620960E+02  0.10566000000E+00 0.  1.
        994    1    1    2    0    0  0.22627927407E+02 -0.17976383905E+02  0.35907403300E+02  0.17729623541E+03  0.17120000000E+03 0.  0.
        998    1    1    2    0    0  0.45303578784E+02  0.25644315251E+01  0.13950605600E+04  0.13958341436E+04  0.10000000000E+02 0.  1.
</event>
<event>
 5    1  0.1321379E-008  0.3810063E+03  0.7957747E-01  0.3446789E+00
         13   -1    0    0    0    0  0.00000000000E+00  0.00000000000E+00  0.14999999963E+04  0.15000000000E+04  0.10566000000E+00 0. -1.
        994   -1    0    0    0    0 -0.00000000000E+00 -0.00000000000E+00  0.11368683772E-12  0.17120000000E+03  0.17120000000E+03 0.  0.
         13    1    1    2    0    0  0.24797015371E+02 -0.56160807019E+01  0.92599154825E+02  0.96026282716E+02  0.10566000000E+00 0. -1.
        994    1    1    2    0    0 -0.40829449260E+01  0.86468373044E+01  0.39307629414E+01  0.17151189210E+03  0.17120000000E+03 0.  0.
        998    1    1    2    0    0 -0.20714070445E+02 -0.30307566025E+01  0.14034700785E+04  0.14036618252E+04  0.10000000000E+02 0. -1.
</event>
<event>
 5    1  0.1321379E-008  0.3733203E+03  0.7957747E-01  0.3480769E+00
         13   -1    0    0    0    0  0.00000000000E+00  0.00000000000E+00  0.14999999963E+04  0.15000000000E+04  0.10566000000E+00 0.  1.
        994   -1    0    0    0    0 -0.00000000000E+00 -0.00000000000E+00  0.11368683772E-12  0.17120000000E+03  0.17120000000E+03 0.  0.
         13    1    1    2    0    0  0.43536126142E+02 -0.36540108161E+02  0.26127687920E+03  0.26738771952E+03  0.10566000000E+00 0.  1.
        994    1    1    2    0    0 -0.70040352015E+01 -0.53240758995E+01  0.78084597438E+01  0.17160365479E+03  0.17120000000E+03 0.  0.
        998    1    1    2    0    0 -0.36532090940E+02  0.41864184061E+02  0.12309146573E+04  0.12322086257E+04  0.10000000000E+02 0.  1.
</event>
<event>
 5    1  0.1321379E-008  0.3597144E+03  0.7957747E-01  0.3544539E+00
         13   -1    0    0    0    0  0.00000000000E+00  0.00000000000E+00  0.14999999963E+04  0.15000000000E+04  0.10566000000E+00 0. -1.
        994   -1    0    0    0    0 -0.00000000000E+00 -0.00000000000E+00  0.11368683772E-12  0.17120000000E+03  0.17120000000E+03 0.  0.
         13    1    1    2    0    0  0.12208658497E+03 -0.17622102436E+03  0.11298178141E+04  0.11499770815E+04  0.10566000000E+00 0. -1.
        994    1    1    2    0    0 -0.14752911261E+03  0.13977425017E+03  0.16893059743E+03  0.31487881292E+03  0.17120000000E+03 0.  0.
        998    1    1    2    0    0  0.25442527648E+02  0.36446774188E+02  0.20125158475E+03  0.20634410562E+03  0.10000000000E+02 0.  1.
</event>
<event>
 5    1  0.1321379E-008  0.3731935E+03  0.7957747E-01  0.3481342E+00
         13   -1    0    0    0    0  0.00000000000E+00  0.00000000000E+00  0.14999999963E+04  0.15000000000E+04  0.10566000000E+00 0. -1.
        994   -1    0    0    0    0 -0.00000000000E+00 -0.00000000000E+00  0.11368683772E-12  0.17120000000E+03  0.17120000000E+03 0.  0.
         13    1    1    2    0    0 -0.28120591929E+02  0.37684868256E+02  0.12463788150E+03  0.13321234798E+03  0.10566000000E+00 0. -1.
        994    1    1    2    0    0  0.18400149594E+02 -0.59900707631E+02  0.21160076887E+02  0.18353160255E+03  0.17120000000E+03 0.  0.
        998    1    1    2    0    0  0.97204423346E+01  0.22215839375E+02  0.13542020379E+04  0.13544560495E+04  0.10000000000E+02 0. -1.
</event>
<event>
 5    1  0.1321379E-008  0.3779881E+03  0.7957747E-01  0.3459966E+00
         13   -1    0    0    0    0  0.00000000000E+00  0.00000000000E+00  0.14999999963E+04  0.15000000000E+04  0.10566000000E+00 0.  1.
        994   -1    0    0    0    0 -0.00000000000E+00 -0.00000000000E+00  0.11368683772E-12  0.17120000000E+03  0.17120000000E+03 0.  0.
         13    1    1    2    0    0 -0.12138738624E+03 -0.28932400375E+02  0.32494268451E+03  0.34808007801E+03  0.10566000000E+00 0.  1.
        994    1    1    2    0    0  0.15091418610E+03  0.18991267582E+02  0.10392302425E+03  0.25148597332E+03  0.17120000000E+03 0.  0.
        998    1    1    2    0    0 -0.29526799855E+02  0.99411327928E+01  0.10711342875E+04  0.10716339487E+04  0.10000000000E+02 0.  1.
</event>
<event>
 5    1  0.1321379E-008  0.3857263E+03  0.7957747E-01  0.3426598E+00
         13   -1    0    0    0    0  0.00000000000E+00  0.00000000000E+00  0.14999999963E+04  0.15000000000E+04  0.10566000000E+00 0. -1.
        994   -1    0    0    0    0 -0.00000000000E+00 -0.00000000000E+00  0.11368683772E-12  0.17120000000E+03  0.17120000000E+03 0.  0.
         13    1    1    2    0    0 -0.11491414549E+02 -0.30494070974E+00  0.53440732221E+02  0.54663229154E+02  0.10566000000E+00 0. -1.
        994    1    1    2    0    0  0.48568303157E+01 -0.33716610338E+01  0.13846554167E+01  0.17130765940E+03  0.17120000000E+03 0.  0.
        998    1    1    2    0    0  0.66345842328E+01  0.36766017435E+01  0.14451746086E+04  0.14452291114E+04  0.10000000000E+02 0. -1.
</event>
<event>
 5    1  0.1321379E-008  0.3777601E+03  0.7957747E-01  0.3460970E+00
         13   -1    0    0    0    0  0.00000000000E+00  0.00000000000E+00  0.14999999963E+04  0.15000000000E+04  0.10566000000E+00 0. -1.
        994   -1    0    0    0    0 -0.00000000000E+00 -0.00000000000E+00  0.11368683772E-12  0.17120000000E+03  0.17120000000E+03 0.  0.
         13    1    1    2    0    0  0.16599058130E+02 -0.88238785431E+01  0.31604779689E+02  0.36773126418E+02  0.10566000000E+00 0. -1.
        994    1    1    2    0    0 -0.71546653917E+01  0.90486083502E+01  0.57164164249E+01  0.17168338291E+03  0.17120000000E+03 0.  0.
        998    1    1    2    0    0 -0.94443927382E+01 -0.22472980710E+00  0.14626788002E+04  0.14627434907E+04  0.10000000000E+02 0. -1.
</event>
<event>
 5    1  0.1321379E-008  0.3856337E+03  0.7957747E-01  0.3426989E+00
         13   -1    0    0    0    0  0.00000000000E+00  0.00000000000E+00  0.14999999963E+04  0.15000000000E+04  0.10566000000E+00 0. -1.
        994   -1    0    0    0    0 -0.00000000000E+00 -0.00000000000E+00  0.11368683772E-12  0.17120000000E+03  0.17120000000E+03 0.  0.
         13    1    1    2    0    0  0.81291373746E+01  0.15478535571E+02  0.95277797597E+02  0.96868662718E+02  0.10566000000E+00 0. -1.
        994    1    1    2    0    0 -0.25313682491E+02 -0.27697916244E+02  0.59502980754E+01  0.17536477164E+03  0.17120000000E+03 0.  0.
        998    1    1    2    0    0  0.17184545117E+02  0.12219380673E+02  0.13987719006E+04  0.13989665656E+04  0.10000000000E+02 0. -1.
</event>
<event>
 5    1  0.1321379E-008  0.3825016E+03  0.7957747E-01  0.3440338E+00
         13   -1    0    0    0    0  0.00000000000E+00  0.00000000000E+00  0.14999999963E+04  0.15000000000E+04  0.10566000000E+00 0.  1.
        994   -1    0    0    0    0 -0.00000000000E+00 -0.00000000000E+00  0.11368683772E-12  0.17120000000E+03  0.17120000000E+03 0.  0.
         13    1    1    2    0    0  0.16836897733E+02  0.13709518321E+02  0.74627414892E+02  0.77721903189E+02  0.10566000000E+00 0.  1.
        994    1    1    2    0    0 -0.23319454834E+02 -0.18454799256E+02  0.58133352962E+01  0.17386089686E+03  0.17120000000E+03 0.  0.
        998    1    1    2    0    0  0.64825571012E+01  0.47452809344E+01  0.14195592461E+04  0.14196172000E+04  0.10000000000E+02 0.  1.
</event>
<event>
 5    1  0.1321379E-008  0.3756252E+03  0.7957747E-01  0.3470431E+00
         13   -1    0    0    0    0  0.00000000000E+00  0.00000000000E+00  0.14999999963E+04  0.15000000000E+04  0.10566000000E+00 0.  1.
        994   -1    0    0    0    0 -0.00000000000E+00 -0.00000000000E+00  0.11368683772E-12  0.17120000000E+03  0.17120000000E+03 0.  0.
         13    1    1    2    0    0 -0.46327112615E+02  0.61692312014E+01  0.16045567746E+03  0.16712359609E+03  0.10566000000E+00 0.  1.
        994    1    1    2    0    0  0.41102207420E+02  0.19184299558E+02  0.13369040415E+02  0.17761081061E+03  0.17120000000E+03 0.  0.
        998    1    1    2    0    0  0.52249051945E+01 -0.25353530759E+02  0.13261752784E+04  0.13264655933E+04  0.10000000000E+02 0.  1.
</event>
<event>
 5    1  0.1321379E-008  0.4028770E+03  0.7957747E-01  0.3357220E+00
         13   -1    0    0    0    0  0.00000000000E+00  0.00000000000E+00  0.14999999963E+04  0.15000000000E+04  0.10566000000E+00 0. -1.
        994   -1    0    0    0    0 -0.00000000000E+00 -0.00000000000E+00  0.11368683772E-12  0.17120000000E+03  0.17120000000E+03 0.  0.
         13    1    1    2    0    0 -0.51787971521E+02  0.82708533802E+02  0.13857663140E+03  0.16948802168E+03  0.10566000000E+00 0. -1.
        994    1    1    2    0    0  0.68190265632E+02 -0.71992038327E+02  0.69641811333E+02  0.20974314719E+03  0.17120000000E+03 0.  0.
        998    1    1    2    0    0 -0.16402294111E+02 -0.10716495475E+02  0.12917815535E+04  0.12919688311E+04  0.10000000000E+02 0. -1.
</event>
<event>
 5    1  0.1321379E-008  0.3833352E+03  0.7957747E-01  0.3436764E+00
         13   -1    0    0    0    0  0.00000000000E+00  0.00000000000E+00  0.14999999963E+04  0.15000000000E+04  0.10566000000E+00 0.  1.
        994   -1    0    0    0    0 -0.00000000000E+00 -0.00000000000E+00  0.11368683772E-12  0.17120000000E+03  0.17120000000E+03 0.  0.
         13    1    1    2    0    0  0.12337563044E+02 -0.70833404455E+01  0.39891367879E+02  0.42352350218E+02  0.10566000000E+00 0.  1.
        994    1    1    2    0    0 -0.11763663935E+02  0.50522229817E+01  0.30010882947E+01  0.17170426692E+03  0.17120000000E+03 0.  0.
        998    1    1    2    0    0 -0.57389910858E+00  0.20311174638E+01  0.14571075401E+04  0.14571433829E+04  0.10000000000E+02 0.  1.
</event>
<event>
 5    1  0.1321379E-008  0.3769975E+03  0.7957747E-01  0.3464337E+00
         13   -1    0    0    0    0  0.00000000000E+00  0.00000000000E+00  0.14999999963E+04  0.15000000000E+04  0.10566000000E+00 0.  1.
        994   -1    0    0    0    0 -0.00000000000E+00 -0.00000000000E+00  0.11368683772E-12  0.17120000000E+03  0.17120000000E+03 0.  0.
         13    1    1    2    0    0 -0.60880972455E+02  0.59358196856E+02  0.27934782836E+03  0.29200189847E+03  0.10566000000E+00 0.  1.
        994    1    1    2    0    0  0.76462392441E+01 -0.26113549543E+02  0.17345766959E+02  0.17421451741E+03  0.17120000000E+03 0.  0.
        998    1    1    2    0    0  0.53234733211E+02 -0.33244647313E+02  0.12033064010E+04  0.12049835841E+04  0.10000000000E+02 0.  1.
</event>
<event>
 5    1  0.1321379E-008  0.3687623E+03  0.7957747E-01  0.3501599E+00
         13   -1    0    0    0    0  0.00000000000E+00  0.00000000000E+00  0.14999999963E+04  0.15000000000E+04  0.10566000000E+00 0. -1.
        994   -1    0    0    0    0 -0.00000000000E+00 -0.00000000000E+00  0.11368683772E-12  0.17120000000E+03  0.17120000000E+03 0.  0.
         13    1    1    2    0    0  0.19988450934E+02 -0.45010732713E+02  0.11185059479E+03  0.12221321921E+03  0.10566000000E+00 0. -1.
        994    1    1    2    0    0 -0.20078028547E+02  0.41911662262E+02  0.17454736069E+02  0.17825213175E+03  0.17120000000E+03 0.  0.
        998    1    1    2    0    0  0.89577612925E-01  0.30990704512E+01  0.13706946654E+04  0.13707346490E+04  0.10000000000E+02 0. -1.
</event>
<event>
 5    1  0.1321379E-008  0.3783423E+03  0.7957747E-01  0.3458409E+00
         13   -1    0    0    0    0  0.00000000000E+00  0.00000000000E+00  0.14999999963E+04  0.15000000000E+04  0.10566000000E+00 0.  1.
        994   -1    0    0    0    0 -0.00000000000E+00 -0.00000000000E+00  0.11368683772E-12  0.17120000000E+03  0.17120000000E+03 0.  0.
         13    1    1    2    0    0 -0.16326504888E+02 -0.19870868942E+02  0.87282819115E+02  0.90992900114E+02  0.10566000000E+00 0.  1.
        994    1    1    2    0    0 -0.45852792330E+02 -0.24910309849E+02  0.14180377033E+02  0.17953697445E+03  0.17120000000E+03 0.  0.
        998    1    1    2    0    0  0.62179297218E+02  0.44781178791E+02  0.13985368001E+04  0.14006701254E+04  0.10000000000E+02 0.  1.
</event>
<event>
 5    1  0.1321379E-008  0.3960382E+03  0.7957747E-01  0.3384166E+00
         13   -1    0    0    0    0  0.00000000000E+00  0.00000000000E+00  0.14999999963E+04  0.15000000000E+04  0.10566000000E+00 0.  1.
        994   -1    0    0    0    0 -0.00000000000E+00 -0.00000000000E+00  0.11368683772E-12  0.17120000000E+03  0.17120000000E+03 0.  0.
         13    1    1    2    0    0 -0.51134535323E+02 -0.10849564506E+02  0.43635394795E+02  0.68091942222E+02  0.10566000000E+00 0.  1.
        994    1    1    2    0    0  0.46068054218E+02  0.17213784810E+02  0.34807673269E+02  0.18149268339E+03  0.17120000000E+03 0.  0.
        998    1    1    2    0    0  0.50664811049E+01 -0.63642203041E+01  0.14215569282E+04  0.14216153744E+04  0.10000000000E+02 0.  1.
</event>
<event>
 5    1  0.1321379E-008  0.3848354E+03  0.7957747E-01  0.3430371E+00
         13   -1    0    0    0    0  0.00000000000E+00  0.00000000000E+00  0.14999999963E+04  0.15000000000E+04  0.10566000000E+00 0.  1.
        994   -1    0    0    0    0 -0.00000000000E+00 -0.00000000000E+00  0.11368683772E-12  0.17120000000E+03  0.17120000000E+03 0.  0.
         13    1    1    2    0    0 -0.88534437922E+01 -0.67446005372E+01  0.35204120143E+02  0.36921732658E+02  0.10566000000E+00 0.  1.
        994    1    1    2    0    0  0.86631235250E+01  0.84701314345E+01  0.21950424304E+01  0.17164221814E+03  0.17120000000E+03 0.  0.
        998    1    1    2    0    0  0.19032026719E+00 -0.17255308973E+01  0.14626008337E+04  0.14626360492E+04  0.10000000000E+02 0.  1.
</event>
<event>
 5    1  0.1321379E-008  0.3738474E+03  0.7957747E-01  0.3478394E+00
         13   -1    0    0    0    0  0.00000000000E+00  0.00000000000E+00  0.14999999963E+04  0.15000000000E+04  0.10566000000E+00 0. -1.
        994   -1    0    0    0    0 -0.00000000000E+00 -0.00000000000E+00  0.11368683772E-12  0.17120000000E+03  0.17120000000E+03 0.  0.
         13    1    1    2    0    0 -0.18661763419E+02 -0.18071340569E+01  0.21369356087E+02  0.28428642089E+02  0.10566000000E+00 0. -1.
        994    1    1    2    0    0  0.62958893522E+01  0.11266282075E+02  0.78403856714E+01  0.17186471128E+03  0.17120000000E+03 0.  0.
        998    1    1    2    0    0  0.12365874067E+02 -0.94591480181E+01  0.14707902545E+04  0.14709066466E+04  0.10000000000E+02 0. -1.
</event>
<event>
 5    1  0.1321379E-008  0.3826800E+03  0.7957747E-01  0.3439571E+00
         13   -1    0    0    0    0  0.00000000000E+00  0.00000000000E+00  0.14999999963E+04  0.15000000000E+04  0.10566000000E+00 0.  1.
        994   -1    0    0    0    0 -0.00000000000E+00 -0.00000000000E+00  0.11368683772E-12  0.17120000000E+03  0.17120000000E+03 0.  0.
         13    1    1    2    0    0  0.82601170402E+01 -0.75360010416E+01  0.21384416868E+02  0.24131417158E+02  0.10566000000E+00 0.  1.
        994    1    1    2    0    0 -0.66802227233E+01  0.43297404126E+01  0.29963825548E+01  0.17141117331E+03  0.17120000000E+03 0.  0.
        998    1    1    2    0    0 -0.15798943169E+01  0.32062606290E+01  0.14756191969E+04  0.14756574095E+04  0.10000000000E+02 0.  1.
</event>
<event>
 5    1  0.1321379E-008  0.3703469E+03  0.7957747E-01  0.3494298E+00
         13   -1    0    0    0    0  0.00000000000E+00  0.00000000000E+00  0.14999999963E+04  0.15000000000E+04  0.10566000000E+00 0.  1.
        994   -1    0    0    0    0 -0.00000000000E+00 -0.00000000000E+00  0.11368683772E-12  0.17120000000E+03  0.17120000000E+03 0.  0.
         13    1    1    2    0    0  0.57786509858E+02  0.66844749741E+02  0.32054015387E+03  0.33249586869E+03  0.10566000000E+00 0.  1.
        994    1    1    2    0    0 -0.56774458489E+02 -0.74693791165E+02  0.40132213991E+02  0.19930513334E+03  0.17120000000E+03 0.  0.
        998    1    1    2    0    0 -0.10120513688E+01  0.78490414238E+01  0.11393276284E+04  0.11393989980E+04  0.10000000000E+02 0.  1.
</event>
<event>
 5    1  0.1321379E-008  0.3845731E+03  0.7957747E-01  0.3431485E+00
         13   -1    0    0    0    0  0.00000000000E+00  0.00000000000E+00  0.14999999963E+04  0.15000000000E+04  0.10566000000E+00 0.  1.
        994   -1    0    0    0    0 -0.00000000000E+00 -0.00000000000E+00  0.11368683772E-12  0.17120000000E+03  0.17120000000E+03 0.  0.
         13    1    1    2    0    0  0.13296207237E+02  0.95840894304E+01  0.72606083815E+02  0.74433181231E+02  0.10566000000E+00 0.  1.
        994    1    1    2    0    0 -0.74301670007E+01 -0.83927930274E+01  0.22561470172E+01  0.17158139921E+03  0.17120000000E+03 0.  0.
        998    1    1    2    0    0 -0.58660402367E+01 -0.11912964029E+01  0.14251377654E+04  0.14251854196E+04  0.10000000000E+02 0.  1.
</event>
<event>
 5    1  0.1321379E-008  0.3859630E+03  0.7957747E-01  0.3425598E+00
         13   -1    0    0    0    0  0.00000000000E+00  0.00000000000E+00  0.14999999963E+04  0.15000000000E+04  0.10566000000E+00 0. -1.
        994   -1    0    0    0    0 -0.00000000000E+00 -0.00000000000E+00  0.11368683772E-12  0.17120000000E+03  0.17120000000E+03 0.  0.
         13    1    1    2    0    0  0.92313408929E+01 -0.47271272343E+01  0.48515746308E+02  0.49612016593E+02  0.10566000000E+00 0. -1.
        994    1    1    2    0    0  0.64473820714E+00  0.72124517443E+01  0.13246952623E+01  0.17135819200E+03  0.17120000000E+03 0.  0.
        998    1    1    2    0    0 -0.98760791000E+01 -0.24853245100E+01  0.14501595547E+04  0.14502297914E+04  0.10000000000E+02 0. -1.
</event>
<event>
 5    1  0.1321379E-008  0.3824554E+03  0.7957747E-01  0.3440536E+00
         13   -1    0    0    0    0  0.00000000000E+00  0.00000000000E+00  0.14999999963E+04  0.15000000000E+04  0.10566000000E+00 0.  1.
        994   -1    0    0    0    0 -0.00000000000E+00 -0.00000000000E+00  0.11368683772E-12  0.17120000000E+03  0.17120000000E+03 0.  0.
         13    1    1    2    0    0  0.11036879084E+02  0.49077246769E+01  0.25177792878E+02  0.27925452184E+02  0.10566000000E+00 0.  1.
        994    1    1    2    0    0  0.77691468331E+01 -0.45601857509E+01  0.31679449307E+01  0.17146612147E+03  0.17120000000E+03 0.  0.
        998    1    1    2    0    0 -0.18806025917E+02 -0.34753892605E+00  0.14716542585E+04  0.14718084263E+04  0.10000000000E+02 0.  1.
</event>
<event>
 5    1  0.1321379E-008  0.3798643E+03  0.7957747E-01  0.3451750E+00
         13   -1    0    0    0    0  0.00000000000E+00  0.00000000000E+00  0.14999999963E+04  0.15000000000E+04  0.10566000000E+00 0. -1.
        994   -1    0    0    0    0 -0.00000000000E+00 -0.00000000000E+00  0.11368683772E-12  0.17120000000E+03  0.17120000000E+03 0.  0.
         13    1    1    2    0    0  0.11061282809E+02 -0.34733394882E+02  0.15349238326E+03  0.15776147685E+03  0.10566000000E+00 0. -1.
        994    1    1    2    0    0 -0.43503458106E+01  0.24488174839E+02  0.62732730454E+01  0.17311091869E+03  0.17120000000E+03 0.  0.
        998    1    1    2    0    0 -0.67109369983E+01  0.10245220043E+02  0.13402343400E+04  0.13403276045E+04  0.10000000000E+02 0. -1.
</event>
<event>
 5    1  0.1321379E-008  0.3851884E+03  0.7957747E-01  0.3428874E+00
         13   -1    0    0    0    0  0.00000000000E+00  0.00000000000E+00  0.14999999963E+04  0.15000000000E+04  0.10566000000E+00 0. -1.
        994   -1    0    0    0    0 -0.00000000000E+00 -0.00000000000E+00  0.11368683772E-12  0.17120000000E+03  0.17120000000E+03 0.  0.
         13    1    1    2    0    0  0.18166399963E+02 -0.23292804537E+01  0.10231837180E+03  0.10394471611E+03  0.10566000000E+00 0. -1.
        994    1    1    2    0    0 -0.18229501990E+02  0.17199570176E+02  0.36038349801E+01  0.17306232283E+03  0.17120000000E+03 0.  0.
        998    1    1    2    0    0  0.63102027179E-01 -0.14870289722E+02  0.13940777895E+04  0.13941929611E+04  0.10000000000E+02 0. -1.
</event>
<event>
 5    1  0.1321379E-008  0.3782684E+03  0.7957747E-01  0.3458733E+00
         13   -1    0    0    0    0  0.00000000000E+00  0.00000000000E+00  0.14999999963E+04  0.15000000000E+04  0.10566000000E+00 0. -1.
        994   -1    0    0    0    0 -0.00000000000E+00 -0.00000000000E+00  0.11368683772E-12  0.17120000000E+03  0.17120000000E+03 0.  0.
         13    1    1    2    0    0 -0.51501433986E+02 -0.49282169423E+02  0.41720313505E+03  0.42324885940E+03  0.10566000000E+00 0. -1.
        994    1    1    2    0    0  0.37864291835E+02  0.46459270199E+02  0.17183770697E+02  0.18220013820E+03  0.17120000000E+03 0.  0.
        998    1    1    2    0    0  0.13637142151E+02  0.28228992238E+01  0.10656130905E+04  0.10657510024E+04  0.10000000000E+02 0. -1.
</event>
<event>
 5    1  0.1321379E-008  0.3792609E+03  0.7957747E-01  0.3454383E+00
         13   -1    0    0    0    0  0.00000000000E+00  0.00000000000E+00  0.14999999963E+04  0.15000000000E+04  0.10566000000E+00 0.  1.
        994   -1    0    0    0    0 -0.00000000000E+00 -0.00000000000E+00  0.11368683772E-12  0.17120000000E+03  0.17120000000E+03 0.  0.
         13    1    1    2    0    0 -0.24108709591E+02 -0.15628866785E+02  0.84642821556E+02  0.89386295147E+02  0.10566000000E+00 0.  1.
        994    1    1    2    0    0  0.24771871013E+02  0.19046596798E+02  0.77856950661E+01  0.17420239806E+03  0.17120000000E+03 0.  0.
        998    1    1    2    0    0 -0.66316142136E+00 -0.34177300129E+01  0.14075714797E+04  0.14076113068E+04  0.10000000000E+02 0.  1.
</event>
<event>
 5    1  0.1321379E-008  0.3805762E+03  0.7957747E-01  0.3448653E+00
         13   -1    0    0    0    0  0.00000000000E+00  0.00000000000E+00  0.14999999963E+04  0.15000000000E+04  0.10566000000E+00 0. -1.
        994   -1    0    0    0    0 -0.00000000000E+00 -0.00000000000E+00  0.11368683772E-12  0.17120000000E+03  0.17120000000E+03 0.  0.
         13    1    1    2    0    0  0.37829395662E+01 -0.33508601079E+02  0.13529276879E+03  0.13943199571E+03  0.10566000000E+00 0. -1.
        994    1    1    2    0    0  0.17082736850E+01  0.33595483052E+02  0.76273550598E+01  0.17464017644E+03  0.17120000000E+03 0.  0.
        998    1    1    2    0    0 -0.54912132512E+01 -0.86881973349E-01  0.13570798724E+04  0.13571278279E+04  0.10000000000E+02 0. -1.
</event>
<event>
 5    1  0.1321379E-008  0.3766675E+03  0.7957747E-01  0.3465798E+00
         13   -1    0    0    0    0  0.00000000000E+00  0.00000000000E+00  0.14999999963E+04  0.15000000000E+04  0.10566000000E+00 0. -1.
        994   -1    0    0    0    0 -0.00000000000E+00 -0.00000000000E+00  0.11368683772E-12  0.17120000000E+03  0.17120000000E+03 0.  0.
         13    1    1    2    0    0  0.28050641494E+02  0.45975488836E+02  0.31980432300E+03  0.32430757043E+03  0.10566000000E+00 0. -1.
        994    1    1    2    0    0 -0.70667048576E+01  0.28027891166E+01  0.60202843297E+01  0.17147442307E+03  0.17120000000E+03 0.  0.
        998    1    1    2    0    0 -0.20983936637E+02 -0.48778277953E+02  0.11741753889E+04  0.11754180065E+04  0.10000000000E+02 0. -1.
</event>
<event>
 5    1  0.1321379E-008  0.3684217E+03  0.7957747E-01  0.3503176E+00
         13   -1    0    0    0    0  0.00000000000E+00  0.00000000000E+00  0.14999999963E+04  0.15000000000E+04  0.10566000000E+00 0. -1.
        994   -1    0    0    0    0 -0.00000000000E+00 -0.00000000000E+00  0.11368683772E-12  0.17120000000E+03  0.17120000000E+03 0.  0.
         13    1    1    2    0    0  0.79862082301E+02 -0.25470790559E+02  0.31857779038E+03  0.32942151273E+03  0.10566000000E+00 0. -1.
        994    1    1    2    0    0 -0.58542437339E+02  0.15487370583E+02  0.22967019143E+02  0.18304097789E+03  0.17120000000E+03 0.  0.
        998    1    1    2    0    0 -0.21319644962E+02  0.99834199765E+01  0.11584551868E+04  0.11587375094E+04  0.10000000000E+02 0. -1.
</event>
<event>
 5    1  0.1321379E-008  0.3770774E+03  0.7957747E-01  0.3463984E+00
         13   -1    0    0    0    0  0.00000000000E+00  0.00000000000E+00  0.14999999963E+04  0.15000000000E+04  0.10566000000E+00 0.  1.
        994   -1    0    0    0    0 -0.00000000000E+00 -0.00000000000E+00  0.11368683772E-12  0.17120000000E+03  0.17120000000E+03 0.  0.
         13    1    1    2    0    0  0.23839594769E+02  0.20791094518E+02  0.85703966533E+02  0.91355223899E+02  0.10566000000E+00 0.  1.
        994    1    1    2    0    0 -0.20470050073E+02 -0.11977833512E+02  0.75167998599E+01  0.17299836336E+03  0.17120000000E+03 0.  0.
        998    1    1    2    0    0 -0.33695446958E+01 -0.88132610061E+01  0.14067792299E+04  0.14068464127E+04  0.10000000000E+02 0.  1.
</event>
<event>
 5    1  0.1321379E-008  0.3829579E+03  0.7957747E-01  0.3438379E+00
         13   -1    0    0    0    0  0.00000000000E+00  0.00000000000E+00  0.14999999963E+04  0.15000000000E+04  0.10566000000E+00 0.  1.
        994   -1    0    0    0    0 -0.00000000000E+00 -0.00000000000E+00  0.11368683772E-12  0.17120000000E+03  0.17120000000E+03 0.  0.
         13    1    1    2    0    0  0.11751883736E+02 -0.14890554450E+02  0.73074087776E+02  0.75496151237E+02  0.10566000000E+00 0.  1.
        994    1    1    2    0    0  0.57337444888E+01  0.40830469433E+00  0.27567856970E+01  0.17131865750E+03  0.17120000000E+03 0.  0.
        998    1    1    2    0    0 -0.17485628224E+02  0.14482249755E+02  0.14241691228E+04  0.14243851913E+04  0.10000000000E+02 0.  1.
</event>
<event>
 5    1  0.1321379E-008  0.3824721E+03  0.7957747E-01  0.3440464E+00
         13   -1    0    0    0    0  0.00000000000E+00  0.00000000000E+00  0.14999999963E+04  0.15000000000E+04  0.10566000000E+00 0. -1.
        994   -1    0    0    0    0 -0.00000000000E+00 -0.00000000000E+00  0.11368683772E-12  0.17120000000E+03  0.17120000000E+03 0.  0.
         13    1    1    2    0    0 -0.87630171326E+01 -0.12707900251E+02  0.40542392127E+02  0.43381769460E+02  0.10566000000E+00 0. -1.
        994    1    1    2    0    0  0.87382859487E+01  0.42703964457E+01  0.32041283201E+01  0.17150597764E+03  0.17120000000E+03 0.  0.
        998    1    1    2    0    0  0.24731183962E-01  0.84375038056E+01  0.14562534758E+04  0.14563122529E+04  0.10000000000E+02 0. -1.
</event>
<event>
 5    1  0.1321379E-008  0.3760843E+03  0.7957747E-01  0.3468387E+00
         13   -1    0    0    0    0  0.00000000000E+00  0.00000000000E+00  0.14999999963E+04  0.15000000000E+04  0.10566000000E+00 0. -1.
        994   -1    0    0    0    0 -0.00000000000E+00 -0.00000000000E+00  0.11368683772E-12  0.17120000000E+03  0.17120000000E+03 0.  0.
         13    1    1    2    0    0  0.14225006694E+02 -0.62883337907E+01  0.20919110313E+01  0.15693349327E+02  0.10566000000E+00 0. -1.
        994    1    1    2    0    0 -0.63650129833E+01  0.10734870627E+02  0.14749422605E+02  0.17228678506E+03  0.17120000000E+03 0.  0.
        998    1    1    2    0    0 -0.78599937102E+01 -0.44465368365E+01  0.14831586626E+04  0.14832198656E+04  0.10000000000E+02 0. -1.
</event>
<event>
 5    1  0.1321379E-008  0.3834526E+03  0.7957747E-01  0.3436262E+00
         13   -1    0    0    0    0  0.00000000000E+00  0.00000000000E+00  0.14999999963E+04  0.15000000000E+04  0.10566000000E+00 0. -1.
        994   -1    0    0    0    0 -0.00000000000E+00 -0.00000000000E+00  0.11368683772E-12  0.17120000000E+03  0.17120000000E+03 0.  0.
         13    1    1    2    0    0  0.23192529678E+02 -0.59301942456E+02  0.10562866615E+03  0.12333709940E+03  0.10566000000E+00 0. -1.
        994    1    1    2    0    0 -0.30542881761E+02  0.32659310353E+02  0.25611176646E+02  0.17878722143E+03  0.17120000000E+03 0.  0.
        998    1    1    2    0    0  0.73503520829E+01  0.26642632103E+02  0.13687601535E+04  0.13690756792E+04  0.10000000000E+02 0. -1.
</event>
<event>
 5    1  0.1321379E-008  0.3725083E+03  0.7957747E-01  0.3484442E+00
         13   -1    0    0    0    0  0.00000000000E+00  0.00000000000E+00  0.14999999963E+04  0.15000000000E+04  0.10566000000E+00 0.  1.
        994   -1    0    0    0    0 -0.00000000000E+00 -0.00000000000E+00  0.11368683772E-12  0.17120000000E+03  0.17120000000E+03 0.  0.
         13    1    1    2    0    0  0.43813849397E+00 -0.22888950091E+02  0.28870172424E+02  0.36845542762E+02  0.10566000000E+00 0.  1.
        994    1    1    2    0    0  0.85103902388E+01  0.25895404488E+02  0.10515104810E+02  0.17367500150E+03  0.17120000000E+03 0.  0.
        998    1    1    2    0    0 -0.89485287328E+01 -0.30064543968E+01  0.14606147190E+04  0.14606794557E+04  0.10000000000E+02 0.  1.
</event>
<event>
 5    1  0.1321379E-008  0.2945569E+03  0.7957747E-01  0.3935661E+00
         13   -1    0    0    0    0  0.00000000000E+00  0.00000000000E+00  0.14999999963E+04  0.15000000000E+04  0.10566000000E+00 0. -1.
        994   -1    0    0    0    0 -0.00000000000E+00 -0.00000000000E+00  0.11368683772E-12  0.17120000000E+03  0.17120000000E+03 0.  0.
         13    1    1    2    0    0  0.71702592132E+02 -0.12445942159E+03  0.75065127886E+03  0.76427008509E+03  0.10566000000E+00 0. -1.
        994    1    1    2    0    0  0.48473603963E+01  0.90055314250E+02  0.46490551375E+02  0.19900821062E+03  0.17120000000E+03 0.  0.
        998    1    1    2    0    0 -0.76549952528E+02  0.34404107336E+02  0.70285816604E+03  0.70792170429E+03  0.10000000000E+02 0. -1.
</event>
<event>
 5    1  0.1321379E-008  0.3838482E+03  0.7957747E-01  0.3434572E+00
         13   -1    0    0    0    0  0.00000000000E+00  0.00000000000E+00  0.14999999963E+04  0.15000000000E+04  0.10566000000E+00 0. -1.
        994   -1    0    0    0    0 -0.00000000000E+00 -0.00000000000E+00  0.11368683772E-12  0.17120000000E+03  0.17120000000E+03 0.  0.
         13    1    1    2    0    0  0.13426848155E+02  0.10646120659E+02  0.68082235479E+02  0.70205570208E+02  0.10566000000E+00 0. -1.
        994    1    1    2    0    0 -0.28823165129E+01 -0.61167706293E+01  0.23540225482E+01  0.17134965437E+03  0.17120000000E+03 0.  0.
        998    1    1    2    0    0 -0.10544531642E+02 -0.45293500294E+01  0.14295637383E+04  0.14296447754E+04  0.10000000000E+02 0. -1.
</event>
<event>
 5    1  0.1321379E-008  0.3764889E+03  0.7957747E-01  0.3466591E+00
         13   -1    0    0    0    0  0.00000000000E+00  0.00000000000E+00  0.14999999963E+04  0.15000000000E+04  0.10566000000E+00 0. -1.
        994   -1    0    0    0    0 -0.00000000000E+00 -0.00000000000E+00  0.11368683772E-12  0.17120000000E+03  0.17120000000E+03 0.  0.
         13    1    1    2    0    0 -0.64885100721E+01  0.27871709575E+02  0.64446335934E+02  0.70514355538E+02  0.10566000000E+00 0. -1.
        994    1    1    2    0    0 -0.45060702159E+01 -0.30699612117E+02  0.91793291323E+01  0.17423108487E+03  0.17120000000E+03 0.  0.
        998    1    1    2    0    0  0.10994580288E+02  0.28279025412E+01  0.14263743312E+04  0.14264545596E+04  0.10000000000E+02 0. -1.
</event>
<event>
 5    1  0.1321379E-008  0.3816714E+03  0.7957747E-01  0.3443913E+00
         13   -1    0    0    0    0  0.00000000000E+00  0.00000000000E+00  0.14999999963E+04  0.15000000000E+04  0.10566000000E+00 0.  1.
        994   -1    0    0    0    0 -0.00000000000E+00 -0.00000000000E+00  0.11368683772E-12  0.17120000000E+03  0.17120000000E+03 0.  0.
         13    1    1    2    0    0 -0.12525019750E+01 -0.13150668104E+02  0.24579371834E+02  0.27904578774E+02  0.10566000000E+00 0.  1.
        994    1    1    2    0    0  0.10939965050E+01  0.17574381350E+02  0.43232978280E+01  0.17215744716E+03  0.17120000000E+03 0.  0.
        998    1    1    2    0    0  0.15850546999E+00 -0.44237132466E+01  0.14710973266E+04  0.14711379741E+04  0.10000000000E+02 0.  1.
</event>
<event>
 5    1  0.1321379E-008  0.3822026E+03  0.7957747E-01  0.3441623E+00
         13   -1    0    0    0    0  0.00000000000E+00  0.00000000000E+00  0.14999999963E+04  0.15000000000E+04  0.10566000000E+00 0.  1.
        994   -1    0    0    0    0 -0.00000000000E+00 -0.00000000000E+00  0.11368683772E-12  0.17120000000E+03  0.17120000000E+03 0.  0.
         13    1    1    2    0    0 -0.17875774626E+02  0.26332453918E+01  0.49501178535E+02  0.52695874033E+02  0.10566000000E+00 0.  1.
        994    1    1    2    0    0  0.28692078458E+02  0.37170682575E+01  0.58083225625E+01  0.17372457677E+03  0.17120000000E+03 0.  0.
        998    1    1    2    0    0 -0.10816303832E+02 -0.63503136493E+01  0.14446904952E+04  0.14447795492E+04  0.10000000000E+02 0.  1.
</event>
<event>
 5    1  0.1321379E-008  0.3802488E+03  0.7957747E-01  0.3450076E+00
         13   -1    0    0    0    0  0.00000000000E+00  0.00000000000E+00  0.14999999963E+04  0.15000000000E+04  0.10566000000E+00 0.  1.
        994   -1    0    0    0    0 -0.00000000000E+00 -0.00000000000E+00  0.11368683772E-12  0.17120000000E+03  0.17120000000E+03 0.  0.
         13    1    1    2    0    0 -0.20954152550E+02  0.77176435086E+02  0.45136686118E+03  0.45839648033E+03  0.10566000000E+00 0.  1.
        994    1    1    2    0    0  0.11957143085E+02 -0.97271398118E+02  0.36785736139E+02  0.20066720845E+03  0.17120000000E+03 0.  0.
        998    1    1    2    0    0  0.89970094653E+01  0.20094963032E+02  0.10118473990E+04  0.10121363112E+04  0.10000000000E+02 0.  1.
</event>
<event>
 5    1  0.1321379E-008  0.3761001E+03  0.7957747E-01  0.3468317E+00
         13   -1    0    0    0    0  0.00000000000E+00  0.00000000000E+00  0.14999999963E+04  0.15000000000E+04  0.10566000000E+00 0. -1.
        994   -1    0    0    0    0 -0.00000000000E+00 -0.00000000000E+00  0.11368683772E-12  0.17120000000E+03  0.17120000000E+03 0.  0.
         13    1    1    2    0    0 -0.14786703261E+02 -0.21324697413E+02  0.55369485672E+02  0.61148838261E+02  0.10566000000E+00 0. -1.
        994    1    1    2    0    0 -0.16572924217E+02  0.14391499797E+02  0.77481743766E+01  0.17277514662E+03  0.17120000000E+03 0.  0.
        998    1    1    2    0    0  0.31359627478E+02  0.69331976158E+01  0.14368823362E+04  0.14372760151E+04  0.10000000000E+02 0. -1.
</event>
<event>
 5    1  0.1321379E-008  0.3844378E+03  0.7957747E-01  0.3432060E+00
         13   -1    0    0    0    0  0.00000000000E+00  0.00000000000E+00  0.14999999963E+04  0.15000000000E+04  0.10566000000E+00 0. -1.
        994   -1    0    0    0    0 -0.00000000000E+00 -0.00000000000E+00  0.11368683772E-12  0.17120000000E+03  0.17120000000E+03 0.  0.
         13    1    1    2    0    0  0.28437389587E+01 -0.14647258334E+02  0.56522153415E+02  0.58458481153E+02  0.10566000000E+00 0. -1.
        994    1    1    2    0    0 -0.25933979504E+01  0.14388612000E+02  0.26141130479E+01  0.17184304308E+03  0.17120000000E+03 0.  0.
        998    1    1    2    0    0 -0.25034100834E+00  0.25864633389E+00  0.14408637298E+04  0.14408984758E+04  0.10000000000E+02 0.  0.
</event>
<event>
 5    1  0.1321379E-008  0.3862808E+03  0.7957747E-01  0.3424258E+00
         13   -1    0    0    0    0  0.00000000000E+00  0.00000000000E+00  0.14999999963E+04  0.15000000000E+04  0.10566000000E+00 0. -1.
        994   -1    0    0    0    0 -0.00000000000E+00 -0.00000000000E+00  0.11368683772E-12  0.17120000000E+03  0.17120000000E+03 0.  0.
         13    1    1    2    0    0 -0.70678687031E+01 -0.72829216420E+01  0.52323231524E+02  0.53298474995E+02  0.10566000000E+00 0. -1.
        994    1    1    2    0    0  0.14717278414E+01  0.92255763638E+01  0.12814356955E+01  0.17145949761E+03  0.17120000000E+03 0.  0.
        998    1    1    2    0    0  0.55961408617E+01 -0.19426547218E+01  0.14463953291E+04  0.14464420274E+04  0.10000000000E+02 0. -1.
</event>
<event>
 5    1  0.1321379E-008  0.3854314E+03  0.7957747E-01  0.3427845E+00
         13   -1    0    0    0    0  0.00000000000E+00  0.00000000000E+00  0.14999999963E+04  0.15000000000E+04  0.10566000000E+00 0.  1.
        994   -1    0    0    0    0 -0.00000000000E+00 -0.00000000000E+00  0.11368683772E-12  0.17120000000E+03  0.17120000000E+03 0.  0.
         13    1    1    2    0    0 -0.10428776821E+02  0.51825174757E+01  0.44580565937E+02  0.46076630700E+02  0.10566000000E+00 0.  1.
        994    1    1    2    0    0  0.32050317549E+02  0.15121365689E+02  0.55514072910E+01  0.17491751393E+03  0.17120000000E+03 0.  0.
        998    1    1    2    0    0 -0.21621540728E+02 -0.20303883165E+02  0.14498680231E+04  0.14502058554E+04  0.10000000000E+02 0.  1.
</event>
<event>
 5    1  0.1321379E-008  0.3809404E+03  0.7957747E-01  0.3447074E+00
         13   -1    0    0    0    0  0.00000000000E+00  0.00000000000E+00  0.14999999963E+04  0.15000000000E+04  0.10566000000E+00 0. -1.
        994   -1    0    0    0    0 -0.00000000000E+00 -0.00000000000E+00  0.11368683772E-12  0.17120000000E+03  0.17120000000E+03 0.  0.
         13    1    1    2    0    0  0.12075371365E+02 -0.71523687481E+01  0.25396827810E+02  0.29016908849E+02  0.10566000000E+00 0. -1.
        994    1    1    2    0    0 -0.75066663604E+01  0.80414514176E+01  0.40626085012E+01  0.17160116482E+03  0.17120000000E+03 0.  0.
        998    1    1    2    0    0 -0.45687050043E+01 -0.88908266944E+00  0.14705405600E+04  0.14705819263E+04  0.10000000000E+02 0. -1.
</event>
<event>
 5    1  0.1321379E-008  0.3722122E+03  0.7957747E-01  0.3485785E+00
         13   -1    0    0    0    0  0.00000000000E+00  0.00000000000E+00  0.14999999963E+04  0.15000000000E+04  0.10566000000E+00 0. -1.
        994   -1    0    0    0    0 -0.00000000000E+00 -0.00000000000E+00  0.11368683772E-12  0.17120000000E+03  0.17120000000E+03 0.  0.
         13    1    1    2    0    0  0.13251993574E+02 -0.14058700340E-01  0.72945201469E+01  0.15127350050E+02  0.10566000000E+00 0. -1.
        994    1    1    2    0    0  0.47431583391E-01  0.81734577586E+01  0.83466288641E+01  0.17159811734E+03  0.17120000000E+03 0.  0.
        998    1    1    2    0    0 -0.13299425158E+02 -0.81593990582E+01  0.14843588473E+04  0.14844745326E+04  0.10000000000E+02 0. -1.
</event>
<event>
 5    1  0.1321379E-008  0.3743044E+03  0.7957747E-01  0.3476340E+00
         13   -1    0    0    0    0  0.00000000000E+00  0.00000000000E+00  0.14999999963E+04  0.15000000000E+04  0.10566000000E+00 0.  1.
        994   -1    0    0    0    0 -0.00000000000E+00 -0.00000000000E+00  0.11368683772E-12  0.17120000000E+03  0.17120000000E+03 0.  0.
         13    1    1    2    0    0 -0.38294779823E+02  0.43553974975E+02  0.20518135924E+03  0.21322016846E+03  0.10566000000E+00 0.  1.
        994    1    1    2    0    0  0.41552784959E+02 -0.40813813105E+02  0.18684270056E+02  0.18179918379E+03  0.17120000000E+03 0.  0.
        998    1    1    2    0    0 -0.32580051361E+01 -0.27401618699E+01  0.12761343670E+04  0.12761806477E+04  0.10000000000E+02 0.  1.
</event>
<event>
 5    1  0.1321379E-008  0.3745343E+03  0.7957747E-01  0.3475308E+00
         13   -1    0    0    0    0  0.00000000000E+00  0.00000000000E+00  0.14999999963E+04  0.15000000000E+04  0.10566000000E+00 0. -1.
        994   -1    0    0    0    0 -0.00000000000E+00 -0.00000000000E+00  0.11368683772E-12  0.17120000000E+03  0.17120000000E+03 0.  0.
         13    1    1    2    0    0 -0.29016591850E+02 -0.23170507944E+02  0.43520457690E+02  0.57209059096E+02  0.10566000000E+00 0. -1.
        994    1    1    2    0    0  0.35864314205E+02  0.36853826913E+02  0.22811242726E+02  0.18020612194E+03  0.17120000000E+03 0.  0.
        998    1    1    2    0    0 -0.68477223546E+01 -0.13683318969E+02  0.14336682959E+04  0.14337848190E+04  0.10000000000E+02 0. -1.
</event>
<event>
 5    1  0.1321379E-008  0.3761651E+03  0.7957747E-01  0.3468028E+00
         13   -1    0    0    0    0  0.00000000000E+00  0.00000000000E+00  0.14999999963E+04  0.15000000000E+04  0.10566000000E+00 0.  1.
        994   -1    0    0    0    0 -0.00000000000E+00 -0.00000000000E+00  0.11368683772E-12  0.17120000000E+03  0.17120000000E+03 0.  0.
         13    1    1    2    0    0 -0.15219671072E+02  0.27404040059E+02  0.91332329833E+02  0.96562028955E+02  0.10566000000E+00 0.  1.
        994    1    1    2    0    0 -0.97296429716E+01  0.12782030189E+02  0.69558295857E+01  0.17209261987E+03  0.17120000000E+03 0.  0.
        998    1    1    2    0    0  0.24949314043E+02 -0.40186070248E+02  0.14017118369E+04  0.14025453512E+04  0.10000000000E+02 0.  1.
</event>
<event>
 5    1  0.1321379E-008  0.3855801E+03  0.7957747E-01  0.3427216E+00
         13   -1    0    0    0    0  0.00000000000E+00  0.00000000000E+00  0.14999999963E+04  0.15000000000E+04  0.10566000000E+00 0. -1.
        994   -1    0    0    0    0 -0.00000000000E+00 -0.00000000000E+00  0.11368683772E-12  0.17120000000E+03  0.17120000000E+03 0.  0.
         13    1    1    2    0    0 -0.50448711813E+01  0.14058022758E+02  0.85818848176E+02  0.87108923741E+02  0.10566000000E+00 0. -1.
        994    1    1    2    0    0 -0.73629543372E+01 -0.96645357625E+01  0.18271127527E+01  0.17164030613E+03  0.17120000000E+03 0.  0.
        998    1    1    2    0    0  0.12407825518E+02 -0.43934869952E+01  0.14123540354E+04  0.14124507701E+04  0.10000000000E+02 0. -1.
</event>
<event>
 5    1  0.1321379E-008  0.3766415E+03  0.7957747E-01  0.3465914E+00
         13   -1    0    0    0    0  0.00000000000E+00  0.00000000000E+00  0.14999999963E+04  0.15000000000E+04  0.10566000000E+00 0. -1.
        994   -1    0    0    0    0 -0.00000000000E+00 -0.00000000000E+00  0.11368683772E-12  0.17120000000E+03  0.17120000000E+03 0.  0.
         13    1    1    2    0    0 -0.17253588714E+02 -0.13457369110E+02  0.10519359505E+02  0.24278698386E+02  0.10566000000E+00 0. -1.
        994    1    1    2    0    0  0.75412833747E+01 -0.18136139814E+01  0.14710048868E+02  0.17200577225E+03  0.17120000000E+03 0.  0.
        998    1    1    2    0    0  0.97123053390E+01  0.15270983092E+02  0.14747705879E+04  0.14749155294E+04  0.10000000000E+02 0. -1.
</event>
<event>
 5    1  0.1321379E-008  0.3816643E+03  0.7957747E-01  0.3443944E+00
         13   -1    0    0    0    0  0.00000000000E+00  0.00000000000E+00  0.14999999963E+04  0.15000000000E+04  0.10566000000E+00 0.  1.
        994   -1    0    0    0    0 -0.00000000000E+00 -0.00000000000E+00  0.11368683772E-12  0.17120000000E+03  0.17120000000E+03 0.  0.
         13    1    1    2    0    0  0.24432504195E+02 -0.31087461989E+02  0.23159533106E+03  0.23494634726E+03  0.10566000000E+00 0.  1.
        994    1    1    2    0    0 -0.15225309550E+02  0.19719137513E+02  0.53615365210E+01  0.17308622276E+03  0.17120000000E+03 0.  0.
        998    1    1    2    0    0 -0.92071946451E+01  0.11368324476E+02  0.12630431287E+04  0.12631674300E+04  0.10000000000E+02 0.  1.
</event>
<event>
 5    1  0.1321379E-008  0.3830146E+03  0.7957747E-01  0.3438136E+00
         13   -1    0    0    0    0  0.00000000000E+00  0.00000000000E+00  0.14999999963E+04  0.15000000000E+04  0.10566000000E+00 0. -1.
        994   -1    0    0    0    0 -0.00000000000E+00 -0.00000000000E+00  0.11368683772E-12  0.17120000000E+03  0.17120000000E+03 0.  0.
         13    1    1    2    0    0  0.13735703688E+02 -0.13855926438E+02  0.71209261590E+02  0.73833775154E+02  0.10566000000E+00 0. -1.
        994    1    1    2    0    0 -0.58503843557E+01  0.14453752665E+02  0.34242572972E+01  0.17194273320E+03  0.17120000000E+03 0.  0.
        998    1    1    2    0    0 -0.78853193326E+01 -0.59782622707E+00  0.14253664774E+04  0.14254234916E+04  0.10000000000E+02 0. -1.
</event>
<event>
 5    1  0.1321379E-008  0.3809732E+03  0.7957747E-01  0.3446932E+00
         13   -1    0    0    0    0  0.00000000000E+00  0.00000000000E+00  0.14999999963E+04  0.15000000000E+04  0.10566000000E+00 0.  1.
        994   -1    0    0    0    0 -0.00000000000E+00 -0.00000000000E+00  0.11368683772E-12  0.17120000000E+03  0.17120000000E+03 0.  0.
         13    1    1    2    0    0 -0.91725668867E+00 -0.14542770279E+02  0.26999248820E+02  0.30680680046E+02  0.10566000000E+00 0.  1.
        994    1    1    2    0    0 -0.79133724430E+01  0.19015934430E+02  0.50575474558E+01  0.17250868387E+03  0.17120000000E+03 0.  0.
        998    1    1    2    0    0  0.88306291317E+01 -0.44731641505E+01  0.14679432000E+04  0.14680106361E+04  0.10000000000E+02 0.  1.
</event>
<event>
 5    1  0.1321379E-008  0.3836975E+03  0.7957747E-01  0.3435215E+00
         13   -1    0    0    0    0  0.00000000000E+00  0.00000000000E+00  0.14999999963E+04  0.15000000000E+04  0.10566000000E+00 0. -1.
        994   -1    0    0    0    0 -0.00000000000E+00 -0.00000000000E+00  0.11368683772E-12  0.17120000000E+03  0.17120000000E+03 0.  0.
         13    1    1    2    0    0  0.13747833892E+02 -0.11904716557E+02  0.71180220727E+02  0.73466728522E+02  0.10566000000E+00 0. -1.
        994    1    1    2    0    0 -0.10779182183E+02  0.87375571342E+01  0.29142899674E+01  0.17178611341E+03  0.17120000000E+03 0.  0.
        998    1    1    2    0    0 -0.29686517093E+01  0.31671594231E+01  0.14259054856E+04  0.14259471581E+04  0.10000000000E+02 0. -1.
</event>
<event>
 5    1  0.1321379E-008  0.3858783E+03  0.7957747E-01  0.3425956E+00
         13   -1    0    0    0    0  0.00000000000E+00  0.00000000000E+00  0.14999999963E+04  0.15000000000E+04  0.10566000000E+00 0.  1.
        994   -1    0    0    0    0 -0.00000000000E+00 -0.00000000000E+00  0.11368683772E-12  0.17120000000E+03  0.17120000000E+03 0.  0.
         13    1    1    2    0    0 -0.58847873015E+01 -0.12666776816E+02  0.76396327880E+02  0.77662655338E+02  0.10566000000E+00 0.  1.
        994    1    1    2    0    0  0.27418249004E+01  0.19561474640E+02  0.24752258497E+01  0.17235351936E+03  0.17120000000E+03 0.  0.
        998    1    1    2    0    0  0.31429624010E+01 -0.68946978241E+01  0.14211284425E+04  0.14211838253E+04  0.10000000000E+02 0.  1.
</event>
<event>
 5    1  0.1321379E-008  0.3844262E+03  0.7957747E-01  0.3432109E+00
         13   -1    0    0    0    0  0.00000000000E+00  0.00000000000E+00  0.14999999963E+04  0.15000000000E+04  0.10566000000E+00 0. -1.
        994   -1    0    0    0    0 -0.00000000000E+00 -0.00000000000E+00  0.11368683772E-12  0.17120000000E+03  0.17120000000E+03 0.  0.
         13    1    1    2    0    0  0.19328463166E+02  0.53216947030E+00  0.10140941950E+03  0.10323639969E+03  0.10566000000E+00 0. -1.
        994    1    1    2    0    0 -0.66070198906E+01 -0.58984429250E+01  0.21737658685E+01  0.17144272979E+03  0.17120000000E+03 0.  0.
        998    1    1    2    0    0 -0.12721443275E+02  0.53662734547E+01  0.13964168109E+04  0.13965208705E+04  0.10000000000E+02 0. -1.
</event>
<event>
 5    1  0.1321379E-008  0.3735071E+03  0.7957747E-01  0.3479926E+00
         13   -1    0    0    0    0  0.00000000000E+00  0.00000000000E+00  0.14999999963E+04  0.15000000000E+04  0.10566000000E+00 0.  1.
        994   -1    0    0    0    0 -0.00000000000E+00 -0.00000000000E+00  0.11368683772E-12  0.17120000000E+03  0.17120000000E+03 0.  0.
         13    1    1    2    0    0  0.24341911992E+02 -0.10525102014E+02  0.42962962882E+02  0.50488947260E+02  0.10566000000E+00 0.  1.
        994    1    1    2    0    0 -0.27307656172E+02  0.75173444374E+01  0.10192922425E+02  0.17382621845E+03  0.17120000000E+03 0.  0.
        998    1    1    2    0    0  0.29657441808E+01  0.30077575761E+01  0.14468441110E+04  0.14468848343E+04  0.10000000000E+02 0.  1.
</event>
<event>
 5    1  0.1321379E-008  0.3828512E+03  0.7957747E-01  0.3438837E+00
         13   -1    0    0    0    0  0.00000000000E+00  0.00000000000E+00  0.14999999963E+04  0.15000000000E+04  0.10566000000E+00 0. -1.
        994   -1    0    0    0    0 -0.00000000000E+00 -0.00000000000E+00  0.11368683772E-12  0.17120000000E+03  0.17120000000E+03 0.  0.
         13    1    1    2    0    0  0.27460543832E+02 -0.19265254386E+02  0.17699775382E+03  0.18014840415E+03  0.10566000000E+00 0. -1.
        994    1    1    2    0    0 -0.33094648819E+02  0.20962773634E+02  0.77999274372E+01  0.17579810160E+03  0.17120000000E+03 0.  0.
        998    1    1    2    0    0  0.56341049866E+01 -0.16975192485E+01  0.13152023150E+04  0.13152534943E+04  0.10000000000E+02 0. -1.
</event>
<event>
 5    1  0.1321379E-008  0.3721984E+03  0.7957747E-01  0.3485848E+00
         13   -1    0    0    0    0  0.00000000000E+00  0.00000000000E+00  0.14999999963E+04  0.15000000000E+04  0.10566000000E+00 0.  1.
        994   -1    0    0    0    0 -0.00000000000E+00 -0.00000000000E+00  0.11368683772E-12  0.17120000000E+03  0.17120000000E+03 0.  0.
         13    1    1    2    0    0 -0.23582740935E+02 -0.43877294297E+02  0.12866047645E+03  0.13796699602E+03  0.10566000000E+00 0.  1.
        994    1    1    2    0    0  0.18489401925E+02  0.63852201793E+02  0.23444545770E+02  0.18514331850E+03  0.17120000000E+03 0.  0.
        998    1    1    2    0    0  0.50933390105E+01 -0.19974907495E+02  0.13478949741E+04  0.13480896855E+04  0.10000000000E+02 0.  1.
</event>
<event>
 5    1  0.1321379E-008  0.3781476E+03  0.7957747E-01  0.3459264E+00
         13   -1    0    0    0    0  0.00000000000E+00  0.00000000000E+00  0.14999999963E+04  0.15000000000E+04  0.10566000000E+00 0. -1.
        994   -1    0    0    0    0 -0.00000000000E+00 -0.00000000000E+00  0.11368683772E-12  0.17120000000E+03  0.17120000000E+03 0.  0.
         13    1    1    2    0    0 -0.13439896123E+02 -0.13360860863E+03  0.72900960258E+03  0.74127383802E+03  0.10566000000E+00 0. -1.
        994    1    1    2    0    0  0.19257115787E+01  0.14408985660E+03  0.78433386925E+02  0.23712197563E+03  0.17120000000E+03 0.  0.
        998    1    1    2    0    0  0.11514184545E+02 -0.10481247974E+02  0.69255700677E+03  0.69280418636E+03  0.10000000000E+02 0. -1.
</event>
<event>
 5    1  0.1321379E-008  0.3767155E+03  0.7957747E-01  0.3465586E+00
         13   -1    0    0    0    0  0.00000000000E+00  0.00000000000E+00  0.14999999963E+04  0.15000000000E+04  0.10566000000E+00 0. -1.
        994   -1    0    0    0    0 -0.00000000000E+00 -0.00000000000E+00  0.11368683772E-12  0.17120000000E+03  0.17120000000E+03 0.  0.
         13    1    1    2    0    0  0.44348383039E+02  0.15362684834E+03  0.90759561465E+03  0.92157354482E+03  0.10566000000E+00 0. -1.
        994    1    1    2    0    0 -0.44920078487E+02 -0.14511892160E+03  0.88257415284E+02  0.24530822695E+03  0.17120000000E+03 0.  0.
        998    1    1    2    0    0  0.57169544801E+00 -0.85079267448E+01  0.50414696634E+03  0.50431822823E+03  0.10000000000E+02 0.  1.
</event>
<event>
 5    1  0.1321379E-008  0.3833669E+03  0.7957747E-01  0.3436628E+00
         13   -1    0    0    0    0  0.00000000000E+00  0.00000000000E+00  0.14999999963E+04  0.15000000000E+04  0.10566000000E+00 0. -1.
        994   -1    0    0    0    0 -0.00000000000E+00 -0.00000000000E+00  0.11368683772E-12  0.17120000000E+03  0.17120000000E+03 0.  0.
         13    1    1    2    0    0 -0.14090706005E+02  0.55409170858E+01  0.49129433820E+02  0.51409748000E+02  0.10566000000E+00 0. -1.
        994    1    1    2    0    0 -0.14245720636E+02 -0.29893064332E+02  0.60768828894E+01  0.17447895104E+03  0.17120000000E+03 0.  0.
        998    1    1    2    0    0  0.28336426641E+02  0.24352147247E+02  0.14447936796E+04  0.14453113010E+04  0.10000000000E+02 0. -1.
</event>
<event>
 5    1  0.1321379E-008  0.3857661E+03  0.7957747E-01  0.3426430E+00
         13   -1    0    0    0    0  0.00000000000E+00  0.00000000000E+00  0.14999999963E+04  0.15000000000E+04  0.10566000000E+00 0.  1.
        994   -1    0    0    0    0 -0.00000000000E+00 -0.00000000000E+00  0.11368683772E-12  0.17120000000E+03  0.17120000000E+03 0.  0.
         13    1    1    2    0    0  0.72462920429E+02 -0.25621571033E+02  0.14063192115E+03  0.16026443196E+03  0.10566000000E+00 0.  1.
        994    1    1    2    0    0 -0.58276402665E+02  0.14045919732E+02  0.32957865890E+02  0.18436129717E+03  0.17120000000E+03 0.  0.
        998    1    1    2    0    0 -0.14186517764E+02  0.11575651301E+02  0.13264102092E+04  0.13265742709E+04  0.10000000000E+02 0.  1.
</event>
<event>
 5    1  0.1321379E-008  0.3820915E+03  0.7957747E-01  0.3442102E+00
         13   -1    0    0    0    0  0.00000000000E+00  0.00000000000E+00  0.14999999963E+04  0.15000000000E+04  0.10566000000E+00 0. -1.
        994   -1    0    0    0    0 -0.00000000000E+00 -0.00000000000E+00  0.11368683772E-12  0.17120000000E+03  0.17120000000E+03 0.  0.
         13    1    1    2    0    0 -0.23787964438E+02 -0.15780196131E+02  0.12754907987E+03  0.13070447881E+03  0.10566000000E+00 0. -1.
        994    1    1    2    0    0  0.16261368263E+02  0.14342079238E+02  0.46434479418E+01  0.17263003488E+03  0.17120000000E+03 0.  0.
        998    1    1    2    0    0  0.75265961744E+01  0.14381168930E+01  0.13678074685E+04  0.13678654863E+04  0.10000000000E+02 0. -1.
</event>
<event>
 5    1  0.1321379E-008  0.3833937E+03  0.7957747E-01  0.3436513E+00
         13   -1    0    0    0    0  0.00000000000E+00  0.00000000000E+00  0.14999999963E+04  0.15000000000E+04  0.10566000000E+00 0. -1.
        994   -1    0    0    0    0 -0.00000000000E+00 -0.00000000000E+00  0.11368683772E-12  0.17120000000E+03  0.17120000000E+03 0.  0.
         13    1    1    2    0    0 -0.22164699277E+02  0.13328088286E+02  0.12907563083E+03  0.13164133648E+03  0.10566000000E+00 0. -1.
        994    1    1    2    0    0  0.22456357393E+02 -0.88075530386E+01  0.43556638014E+01  0.17294586663E+03  0.17120000000E+03 0.  0.
        998    1    1    2    0    0 -0.29165811638E+00 -0.45205352476E+01  0.13665687016E+04  0.13666127969E+04  0.10000000000E+02 0.  0.
</event>
<event>
 5    1  0.1321379E-008  0.3841132E+03  0.7957747E-01  0.3433442E+00
         13   -1    0    0    0    0  0.00000000000E+00  0.00000000000E+00  0.14999999963E+04  0.15000000000E+04  0.10566000000E+00 0. -1.
        994   -1    0    0    0    0 -0.00000000000E+00 -0.00000000000E+00  0.11368683772E-12  0.17120000000E+03  0.17120000000E+03 0.  0.
         13    1    1    2    0    0  0.49539212898E+01  0.15734053391E+02  0.68323508987E+02  0.70286661726E+02  0.10566000000E+00 0. -1.
        994    1    1    2    0    0 -0.14258100524E+02  0.11068751748E+01  0.27458761515E+01  0.17181821335E+03  0.17120000000E+03 0.  0.
        998    1    1    2    0    0  0.93041792342E+01 -0.16840928566E+02  0.14289306111E+04  0.14290951249E+04  0.10000000000E+02 0. -1.
</event>
<event>
 5    1  0.1321379E-008  0.3834289E+03  0.7957747E-01  0.3436363E+00
         13   -1    0    0    0    0  0.00000000000E+00  0.00000000000E+00  0.14999999963E+04  0.15000000000E+04  0.10566000000E+00 0.  1.
        994   -1    0    0    0    0 -0.00000000000E+00 -0.00000000000E+00  0.11368683772E-12  0.17120000000E+03  0.17120000000E+03 0.  0.
         13    1    1    2    0    0  0.48182021161E+01  0.90163492143E+01  0.20985449911E+02  0.23343305182E+02  0.10566000000E+00 0.  1.
        994    1    1    2    0    0  0.22920901079E+01 -0.64508696672E+01  0.25671202281E+01  0.17135605476E+03  0.17120000000E+03 0.  0.
        998    1    1    2    0    0 -0.71102922240E+01 -0.25654795471E+01  0.14764474261E+04  0.14765006401E+04  0.10000000000E+02 0.  1.
</event>
<event>
 5    1  0.1321379E-008  0.3850106E+03  0.7957747E-01  0.3429627E+00
         13   -1    0    0    0    0  0.00000000000E+00  0.00000000000E+00  0.14999999963E+04  0.15000000000E+04  0.10566000000E+00 0.  1.
        994   -1    0    0    0    0 -0.00000000000E+00 -0.00000000000E+00  0.11368683772E-12  0.17120000000E+03  0.17120000000E+03 0.  0.
         13    1    1    2    0    0  0.68474977381E+01  0.10704069306E+02  0.47504856002E+02  0.49175073287E+02  0.10566000000E+00 0.  1.
        994    1    1    2    0    0 -0.81716200124E+01 -0.14462406916E+02  0.25328211248E+01  0.17202264900E+03  0.17120000000E+03 0.  0.
        998    1    1    2    0    0  0.13241222742E+01  0.37583376094E+01  0.14499623192E+04  0.14500022777E+04  0.10000000000E+02 0.  1.
</event>
<event>
 5    1  0.1321379E-008  0.3692191E+03  0.7957747E-01  0.3499488E+00
         13   -1    0    0    0    0  0.00000000000E+00  0.00000000000E+00  0.14999999963E+04  0.15000000000E+04  0.10566000000E+00 0. -1.
        994   -1    0    0    0    0 -0.00000000000E+00 -0.00000000000E+00  0.11368683772E-12  0.17120000000E+03  0.17120000000E+03 0.  0.
         13    1    1    2    0    0 -0.14856775585E+02  0.85458324404E+02  0.36903788699E+03  0.37909474039E+03  0.10566000000E+00 0. -1.
        994    1    1    2    0    0  0.13143729312E+01 -0.56719966805E+02  0.20921953132E+02  0.18156555382E+03  0.17120000000E+03 0.  0.
        998    1    1    2    0    0  0.13542402654E+02 -0.28738357599E+02  0.11100401562E+04  0.11105397058E+04  0.10000000000E+02 0. -1.
</event>
<event>
 5    1  0.1321379E-008  0.3717239E+03  0.7957747E-01  0.3488005E+00
         13   -1    0    0    0    0  0.00000000000E+00  0.00000000000E+00  0.14999999963E+04  0.15000000000E+04  0.10566000000E+00 0. -1.
        994   -1    0    0    0    0 -0.00000000000E+00 -0.00000000000E+00  0.11368683772E-12  0.17120000000E+03  0.17120000000E+03 0.  0.
         13    1    1    2    0    0 -0.29616898653E+00 -0.23378284141E+02  0.33837954091E+02  0.41129675255E+02  0.10566000000E+00 0. -1.
        994    1    1    2    0    0  0.16703587742E+02 -0.41854474387E+02  0.15383552170E+02  0.17769890418E+03  0.17120000000E+03 0.  0.
        998    1    1    2    0    0 -0.16407418756E+02  0.65232758529E+02  0.14507784900E+04  0.14523714206E+04  0.10000000000E+02 0. -1.
</event>
<event>
 5    1  0.1321379E-008  0.3857769E+03  0.7957747E-01  0.3426384E+00
         13   -1    0    0    0    0  0.00000000000E+00  0.00000000000E+00  0.14999999963E+04  0.15000000000E+04  0.10566000000E+00 0. -1.
        994   -1    0    0    0    0 -0.00000000000E+00 -0.00000000000E+00  0.11368683772E-12  0.17120000000E+03  0.17120000000E+03 0.  0.
         13    1    1    2    0    0  0.11304322689E+02 -0.13715933355E+01  0.52704396795E+02  0.53920623006E+02  0.10566000000E+00 0. -1.
        994    1    1    2    0    0 -0.67217604425E+01  0.34230801135E+01  0.14315983820E+01  0.17137207770E+03  0.17120000000E+03 0.  0.
        998    1    1    2    0    0 -0.45825622464E+01 -0.20514867779E+01  0.14458640011E+04  0.14459072993E+04  0.10000000000E+02 0. -1.
</event>
<event>
 5    1  0.1321379E-008  0.3807141E+03  0.7957747E-01  0.3448055E+00
         13   -1    0    0    0    0  0.00000000000E+00  0.00000000000E+00  0.14999999963E+04  0.15000000000E+04  0.10566000000E+00 0. -1.
        994   -1    0    0    0    0 -0.00000000000E+00 -0.00000000000E+00  0.11368683772E-12  0.17120000000E+03  0.17120000000E+03 0.  0.
         13    1    1    2    0    0 -0.30323664596E+02 -0.24859681906E+01  0.13298093799E+03  0.13641717526E+03  0.10566000000E+00 0. -1.
        994    1    1    2    0    0  0.32709385474E+01  0.49541324296E+01  0.38906318928E+01  0.17134707317E+03  0.17120000000E+03 0.  0.
        998    1    1    2    0    0  0.27052726049E+02 -0.24681642391E+01  0.13631284264E+04  0.13634357516E+04  0.10000000000E+02 0. -1.
</event>
<event>
 5    1  0.1321379E-008  0.3732574E+03  0.7957747E-01  0.3481053E+00
         13   -1    0    0    0    0  0.00000000000E+00  0.00000000000E+00  0.14999999963E+04  0.15000000000E+04  0.10566000000E+00 0. -1.
        994   -1    0    0    0    0 -0.00000000000E+00 -0.00000000000E+00  0.11368683772E-12  0.17120000000E+03  0.17120000000E+03 0.  0.
         13    1    1    2    0    0 -0.22485981813E+02  0.43798810330E+02  0.14315342695E+03  0.15138318922E+03  0.10566000000E+00 0. -1.
        994    1    1    2    0    0  0.25343102447E+02 -0.42484451804E+02  0.15990670407E+02  0.17891993468E+03  0.17120000000E+03 0.  0.
        998    1    1    2    0    0 -0.28571206339E+01 -0.13143585267E+01  0.13408558989E+04  0.13408968761E+04  0.10000000000E+02 0. -1.
</event>
<event>
 5    1  0.1321379E-008  0.3848262E+03  0.7957747E-01  0.3430410E+00
         13   -1    0    0    0    0  0.00000000000E+00  0.00000000000E+00  0.14999999963E+04  0.15000000000E+04  0.10566000000E+00 0.  1.
        994   -1    0    0    0    0 -0.00000000000E+00 -0.00000000000E+00  0.11368683772E-12  0.17120000000E+03  0.17120000000E+03 0.  0.
         13    1    1    2    0    0  0.71733715715E+01  0.88882727073E+01  0.38145817591E+02  0.39819256839E+02  0.10566000000E+00 0.  1.
        994    1    1    2    0    0 -0.34449454153E+01 -0.45561863065E+01  0.18238385259E+01  0.17130497036E+03  0.17120000000E+03 0.  0.
        998    1    1    2    0    0 -0.37284261562E+01 -0.43320864008E+01  0.14600303402E+04  0.14600757728E+04  0.10000000000E+02 0.  1.
</event>
<event>
 5    1  0.1321379E-008  0.3880776E+03  0.7957747E-01  0.3416724E+00
         13   -1    0    0    0    0  0.00000000000E+00  0.00000000000E+00  0.14999999963E+04  0.15000000000E+04  0.10566000000E+00 0.  1.
        994   -1    0    0    0    0 -0.00000000000E+00 -0.00000000000E+00  0.11368683772E-12  0.17120000000E+03  0.17120000000E+03 0.  0.
         13    1    1    2    0    0  0.68999984643E+02 -0.69231011813E+02  0.19156494280E+03  0.21506061785E+03  0.10566000000E+00 0.  1.
        994    1    1    2    0    0 -0.75856692175E+02  0.66121119997E+02  0.59731274947E+02  0.20737286579E+03  0.17120000000E+03 0.  0.
        998    1    1    2    0    0  0.68567075318E+01  0.31098918165E+01  0.12487037785E+04  0.12487665164E+04  0.10000000000E+02 0.  1.
</event>
<event>
 5    1  0.1321379E-008  0.3751902E+03  0.7957747E-01  0.3472373E+00
         13   -1    0    0    0    0  0.00000000000E+00  0.00000000000E+00  0.14999999963E+04  0.15000000000E+04  0.10566000000E+00 0. -1.
        994   -1    0    0    0    0 -0.00000000000E+00 -0.00000000000E+00  0.11368683772E-12  0.17120000000E+03  0.17120000000E+03 0.  0.
         13    1    1    2    0    0  0.11759049946E+02  0.30936283530E+02  0.89469260897E+02  0.95394385075E+02  0.10566000000E+00 0. -1.
        994    1    1    2    0    0 -0.10286600153E+02  0.85512356800E+01  0.71891773639E+01  0.17187222593E+03  0.17120000000E+03 0.  0.
        998    1    1    2    0    0 -0.14724497935E+01 -0.39487519209E+02  0.14033415580E+04  0.14039333890E+04  0.10000000000E+02 0. -1.
</event>
<event>
 5    1  0.1321379E-008  0.3771898E+03  0.7957747E-01  0.3463487E+00
         13   -1    0    0    0    0  0.00000000000E+00  0.00000000000E+00  0.14999999963E+04  0.15000000000E+04  0.10566000000E+00 0.  1.
        994   -1    0    0    0    0 -0.00000000000E+00 -0.00000000000E+00  0.11368683772E-12  0.17120000000E+03  0.17120000000E+03 0.  0.
         13    1    1    2    0    0  0.15199197181E+02  0.28290732009E+02  0.10979940690E+03  0.11439974665E+03  0.10566000000E+00 0.  1.
        994    1    1    2    0    0  0.28973848574E+02  0.61857970651E+01  0.85259610482E+01  0.17395367199E+03  0.17120000000E+03 0.  0.
        998    1    1    2    0    0 -0.44173045755E+02 -0.34476529074E+02  0.13816746283E+04  0.13828465814E+04  0.10000000000E+02 0.  1.
</event>
<event>
 5    1  0.1321379E-008  0.3817118E+03  0.7957747E-01  0.3443738E+00
         13   -1    0    0    0    0  0.00000000000E+00  0.00000000000E+00  0.14999999963E+04  0.15000000000E+04  0.10566000000E+00 0.  1.
        994   -1    0    0    0    0 -0.00000000000E+00 -0.00000000000E+00  0.11368683772E-12  0.17120000000E+03  0.17120000000E+03 0.  0.
         13    1    1    2    0    0  0.90681757703E+01  0.90115534498E+01  0.23569021400E+02  0.26813240035E+02  0.10566000000E+00 0.  1.
        994    1    1    2    0    0 -0.84133187941E+01 -0.67761179470E+01  0.36595266507E+01  0.17157952046E+03  0.17120000000E+03 0.  0.
        998    1    1    2    0    0 -0.65485697613E+00 -0.22354355028E+01  0.14727714482E+04  0.14728072395E+04  0.10000000000E+02 0.  1.
</event>
<event>
 5    1  0.1321379E-008  0.3841176E+03  0.7957747E-01  0.3433423E+00
         13   -1    0    0    0    0  0.00000000000E+00  0.00000000000E+00  0.14999999963E+04  0.15000000000E+04  0.10566000000E+00 0.  1.
        994   -1    0    0    0    0 -0.00000000000E+00 -0.00000000000E+00  0.11368683772E-12  0.17120000000E+03  0.17120000000E+03 0.  0.
         13    1    1    2    0    0 -0.14015948706E+02 -0.17776190758E+01  0.46472456126E+02  0.48572699021E+02  0.10566000000E+00 0.  1.
        994    1    1    2    0    0  0.14768600149E+02  0.49453177392E+01  0.28692772989E+01  0.17193091773E+03  0.17120000000E+03 0.  0.
        998    1    1    2    0    0 -0.75265144244E+00 -0.31676986634E+01  0.14506582629E+04  0.14506963833E+04  0.10000000000E+02 0.  1.
</event>
<event>
 5    1  0.1321379E-008  0.3860965E+03  0.7957747E-01  0.3425035E+00
         13   -1    0    0    0    0  0.00000000000E+00  0.00000000000E+00  0.14999999963E+04  0.15000000000E+04  0.10566000000E+00 0. -1.
        994   -1    0    0    0    0 -0.00000000000E+00 -0.00000000000E+00  0.11368683772E-12  0.17120000000E+03  0.17120000000E+03 0.  0.
         13    1    1    2    0    0  0.94246179950E+01  0.81984907267E+01  0.71884220599E+02  0.72961572144E+02  0.10566000000E+00 0. -1.
        994    1    1    2    0    0  0.39344425025E+00 -0.15666643199E+02  0.18919482492E+01  0.17192619921E+03  0.17120000000E+03 0.  0.
        998    1    1    2    0    0 -0.98180622452E+01  0.74681524723E+01  0.14262238274E+04  0.14263122286E+04  0.10000000000E+02 0. -1.
</event>
<event>
 5    1  0.1321379E-008  0.3740217E+03  0.7957747E-01  0.3477610E+00
         13   -1    0    0    0    0  0.00000000000E+00  0.00000000000E+00  0.14999999963E+04  0.15000000000E+04  0.10566000000E+00 0.  1.
        994   -1    0    0    0    0 -0.00000000000E+00 -0.00000000000E+00  0.11368683772E-12  0.17120000000E+03  0.17120000000E+03 0.  0.
         13    1    1    2    0    0  0.12789030503E+02 -0.11590245774E+02  0.17324611012E+02  0.24454987407E+02  0.10566000000E+00 0.  1.
        994    1    1    2    0    0 -0.14838760206E+02  0.12863644619E+02  0.84983608631E+01  0.17253209642E+03  0.17120000000E+03 0.  0.
        998    1    1    2    0    0  0.20497297036E+01 -0.12733988451E+01  0.14741770244E+04  0.14742129162E+04  0.10000000000E+02 0.  1.
</event>
<event>
 5    1  0.1321379E-008  0.3859347E+03  0.7957747E-01  0.3425718E+00
         13   -1    0    0    0    0  0.00000000000E+00  0.00000000000E+00  0.14999999963E+04  0.15000000000E+04  0.10566000000E+00 0.  1.
        994   -1    0    0    0    0 -0.00000000000E+00 -0.00000000000E+00  0.11368683772E-12  0.17120000000E+03  0.17120000000E+03 0.  0.
         13    1    1    2    0    0 -0.43961997696E+01  0.90871825206E+01  0.44038816715E+02  0.45181102247E+02  0.10566000000E+00 0.  1.
        994    1    1    2    0    0  0.47066066445E+01 -0.56144347329E+01  0.13427806998E+01  0.17136194759E+03  0.17120000000E+03 0.  0.
        998    1    1    2    0    0 -0.31040687492E+00 -0.34727477877E+01  0.14546183989E+04  0.14546569502E+04  0.10000000000E+02 0.  1.
</event>
<event>
 5    1  0.1321379E-008  0.3847525E+03  0.7957747E-01  0.3430723E+00
         13   -1    0    0    0    0  0.00000000000E+00  0.00000000000E+00  0.14999999963E+04  0.15000000000E+04  0.10566000000E+00 0.  1.
        994   -1    0    0    0    0 -0.00000000000E+00 -0.00000000000E+00  0.11368683772E-12  0.17120000000E+03  0.17120000000E+03 0.  0.
         13    1    1    2    0    0  0.11638153293E+02  0.14742565775E+02  0.98594632376E+02  0.10036783626E+03  0.10566000000E+00 0.  1.
        994    1    1    2    0    0 -0.97701180433E+01 -0.10808678133E+02  0.24520811816E+01  0.17183636237E+03  0.17120000000E+03 0.  0.
        998    1    1    2    0    0 -0.18680352494E+01 -0.39338876422E+01  0.13989532827E+04  0.13989958014E+04  0.10000000000E+02 0.  1.
</event>
<event>
 5    1  0.1321379E-008  0.3753102E+03  0.7957747E-01  0.3471837E+00
         13   -1    0    0    0    0  0.00000000000E+00  0.00000000000E+00  0.14999999963E+04  0.15000000000E+04  0.10566000000E+00 0. -1.
        994   -1    0    0    0    0 -0.00000000000E+00 -0.00000000000E+00  0.11368683772E-12  0.17120000000E+03  0.17120000000E+03 0.  0.
         13    1    1    2    0    0  0.33949488709E+02 -0.18744191939E+02  0.14623723704E+03  0.15129194683E+03  0.10566000000E+00 0. -1.
        994    1    1    2    0    0  0.15615991423E+02 -0.23809680359E+02  0.92774959737E+01  0.17379951668E+03  0.17120000000E+03 0.  0.
        998    1    1    2    0    0 -0.49565480132E+02  0.42553872298E+02  0.13444852633E+04  0.13461085365E+04  0.10000000000E+02 0. -1.
</event>
<event>
 5    1  0.1321379E-008  0.3734303E+03  0.7957747E-01  0.3480273E+00
         13   -1    0    0    0    0  0.00000000000E+00  0.00000000000E+00  0.14999999963E+04  0.15000000000E+04  0.10566000000E+00 0. -1.
        994   -1    0    0    0    0 -0.00000000000E+00 -0.00000000000E+00  0.11368683772E-12  0.17120000000E+03  0.17120000000E+03 0.  0.
         13    1    1    2    0    0  0.43146256252E+02 -0.24124854404E+02  0.13828879909E+03  0.14685847318E+03  0.10566000000E+00 0. -1.
        994    1    1    2    0    0 -0.63097952137E+02  0.13656018182E+02  0.21866374930E+02  0.18426995618E+03  0.17120000000E+03 0.  0.
        998    1    1    2    0    0  0.19951695885E+02  0.10468836222E+02  0.13398448223E+04  0.13400715706E+04  0.10000000000E+02 0. -1.
</event>
<event>
 5    1  0.1321379E-008  0.3843387E+03  0.7957747E-01  0.3432482E+00
         13   -1    0    0    0    0  0.00000000000E+00  0.00000000000E+00  0.14999999963E+04  0.15000000000E+04  0.10566000000E+00 0.  1.
        994   -1    0    0    0    0 -0.00000000000E+00 -0.00000000000E+00  0.11368683772E-12  0.17120000000E+03  0.17120000000E+03 0.  0.
         13    1    1    2    0    0 -0.20319226835E+02 -0.18238094927E+02  0.15082079484E+03  0.15327237979E+03  0.10566000000E+00 0.  1.
        994    1    1    2    0    0  0.38629585502E+02  0.22126988003E+02  0.85179465069E+01  0.17709840171E+03  0.17120000000E+03 0.  0.
        998    1    1    2    0    0 -0.18310358666E+02 -0.38888930764E+01  0.13406612549E+04  0.13408292185E+04  0.10000000000E+02 0.  1.
</event>
<event>
 5    1  0.1321379E-008  0.3853134E+03  0.7957747E-01  0.3428344E+00
         13   -1    0    0    0    0  0.00000000000E+00  0.00000000000E+00  0.14999999963E+04  0.15000000000E+04  0.10566000000E+00 0. -1.
        994   -1    0    0    0    0 -0.00000000000E+00 -0.00000000000E+00  0.11368683772E-12  0.17120000000E+03  0.17120000000E+03 0.  0.
         13    1    1    2    0    0 -0.10055967794E+02 -0.51481779487E+00  0.34101534140E+02  0.35557183808E+02  0.10566000000E+00 0. -1.
        994    1    1    2    0    0  0.91305146987E+01 -0.14597198777E+02  0.24491615701E+01  0.17208103586E+03  0.17120000000E+03 0.  0.
        998    1    1    2    0    0  0.92545309572E+00  0.15112016572E+02  0.14634493006E+04  0.14635617803E+04  0.10000000000E+02 0. -1.
</event>
<event>
 5    1  0.1321379E-008  0.3791237E+03  0.7957747E-01  0.3454983E+00
         13   -1    0    0    0    0  0.00000000000E+00  0.00000000000E+00  0.14999999963E+04  0.15000000000E+04  0.10566000000E+00 0.  1.
        994   -1    0    0    0    0 -0.00000000000E+00 -0.00000000000E+00  0.11368683772E-12  0.17120000000E+03  0.17120000000E+03 0.  0.
         13    1    1    2    0    0 -0.24084086602E+02 -0.16582879568E+02  0.11074839925E+03  0.11454367823E+03  0.10566000000E+00 0.  1.
        994    1    1    2    0    0 -0.15830527493E+02 -0.78261932654E+01  0.56223851114E+01  0.17220019197E+03  0.17120000000E+03 0.  0.
        998    1    1    2    0    0  0.39914614095E+02  0.24409072833E+02  0.13836292119E+04  0.13844561298E+04  0.10000000000E+02 0.  1.
</event>
<event>
 5    1  0.1321379E-008  0.3789745E+03  0.7957747E-01  0.3455636E+00
         13   -1    0    0    0    0  0.00000000000E+00  0.00000000000E+00  0.14999999963E+04  0.15000000000E+04  0.10566000000E+00 0. -1.
        994   -1    0    0    0    0 -0.00000000000E+00 -0.00000000000E+00  0.11368683772E-12  0.17120000000E+03  0.17120000000E+03 0.  0.
         13    1    1    2    0    0 -0.19131050700E+02  0.14894476481E+02  0.57886131551E+02  0.62758727844E+02  0.10566000000E+00 0. -1.
        994    1    1    2    0    0  0.24807703986E+02 -0.18981242197E+02  0.79314509678E+01  0.17420693915E+03  0.17120000000E+03 0.  0.
        998    1    1    2    0    0 -0.56766532864E+01  0.40867657160E+01  0.14341824138E+04  0.14342343330E+04  0.10000000000E+02 0. -1.
</event>
<event>
 5    1  0.1321379E-008  0.3751215E+03  0.7957747E-01  0.3472680E+00
         13   -1    0    0    0    0  0.00000000000E+00  0.00000000000E+00  0.14999999963E+04  0.15000000000E+04  0.10566000000E+00 0. -1.
        994   -1    0    0    0    0 -0.00000000000E+00 -0.00000000000E+00  0.11368683772E-12  0.17120000000E+03  0.17120000000E+03 0.  0.
         13    1    1    2    0    0 -0.64995138877E+02  0.36896101954E+02  0.25905841600E+03  0.26962374614E+03  0.10566000000E+00 0. -1.
        994    1    1    2    0    0  0.64667560150E+02 -0.13780471903E+03  0.89931486271E+02  0.24610799691E+03  0.17120000000E+03 0.  0.
        998    1    1    2    0    0  0.32757872697E+00  0.10090861707E+03  0.11510100940E+04  0.11554682570E+04  0.10000000000E+02 0. -1.
</event>
<event>
 5    1  0.1321379E-008  0.3812057E+03  0.7957747E-01  0.3445925E+00
         13   -1    0    0    0    0  0.00000000000E+00  0.00000000000E+00  0.14999999963E+04  0.15000000000E+04  0.10566000000E+00 0. -1.
        994   -1    0    0    0    0 -0.00000000000E+00 -0.00000000000E+00  0.11368683772E-12  0.17120000000E+03  0.17120000000E+03 0.  0.
         13    1    1    2    0    0 -0.21851014013E+01  0.25964885379E+02  0.10066329130E+03  0.10398105269E+03  0.10566000000E+00 0. -1.
        994    1    1    2    0    0  0.12591940330E+01 -0.56948433602E+01  0.36390388048E+01  0.17133796840E+03  0.17120000000E+03 0.  0.
        998    1    1    2    0    0  0.92590736830E+00 -0.20270042019E+02  0.13956976662E+04  0.13958809789E+04  0.10000000000E+02 0. -1.
</event>
<event>
 5    1  0.1321379E-008  0.2942878E+03  0.7957747E-01  0.3937662E+00
         13   -1    0    0    0    0  0.00000000000E+00  0.00000000000E+00  0.14999999963E+04  0.15000000000E+04  0.10566000000E+00 0.  1.
        994   -1    0    0    0    0 -0.00000000000E+00 -0.00000000000E+00  0.11368683772E-12  0.17120000000E+03  0.17120000000E+03 0.  0.
         13    1    1    2    0    0  0.22381245546E+03  0.40883836961E+02  0.44184609214E+03  0.49698237760E+03  0.10566000000E+00 0.  1.
        994    1    1    2    0    0 -0.23321622168E+03 -0.26609465585E+02  0.30654252862E+03  0.42234539369E+03  0.17120000000E+03 0.  0.
        998    1    1    2    0    0  0.94037662172E+01 -0.14274371375E+02  0.75161137552E+03  0.75187222871E+03  0.10000000000E+02 0.  1.
</event>
<event>
 5    1  0.1321379E-008  0.3804646E+03  0.7957747E-01  0.3449138E+00
         13   -1    0    0    0    0  0.00000000000E+00  0.00000000000E+00  0.14999999963E+04  0.15000000000E+04  0.10566000000E+00 0.  1.
        994   -1    0    0    0    0 -0.00000000000E+00 -0.00000000000E+00  0.11368683772E-12  0.17120000000E+03  0.17120000000E+03 0.  0.
         13    1    1    2    0    0 -0.95450107629E+01  0.13875049953E+02  0.35244208511E+02  0.39061357366E+02  0.10566000000E+00 0.  1.
        994    1    1    2    0    0  0.10307140000E+02 -0.28128774383E+01  0.42799138536E+01  0.17158644200E+03  0.17120000000E+03 0.  0.
        998    1    1    2    0    0 -0.76212923676E+00 -0.11062172515E+02  0.14604758739E+04  0.14605522006E+04  0.10000000000E+02 0.  1.
</event>
<event>
 5    1  0.1321379E-008  0.3762233E+03  0.7957747E-01  0.3467770E+00
         13   -1    0    0    0    0  0.00000000000E+00  0.00000000000E+00  0.14999999963E+04  0.15000000000E+04  0.10566000000E+00 0.  1.
        994   -1    0    0    0    0 -0.00000000000E+00 -0.00000000000E+00  0.11368683772E-12  0.17120000000E+03  0.17120000000E+03 0.  0.
         13    1    1    2    0    0  0.48265065675E+02  0.51625921251E+02  0.36429951632E+03  0.37109149958E+03  0.10566000000E+00 0.  1.
        994    1    1    2    0    0 -0.57135878441E+02 -0.22213228668E+02  0.18881165043E+02  0.18282197495E+03  0.17120000000E+03 0.  0.
        998    1    1    2    0    0  0.88708127653E+01 -0.29412692583E+02  0.11168193149E+04  0.11172865255E+04  0.10000000000E+02 0.  1.
</event>
<event>
 5    1  0.1321379E-008  0.3852155E+03  0.7957747E-01  0.3428759E+00
         13   -1    0    0    0    0  0.00000000000E+00  0.00000000000E+00  0.14999999963E+04  0.15000000000E+04  0.10566000000E+00 0.  1.
        994   -1    0    0    0    0 -0.00000000000E+00 -0.00000000000E+00  0.11368683772E-12  0.17120000000E+03  0.17120000000E+03 0.  0.
         13    1    1    2    0    0 -0.15034176758E+02 -0.49325761390E+01  0.83363442857E+02  0.84851821118E+02  0.10566000000E+00 0.  1.
        994    1    1    2    0    0  0.13945373602E+02 -0.13252230624E+02  0.27403788906E+01  0.17229928827E+03  0.17120000000E+03 0.  0.
        998    1    1    2    0    0  0.10888031558E+01  0.18184806763E+02  0.14138961745E+04  0.14140488906E+04  0.10000000000E+02 0.  1.
</event>
<event>
 5    1  0.1321379E-008  0.3582743E+03  0.7957747E-01  0.3551579E+00
         13   -1    0    0    0    0  0.00000000000E+00  0.00000000000E+00  0.14999999963E+04  0.15000000000E+04  0.10566000000E+00 0. -1.
        994   -1    0    0    0    0 -0.00000000000E+00 -0.00000000000E+00  0.11368683772E-12  0.17120000000E+03  0.17120000000E+03 0.  0.
         13    1    1    2    0    0 -0.29266696517E+03  0.66777689187E+02  0.65935450283E+03  0.72447331479E+03  0.10566000000E+00 0. -1.
        994    1    1    2    0    0  0.31472865562E+03 -0.80468644088E+02  0.59274723119E+03  0.69727186192E+03  0.17120000000E+03 0.  0.
        998    1    1    2    0    0 -0.22061690450E+02  0.13690954901E+02  0.24789826225E+03  0.24945482328E+03  0.10000000000E+02 0. -1.
</event>
<event>
 5    1  0.1321379E-008  0.3849420E+03  0.7957747E-01  0.3429918E+00
         13   -1    0    0    0    0  0.00000000000E+00  0.00000000000E+00  0.14999999963E+04  0.15000000000E+04  0.10566000000E+00 0.  1.
        994   -1    0    0    0    0 -0.00000000000E+00 -0.00000000000E+00  0.11368683772E-12  0.17120000000E+03  0.17120000000E+03 0.  0.
         13    1    1    2    0    0  0.92749623621E+01 -0.11955848497E+02  0.70540351129E+02  0.72145128328E+02  0.10566000000E+00 0.  1.
        994    1    1    2    0    0 -0.59744411274E+01  0.36897101988E+01  0.18211652307E+01  0.17135362427E+03  0.17120000000E+03 0.  0.
        998    1    1    2    0    0 -0.33005212347E+01  0.82661382978E+01  0.14276384799E+04  0.14277012474E+04  0.10000000000E+02 0.  1.
</event>
<event>
 5    1  0.1321379E-008  0.3837569E+03  0.7957747E-01  0.3434962E+00
         13   -1    0    0    0    0  0.00000000000E+00  0.00000000000E+00  0.14999999963E+04  0.15000000000E+04  0.10566000000E+00 0.  1.
        994   -1    0    0    0    0 -0.00000000000E+00 -0.00000000000E+00  0.11368683772E-12  0.17120000000E+03  0.17120000000E+03 0.  0.
         13    1    1    2    0    0  0.66675977600E+02 -0.12926864459E+02  0.39556933689E+03  0.40135757282E+03  0.10566000000E+00 0.  1.
        994    1    1    2    0    0 -0.11126442542E+03  0.46499334587E+02  0.51843857874E+02  0.21572942794E+03  0.17120000000E+03 0.  0.
        998    1    1    2    0    0  0.44588447817E+02 -0.33572470129E+02  0.10525868015E+04  0.10541129992E+04  0.10000000000E+02 0.  1.
</event>
<event>
 5    1  0.1321379E-008  0.3845102E+03  0.7957747E-01  0.3431752E+00
         13   -1    0    0    0    0  0.00000000000E+00  0.00000000000E+00  0.14999999963E+04  0.15000000000E+04  0.10566000000E+00 0. -1.
        994   -1    0    0    0    0 -0.00000000000E+00 -0.00000000000E+00  0.11368683772E-12  0.17120000000E+03  0.17120000000E+03 0.  0.
         13    1    1    2    0    0 -0.95582881041E+01 -0.43643587793E+01  0.30528845731E+02  0.32286685875E+02  0.10566000000E+00 0. -1.
        994    1    1    2    0    0 -0.20560597112E+01 -0.67796424870E+01  0.20388341907E+01  0.17135865248E+03  0.17120000000E+03 0.  0.
        998    1    1    2    0    0  0.11614347815E+02  0.11144001266E+02  0.14674323164E+04  0.14675546616E+04  0.10000000000E+02 0. -1.
</event>
<event>
 5    1  0.1321379E-008  0.3849235E+03  0.7957747E-01  0.3429997E+00
         13   -1    0    0    0    0  0.00000000000E+00  0.00000000000E+00  0.14999999963E+04  0.15000000000E+04  0.10566000000E+00 0.  1.
        994   -1    0    0    0    0 -0.00000000000E+00 -0.00000000000E+00  0.11368683772E-12  0.17120000000E+03  0.17120000000E+03 0.  0.
         13    1    1    2    0    0 -0.53403479433E+01  0.10740302401E+02  0.43458647523E+02  0.45083684636E+02  0.10566000000E+00 0.  1.
        994    1    1    2    0    0  0.10067966227E+01 -0.61499312900E+01  0.17958961450E+01  0.17132279632E+03  0.17120000000E+03 0.  0.
        998    1    1    2    0    0  0.43335513206E+01 -0.45903711108E+01  0.14547454526E+04  0.14547935190E+04  0.10000000000E+02 0.  1.
</event>
<event>
 5    1  0.1321379E-008  0.3839890E+03  0.7957747E-01  0.3433971E+00
         13   -1    0    0    0    0  0.00000000000E+00  0.00000000000E+00  0.14999999963E+04  0.15000000000E+04  0.10566000000E+00 0. -1.
        994   -1    0    0    0    0 -0.00000000000E+00 -0.00000000000E+00  0.11368683772E-12  0.17120000000E+03  0.17120000000E+03 0.  0.
         13    1    1    2    0    0  0.20042412583E+02  0.21061391299E+02  0.14498039231E+03  0.14786685168E+03  0.10566000000E+00 0. -1.
        994    1    1    2    0    0  0.11201162156E+01 -0.87814476235E+02  0.28009747217E+02  0.19443925230E+03  0.17120000000E+03 0.  0.
        998    1    1    2    0    0 -0.21162528799E+02  0.66753084936E+02  0.13270098567E+04  0.13288938960E+04  0.10000000000E+02 0. -1.
</event>
<event>
 5    1  0.1321379E-008  0.3817385E+03  0.7957747E-01  0.3443624E+00
         13   -1    0    0    0    0  0.00000000000E+00  0.00000000000E+00  0.14999999963E+04  0.15000000000E+04  0.10566000000E+00 0. -1.
        994   -1    0    0    0    0 -0.00000000000E+00 -0.00000000000E+00  0.11368683772E-12  0.17120000000E+03  0.17120000000E+03 0.  0.
         13    1    1    2    0    0  0.13394721102E+02  0.19083687499E+02  0.83213143256E+02  0.86417845707E+02  0.10566000000E+00 0. -1.
        994    1    1    2    0    0 -0.66791727708E+01 -0.10667579803E+02  0.37848427108E+01  0.17170373800E+03  0.17120000000E+03 0.  0.
        998    1    1    2    0    0 -0.67155483311E+01 -0.84161076962E+01  0.14130020103E+04  0.14130784163E+04  0.10000000000E+02 0. -1.
</event>
<event>
 5    1  0.1321379E-008  0.3762049E+03  0.7957747E-01  0.3467851E+00
         13   -1    0    0    0    0  0.00000000000E+00  0.00000000000E+00  0.14999999963E+04  0.15000000000E+04  0.10566000000E+00 0. -1.
        994   -1    0    0    0    0 -0.00000000000E+00 -0.00000000000E+00  0.11368683772E-12  0.17120000000E+03  0.17120000000E+03 0.  0.
         13    1    1    2    0    0  0.38067313406E+02 -0.69220829798E+02  0.37623057863E+03  0.38443478392E+03  0.10566000000E+00 0. -1.
        994    1    1    2    0    0  0.38997255741E+02  0.13519580951E+03  0.76335825455E+02  0.23438278758E+03  0.17120000000E+03 0.  0.
        998    1    1    2    0    0 -0.77064569147E+02 -0.65974979711E+02  0.10474335922E+04  0.10523824285E+04  0.10000000000E+02 0. -1.
</event>
<event>
 5    1  0.1321379E-008  0.3845944E+03  0.7957747E-01  0.3431394E+00
         13   -1    0    0    0    0  0.00000000000E+00  0.00000000000E+00  0.14999999963E+04  0.15000000000E+04  0.10566000000E+00 0.  1.
        994   -1    0    0    0    0 -0.00000000000E+00 -0.00000000000E+00  0.11368683772E-12  0.17120000000E+03  0.17120000000E+03 0.  0.
         13    1    1    2    0    0  0.55222510251E+01  0.16074040593E+02  0.90651378430E+02  0.92230979680E+02  0.10566000000E+00 0.  1.
        994    1    1    2    0    0  0.42211166815E+01  0.75477781772E+01  0.20779584789E+01  0.17143087439E+03  0.17120000000E+03 0.  0.
        998    1    1    2    0    0 -0.97433677066E+01 -0.23621818770E+02  0.14072706594E+04  0.14075381459E+04  0.10000000000E+02 0.  1.
</event>
<event>
 5    1  0.1321379E-008  0.3772021E+03  0.7957747E-01  0.3463432E+00
         13   -1    0    0    0    0  0.00000000000E+00  0.00000000000E+00  0.14999999963E+04  0.15000000000E+04  0.10566000000E+00 0.  1.
        994   -1    0    0    0    0 -0.00000000000E+00 -0.00000000000E+00  0.11368683772E-12  0.17120000000E+03  0.17120000000E+03 0.  0.
         13    1    1    2    0    0 -0.23414229319E+02  0.15913759738E+02  0.68076872784E+02  0.73728865824E+02  0.10566000000E+00 0.  1.
        994    1    1    2    0    0 -0.27205790065E+01 -0.50365249181E+02  0.14184856301E+02  0.17903829206E+03  0.17120000000E+03 0.  0.
        998    1    1    2    0    0  0.26134808326E+02  0.34451489443E+02  0.14177382672E+04  0.14184328421E+04  0.10000000000E+02 0.  1.
</event>
<event>
 5    1  0.1321379E-008  0.3814327E+03  0.7957747E-01  0.3444944E+00
         13   -1    0    0    0    0  0.00000000000E+00  0.00000000000E+00  0.14999999963E+04  0.15000000000E+04  0.10566000000E+00 0. -1.
        994   -1    0    0    0    0 -0.00000000000E+00 -0.00000000000E+00  0.11368683772E-12  0.17120000000E+03  0.17120000000E+03 0.  0.
         13    1    1    2    0    0  0.13609090383E+02  0.96380951985E+01  0.41964383322E+02  0.45156625779E+02  0.10566000000E+00 0. -1.
        994    1    1    2    0    0  0.44273017712E+01  0.21096113822E+01  0.34916854586E+01  0.17130581814E+03  0.17120000000E+03 0.  0.
        998    1    1    2    0    0 -0.18036392155E+02 -0.11747706581E+02  0.14545439275E+04  0.14547375561E+04  0.10000000000E+02 0. -1.
</event>
<event>
 5    1  0.1321379E-008  0.3840033E+03  0.7957747E-01  0.3433910E+00
         13   -1    0    0    0    0  0.00000000000E+00  0.00000000000E+00  0.14999999963E+04  0.15000000000E+04  0.10566000000E+00 0. -1.
        994   -1    0    0    0    0 -0.00000000000E+00 -0.00000000000E+00  0.11368683772E-12  0.17120000000E+03  0.17120000000E+03 0.  0.
         13    1    1    2    0    0 -0.13230328125E+02  0.65553837361E+00  0.40198994264E+02  0.42325425181E+02  0.10566000000E+00 0. -1.
        994    1    1    2    0    0  0.12213522928E+02  0.38453899521E+01  0.26669393755E+01  0.17169889263E+03  0.17120000000E+03 0.  0.
        998    1    1    2    0    0  0.10168051967E+01 -0.45009283257E+01  0.14571340626E+04  0.14571756822E+04  0.10000000000E+02 0. -1.
</event>
<event>
 5    1  0.1321379E-008  0.3801547E+03  0.7957747E-01  0.3450485E+00
         13   -1    0    0    0    0  0.00000000000E+00  0.00000000000E+00  0.14999999963E+04  0.15000000000E+04  0.10566000000E+00 0. -1.
        994   -1    0    0    0    0 -0.00000000000E+00 -0.00000000000E+00  0.11368683772E-12  0.17120000000E+03  0.17120000000E+03 0.  0.
         13    1    1    2    0    0 -0.25209620614E+02 -0.64838279155E+02  0.38535795191E+03  0.39158688650E+03  0.10566000000E+00 0. -1.
        994    1    1    2    0    0  0.29978326134E+02  0.76390107893E+02  0.26893522720E+02  0.19174683879E+03  0.17120000000E+03 0.  0.
        998    1    1    2    0    0 -0.47687055207E+01 -0.11551828738E+02  0.10877485216E+04  0.10878662747E+04  0.10000000000E+02 0. -1.
</event>
<event>
 5    1  0.1321379E-008  0.3684925E+03  0.7957747E-01  0.3502848E+00
         13   -1    0    0    0    0  0.00000000000E+00  0.00000000000E+00  0.14999999963E+04  0.15000000000E+04  0.10566000000E+00 0.  1.
        994   -1    0    0    0    0 -0.00000000000E+00 -0.00000000000E+00  0.11368683772E-12  0.17120000000E+03  0.17120000000E+03 0.  0.
         13    1    1    2    0    0 -0.67763987558E+02  0.34106183474E+02  0.36188016656E+03  0.36974647514E+03  0.10566000000E+00 0.  1.
        994    1    1    2    0    0  0.96928318207E+01 -0.41004051405E+01  0.10444288956E+02  0.17184087838E+03  0.17120000000E+03 0.  0.
        998    1    1    2    0    0  0.58071155737E+02 -0.30005778333E+02  0.11276755408E+04  0.11296126465E+04  0.10000000000E+02 0.  1.
</event>
<event>
 5    1  0.1321379E-008  0.3746937E+03  0.7957747E-01  0.3474594E+00
         13   -1    0    0    0    0  0.00000000000E+00  0.00000000000E+00  0.14999999963E+04  0.15000000000E+04  0.10566000000E+00 0.  1.
        994   -1    0    0    0    0 -0.00000000000E+00 -0.00000000000E+00  0.11368683772E-12  0.17120000000E+03  0.17120000000E+03 0.  0.
         13    1    1    2    0    0 -0.35756090643E+02  0.99414146965E+01  0.91309123284E+02  0.98563161998E+02  0.10566000000E+00 0.  1.
        994    1    1    2    0    0  0.36400685101E+02 -0.23362007066E+02  0.13228625603E+02  0.17707407994E+03  0.17120000000E+03 0.  0.
        998    1    1    2    0    0 -0.64459445758E+00  0.13420592370E+02  0.13954622474E+04  0.13955627581E+04  0.10000000000E+02 0.  1.
</event>
<event>
 5    1  0.1321379E-008  0.3852839E+03  0.7957747E-01  0.3428469E+00
         13   -1    0    0    0    0  0.00000000000E+00  0.00000000000E+00  0.14999999963E+04  0.15000000000E+04  0.10566000000E+00 0. -1.
        994   -1    0    0    0    0 -0.00000000000E+00 -0.00000000000E+00  0.11368683772E-12  0.17120000000E+03  0.17120000000E+03 0.  0.
         13    1    1    2    0    0 -0.12620803568E+00 -0.10744220656E+02  0.38932855576E+02  0.40388520811E+02  0.10566000000E+00 0. -1.
        994    1    1    2    0    0 -0.15026785169E+01  0.63960441320E+01  0.16310980123E+01  0.17133379090E+03  0.17120000000E+03 0.  0.
        998    1    1    2    0    0  0.16288865525E+01  0.43481765243E+01  0.14594360427E+04  0.14594776883E+04  0.10000000000E+02 0. -1.
</event>
<event>
 5    1  0.1321379E-008  0.3732144E+03  0.7957747E-01  0.3481247E+00
         13   -1    0    0    0    0  0.00000000000E+00  0.00000000000E+00  0.14999999963E+04  0.15000000000E+04  0.10566000000E+00 0.  1.
        994   -1    0    0    0    0 -0.00000000000E+00 -0.00000000000E+00  0.11368683772E-12  0.17120000000E+03  0.17120000000E+03 0.  0.
         13    1    1    2    0    0 -0.78299761660E+01 -0.31363125971E+02  0.68737324140E+02  0.75959101439E+02  0.10566000000E+00 0.  1.
        994    1    1    2    0    0  0.59380794652E+01  0.73226368174E+01  0.79025666234E+01  0.17164140630E+03  0.17120000000E+03 0.  0.
        998    1    1    2    0    0  0.18918967008E+01  0.24040489153E+02  0.14233601055E+04  0.14235994923E+04  0.10000000000E+02 0.  1.
</event>
<event>
 5    1  0.1720307E-008  0.3862216E+03  0.7957747E-01  0.3424508E+00
         13   -1    0    0    0    0  0.00000000000E+00  0.00000000000E+00  0.14999999963E+04  0.15000000000E+04  0.10566000000E+00 0.  1.
        994   -1    0    0    0    0 -0.00000000000E+00 -0.00000000000E+00  0.11368683772E-12  0.17120000000E+03  0.17120000000E+03 0.  0.
         13    1    1    2    0    0 -0.90923152260E+01  0.51333974841E+01  0.54410497842E+02  0.55403388031E+02  0.10566000000E+00 0.  1.
        994    1    1    2    0    0  0.16309577750E+01 -0.96318825431E+01  0.13374924926E+01  0.17148370789E+03  0.17120000000E+03 0.  0.
        998    1    1    2    0    0  0.74613574510E+01  0.44984850590E+01  0.14442520059E+04  0.14443129041E+04  0.10000000000E+02 0.  1.
</event>
<event>
 5    1  0.1321379E-008  0.3736271E+03  0.7957747E-01  0.3479386E+00
         13   -1    0    0    0    0  0.00000000000E+00  0.00000000000E+00  0.14999999963E+04  0.15000000000E+04  0.10566000000E+00 0.  1.
        994   -1    0    0    0    0 -0.00000000000E+00 -0.00000000000E+00  0.11368683772E-12  0.17120000000E+03  0.17120000000E+03 0.  0.
         13    1    1    2    0    0 -0.61461172849E+02  0.24185839740E+02  0.14142906120E+03  0.15609170743E+03  0.10566000000E+00 0.  1.
        994    1    1    2    0    0  0.73035743185E+02 -0.34468927157E+02  0.36340713471E+02  0.19274961525E+03  0.17120000000E+03 0.  0.
        998    1    1    2    0    0 -0.11574570336E+02  0.10283087418E+02  0.13222302216E+04  0.13223586773E+04  0.10000000000E+02 0.  1.
</event>
<event>
 5    1  0.1321379E-008  0.3863178E+03  0.7957747E-01  0.3424102E+00
         13   -1    0    0    0    0  0.00000000000E+00  0.00000000000E+00  0.14999999963E+04  0.15000000000E+04  0.10566000000E+00 0.  1.
        994   -1    0    0    0    0 -0.00000000000E+00 -0.00000000000E+00  0.11368683772E-12  0.17120000000E+03  0.17120000000E+03 0.  0.
         13    1    1    2    0    0  0.80073225501E+02  0.38300191908E+02  0.18841281288E+03  0.20827391907E+03  0.10566000000E+00 0.  1.
        994    1    1    2    0    0 -0.50887886261E+02 -0.37616079596E+02  0.34853023888E+02  0.18581905092E+03  0.17120000000E+03 0.  0.
        998    1    1    2    0    0 -0.29185339241E+02 -0.68411231198E+00  0.12767341595E+04  0.12771070300E+04  0.10000000000E+02 0.  1.
</event>
<event>
 5    1  0.1321379E-008  0.3816593E+03  0.7957747E-01  0.3443965E+00
         13   -1    0    0    0    0  0.00000000000E+00  0.00000000000E+00  0.14999999963E+04  0.15000000000E+04  0.10566000000E+00 0. -1.
        994   -1    0    0    0    0 -0.00000000000E+00 -0.00000000000E+00  0.11368683772E-12  0.17120000000E+03  0.17120000000E+03 0.  0.
         13    1    1    2    0    0 -0.22708090036E+02  0.25474093463E+02  0.30274772543E+02  0.45619730461E+02  0.10566000000E+00 0. -1.
        994    1    1    2    0    0 -0.13200037818E+02  0.23316325932E+02  0.19863142073E+02  0.17441868153E+03  0.17120000000E+03 0.  0.
        998    1    1    2    0    0  0.35908127854E+02 -0.48790419395E+02  0.14498620817E+04  0.14511615880E+04  0.10000000000E+02 0. -1.
</event>
<event>
 5    1  0.1321379E-008  0.3856943E+03  0.7957747E-01  0.3426733E+00
         13   -1    0    0    0    0  0.00000000000E+00  0.00000000000E+00  0.14999999963E+04  0.15000000000E+04  0.10566000000E+00 0.  1.
        994   -1    0    0    0    0 -0.00000000000E+00 -0.00000000000E+00  0.11368683772E-12  0.17120000000E+03  0.17120000000E+03 0.  0.
         13    1    1    2    0    0  0.32202529003E+01 -0.10114774007E+02  0.45089888325E+02  0.46322649699E+02  0.10566000000E+00 0.  1.
        994    1    1    2    0    0 -0.43711777460E+01  0.22166638883E+01  0.13646451299E+01  0.17127557634E+03  0.17120000000E+03 0.  0.
        998    1    1    2    0    0  0.11509248457E+01  0.78981101189E+01  0.14535454628E+04  0.14536017740E+04  0.10000000000E+02 0.  1.
</event>
<event>
 5    1  0.1321379E-008  0.3823010E+03  0.7957747E-01  0.3441200E+00
         13   -1    0    0    0    0  0.00000000000E+00  0.00000000000E+00  0.14999999963E+04  0.15000000000E+04  0.10566000000E+00 0.  1.
        994   -1    0    0    0    0 -0.00000000000E+00 -0.00000000000E+00  0.11368683772E-12  0.17120000000E+03  0.17120000000E+03 0.  0.
         13    1    1    2    0    0  0.47656552844E+02 -0.38517535008E+02  0.10790724563E+03  0.12409162887E+03  0.10566000000E+00 0.  1.
        994    1    1    2    0    0 -0.82499768893E+01  0.21422540954E+02  0.19525023407E+02  0.17383225799E+03  0.17120000000E+03 0.  0.
        998    1    1    2    0    0 -0.39406575955E+02  0.17094994053E+02  0.13725677272E+04  0.13732761131E+04  0.10000000000E+02 0.  1.
</event>
<event>
 5    1  0.1321379E-008  0.3707795E+03  0.7957747E-01  0.3492316E+00
         13   -1    0    0    0    0  0.00000000000E+00  0.00000000000E+00  0.14999999963E+04  0.15000000000E+04  0.10566000000E+00 0.  1.
        994   -1    0    0    0    0 -0.00000000000E+00 -0.00000000000E+00  0.11368683772E-12  0.17120000000E+03  0.17120000000E+03 0.  0.
         13    1    1    2    0    0 -0.15983987789E+03  0.35590525547E+02  0.64138602647E+03  0.66196035998E+03  0.10566000000E+00 0.  1.
        994    1    1    2    0    0  0.15552337264E+03 -0.32342886233E+02  0.10588812988E+03  0.25642799726E+03  0.17120000000E+03 0.  0.
        998    1    1    2    0    0  0.43165052518E+01 -0.32476393138E+01  0.75272583993E+03  0.75281164276E+03  0.10000000000E+02 0.  1.
</event>
<event>
 5    1  0.1321379E-008  0.4065215E+03  0.7957747E-01  0.3343229E+00
         13   -1    0    0    0    0  0.00000000000E+00  0.00000000000E+00  0.14999999963E+04  0.15000000000E+04  0.10566000000E+00 0. -1.
        994   -1    0    0    0    0 -0.00000000000E+00 -0.00000000000E+00  0.11368683772E-12  0.17120000000E+03  0.17120000000E+03 0.  0.
         13    1    1    2    0    0  0.16675107298E+01 -0.94287589961E+02  0.13714929416E+03  0.16644179243E+03  0.10566000000E+00 0. -1.
        994    1    1    2    0    0  0.48772947270E+02  0.52461841395E+02  0.52682468077E+02  0.19291430126E+03  0.17120000000E+03 0.  0.
        998    1    1    2    0    0 -0.50440458000E+02  0.41825748566E+02  0.13101682340E+04  0.13118439063E+04  0.10000000000E+02 0. -1.
</event>
<event>
 5    1  0.1321379E-008  0.3843073E+03  0.7957747E-01  0.3432616E+00
         13   -1    0    0    0    0  0.00000000000E+00  0.00000000000E+00  0.14999999963E+04  0.15000000000E+04  0.10566000000E+00 0.  1.
        994   -1    0    0    0    0 -0.00000000000E+00 -0.00000000000E+00  0.11368683772E-12  0.17120000000E+03  0.17120000000E+03 0.  0.
         13    1    1    2    0    0 -0.11941241061E+02 -0.36767262090E+01  0.38338270011E+02  0.40323016569E+02  0.10566000000E+00 0.  1.
        994    1    1    2    0    0  0.12645934977E+02  0.26791978166E+01  0.25254187146E+01  0.17170589830E+03  0.17120000000E+03 0.  0.
        998    1    1    2    0    0 -0.70469391654E+00  0.99752839234E+00  0.14591363076E+04  0.14591710851E+04  0.10000000000E+02 0.  1.
</event>
<event>
 5    1  0.1321379E-008  0.3858394E+03  0.7957747E-01  0.3426120E+00
         13   -1    0    0    0    0  0.00000000000E+00  0.00000000000E+00  0.14999999963E+04  0.15000000000E+04  0.10566000000E+00 0. -1.
        994   -1    0    0    0    0 -0.00000000000E+00 -0.00000000000E+00  0.11368683772E-12  0.17120000000E+03  0.17120000000E+03 0.  0.
         13    1    1    2    0    0 -0.34450467374E+00 -0.10340400586E+02  0.43531739339E+02  0.44744452859E+02  0.10566000000E+00 0. -1.
        994    1    1    2    0    0 -0.62026073374E+00  0.10585083497E+02  0.15827596467E+01  0.17153534284E+03  0.17120000000E+03 0.  0.
        998    1    1    2    0    0  0.96476540748E+00 -0.24468291143E+00  0.14548854973E+04  0.14549202043E+04  0.10000000000E+02 0. -1.
</event>
<event>
 5    1  0.1321379E-008  0.3731412E+03  0.7957747E-01  0.3481578E+00
         13   -1    0    0    0    0  0.00000000000E+00  0.00000000000E+00  0.14999999963E+04  0.15000000000E+04  0.10566000000E+00 0.  1.
        994   -1    0    0    0    0 -0.00000000000E+00 -0.00000000000E+00  0.11368683772E-12  0.17120000000E+03  0.17120000000E+03 0.  0.
         13    1    1    2    0    0  0.17817758634E+02 -0.44029915117E+02  0.87709367914E+02  0.99744926347E+02  0.10566000000E+00 0.  1.
        994    1    1    2    0    0 -0.13491917113E+01  0.22628786861E+02  0.14428093883E+02  0.17329596708E+03  0.17120000000E+03 0.  0.
        998    1    1    2    0    0 -0.16468566922E+02  0.21401128256E+02  0.13978625345E+04  0.13981591066E+04  0.10000000000E+02 0.  1.
</event>
<event>
 5    1  0.1321379E-008  0.3857937E+03  0.7957747E-01  0.3426313E+00
         13   -1    0    0    0    0  0.00000000000E+00  0.00000000000E+00  0.14999999963E+04  0.15000000000E+04  0.10566000000E+00 0. -1.
        994   -1    0    0    0    0 -0.00000000000E+00 -0.00000000000E+00  0.11368683772E-12  0.17120000000E+03  0.17120000000E+03 0.  0.
         13    1    1    2    0    0 -0.10581591674E+02  0.33805500241E+01  0.49991477690E+02  0.51210909058E+02  0.10566000000E+00 0. -1.
        994    1    1    2    0    0  0.74057246773E+01 -0.47210089079E+01  0.14896417698E+01  0.17143159486E+03  0.17120000000E+03 0.  0.
        998    1    1    2    0    0  0.31758669967E+01  0.13404588838E+01  0.14485188768E+04  0.14485574961E+04  0.10000000000E+02 0. -1.
</event>
<event>
 5    1  0.1321379E-008  0.3796239E+03  0.7957747E-01  0.3452798E+00
         13   -1    0    0    0    0  0.00000000000E+00  0.00000000000E+00  0.14999999963E+04  0.15000000000E+04  0.10566000000E+00 0. -1.
        994   -1    0    0    0    0 -0.00000000000E+00 -0.00000000000E+00  0.11368683772E-12  0.17120000000E+03  0.17120000000E+03 0.  0.
         13    1    1    2    0    0 -0.13672625655E+02  0.24194136866E+02  0.92164546423E+02  0.96263241855E+02  0.10566000000E+00 0. -1.
        994    1    1    2    0    0  0.86909280303E+01 -0.33294418404E+01  0.46131063424E+01  0.17151483365E+03  0.17120000000E+03 0.  0.
        998    1    1    2    0    0  0.49816976251E+01 -0.20864695025E+02  0.14032223435E+04  0.14034219245E+04  0.10000000000E+02 0. -1.
</event>
<event>
 5    1  0.1321379E-008  0.3811402E+03  0.7957747E-01  0.3446209E+00
         13   -1    0    0    0    0  0.00000000000E+00  0.00000000000E+00  0.14999999963E+04  0.15000000000E+04  0.10566000000E+00 0.  1.
        994   -1    0    0    0    0 -0.00000000000E+00 -0.00000000000E+00  0.11368683772E-12  0.17120000000E+03  0.17120000000E+03 0.  0.
         13    1    1    2    0    0 -0.13979195366E+02  0.15608439037E+02  0.65018500846E+02  0.68311476990E+02  0.10566000000E+00 0.  1.
        994    1    1    2    0    0 -0.29063821082E+00  0.34408356592E+01  0.35983969260E+01  0.17127262560E+03  0.17120000000E+03 0.  0.
        998    1    1    2    0    0  0.14269833577E+02 -0.19049274697E+02  0.14313830985E+04  0.14316158974E+04  0.10000000000E+02 0.  1.
</event>
<event>
 5    1  0.1321379E-008  0.4002692E+03  0.7957747E-01  0.3367387E+00
         13   -1    0    0    0    0  0.00000000000E+00  0.00000000000E+00  0.14999999963E+04  0.15000000000E+04  0.10566000000E+00 0.  1.
        994   -1    0    0    0    0 -0.00000000000E+00 -0.00000000000E+00  0.11368683772E-12  0.17120000000E+03  0.17120000000E+03 0.  0.
         13    1    1    2    0    0  0.94277693219E+02 -0.48106496665E+02  0.15105506846E+03  0.18444555655E+03  0.10566000000E+00 0.  1.
        994    1    1    2    0    0 -0.11163283905E+03  0.85099638031E+02  0.11020839041E+03  0.24730379791E+03  0.17120000000E+03 0.  0.
        998    1    1    2    0    0  0.17355145827E+02 -0.36993141367E+02  0.12387365374E+04  0.12394506455E+04  0.10000000000E+02 0.  1.
</event>
<event>
 5    1  0.1321379E-008  0.3787307E+03  0.7957747E-01  0.3456704E+00
         13   -1    0    0    0    0  0.00000000000E+00  0.00000000000E+00  0.14999999963E+04  0.15000000000E+04  0.10566000000E+00 0. -1.
        994   -1    0    0    0    0 -0.00000000000E+00 -0.00000000000E+00  0.11368683772E-12  0.17120000000E+03  0.17120000000E+03 0.  0.
         13    1    1    2    0    0 -0.45727384946E+02  0.85610267910E+01  0.25152584407E+03  0.25579199814E+03  0.10566000000E+00 0. -1.
        994    1    1    2    0    0  0.19080114917E+02  0.25305957155E+02  0.81545086082E+01  0.17429967947E+03  0.17120000000E+03 0.  0.
        998    1    1    2    0    0  0.26647270029E+02 -0.33866983946E+02  0.12403196436E+04  0.12411083224E+04  0.10000000000E+02 0. -1.
</event>
<event>
 5    1  0.1321379E-008  0.3707700E+03  0.7957747E-01  0.3492359E+00
         13   -1    0    0    0    0  0.00000000000E+00  0.00000000000E+00  0.14999999963E+04  0.15000000000E+04  0.10566000000E+00 0. -1.
        994   -1    0    0    0    0 -0.00000000000E+00 -0.00000000000E+00  0.11368683772E-12  0.17120000000E+03  0.17120000000E+03 0.  0.
         13    1    1    2    0    0  0.58243636321E+02  0.31615470189E+02  0.29858444269E+03  0.30585051857E+03  0.10566000000E+00 0. -1.
        994    1    1    2    0    0 -0.88500923692E+01 -0.32006265108E+01  0.91726106930E+01  0.17170365439E+03  0.17120000000E+03 0.  0.
        998    1    1    2    0    0 -0.49393543952E+02 -0.28414843678E+02  0.11922429429E+04  0.11936458270E+04  0.10000000000E+02 0. -1.
</event>
<event>
 5    1  0.1321379E-008  0.3789383E+03  0.7957747E-01  0.3455794E+00
         13   -1    0    0    0    0  0.00000000000E+00  0.00000000000E+00  0.14999999963E+04  0.15000000000E+04  0.10566000000E+00 0. -1.
        994   -1    0    0    0    0 -0.00000000000E+00 -0.00000000000E+00  0.11368683772E-12  0.17120000000E+03  0.17120000000E+03 0.  0.
         13    1    1    2    0    0 -0.40201627817E+02  0.13474329698E+02  0.22087496974E+03  0.22490774078E+03  0.10566000000E+00 0. -1.
        994    1    1    2    0    0  0.41835637945E+01 -0.38265982178E+01  0.47778723792E+01  0.17136047714E+03  0.17120000000E+03 0.  0.
        998    1    1    2    0    0  0.36018064023E+02 -0.96477314807E+01  0.12743471542E+04  0.12749317821E+04  0.10000000000E+02 0. -1.
</event>
<event>
 5    1  0.1321379E-008  0.3769510E+03  0.7957747E-01  0.3464543E+00
         13   -1    0    0    0    0  0.00000000000E+00  0.00000000000E+00  0.14999999963E+04  0.15000000000E+04  0.10566000000E+00 0. -1.
        994   -1    0    0    0    0 -0.00000000000E+00 -0.00000000000E+00  0.11368683772E-12  0.17120000000E+03  0.17120000000E+03 0.  0.
         13    1    1    2    0    0  0.50136413143E+01 -0.17318444220E+02  0.25888384490E+02  0.31548133463E+02  0.10566000000E+00 0. -1.
        994    1    1    2    0    0 -0.19584183828E+01  0.17801776097E+02  0.67641168059E+01  0.17226703663E+03  0.17120000000E+03 0.  0.
        998    1    1    2    0    0 -0.30552229315E+01 -0.48333187766E+00  0.14673474950E+04  0.14673848299E+04  0.10000000000E+02 0. -1.
</event>
<event>
 5    1  0.1321379E-008  0.3824887E+03  0.7957747E-01  0.3440393E+00
         13   -1    0    0    0    0  0.00000000000E+00  0.00000000000E+00  0.14999999963E+04  0.15000000000E+04  0.10566000000E+00 0.  1.
        994   -1    0    0    0    0 -0.00000000000E+00 -0.00000000000E+00  0.11368683772E-12  0.17120000000E+03  0.17120000000E+03 0.  0.
         13    1    1    2    0    0 -0.15689564516E+02  0.17462811054E+02  0.92352907814E+02  0.95289993968E+02  0.10566000000E+00 0.  1.
        994    1    1    2    0    0  0.10213358929E+02 -0.16322606508E+02  0.41122921576E+01  0.17232843970E+03  0.17120000000E+03 0.  0.
        998    1    1    2    0    0  0.54762055875E+01 -0.11402045457E+01  0.14035347963E+04  0.14035815663E+04  0.10000000000E+02 0.  1.
</event>
<event>
 5    1  0.1321379E-008  0.3692619E+03  0.7957747E-01  0.3499290E+00
         13   -1    0    0    0    0  0.00000000000E+00  0.00000000000E+00  0.14999999963E+04  0.15000000000E+04  0.10566000000E+00 0.  1.
        994   -1    0    0    0    0 -0.00000000000E+00 -0.00000000000E+00  0.11368683772E-12  0.17120000000E+03  0.17120000000E+03 0.  0.
         13    1    1    2    0    0  0.70570925114E+01  0.65649494383E+02  0.20893209802E+03  0.21911707240E+03  0.10566000000E+00 0.  1.
        994    1    1    2    0    0 -0.31457536805E+01 -0.50968045704E+02  0.18749687822E+02  0.17963470779E+03  0.17120000000E+03 0.  0.
        998    1    1    2    0    0 -0.39113388309E+01 -0.14681448679E+02  0.12723182104E+04  0.12724482198E+04  0.10000000000E+02 0.  1.
</event>
<event>
 5    1  0.1321379E-008  0.3793581E+03  0.7957747E-01  0.3453958E+00
         13   -1    0    0    0    0  0.00000000000E+00  0.00000000000E+00  0.14999999963E+04  0.15000000000E+04  0.10566000000E+00 0.  1.
        994   -1    0    0    0    0 -0.00000000000E+00 -0.00000000000E+00  0.11368683772E-12  0.17120000000E+03  0.17120000000E+03 0.  0.
         13    1    1    2    0    0  0.24664158792E+02  0.23938286440E+01  0.66194292311E+02  0.70680595945E+02  0.10566000000E+00 0.  1.
        994    1    1    2    0    0 -0.19334004654E+02 -0.32381470574E+01  0.57459669964E+01  0.17241445841E+03  0.17120000000E+03 0.  0.
        998    1    1    2    0    0 -0.53301541383E+01  0.84431841340E+00  0.14280597370E+04  0.14281049456E+04  0.10000000000E+02 0.  1.
</event>
<event>
 5    1  0.1321379E-008  0.3792807E+03  0.7957747E-01  0.3454296E+00
         13   -1    0    0    0    0  0.00000000000E+00  0.00000000000E+00  0.14999999963E+04  0.15000000000E+04  0.10566000000E+00 0. -1.
        994   -1    0    0    0    0 -0.00000000000E+00 -0.00000000000E+00  0.11368683772E-12  0.17120000000E+03  0.17120000000E+03 0.  0.
         13    1    1    2    0    0 -0.17043152866E+02  0.91153694280E+01  0.39467662720E+02  0.43946178265E+02  0.10566000000E+00 0. -1.
        994    1    1    2    0    0  0.14239969380E+02 -0.58812735880E+01  0.52924644780E+01  0.17197330109E+03  0.17120000000E+03 0.  0.
        998    1    1    2    0    0  0.28031834858E+01 -0.32340958400E+01  0.14552398691E+04  0.14552805206E+04  0.10000000000E+02 0. -1.
</event>
<event>
 5    1  0.1321379E-008  0.3802741E+03  0.7957747E-01  0.3449966E+00
         13   -1    0    0    0    0  0.00000000000E+00  0.00000000000E+00  0.14999999963E+04  0.15000000000E+04  0.10566000000E+00 0. -1.
        994   -1    0    0    0    0 -0.00000000000E+00 -0.00000000000E+00  0.11368683772E-12  0.17120000000E+03  0.17120000000E+03 0.  0.
         13    1    1    2    0    0  0.51910495501E+01 -0.34158297288E+02  0.15352233742E+03  0.15736217944E+03  0.10566000000E+00 0. -1.
        994    1    1    2    0    0  0.13048634277E-01  0.14947107045E+02  0.47413740882E+01  0.17191665657E+03  0.17120000000E+03 0.  0.
        998    1    1    2    0    0 -0.52040981844E+01  0.19211190243E+02  0.13417362848E+04  0.13419211640E+04  0.10000000000E+02 0. -1.
</event>
<event>
 5    1  0.1402996E-008  0.3860251E+03  0.7957747E-01  0.3425336E+00
         13   -1    0    0    0    0  0.00000000000E+00  0.00000000000E+00  0.14999999963E+04  0.15000000000E+04  0.10566000000E+00 0. -1.
        994   -1    0    0    0    0 -0.00000000000E+00 -0.00000000000E+00  0.11368683772E-12  0.17120000000E+03  0.17120000000E+03 0.  0.
         13    1    1    2    0    0  0.83293352648E+01  0.70415584665E+01  0.60330669320E+02  0.61308744860E+02  0.10566000000E+00 0. -1.
        994    1    1    2    0    0  0.79847072438E+01  0.34791394198E+01  0.13707157616E+01  0.17142689061E+03  0.17120000000E+03 0.  0.
        998    1    1    2    0    0 -0.16314042509E+02 -0.10520697886E+02  0.14382986112E+04  0.14384643645E+04  0.10000000000E+02 0. -1.
</event>
<event>
 5    1  0.1321379E-008  0.3689924E+03  0.7957747E-01  0.3500535E+00
         13   -1    0    0    0    0  0.00000000000E+00  0.00000000000E+00  0.14999999963E+04  0.15000000000E+04  0.10566000000E+00 0.  1.
        994   -1    0    0    0    0 -0.00000000000E+00 -0.00000000000E+00  0.11368683772E-12  0.17120000000E+03  0.17120000000E+03 0.  0.
         13    1    1    2    0    0  0.47486961071E+01  0.23335785847E+02  0.22634502967E+02  0.32854845980E+02  0.10566000000E+00 0.  1.
        994    1    1    2    0    0 -0.62404852068E+01 -0.20677294378E+02  0.12033774263E+02  0.17297614252E+03  0.17120000000E+03 0.  0.
        998    1    1    2    0    0  0.14917890997E+01 -0.26584914684E+01  0.14653317190E+04  0.14653690115E+04  0.10000000000E+02 0.  1.
</event>
<event>
 5    1  0.1321379E-008  0.3711537E+03  0.7957747E-01  0.3490605E+00
         13   -1    0    0    0    0  0.00000000000E+00  0.00000000000E+00  0.14999999963E+04  0.15000000000E+04  0.10566000000E+00 0.  1.
        994   -1    0    0    0    0 -0.00000000000E+00 -0.00000000000E+00  0.11368683772E-12  0.17120000000E+03  0.17120000000E+03 0.  0.
         13    1    1    2    0    0 -0.44260687947E+02 -0.41028884596E+02  0.29360690179E+03  0.29974556179E+03  0.10566000000E+00 0.  1.
        994    1    1    2    0    0 -0.43896150182E+01 -0.16535278548E+02  0.96759072737E+01  0.17232454073E+03  0.17120000000E+03 0.  0.
        998    1    1    2    0    0  0.48650302965E+02  0.57564163144E+02  0.11967171872E+04  0.11991298975E+04  0.10000000000E+02 0.  1.
</event>
<event>
 5    1  0.1321379E-008  0.3827234E+03  0.7957747E-01  0.3439385E+00
         13   -1    0    0    0    0  0.00000000000E+00  0.00000000000E+00  0.14999999963E+04  0.15000000000E+04  0.10566000000E+00 0.  1.
        994   -1    0    0    0    0 -0.00000000000E+00 -0.00000000000E+00  0.11368683772E-12  0.17120000000E+03  0.17120000000E+03 0.  0.
         13    1    1    2    0    0  0.13492805838E+02  0.20375621474E+02  0.10074763210E+03  0.10366927364E+03  0.10566000000E+00 0.  1.
        994    1    1    2    0    0 -0.16558134119E+02 -0.19239509637E+02  0.49023210166E+01  0.17314099251E+03  0.17120000000E+03 0.  0.
        998    1    1    2    0    0  0.30653282814E+01 -0.11361118372E+01  0.13943500432E+04  0.13943897338E+04  0.10000000000E+02 0.  1.
</event>
<event>
 5    1  0.1321379E-008  0.3849585E+03  0.7957747E-01  0.3429848E+00
         13   -1    0    0    0    0  0.00000000000E+00  0.00000000000E+00  0.14999999963E+04  0.15000000000E+04  0.10566000000E+00 0.  1.
        994   -1    0    0    0    0 -0.00000000000E+00 -0.00000000000E+00  0.11368683772E-12  0.17120000000E+03  0.17120000000E+03 0.  0.
         13    1    1    2    0    0  0.12373435264E+02 -0.68320628206E+01  0.59084270022E+02  0.60751470029E+02  0.10566000000E+00 0.  1.
        994    1    1    2    0    0 -0.12010374542E+02  0.57180805942E+01  0.22329472399E+01  0.17173052028E+03  0.17120000000E+03 0.  0.
        998    1    1    2    0    0 -0.36306072230E+00  0.11139822264E+01  0.14386827790E+04  0.14387180097E+04  0.10000000000E+02 0.  1.
</event>
<event>
 5    1  0.1321379E-008  0.3725771E+03  0.7957747E-01  0.3484130E+00
         13   -1    0    0    0    0  0.00000000000E+00  0.00000000000E+00  0.14999999963E+04  0.15000000000E+04  0.10566000000E+00 0. -1.
        994   -1    0    0    0    0 -0.00000000000E+00 -0.00000000000E+00  0.11368683772E-12  0.17120000000E+03  0.17120000000E+03 0.  0.
         13    1    1    2    0    0 -0.37533656028E+01  0.14551429701E+03  0.62619452001E+03  0.64289041558E+03  0.10566000000E+00 0. -1.
        994    1    1    2    0    0 -0.17944711833E+02 -0.12049726976E+03  0.66686802851E+02  0.22044993622E+03  0.17120000000E+03 0.  0.
        998    1    1    2    0    0  0.21698077436E+02 -0.25017027251E+02  0.80711867341E+03  0.80785964820E+03  0.10000000000E+02 0. -1.
</event>
<event>
 5    1  0.1321379E-008  0.3800605E+03  0.7957747E-01  0.3450895E+00
         13   -1    0    0    0    0  0.00000000000E+00  0.00000000000E+00  0.14999999963E+04  0.15000000000E+04  0.10566000000E+00 0.  1.
        994   -1    0    0    0    0 -0.00000000000E+00 -0.00000000000E+00  0.11368683772E-12  0.17120000000E+03  0.17120000000E+03 0.  0.
         13    1    1    2    0    0  0.11936401164E+02  0.13833336563E+01  0.15872899511E+02  0.19908575732E+02  0.10566000000E+00 0.  1.
        994    1    1    2    0    0 -0.78690034347E+01 -0.10838284054E+01  0.43135310301E+01  0.17143845091E+03  0.17120000000E+03 0.  0.
        998    1    1    2    0    0 -0.40673977293E+01 -0.29950525093E+00  0.14798135657E+04  0.14798529734E+04  0.10000000000E+02 0.  0.
</event>
<event>
 5    1  0.1321379E-008  0.3738119E+03  0.7957747E-01  0.3478553E+00
         13   -1    0    0    0    0  0.00000000000E+00  0.00000000000E+00  0.14999999963E+04  0.15000000000E+04  0.10566000000E+00 0. -1.
        994   -1    0    0    0    0 -0.00000000000E+00 -0.00000000000E+00  0.11368683772E-12  0.17120000000E+03  0.17120000000E+03 0.  0.
         13    1    1    2    0    0 -0.39015336192E+02  0.12582359750E+02  0.12160593803E+03  0.12832976102E+03  0.10566000000E+00 0. -1.
        994    1    1    2    0    0  0.71596944070E+01 -0.38594777101E+01  0.75159169485E+01  0.17155782057E+03  0.17120000000E+03 0.  0.
        998    1    1    2    0    0  0.31855641785E+02 -0.87228820401E+01  0.13708781413E+04  0.13713124184E+04  0.10000000000E+02 0. -1.
</event>
<event>
 5    1  0.1321379E-008  0.3817040E+03  0.7957747E-01  0.3443772E+00
         13   -1    0    0    0    0  0.00000000000E+00  0.00000000000E+00  0.14999999963E+04  0.15000000000E+04  0.10566000000E+00 0. -1.
        994   -1    0    0    0    0 -0.00000000000E+00 -0.00000000000E+00  0.11368683772E-12  0.17120000000E+03  0.17120000000E+03 0.  0.
         13    1    1    2    0    0 -0.10974821457E+02  0.24287450831E+02  0.10410160076E+03  0.10745920816E+03  0.10566000000E+00 0. -1.
        994    1    1    2    0    0  0.13777681224E+02 -0.17481818695E+02  0.49241256760E+01  0.17271110416E+03  0.17120000000E+03 0.  0.
        998    1    1    2    0    0 -0.28028597678E+01 -0.68056321358E+01  0.13909742698E+04  0.13910296877E+04  0.10000000000E+02 0. -1.
</event>
<event>
 5    1  0.1321379E-008  0.3857948E+03  0.7957747E-01  0.3426308E+00
         13   -1    0    0    0    0  0.00000000000E+00  0.00000000000E+00  0.14999999963E+04  0.15000000000E+04  0.10566000000E+00 0. -1.
        994   -1    0    0    0    0 -0.00000000000E+00 -0.00000000000E+00  0.11368683772E-12  0.17120000000E+03  0.17120000000E+03 0.  0.
         13    1    1    2    0    0  0.92420350089E+01  0.11275841757E+02  0.68084552661E+02  0.69628135790E+02  0.10566000000E+00 0. -1.
        994    1    1    2    0    0 -0.32002340204E+02 -0.30392285807E+02  0.76515786454E+01  0.17696278555E+03  0.17120000000E+03 0.  0.
        998    1    1    2    0    0  0.22760305196E+02  0.19116444050E+02  0.14242638650E+04  0.14246090787E+04  0.10000000000E+02 0. -1.
</event>
<event>
 5    1  0.1321379E-008  0.3835873E+03  0.7957747E-01  0.3435686E+00
         13   -1    0    0    0    0  0.00000000000E+00  0.00000000000E+00  0.14999999963E+04  0.15000000000E+04  0.10566000000E+00 0. -1.
        994   -1    0    0    0    0 -0.00000000000E+00 -0.00000000000E+00  0.11368683772E-12  0.17120000000E+03  0.17120000000E+03 0.  0.
         13    1    1    2    0    0 -0.74045566816E+00  0.11867244975E+02  0.29029413588E+02  0.31370333043E+02  0.10566000000E+00 0. -1.
        994    1    1    2    0    0 -0.17510186442E+01 -0.13252457027E+02  0.29237223930E+01  0.17174598055E+03  0.17120000000E+03 0.  0.
        998    1    1    2    0    0  0.24914743124E+01  0.13852120516E+01  0.14680468603E+04  0.14680836864E+04  0.10000000000E+02 0. -1.
</event>
<event>
 5    1  0.1321379E-008  0.3732359E+03  0.7957747E-01  0.3481150E+00
         13   -1    0    0    0    0  0.00000000000E+00  0.00000000000E+00  0.14999999963E+04  0.15000000000E+04  0.10566000000E+00 0. -1.
        994   -1    0    0    0    0 -0.00000000000E+00 -0.00000000000E+00  0.11368683772E-12  0.17120000000E+03  0.17120000000E+03 0.  0.
         13    1    1    2    0    0 -0.96822916853E+01  0.13682923308E+02  0.14905798365E+02  0.22431298479E+02  0.10566000000E+00 0. -1.
        994    1    1    2    0    0 -0.76704839490E+01 -0.29585778898E+02  0.10788455959E+02  0.17424117028E+03  0.17120000000E+03 0.  0.
        998    1    1    2    0    0  0.17352775634E+02  0.15902855590E+02  0.14743057420E+04  0.14745275312E+04  0.10000000000E+02 0. -1.
</event>
<event>
 5    1  0.1321379E-008  0.3886809E+03  0.7957747E-01  0.3414209E+00
         13   -1    0    0    0    0  0.00000000000E+00  0.00000000000E+00  0.14999999963E+04  0.15000000000E+04  0.10566000000E+00 0. -1.
        994   -1    0    0    0    0 -0.00000000000E+00 -0.00000000000E+00  0.11368683772E-12  0.17120000000E+03  0.17120000000E+03 0.  0.
         13    1    1    2    0    0 -0.81219509376E+01  0.42336616889E+02  0.33881092079E+02  0.54829688866E+02  0.10566000000E+00 0. -1.
        994    1    1    2    0    0  0.15387741357E+02 -0.52682032030E+02  0.32542969610E+02  0.18270376010E+03  0.17120000000E+03 0.  0.
        998    1    1    2    0    0 -0.72657904189E+01  0.10345415140E+02  0.14335759346E+04  0.14336665510E+04  0.10000000000E+02 0. -1.
</event>
<event>
 5    1  0.1321379E-008  0.3857331E+03  0.7957747E-01  0.3426569E+00
         13   -1    0    0    0    0  0.00000000000E+00  0.00000000000E+00  0.14999999963E+04  0.15000000000E+04  0.10566000000E+00 0.  1.
        994   -1    0    0    0    0 -0.00000000000E+00 -0.00000000000E+00  0.11368683772E-12  0.17120000000E+03  0.17120000000E+03 0.  0.
         13    1    1    2    0    0  0.14401893139E+02 -0.61933630764E+01  0.89358376488E+02  0.90723221310E+02  0.10566000000E+00 0.  1.
        994    1    1    2    0    0 -0.22123816408E+02  0.19641950724E+01  0.28867856802E+01  0.17265889739E+03  0.17120000000E+03 0.  0.
        998    1    1    2    0    0  0.77219232699E+01  0.42291680040E+01  0.14077548341E+04  0.14078178813E+04  0.10000000000E+02 0.  1.
</event>
<event>
 5    1  0.1321379E-008  0.3845331E+03  0.7957747E-01  0.3431655E+00
         13   -1    0    0    0    0  0.00000000000E+00  0.00000000000E+00  0.14999999963E+04  0.15000000000E+04  0.10566000000E+00 0.  1.
        994   -1    0    0    0    0 -0.00000000000E+00 -0.00000000000E+00  0.11368683772E-12  0.17120000000E+03  0.17120000000E+03 0.  0.
         13    1    1    2    0    0  0.12248681327E+02  0.93378859577E+01  0.57607298114E+02  0.59630849972E+02  0.10566000000E+00 0.  1.
        994    1    1    2    0    0 -0.10917852476E+02 -0.31836599352E+02  0.56019681385E+01  0.17456686572E+03  0.17120000000E+03 0.  0.
        998    1    1    2    0    0 -0.13308288504E+01  0.22498713395E+02  0.14367907300E+04  0.14370022843E+04  0.10000000000E+02 0.  1.
</event>
<event>
 5    1  0.1321379E-008  0.3808221E+03  0.7957747E-01  0.3447587E+00
         13   -1    0    0    0    0  0.00000000000E+00  0.00000000000E+00  0.14999999963E+04  0.15000000000E+04  0.10566000000E+00 0.  1.
        994   -1    0    0    0    0 -0.00000000000E+00 -0.00000000000E+00  0.11368683772E-12  0.17120000000E+03  0.17120000000E+03 0.  0.
         13    1    1    2    0    0 -0.25309165713E+02 -0.22177761426E+02  0.13581981351E+03  0.13992655172E+03  0.10566000000E+00 0.  1.
        994    1    1    2    0    0  0.18185882918E+02  0.35790813341E+02  0.91106914479E+01  0.17607996296E+03  0.17120000000E+03 0.  0.
        998    1    1    2    0    0  0.71232827956E+01 -0.13613051915E+02  0.13550694913E+04  0.13551934853E+04  0.10000000000E+02 0.  1.
</event>
<event>
 5    1  0.1321379E-008  0.3850324E+03  0.7957747E-01  0.3429535E+00
         13   -1    0    0    0    0  0.00000000000E+00  0.00000000000E+00  0.14999999963E+04  0.15000000000E+04  0.10566000000E+00 0.  1.
        994   -1    0    0    0    0 -0.00000000000E+00 -0.00000000000E+00  0.11368683772E-12  0.17120000000E+03  0.17120000000E+03 0.  0.
         13    1    1    2    0    0 -0.70084486459E+01  0.89567726347E+01  0.39472171208E+02  0.41078042704E+02  0.10566000000E+00 0.  1.
        994    1    1    2    0    0  0.13060448912E+02 -0.26559346612E+01  0.21983869514E+01  0.17173206521E+03  0.17120000000E+03 0.  0.
        998    1    1    2    0    0 -0.60520002659E+01 -0.63008379735E+01  0.14583294381E+04  0.14583898921E+04  0.10000000000E+02 0.  1.
</event>
<event>
 5    1  0.1321379E-008  0.3746027E+03  0.7957747E-01  0.3475001E+00
         13   -1    0    0    0    0  0.00000000000E+00  0.00000000000E+00  0.14999999963E+04  0.15000000000E+04  0.10566000000E+00 0. -1.
        994   -1    0    0    0    0 -0.00000000000E+00 -0.00000000000E+00  0.11368683772E-12  0.17120000000E+03  0.17120000000E+03 0.  0.
         13    1    1    2    0    0 -0.13201805391E+02 -0.23452223118E+02  0.55517476556E+02  0.61696805443E+02  0.10566000000E+00 0. -1.
        994    1    1    2    0    0 -0.47870748292E+02  0.99143538447E+01  0.15061408402E+02  0.17867901101E+03  0.17120000000E+03 0.  0.
        998    1    1    2    0    0  0.61072553683E+02  0.13537869273E+02  0.14294211113E+04  0.14308241835E+04  0.10000000000E+02 0. -1.
</event>
<event>
 5    1  0.1321379E-008  0.2591779E+03  0.7957747E-01  0.4238814E+00
         13   -1    0    0    0    0  0.00000000000E+00  0.00000000000E+00  0.14999999963E+04  0.15000000000E+04  0.10566000000E+00 0. -1.
        994   -1    0    0    0    0 -0.00000000000E+00 -0.00000000000E+00  0.11368683772E-12  0.17120000000E+03  0.17120000000E+03 0.  0.
         13    1    1    2    0    0 -0.91337345873E+02  0.95295585692E+02  0.73504180629E+03  0.74679999167E+03  0.10566000000E+00 0. -1.
        994    1    1    2    0    0 -0.72012292967E+02  0.29056045648E+02  0.71506381962E+02  0.20112838385E+03  0.17120000000E+03 0.  0.
        998    1    1    2    0    0  0.16334963884E+03 -0.12435163134E+03  0.69345180803E+03  0.72327162448E+03  0.10000000000E+02 0. -1.
</event>
<event>
 5    1  0.1321379E-008  0.3836462E+03  0.7957747E-01  0.3435434E+00
         13   -1    0    0    0    0  0.00000000000E+00  0.00000000000E+00  0.14999999963E+04  0.15000000000E+04  0.10566000000E+00 0.  1.
        994   -1    0    0    0    0 -0.00000000000E+00 -0.00000000000E+00  0.11368683772E-12  0.17120000000E+03  0.17120000000E+03 0.  0.
         13    1    1    2    0    0 -0.18260600718E+02  0.18050894238E+02  0.13557868078E+03  0.13798867405E+03  0.10566000000E+00 0.  1.
        994    1    1    2    0    0  0.27663737494E+02 -0.39091565795E+01  0.48863410591E+01  0.17353351321E+03  0.17120000000E+03 0.  0.
        998    1    1    2    0    0 -0.94031367766E+01 -0.14141737658E+02  0.13595349744E+04  0.13596778127E+04  0.10000000000E+02 0.  1.
</event>
<event>
 5    1  0.1321379E-008  0.3762559E+03  0.7957747E-01  0.3467625E+00
         13   -1    0    0    0    0  0.00000000000E+00  0.00000000000E+00  0.14999999963E+04  0.15000000000E+04  0.10566000000E+00 0.  1.
        994   -1    0    0    0    0 -0.00000000000E+00 -0.00000000000E+00  0.11368683772E-12  0.17120000000E+03  0.17120000000E+03 0.  0.
         13    1    1    2    0    0  0.86289138687E+02  0.41152525755E+02  0.24403587805E+03  0.26209324061E+03  0.10566000000E+00 0.  1.
        994    1    1    2    0    0 -0.95655762892E+02 -0.52587936317E+02  0.58208700850E+02  0.21121839142E+03  0.17120000000E+03 0.  0.
        998    1    1    2    0    0  0.93666242054E+01  0.11435410562E+02  0.11977554174E+04  0.11978883680E+04  0.10000000000E+02 0.  1.
</event>
<event>
 5    1  0.1321379E-008  0.3688698E+03  0.7957747E-01  0.3501101E+00
         13   -1    0    0    0    0  0.00000000000E+00  0.00000000000E+00  0.14999999963E+04  0.15000000000E+04  0.10566000000E+00 0.  1.
        994   -1    0    0    0    0 -0.00000000000E+00 -0.00000000000E+00  0.11368683772E-12  0.17120000000E+03  0.17120000000E+03 0.  0.
         13    1    1    2    0    0  0.13198011426E+02  0.49484753419E+02  0.13406883539E+03  0.14351791566E+03  0.10566000000E+00 0.  1.
        994    1    1    2    0    0 -0.15789533042E+02 -0.20028236326E+02  0.12122085787E+02  0.17351318269E+03  0.17120000000E+03 0.  0.
        998    1    1    2    0    0  0.25915216155E+01 -0.29456517093E+02  0.13538090751E+04  0.13541689017E+04  0.10000000000E+02 0.  1.
</event>
<event>
 5    1  0.1321379E-008  0.3848197E+03  0.7957747E-01  0.3430437E+00
         13   -1    0    0    0    0  0.00000000000E+00  0.00000000000E+00  0.14999999963E+04  0.15000000000E+04  0.10566000000E+00 0. -1.
        994   -1    0    0    0    0 -0.00000000000E+00 -0.00000000000E+00  0.11368683772E-12  0.17120000000E+03  0.17120000000E+03 0.  0.
         13    1    1    2    0    0 -0.15544258209E+02  0.11728920350E+01  0.68849772907E+02  0.70592506913E+02  0.10566000000E+00 0. -1.
        994    1    1    2    0    0  0.13951299359E+02 -0.30535907515E+01  0.23911450147E+01  0.17181129400E+03  0.17120000000E+03 0.  0.
        998    1    1    2    0    0  0.15929588504E+01  0.18806987165E+01  0.14287590784E+04  0.14287961991E+04  0.10000000000E+02 0. -1.
</event>
<event>
 5    1  0.1321379E-008  0.3765075E+03  0.7957747E-01  0.3466508E+00
         13   -1    0    0    0    0  0.00000000000E+00  0.00000000000E+00  0.14999999963E+04  0.15000000000E+04  0.10566000000E+00 0. -1.
        994   -1    0    0    0    0 -0.00000000000E+00 -0.00000000000E+00  0.11368683772E-12  0.17120000000E+03  0.17120000000E+03 0.  0.
         13    1    1    2    0    0  0.39287398398E+02 -0.36187802740E+02  0.22083879136E+03  0.22720660130E+03  0.10566000000E+00 0. -1.
        994    1    1    2    0    0 -0.44459250796E+02  0.15879717325E+02  0.13481852042E+02  0.17810106889E+03  0.17120000000E+03 0.  0.
        998    1    1    2    0    0  0.51718523982E+01  0.20308085415E+02  0.12656793529E+04  0.12658923298E+04  0.10000000000E+02 0. -1.
</event>
<event>
 5    1  0.1321379E-008  0.3809787E+03  0.7957747E-01  0.3446908E+00
         13   -1    0    0    0    0  0.00000000000E+00  0.00000000000E+00  0.14999999963E+04  0.15000000000E+04  0.10566000000E+00 0. -1.
        994   -1    0    0    0    0 -0.00000000000E+00 -0.00000000000E+00  0.11368683772E-12  0.17120000000E+03  0.17120000000E+03 0.  0.
         13    1    1    2    0    0  0.10393845155E+02 -0.69598461751E+01  0.20790861121E+02  0.24264017517E+02  0.10566000000E+00 0. -1.
        994    1    1    2    0    0  0.78980682311E+00 -0.75810391366E+01  0.38335391017E+01  0.17141246154E+03  0.17120000000E+03 0.  0.
        998    1    1    2    0    0 -0.11183651978E+02  0.14540885312E+02  0.14753755961E+04  0.14755235209E+04  0.10000000000E+02 0. -1.
</event>
<event>
 5    1  0.1321379E-008  0.3767499E+03  0.7957747E-01  0.3465433E+00
         13   -1    0    0    0    0  0.00000000000E+00  0.00000000000E+00  0.14999999963E+04  0.15000000000E+04  0.10566000000E+00 0. -1.
        994   -1    0    0    0    0 -0.00000000000E+00 -0.00000000000E+00  0.11368683772E-12  0.17120000000E+03  0.17120000000E+03 0.  0.
         13    1    1    2    0    0  0.55242535668E+02 -0.21308769235E+02  0.30640888527E+03  0.31207726211E+03  0.10566000000E+00 0. -1.
        994    1    1    2    0    0 -0.27067058076E+02  0.17900730138E+02  0.93496604540E+01  0.17449904849E+03  0.17120000000E+03 0.  0.
        998    1    1    2    0    0 -0.28175477592E+02  0.34080390967E+01  0.11842414506E+04  0.11846236894E+04  0.10000000000E+02 0. -1.
</event>
<event>
 5    1  0.1321379E-008  0.3774309E+03  0.7957747E-01  0.3462422E+00
         13   -1    0    0    0    0  0.00000000000E+00  0.00000000000E+00  0.14999999963E+04  0.15000000000E+04  0.10566000000E+00 0. -1.
        994   -1    0    0    0    0 -0.00000000000E+00 -0.00000000000E+00  0.11368683772E-12  0.17120000000E+03  0.17120000000E+03 0.  0.
         13    1    1    2    0    0  0.13393464155E+02  0.53530570518E+01  0.16817059443E+02  0.22155467817E+02  0.10566000000E+00 0. -1.
        994    1    1    2    0    0 -0.12515876669E+02  0.59452305542E+01  0.60832265446E+01  0.17186750298E+03  0.17120000000E+03 0.  0.
        998    1    1    2    0    0 -0.87758748611E+00 -0.11298287606E+02  0.14770997103E+04  0.14771770292E+04  0.10000000000E+02 0. -1.
</event>
<event>
 5    1  0.1321379E-008  0.3762238E+03  0.7957747E-01  0.3467768E+00
         13   -1    0    0    0    0  0.00000000000E+00  0.00000000000E+00  0.14999999963E+04  0.15000000000E+04  0.10566000000E+00 0.  1.
        994   -1    0    0    0    0 -0.00000000000E+00 -0.00000000000E+00  0.11368683772E-12  0.17120000000E+03  0.17120000000E+03 0.  0.
         13    1    1    2    0    0 -0.25788325770E+02  0.36828841085E+02  0.21706884997E+03  0.22167611074E+03  0.10566000000E+00 0.  1.
        994    1    1    2    0    0 -0.47447299020E+01  0.13911926891E+02  0.67833534599E+01  0.17196368237E+03  0.17120000000E+03 0.  0.
        998    1    1    2    0    0  0.30533055672E+02 -0.50740767975E+02  0.12761477928E+04  0.12775602069E+04  0.10000000000E+02 0.  1.
</event>
<event>
 5    1  0.1321379E-008  0.3832284E+03  0.7957747E-01  0.3437221E+00
         13   -1    0    0    0    0  0.00000000000E+00  0.00000000000E+00  0.14999999963E+04  0.15000000000E+04  0.10566000000E+00 0.  1.
        994   -1    0    0    0    0 -0.00000000000E+00 -0.00000000000E+00  0.11368683772E-12  0.17120000000E+03  0.17120000000E+03 0.  0.
         13    1    1    2    0    0  0.27221468929E+02 -0.80923023829E+01  0.14035299478E+03  0.14319730457E+03  0.10566000000E+00 0.  1.
        994    1    1    2    0    0 -0.35026291550E+02  0.29409974883E+01  0.66095933195E+01  0.17489601851E+03  0.17120000000E+03 0.  0.
        998    1    1    2    0    0  0.78048226211E+01  0.51513048946E+01  0.13530374082E+04  0.13531066769E+04  0.10000000000E+02 0.  1.
</event>
<event>
 5    1  0.1321379E-008  0.3732154E+03  0.7957747E-01  0.3481243E+00
         13   -1    0    0    0    0  0.00000000000E+00  0.00000000000E+00  0.14999999963E+04  0.15000000000E+04  0.10566000000E+00 0.  1.
        994   -1    0    0    0    0 -0.00000000000E+00 -0.00000000000E+00  0.11368683772E-12  0.17120000000E+03  0.17120000000E+03 0.  0.
         13    1    1    2    0    0  0.33464517462E+02  0.40672355010E+02  0.10097718003E+03  0.11388817516E+03  0.10566000000E+00 0.  1.
        994    1    1    2    0    0 -0.37506120419E+02 -0.29050128404E+02  0.20649814237E+02  0.17884762749E+03  0.17120000000E+03 0.  0.
        998    1    1    2    0    0  0.40416029565E+01 -0.11622226605E+02  0.13783730020E+04  0.13784641974E+04  0.10000000000E+02 0.  1.
</event>
<event>
 5    1  0.1321379E-008  0.3857230E+03  0.7957747E-01  0.3426612E+00
         13   -1    0    0    0    0  0.00000000000E+00  0.00000000000E+00  0.14999999963E+04  0.15000000000E+04  0.10566000000E+00 0. -1.
        994   -1    0    0    0    0 -0.00000000000E+00 -0.00000000000E+00  0.11368683772E-12  0.17120000000E+03  0.17120000000E+03 0.  0.
         13    1    1    2    0    0 -0.98874694380E+01  0.11130302790E+02  0.86227408275E+02  0.87503273047E+02  0.10566000000E+00 0. -1.
        994    1    1    2    0    0  0.75477093601E+01 -0.92015753460E+01  0.17364718105E+01  0.17162194568E+03  0.17120000000E+03 0.  0.
        998    1    1    2    0    0  0.23397600779E+01 -0.19287274441E+01  0.14120361162E+04  0.14120747813E+04  0.10000000000E+02 0.  0.
</event>
<event>
 5    1  0.1321379E-008  0.3751912E+03  0.7957747E-01  0.3472368E+00
         13   -1    0    0    0    0  0.00000000000E+00  0.00000000000E+00  0.14999999963E+04  0.15000000000E+04  0.10566000000E+00 0.  1.
        994   -1    0    0    0    0 -0.00000000000E+00 -0.00000000000E+00  0.11368683772E-12  0.17120000000E+03  0.17120000000E+03 0.  0.
         13    1    1    2    0    0  0.21628556336E+01 -0.19022439765E+02  0.24836156058E+02  0.31358841989E+02  0.10566000000E+00 0.  1.
        994    1    1    2    0    0  0.25355271683E+00  0.17400540914E+02  0.76100239495E+01  0.17225038629E+03  0.17120000000E+03 0.  0.
        998    1    1    2    0    0 -0.24164083505E+01  0.16218988511E+01  0.14675538163E+04  0.14675907717E+04  0.10000000000E+02 0.  1.
</event>
<event>
 5    1  0.3534263E-008  0.3864096E+03  0.7957747E-01  0.3423716E+00
         13   -1    0    0    0    0  0.00000000000E+00  0.00000000000E+00  0.14999999963E+04  0.15000000000E+04  0.10566000000E+00 0. -1.
        994   -1    0    0    0    0 -0.00000000000E+00 -0.00000000000E+00  0.11368683772E-12  0.17120000000E+03  0.17120000000E+03 0.  0.
         13    1    1    2    0    0  0.10889681693E+02  0.26197946180E+01  0.67049512831E+02  0.67978649781E+02  0.10566000000E+00 0. -1.
        994    1    1    2    0    0 -0.92423955863E+01 -0.53325503685E+01  0.13047443305E+01  0.17153716894E+03  0.17120000000E+03 0.  0.
        998    1    1    2    0    0 -0.16472861071E+01  0.27127557505E+01  0.14316457391E+04  0.14316841813E+04  0.10000000000E+02 0. -1.
</event>
<event>
 5    1  0.1321379E-008  0.3825440E+03  0.7957747E-01  0.3440155E+00
         13   -1    0    0    0    0  0.00000000000E+00  0.00000000000E+00  0.14999999963E+04  0.15000000000E+04  0.10566000000E+00 0. -1.
        994   -1    0    0    0    0 -0.00000000000E+00 -0.00000000000E+00  0.11368683772E-12  0.17120000000E+03  0.17120000000E+03 0.  0.
         13    1    1    2    0    0 -0.42651167699E+01  0.10036912375E+02  0.19468158053E+02  0.22314819584E+02  0.10566000000E+00 0. -1.
        994    1    1    2    0    0  0.22530465989E+01 -0.12280956762E+02  0.33713918166E+01  0.17168781087E+03  0.17120000000E+03 0.  0.
        998    1    1    2    0    0  0.20120701710E+01  0.22440443877E+01  0.14771604464E+04  0.14771973695E+04  0.10000000000E+02 0. -1.
</event>
<event>
 5    1  0.1321379E-008  0.3834290E+03  0.7957747E-01  0.3436362E+00
         13   -1    0    0    0    0  0.00000000000E+00  0.00000000000E+00  0.14999999963E+04  0.15000000000E+04  0.10566000000E+00 0.  1.
        994   -1    0    0    0    0 -0.00000000000E+00 -0.00000000000E+00  0.11368683772E-12  0.17120000000E+03  0.17120000000E+03 0.  0.
         13    1    1    2    0    0 -0.43203479432E+00 -0.25691303480E+02  0.12295709344E+03  0.12561324659E+03  0.10566000000E+00 0.  1.
        994    1    1    2    0    0  0.79417781794E+01  0.29886709867E+02  0.55795100446E+01  0.17405992704E+03  0.17120000000E+03 0.  0.
        998    1    1    2    0    0 -0.75097433851E+01 -0.41954063875E+01  0.13714633928E+04  0.13715268264E+04  0.10000000000E+02 0.  1.
</event>
<event>
 5    1  0.1321379E-008  0.3852681E+03  0.7957747E-01  0.3428536E+00
         13   -1    0    0    0    0  0.00000000000E+00  0.00000000000E+00  0.14999999963E+04  0.15000000000E+04  0.10566000000E+00 0. -1.
        994   -1    0    0    0    0 -0.00000000000E+00 -0.00000000000E+00  0.11368683772E-12  0.17120000000E+03  0.17120000000E+03 0.  0.
         13    1    1    2    0    0  0.11011431589E+01 -0.11812788513E+02  0.44285931755E+02  0.45847676104E+02  0.10566000000E+00 0. -1.
        994    1    1    2    0    0  0.34420862715E+01  0.19623776832E+02  0.28024244682E+01  0.17237817193E+03  0.17120000000E+03 0.  0.
        998    1    1    2    0    0 -0.45432294304E+01 -0.78109883188E+01  0.14529116401E+04  0.14529741520E+04  0.10000000000E+02 0. -1.
</event>
<event>
 5    1  0.1321379E-008  0.3842858E+03  0.7957747E-01  0.3432707E+00
         13   -1    0    0    0    0  0.00000000000E+00  0.00000000000E+00  0.14999999963E+04  0.15000000000E+04  0.10566000000E+00 0.  1.
        994   -1    0    0    0    0 -0.00000000000E+00 -0.00000000000E+00  0.11368683772E-12  0.17120000000E+03  0.17120000000E+03 0.  0.
         13    1    1    2    0    0  0.85862214623E+01 -0.10478429511E+02  0.46484616668E+02  0.48418503021E+02  0.10566000000E+00 0.  1.
        994    1    1    2    0    0 -0.32700152238E+01  0.53783151306E+01  0.21157638757E+01  0.17132873586E+03  0.17120000000E+03 0.  0.
        998    1    1    2    0    0 -0.53162062385E+01  0.51001143801E+01  0.14513996157E+04  0.14514527611E+04  0.10000000000E+02 0.  1.
</event>
<event>
 5    1  0.1321379E-008  0.3849552E+03  0.7957747E-01  0.3429862E+00
         13   -1    0    0    0    0  0.00000000000E+00  0.00000000000E+00  0.14999999963E+04  0.15000000000E+04  0.10566000000E+00 0.  1.
        994   -1    0    0    0    0 -0.00000000000E+00 -0.00000000000E+00  0.11368683772E-12  0.17120000000E+03  0.17120000000E+03 0.  0.
         13    1    1    2    0    0 -0.18838269978E+02  0.80809122956E+01  0.12251388972E+03  0.12421693080E+03  0.10566000000E+00 0.  1.
        994    1    1    2    0    0  0.18578178208E+02 -0.40734036370E+00  0.27889919849E+01  0.17222814261E+03  0.17120000000E+03 0.  0.
        998    1    1    2    0    0  0.26009177001E+00 -0.76735719319E+01  0.13746971146E+04  0.13747549266E+04  0.10000000000E+02 0.  1.
</event>
<event>
 5    1  0.1321379E-008  0.3737691E+03  0.7957747E-01  0.3478746E+00
         13   -1    0    0    0    0  0.00000000000E+00  0.00000000000E+00  0.14999999963E+04  0.15000000000E+04  0.10566000000E+00 0.  1.
        994   -1    0    0    0    0 -0.00000000000E+00 -0.00000000000E+00  0.11368683772E-12  0.17120000000E+03  0.17120000000E+03 0.  0.
         13    1    1    2    0    0 -0.38609734711E+01 -0.31298989024E+02  0.63290749827E+02  0.70712544910E+02  0.10566000000E+00 0.  1.
        994    1    1    2    0    0  0.58885409118E+01  0.28875002984E+02  0.10282193914E+02  0.17402184984E+03  0.17120000000E+03 0.  0.
        998    1    1    2    0    0 -0.20275674407E+01  0.24239860403E+01  0.14264270525E+04  0.14264656052E+04  0.10000000000E+02 0.  1.
</event>
<event>
 5    1  0.1321379E-008  0.3704056E+03  0.7957747E-01  0.3494029E+00
         13   -1    0    0    0    0  0.00000000000E+00  0.00000000000E+00  0.14999999963E+04  0.15000000000E+04  0.10566000000E+00 0. -1.
        994   -1    0    0    0    0 -0.00000000000E+00 -0.00000000000E+00  0.11368683772E-12  0.17120000000E+03  0.17120000000E+03 0.  0.
         13    1    1    2    0    0  0.72649288581E+01 -0.24036918238E+02  0.29661829595E+02  0.38863709661E+02  0.10566000000E+00 0. -1.
        994    1    1    2    0    0 -0.20161414705E+02  0.31399692734E+02  0.13880296978E+02  0.17576838735E+03  0.17120000000E+03 0.  0.
        998    1    1    2    0    0  0.12896485847E+02 -0.73627744963E+01  0.14564578697E+04  0.14565679030E+04  0.10000000000E+02 0. -1.
</event>
<event>
 5    1  0.1321379E-008  0.3818820E+03  0.7957747E-01  0.3443004E+00
         13   -1    0    0    0    0  0.00000000000E+00  0.00000000000E+00  0.14999999963E+04  0.15000000000E+04  0.10566000000E+00 0. -1.
        994   -1    0    0    0    0 -0.00000000000E+00 -0.00000000000E+00  0.11368683772E-12  0.17120000000E+03  0.17120000000E+03 0.  0.
         13    1    1    2    0    0 -0.72730142082E+01 -0.92295127477E+01  0.20355724780E+02  0.23504198276E+02  0.10566000000E+00 0. -1.
        994    1    1    2    0    0  0.49530734462E+01  0.76917351039E+01  0.34642243947E+01  0.17147925990E+03  0.17120000000E+03 0.  0.
        998    1    1    2    0    0  0.23199407619E+01  0.15377776437E+01  0.14761800471E+04  0.14762165418E+04  0.10000000000E+02 0. -1.
</event>
<event>
 5    1  0.1321379E-008  0.3774328E+03  0.7957747E-01  0.3462413E+00
         13   -1    0    0    0    0  0.00000000000E+00  0.00000000000E+00  0.14999999963E+04  0.15000000000E+04  0.10566000000E+00 0. -1.
        994   -1    0    0    0    0 -0.00000000000E+00 -0.00000000000E+00  0.11368683772E-12  0.17120000000E+03  0.17120000000E+03 0.  0.
         13    1    1    2    0    0  0.14820237245E+02 -0.78544905875E+02  0.42710908549E+03  0.43452401976E+03  0.10566000000E+00 0. -1.
        994    1    1    2    0    0 -0.11731422561E+01  0.79302775023E+02  0.26945303994E+02  0.19059327322E+03  0.17120000000E+03 0.  0.
        998    1    1    2    0    0 -0.13647094989E+02 -0.75786914714E+00  0.10459456068E+04  0.10460827070E+04  0.10000000000E+02 0. -1.
</event>
<event>
 5    1  0.1321379E-008  0.3830211E+03  0.7957747E-01  0.3438109E+00
         13   -1    0    0    0    0  0.00000000000E+00  0.00000000000E+00  0.14999999963E+04  0.15000000000E+04  0.10566000000E+00 0.  1.
        994   -1    0    0    0    0 -0.00000000000E+00 -0.00000000000E+00  0.11368683772E-12  0.17120000000E+03  0.17120000000E+03 0.  0.
         13    1    1    2    0    0 -0.10522791182E+02 -0.83794909228E+01  0.35395734963E+02  0.37865739396E+02  0.10566000000E+00 0.  1.
        994    1    1    2    0    0 -0.54146959680E+01  0.16208977348E+01  0.27215906099E+01  0.17131489514E+03  0.17120000000E+03 0.  0.
        998    1    1    2    0    0  0.15937487150E+02  0.67585931879E+01  0.14618826707E+04  0.14620193655E+04  0.10000000000E+02 0.  1.
</event>
<event>
 5    1  0.1321379E-008  0.3796018E+03  0.7957747E-01  0.3452894E+00
         13   -1    0    0    0    0  0.00000000000E+00  0.00000000000E+00  0.14999999963E+04  0.15000000000E+04  0.10566000000E+00 0.  1.
        994   -1    0    0    0    0 -0.00000000000E+00 -0.00000000000E+00  0.11368683772E-12  0.17120000000E+03  0.17120000000E+03 0.  0.
         13    1    1    2    0    0 -0.25481160808E+02  0.43228783007E+02  0.27161375674E+03  0.27621017587E+03  0.10566000000E+00 0.  1.
        994    1    1    2    0    0  0.21576795397E+02 -0.28934168098E+02  0.87073309399E+01  0.17517991265E+03  0.17120000000E+03 0.  0.
        998    1    1    2    0    0  0.39043654117E+01 -0.14294614909E+02  0.12196789086E+04  0.12198099115E+04  0.10000000000E+02 0.  1.
</event>
<event>
 5    1  0.1321379E-008  0.3833745E+03  0.7957747E-01  0.3436596E+00
         13   -1    0    0    0    0  0.00000000000E+00  0.00000000000E+00  0.14999999963E+04  0.15000000000E+04  0.10566000000E+00 0. -1.
        994   -1    0    0    0    0 -0.00000000000E+00 -0.00000000000E+00  0.11368683772E-12  0.17120000000E+03  0.17120000000E+03 0.  0.
         13    1    1    2    0    0  0.49980112179E+01 -0.26698376514E+02  0.14260764799E+03  0.14517140164E+03  0.10566000000E+00 0. -1.
        994    1    1    2    0    0 -0.13279729143E+02  0.21364756725E+02  0.45342394951E+01  0.17309767001E+03  0.17120000000E+03 0.  0.
        998    1    1    2    0    0  0.82817179255E+01  0.53336197887E+01  0.13528581088E+04  0.13529309284E+04  0.10000000000E+02 0. -1.
</event>
<event>
 5    1  0.1321379E-008  0.3819568E+03  0.7957747E-01  0.3442682E+00
         13   -1    0    0    0    0  0.00000000000E+00  0.00000000000E+00  0.14999999963E+04  0.15000000000E+04  0.10566000000E+00 0. -1.
        994   -1    0    0    0    0 -0.00000000000E+00 -0.00000000000E+00  0.11368683772E-12  0.17120000000E+03  0.17120000000E+03 0.  0.
         13    1    1    2    0    0 -0.52635067191E+01  0.13532902820E+02  0.31749948791E+02  0.34912954243E+02  0.10566000000E+00 0. -1.
        994    1    1    2    0    0  0.27157699305E+01 -0.15141670205E+02  0.39350313386E+01  0.17193478431E+03  0.17120000000E+03 0.  0.
        998    1    1    2    0    0  0.25477367886E+01  0.16087673859E+01  0.14643150161E+04  0.14643522614E+04  0.10000000000E+02 0. -1.
</event>
<event>
 5    1  0.1321379E-008  0.3782499E+03  0.7957747E-01  0.3458814E+00
         13   -1    0    0    0    0  0.00000000000E+00  0.00000000000E+00  0.14999999963E+04  0.15000000000E+04  0.10566000000E+00 0.  1.
        994   -1    0    0    0    0 -0.00000000000E+00 -0.00000000000E+00  0.11368683772E-12  0.17120000000E+03  0.17120000000E+03 0.  0.
         13    1    1    2    0    0  0.32577222142E+02  0.32165324149E+02  0.76113313601E+02  0.88820781079E+02  0.10566000000E+00 0.  1.
        994    1    1    2    0    0  0.50039660322E+02  0.26850428790E+01  0.24466186197E+02  0.18005335689E+03  0.17120000000E+03 0.  0.
        998    1    1    2    0    0 -0.82616882464E+02 -0.34850367028E+02  0.13994204965E+04  0.14023258620E+04  0.10000000000E+02 0.  1.
</event>
<event>
 5    1  0.1321379E-008  0.3574504E+03  0.7957747E-01  0.3555632E+00
         13   -1    0    0    0    0  0.00000000000E+00  0.00000000000E+00  0.14999999963E+04  0.15000000000E+04  0.10566000000E+00 0. -1.
        994   -1    0    0    0    0 -0.00000000000E+00 -0.00000000000E+00  0.11368683772E-12  0.17120000000E+03  0.17120000000E+03 0.  0.
         13    1    1    2    0    0 -0.84232913591E+02 -0.17464740905E+03  0.11456204220E+04  0.11619135353E+04  0.10566000000E+00 0. -1.
        994    1    1    2    0    0  0.83856201875E+02  0.14123113127E+03  0.10839178960E+03  0.26083771791E+03  0.17120000000E+03 0.  0.
        998    1    1    2    0    0  0.37671171536E+00  0.33416277779E+02  0.24598778471E+03  0.24844874674E+03  0.10000000000E+02 0.  1.
</event>
<event>
 5    1  0.1321379E-008  0.3815993E+03  0.7957747E-01  0.3444224E+00
         13   -1    0    0    0    0  0.00000000000E+00  0.00000000000E+00  0.14999999963E+04  0.15000000000E+04  0.10566000000E+00 0.  1.
        994   -1    0    0    0    0 -0.00000000000E+00 -0.00000000000E+00  0.11368683772E-12  0.17120000000E+03  0.17120000000E+03 0.  0.
         13    1    1    2    0    0  0.93191776511E+01  0.19312039708E+02  0.64641359963E+02  0.68105201943E+02  0.10566000000E+00 0.  1.
        994    1    1    2    0    0 -0.95986464976E+01 -0.22697541758E+02  0.53501622942E+01  0.17304732489E+03  0.17120000000E+03 0.  0.
        998    1    1    2    0    0  0.27946884650E+00  0.33855020495E+01  0.14300084740E+04  0.14300474732E+04  0.10000000000E+02 0.  1.
</event>
<event>
 5    1  0.1321379E-008  0.3854132E+03  0.7957747E-01  0.3427922E+00
         13   -1    0    0    0    0  0.00000000000E+00  0.00000000000E+00  0.14999999963E+04  0.15000000000E+04  0.10566000000E+00 0.  1.
        994   -1    0    0    0    0 -0.00000000000E+00 -0.00000000000E+00  0.11368683772E-12  0.17120000000E+03  0.17120000000E+03 0.  0.
         13    1    1    2    0    0 -0.14147239289E+02  0.93262748322E+01  0.99855625384E+02  0.10128317169E+03  0.10566000000E+00 0.  1.
        994    1    1    2    0    0  0.60011018267E+01 -0.13595600552E+02  0.21508247235E+01  0.17185726527E+03  0.17120000000E+03 0.  0.
        998    1    1    2    0    0  0.81461374622E+01  0.42693257202E+01  0.13979935462E+04  0.13980595630E+04  0.10000000000E+02 0.  1.
</event>
<event>
 5    1  0.1321379E-008  0.3758453E+03  0.7957747E-01  0.3469451E+00
         13   -1    0    0    0    0  0.00000000000E+00  0.00000000000E+00  0.14999999963E+04  0.15000000000E+04  0.10566000000E+00 0. -1.
        994   -1    0    0    0    0 -0.00000000000E+00 -0.00000000000E+00  0.11368683772E-12  0.17120000000E+03  0.17120000000E+03 0.  0.
         13    1    1    2    0    0  0.26910711026E+02  0.87009001951E+01  0.22724107382E+02  0.36280687045E+02  0.10566000000E+00 0. -1.
        994    1    1    2    0    0 -0.18221296351E+02 -0.55850949521E+01  0.15360976012E+02  0.17294105502E+03  0.17120000000E+03 0.  0.
        998    1    1    2    0    0 -0.86894146750E+01 -0.31158052430E+01  0.14619149129E+04  0.14619782579E+04  0.10000000000E+02 0. -1.
</event>
<event>
 5    1  0.1321379E-008  0.3851733E+03  0.7957747E-01  0.3428938E+00
         13   -1    0    0    0    0  0.00000000000E+00  0.00000000000E+00  0.14999999963E+04  0.15000000000E+04  0.10566000000E+00 0. -1.
        994   -1    0    0    0    0 -0.00000000000E+00 -0.00000000000E+00  0.11368683772E-12  0.17120000000E+03  0.17120000000E+03 0.  0.
         13    1    1    2    0    0  0.10007242153E+02  0.11134549925E+02  0.74359885191E+02  0.75852005822E+02  0.10566000000E+00 0. -1.
        994    1    1    2    0    0 -0.51492086414E+01 -0.42487500316E+01  0.16906149544E+01  0.17133844987E+03  0.17120000000E+03 0.  0.
        998    1    1    2    0    0 -0.48580335113E+01 -0.68857998937E+01  0.14239494961E+04  0.14240095443E+04  0.10000000000E+02 0. -1.
</event>
<event>
 5    1  0.1321379E-008  0.3814992E+03  0.7957747E-01  0.3444657E+00
         13   -1    0    0    0    0  0.00000000000E+00  0.00000000000E+00  0.14999999963E+04  0.15000000000E+04  0.10566000000E+00 0.  1.
        994   -1    0    0    0    0 -0.00000000000E+00 -0.00000000000E+00  0.11368683772E-12  0.17120000000E+03  0.17120000000E+03 0.  0.
         13    1    1    2    0    0 -0.18206656534E+02 -0.58385449985E+01  0.50677395643E+02  0.54164384452E+02  0.10566000000E+00 0.  1.
        994    1    1    2    0    0  0.19514117280E+02  0.14898706333E+02  0.53859438337E+01  0.17303531609E+03  0.17120000000E+03 0.  0.
        998    1    1    2    0    0 -0.13074607462E+01 -0.90601613342E+01  0.14439366568E+04  0.14440002995E+04  0.10000000000E+02 0.  1.
</event>
<event>
 5    1  0.1321379E-008  0.3788744E+03  0.7957747E-01  0.3456074E+00
         13   -1    0    0    0    0  0.00000000000E+00  0.00000000000E+00  0.14999999963E+04  0.15000000000E+04  0.10566000000E+00 0. -1.
        994   -1    0    0    0    0 -0.00000000000E+00 -0.00000000000E+00  0.11368683772E-12  0.17120000000E+03  0.17120000000E+03 0.  0.
         13    1    1    2    0    0 -0.26135507396E+02  0.35490484387E+01  0.75096009603E+02  0.79593230328E+02  0.10566000000E+00 0. -1.
        994    1    1    2    0    0  0.54071058248E+01 -0.17119356902E+02  0.57846121688E+01  0.17223591644E+03  0.17120000000E+03 0.  0.
        998    1    1    2    0    0  0.20728401571E+02  0.13570308463E+02  0.14191193745E+04  0.14193708532E+04  0.10000000000E+02 0. -1.
</event>
<event>
 5    1  0.1321379E-008  0.3728453E+03  0.7957747E-01  0.3482916E+00
         13   -1    0    0    0    0  0.00000000000E+00  0.00000000000E+00  0.14999999963E+04  0.15000000000E+04  0.10566000000E+00 0. -1.
        994   -1    0    0    0    0 -0.00000000000E+00 -0.00000000000E+00  0.11368683772E-12  0.17120000000E+03  0.17120000000E+03 0.  0.
         13    1    1    2    0    0  0.57951280800E+02  0.52685179089E+01  0.13587552457E+03  0.14781162866E+03  0.10566000000E+00 0. -1.
        994    1    1    2    0    0 -0.13171851206E+03 -0.33635787122E+02  0.73983546612E+02  0.23079024625E+03  0.17120000000E+03 0.  0.
        998    1    1    2    0    0  0.73767231257E+02  0.28367269213E+02  0.12901409251E+04  0.12925981251E+04  0.10000000000E+02 0. -1.
</event>
<event>
 5    1  0.1321379E-008  0.3839847E+03  0.7957747E-01  0.3433990E+00
         13   -1    0    0    0    0  0.00000000000E+00  0.00000000000E+00  0.14999999963E+04  0.15000000000E+04  0.10566000000E+00 0. -1.
        994   -1    0    0    0    0 -0.00000000000E+00 -0.00000000000E+00  0.11368683772E-12  0.17120000000E+03  0.17120000000E+03 0.  0.
         13    1    1    2    0    0  0.12791320482E+02 -0.92145976776E+01  0.55505758741E+02  0.57701188095E+02  0.10566000000E+00 0. -1.
        994    1    1    2    0    0 -0.16430521354E+02  0.80834380944E+01  0.32421695639E+01  0.17220701399E+03  0.17120000000E+03 0.  0.
        998    1    1    2    0    0  0.36392008726E+01  0.11311595831E+01  0.14412520680E+04  0.14412917979E+04  0.10000000000E+02 0. -1.
</event>
<event>
 5    1  0.1321379E-008  0.3860508E+03  0.7957747E-01  0.3425228E+00
         13   -1    0    0    0    0  0.00000000000E+00  0.00000000000E+00  0.14999999963E+04  0.15000000000E+04  0.10566000000E+00 0. -1.
        994   -1    0    0    0    0 -0.00000000000E+00 -0.00000000000E+00  0.11368683772E-12  0.17120000000E+03  0.17120000000E+03 0.  0.
         13    1    1    2    0    0  0.10794673826E+02 -0.28990634987E+01  0.53302036938E+02  0.54461434593E+02  0.10566000000E+00 0. -1.
        994    1    1    2    0    0 -0.13875387227E+02  0.16163402938E+02  0.25979858912E+01  0.17253976787E+03  0.17120000000E+03 0.  0.
        998    1    1    2    0    0  0.30807134007E+01 -0.13264339439E+02  0.14440999734E+04  0.14441987975E+04  0.10000000000E+02 0. -1.
</event>
<event>
 5    1  0.1321379E-008  0.3795095E+03  0.7957747E-01  0.3453297E+00
         13   -1    0    0    0    0  0.00000000000E+00  0.00000000000E+00  0.14999999963E+04  0.15000000000E+04  0.10566000000E+00 0. -1.
        994   -1    0    0    0    0 -0.00000000000E+00 -0.00000000000E+00  0.11368683772E-12  0.17120000000E+03  0.17120000000E+03 0.  0.
         13    1    1    2    0    0  0.33718767385E+01  0.41410407072E+02  0.19900186140E+03  0.20329275287E+03  0.10566000000E+00 0. -1.
        994    1    1    2    0    0  0.19361504583E+01 -0.21782479324E+02  0.59838410151E+01  0.17269473483E+03  0.17120000000E+03 0.  0.
        998    1    1    2    0    0 -0.53080271968E+01 -0.19627927748E+02  0.12950142939E+04  0.12952125123E+04  0.10000000000E+02 0. -1.
</event>
<event>
 5    1  0.1321379E-008  0.3781851E+03  0.7957747E-01  0.3459099E+00
         13   -1    0    0    0    0  0.00000000000E+00  0.00000000000E+00  0.14999999963E+04  0.15000000000E+04  0.10566000000E+00 0. -1.
        994   -1    0    0    0    0 -0.00000000000E+00 -0.00000000000E+00  0.11368683772E-12  0.17120000000E+03  0.17120000000E+03 0.  0.
         13    1    1    2    0    0  0.45999111709E+01 -0.27736266337E+02  0.79676468537E+02  0.84491481556E+02  0.10566000000E+00 0. -1.
        994    1    1    2    0    0  0.20204050185E+01  0.81238030740E+01  0.52878240405E+01  0.17148609068E+03  0.17120000000E+03 0.  0.
        998    1    1    2    0    0 -0.66203161895E+01  0.19612463263E+02  0.14150357037E+04  0.14152224278E+04  0.10000000000E+02 0. -1.
</event>
<event>
 5    1  0.1321379E-008  0.3687611E+03  0.7957747E-01  0.3501604E+00
         13   -1    0    0    0    0  0.00000000000E+00  0.00000000000E+00  0.14999999963E+04  0.15000000000E+04  0.10566000000E+00 0.  1.
        994   -1    0    0    0    0 -0.00000000000E+00 -0.00000000000E+00  0.11368683772E-12  0.17120000000E+03  0.17120000000E+03 0.  0.
         13    1    1    2    0    0  0.67000603968E+02  0.45826780002E+02  0.26371279744E+03  0.27592322373E+03  0.10566000000E+00 0.  1.
        994    1    1    2    0    0 -0.68578067048E+02 -0.50673733470E+02  0.35609088642E+02  0.19454620463E+03  0.17120000000E+03 0.  0.
        998    1    1    2    0    0  0.15774630799E+01  0.48469534674E+01  0.12006781102E+04  0.12007305716E+04  0.10000000000E+02 0.  0.
</event>
<event>
 5    1  0.1321379E-008  0.3846111E+03  0.7957747E-01  0.3431323E+00
         13   -1    0    0    0    0  0.00000000000E+00  0.00000000000E+00  0.14999999963E+04  0.15000000000E+04  0.10566000000E+00 0.  1.
        994   -1    0    0    0    0 -0.00000000000E+00 -0.00000000000E+00  0.11368683772E-12  0.17120000000E+03  0.17120000000E+03 0.  0.
         13    1    1    2    0    0 -0.12684261307E+02  0.72025247855E+01  0.57430600783E+02  0.59254129971E+02  0.10566000000E+00 0.  1.
        994    1    1    2    0    0  0.90996061377E+01 -0.79498124054E+01  0.23042421763E+01  0.17164134665E+03  0.17120000000E+03 0.  0.
        998    1    1    2    0    0  0.35846551689E+01  0.74728761988E+00  0.14402651533E+04  0.14403045234E+04  0.10000000000E+02 0.  1.
</event>
<event>
 5    1  0.1321379E-008  0.3780793E+03  0.7957747E-01  0.3459565E+00
         13   -1    0    0    0    0  0.00000000000E+00  0.00000000000E+00  0.14999999963E+04  0.15000000000E+04  0.10566000000E+00 0.  1.
        994   -1    0    0    0    0 -0.00000000000E+00 -0.00000000000E+00  0.11368683772E-12  0.17120000000E+03  0.17120000000E+03 0.  0.
         13    1    1    2    0    0  0.52228359936E+02  0.21178379704E+02  0.21973903888E+03  0.22685145298E+03  0.10566000000E+00 0.  1.
        994    1    1    2    0    0 -0.71400013736E+02 -0.45141484073E+02  0.29500896279E+02  0.19317209536E+03  0.17120000000E+03 0.  0.
        998    1    1    2    0    0  0.19171653800E+02  0.23963104369E+02  0.12507600611E+04  0.12511764517E+04  0.10000000000E+02 0.  1.
</event>
<event>
 5    1  0.1321379E-008  0.3845825E+03  0.7957747E-01  0.3431445E+00
         13   -1    0    0    0    0  0.00000000000E+00  0.00000000000E+00  0.14999999963E+04  0.15000000000E+04  0.10566000000E+00 0.  1.
        994   -1    0    0    0    0 -0.00000000000E+00 -0.00000000000E+00  0.11368683772E-12  0.17120000000E+03  0.17120000000E+03 0.  0.
         13    1    1    2    0    0  0.93261034837E+01 -0.21951076906E+02  0.14315676884E+03  0.14512993355E+03  0.10566000000E+00 0.  1.
        994    1    1    2    0    0 -0.14297801803E+02  0.19251616657E+02  0.37335673335E+01  0.17291162889E+03  0.17120000000E+03 0.  0.
        998    1    1    2    0    0  0.49716983197E+01  0.26994602481E+01  0.13531096601E+04  0.13531584376E+04  0.10000000000E+02 0.  1.
</event>
<event>
 5    1  0.1321379E-008  0.3814347E+03  0.7957747E-01  0.3444935E+00
         13   -1    0    0    0    0  0.00000000000E+00  0.00000000000E+00  0.14999999963E+04  0.15000000000E+04  0.10566000000E+00 0. -1.
        994   -1    0    0    0    0 -0.00000000000E+00 -0.00000000000E+00  0.11368683772E-12  0.17120000000E+03  0.17120000000E+03 0.  0.
         13    1    1    2    0    0 -0.31547608846E-01 -0.44789325171E+02  0.24865961188E+03  0.25266123246E+03  0.10566000000E+00 0. -1.
        994    1    1    2    0    0 -0.87258282822E+00  0.44094267480E+02  0.99093558722E+01  0.17706693977E+03  0.17120000000E+03 0.  0.
        998    1    1    2    0    0  0.90413043707E+00  0.69505769111E+00  0.12414310285E+04  0.12414718278E+04  0.10000000000E+02 0.  0.
</event>
<event>
 5    1  0.1321379E-008  0.3860726E+03  0.7957747E-01  0.3425136E+00
         13   -1    0    0    0    0  0.00000000000E+00  0.00000000000E+00  0.14999999963E+04  0.15000000000E+04  0.10566000000E+00 0. -1.
        994   -1    0    0    0    0 -0.00000000000E+00 -0.00000000000E+00  0.11368683772E-12  0.17120000000E+03  0.17120000000E+03 0.  0.
         13    1    1    2    0    0  0.10063393650E+02  0.63064044741E+01  0.64741472594E+02  0.65821820598E+02  0.10566000000E+00 0. -1.
        994    1    1    2    0    0 -0.20026795634E+01 -0.13097057383E+02  0.16740454229E+01  0.17172008055E+03  0.17120000000E+03 0.  0.
        998    1    1    2    0    0 -0.80607140870E+01  0.67906529088E+01  0.14335844783E+04  0.14336580988E+04  0.10000000000E+02 0. -1.
</event>
<event>
 5    1  0.1321379E-008  0.3833965E+03  0.7957747E-01  0.3436502E+00
         13   -1    0    0    0    0  0.00000000000E+00  0.00000000000E+00  0.14999999963E+04  0.15000000000E+04  0.10566000000E+00 0. -1.
        994   -1    0    0    0    0 -0.00000000000E+00 -0.00000000000E+00  0.11368683772E-12  0.17120000000E+03  0.17120000000E+03 0.  0.
         13    1    1    2    0    0  0.72260008919E+00 -0.23396379893E+02  0.10834250486E+03  0.11084233066E+03  0.10566000000E+00 0. -1.
        994    1    1    2    0    0  0.22891605243E+01  0.19673531178E+02  0.37262788642E+01  0.17238217205E+03  0.17120000000E+03 0.  0.
        998    1    1    2    0    0 -0.30117606134E+01  0.37228487149E+01  0.13879312126E+04  0.13879754973E+04  0.10000000000E+02 0. -1.
</event>
<event>
 5    1  0.1321379E-008  0.3072610E+03  0.7957747E-01  0.3845508E+00
         13   -1    0    0    0    0  0.00000000000E+00  0.00000000000E+00  0.14999999963E+04  0.15000000000E+04  0.10566000000E+00 0. -1.
        994   -1    0    0    0    0 -0.00000000000E+00 -0.00000000000E+00  0.11368683772E-12  0.17120000000E+03  0.17120000000E+03 0.  0.
         13    1    1    2    0    0  0.56334182793E+02 -0.20905241099E+03  0.72248502619E+03  0.75422879481E+03  0.10566000000E+00 0. -1.
        994    1    1    2    0    0 -0.30716087868E+02  0.16234827812E+03  0.13777550815E+03  0.27493994273E+03  0.17120000000E+03 0.  0.
        998    1    1    2    0    0 -0.25618094925E+02  0.46704132871E+02  0.63973946194E+03  0.64203126246E+03  0.10000000000E+02 0. -1.
</event>
<event>
 5    1  0.1321379E-008  0.3708184E+03  0.7957747E-01  0.3492138E+00
         13   -1    0    0    0    0  0.00000000000E+00  0.00000000000E+00  0.14999999963E+04  0.15000000000E+04  0.10566000000E+00 0. -1.
        994   -1    0    0    0    0 -0.00000000000E+00 -0.00000000000E+00  0.11368683772E-12  0.17120000000E+03  0.17120000000E+03 0.  0.
         13    1    1    2    0    0  0.28290456759E+02 -0.16686809729E+02  0.56044218795E+02  0.64959719727E+02  0.10566000000E+00 0. -1.
        994    1    1    2    0    0 -0.22676930541E+02  0.22349825156E+02  0.12345258378E+02  0.17457263035E+03  0.17120000000E+03 0.  0.
        998    1    1    2    0    0 -0.56135262185E+01 -0.56630154267E+01  0.14316105191E+04  0.14316676499E+04  0.10000000000E+02 0. -1.
</event>
<event>
 5    1  0.1321379E-008  0.3730962E+03  0.7957747E-01  0.3481781E+00
         13   -1    0    0    0    0  0.00000000000E+00  0.00000000000E+00  0.14999999963E+04  0.15000000000E+04  0.10566000000E+00 0.  1.
        994   -1    0    0    0    0 -0.00000000000E+00 -0.00000000000E+00  0.11368683772E-12  0.17120000000E+03  0.17120000000E+03 0.  0.
         13    1    1    2    0    0 -0.11394560099E+02  0.10979463119E+02  0.13140881251E+02  0.20568872948E+02  0.10566000000E+00 0.  1.
        994    1    1    2    0    0  0.79675342262E+01  0.55691405939E+00  0.78779252708E+01  0.17156716895E+03  0.17120000000E+03 0.  0.
        998    1    1    2    0    0  0.34270258731E+01 -0.11536377178E+02  0.14789811898E+04  0.14790639581E+04  0.10000000000E+02 0.  1.
</event>
<event>
 5    1  0.1321379E-008  0.3751378E+03  0.7957747E-01  0.3472607E+00
         13   -1    0    0    0    0  0.00000000000E+00  0.00000000000E+00  0.14999999963E+04  0.15000000000E+04  0.10566000000E+00 0.  1.
        994   -1    0    0    0    0 -0.00000000000E+00 -0.00000000000E+00  0.11368683772E-12  0.17120000000E+03  0.17120000000E+03 0.  0.
         13    1    1    2    0    0  0.63453340823E+02  0.16416549189E+02  0.36714003124E+03  0.37294455788E+03  0.10566000000E+00 0.  1.
        994    1    1    2    0    0 -0.22695910064E+02 -0.32995784740E+01  0.83971665299E+01  0.17293335120E+03  0.17120000000E+03 0.  0.
        998    1    1    2    0    0 -0.40757430759E+02 -0.13116970715E+02  0.11244627985E+04  0.11253220909E+04  0.10000000000E+02 0.  1.
</event>
<event>
 5    1  0.1321379E-008  0.3813638E+03  0.7957747E-01  0.3445242E+00
         13   -1    0    0    0    0  0.00000000000E+00  0.00000000000E+00  0.14999999963E+04  0.15000000000E+04  0.10566000000E+00 0.  1.
        994   -1    0    0    0    0 -0.00000000000E+00 -0.00000000000E+00  0.11368683772E-12  0.17120000000E+03  0.17120000000E+03 0.  0.
         13    1    1    2    0    0  0.27184941988E+02 -0.53747243181E+01  0.10441325501E+03  0.10802799507E+03  0.10566000000E+00 0.  1.
        994    1    1    2    0    0 -0.27262780243E+02 -0.11061275114E+01  0.59278191028E+01  0.17346198933E+03  0.17120000000E+03 0.  0.
        998    1    1    2    0    0  0.77838254653E-01  0.64808518294E+01  0.13896589222E+04  0.13897100156E+04  0.10000000000E+02 0.  1.
</event>
<event>
 5    1  0.1321379E-008  0.4176499E+03  0.7957747E-01  0.3302000E+00
         13   -1    0    0    0    0  0.00000000000E+00  0.00000000000E+00  0.14999999963E+04  0.15000000000E+04  0.10566000000E+00 0.  1.
        994   -1    0    0    0    0 -0.00000000000E+00 -0.00000000000E+00  0.11368683772E-12  0.17120000000E+03  0.17120000000E+03 0.  0.
         13    1    1    2    0    0  0.22507235287E+02 -0.72982612628E+02  0.61736613447E+02  0.98206201384E+02  0.10566000000E+00 0.  1.
        994    1    1    2    0    0 -0.19067949689E+02  0.66102588455E+02  0.59053678157E+02  0.19372639420E+03  0.17120000000E+03 0.  0.
        998    1    1    2    0    0 -0.34392855983E+01  0.68800241726E+01  0.13792097047E+04  0.13792674044E+04  0.10000000000E+02 0.  1.
</event>
<event>
 5    1  0.1321379E-008  0.3832236E+03  0.7957747E-01  0.3437241E+00
         13   -1    0    0    0    0  0.00000000000E+00  0.00000000000E+00  0.14999999963E+04  0.15000000000E+04  0.10566000000E+00 0. -1.
        994   -1    0    0    0    0 -0.00000000000E+00 -0.00000000000E+00  0.11368683772E-12  0.17120000000E+03  0.17120000000E+03 0.  0.
         13    1    1    2    0    0 -0.43756104529E+01  0.40188385408E+02  0.21615144612E+03  0.21989932040E+03  0.10566000000E+00 0. -1.
        994    1    1    2    0    0  0.55891783602E+01 -0.68157009155E+02  0.18140354591E+02  0.18524343248E+03  0.17120000000E+03 0.  0.
        998    1    1    2    0    0 -0.12135679074E+01  0.27968623747E+02  0.12657081956E+04  0.12660572471E+04  0.10000000000E+02 0. -1.
</event>
<event>
 5    1  0.1321379E-008  0.3764279E+03  0.7957747E-01  0.3466861E+00
         13   -1    0    0    0    0  0.00000000000E+00  0.00000000000E+00  0.14999999963E+04  0.15000000000E+04  0.10566000000E+00 0. -1.
        994   -1    0    0    0    0 -0.00000000000E+00 -0.00000000000E+00  0.11368683772E-12  0.17120000000E+03  0.17120000000E+03 0.  0.
         13    1    1    2    0    0  0.52405598789E+02 -0.19864648718E+02  0.23452797985E+03  0.24113136576E+03  0.10566000000E+00 0. -1.
        994    1    1    2    0    0 -0.40939876294E+02  0.29617357019E+02  0.14634049511E+02  0.17910013041E+03  0.17120000000E+03 0.  0.
        998    1    1    2    0    0 -0.11465722495E+02 -0.97527083005E+01  0.12508379669E+04  0.12509685038E+04  0.10000000000E+02 0. -1.
</event>
<event>
 5    1  0.1321379E-008  0.3848515E+03  0.7957747E-01  0.3430302E+00
         13   -1    0    0    0    0  0.00000000000E+00  0.00000000000E+00  0.14999999963E+04  0.15000000000E+04  0.10566000000E+00 0. -1.
        994   -1    0    0    0    0 -0.00000000000E+00 -0.00000000000E+00  0.11368683772E-12  0.17120000000E+03  0.17120000000E+03 0.  0.
         13    1    1    2    0    0  0.22451274720E+01 -0.11958226650E+02  0.44269968056E+02  0.45911665377E+02  0.10566000000E+00 0. -1.
        994    1    1    2    0    0  0.20020695033E+01  0.42317669562E+01  0.17760181146E+01  0.17127320390E+03  0.17120000000E+03 0.  0.
        998    1    1    2    0    0 -0.42471969752E+01  0.77264596939E+01  0.14539540101E+04  0.14540151307E+04  0.10000000000E+02 0. -1.
</event>
<event>
 5    1  0.1321379E-008  0.3791148E+03  0.7957747E-01  0.3455022E+00
         13   -1    0    0    0    0  0.00000000000E+00  0.00000000000E+00  0.14999999963E+04  0.15000000000E+04  0.10566000000E+00 0. -1.
        994   -1    0    0    0    0 -0.00000000000E+00 -0.00000000000E+00  0.11368683772E-12  0.17120000000E+03  0.17120000000E+03 0.  0.
         13    1    1    2    0    0  0.47866463834E+02 -0.12424554592E+03  0.58581822612E+03  0.60075881954E+03  0.10566000000E+00 0. -1.
        994    1    1    2    0    0 -0.51460822301E+02  0.59148458237E+02  0.38393294286E+02  0.19217242620E+03  0.17120000000E+03 0.  0.
        998    1    1    2    0    0  0.35943584675E+01  0.65097087687E+02  0.87578847588E+03  0.87826875426E+03  0.10000000000E+02 0. -1.
</event>
<event>
 5    1  0.1321379E-008  0.3616426E+03  0.7957747E-01  0.3535204E+00
         13   -1    0    0    0    0  0.00000000000E+00  0.00000000000E+00  0.14999999963E+04  0.15000000000E+04  0.10566000000E+00 0. -1.
        994   -1    0    0    0    0 -0.00000000000E+00 -0.00000000000E+00  0.11368683772E-12  0.17120000000E+03  0.17120000000E+03 0.  0.
         13    1    1    2    0    0 -0.26338810310E+03  0.29887912123E+02  0.99321792088E+03  0.10279826991E+04  0.10566000000E+00 0. -1.
        994    1    1    2    0    0  0.25331214811E+03 -0.56295950295E+02  0.29251089522E+03  0.42685869116E+03  0.17120000000E+03 0.  0.
        998    1    1    2    0    0  0.10075954990E+02  0.26408038172E+02  0.21427118018E+03  0.21635860973E+03  0.10000000000E+02 0. -1.
</event>
<event>
 5    1  0.1321379E-008  0.3859984E+03  0.7957747E-01  0.3425449E+00
         13   -1    0    0    0    0  0.00000000000E+00  0.00000000000E+00  0.14999999963E+04  0.15000000000E+04  0.10566000000E+00 0.  1.
        994   -1    0    0    0    0 -0.00000000000E+00 -0.00000000000E+00  0.11368683772E-12  0.17120000000E+03  0.17120000000E+03 0.  0.
         13    1    1    2    0    0 -0.66246451392E+00  0.11932771315E+02  0.65022310838E+02  0.66111587193E+02  0.10566000000E+00 0.  1.
        994    1    1    2    0    0  0.77131187805E-01 -0.51368354878E+01  0.12217936876E+01  0.17128142283E+03  0.17120000000E+03 0.  0.
        998    1    1    2    0    0  0.58533332611E+00 -0.67959358273E+01  0.14337558918E+04  0.14338069900E+04  0.10000000000E+02 0.  0.
</event>
<event>
 5    1  0.1321379E-008  0.3860677E+03  0.7957747E-01  0.3425157E+00
         13   -1    0    0    0    0  0.00000000000E+00  0.00000000000E+00  0.14999999963E+04  0.15000000000E+04  0.10566000000E+00 0.  1.
        994   -1    0    0    0    0 -0.00000000000E+00 -0.00000000000E+00  0.11368683772E-12  0.17120000000E+03  0.17120000000E+03 0.  0.
         13    1    1    2    0    0  0.11820382942E+02 -0.40362901819E+01  0.67278573737E+02  0.68428289029E+02  0.10566000000E+00 0.  1.
        994    1    1    2    0    0 -0.14223087323E+02  0.10042993001E+02  0.20951555782E+01  0.17209586746E+03  0.17120000000E+03 0.  0.
        998    1    1    2    0    0  0.24027043809E+01 -0.60067028194E+01  0.14306262670E+04  0.14306758435E+04  0.10000000000E+02 0.  1.
</event>
